                         Program Version 4.2.0 -  RELEASE  -
|  1> # ORCA input file
|  2> # SCF done       -204.249891985449          0.000758412056
|  3> ! CAM-B3LYP def2-SVP def2/J RIJCOSX Grid4 TightSCF
|  4> %maxcore 5000
|  5> %tddft
|  6>     Mode sTDDFT
|  7>     Ethresh 5.0
|  8>     maxcore 5000
|  9> end
| 10>
| 11> %pal
| 12>   nprocs 6
| 13>   end
| 14> * xyz 0 1
| 15>    C       -0.29234         3.56483         4.96333
| 16>    C        0.57049         4.62305         4.84161
| 17>    C        1.11980         5.31340         5.93963
| 18>    N        1.58914         5.90703         6.80268
| 19>    C        1.08179         5.05261         3.60001
| 20>    N        1.55463         5.38377         2.60740
| 21>    C       -0.62056         2.87698         6.20617
| 22>    C       -1.05568         1.55670         5.88744
| 23>    C       -1.38937         0.66008         6.86093
| 24>    C       -1.31394         1.05401         8.21636
| 25>    C       -0.89964         2.37869         8.53867
| 26>    C       -0.55091         3.28442         7.51018
| 27>    C       -0.83869         2.76011         9.89418
| 28>    C       -1.16497         1.87584        10.88601
| 29>    C       -1.56933         0.57093        10.56820
| 30>    C       -1.64247         0.16910         9.26205
| 31>    C       -1.08053         1.39091         4.42213
| 32>    O       -1.34028         0.39534         3.78464
| 33>    C       -0.77972         2.74358         3.87633
| 34>    C       -1.06774         3.03506         2.57864
| 35>    C       -1.27931         4.30029         1.98364
| 36>    C       -1.22981         4.56943         0.62395
| 37>    C       -1.53815         5.89571         0.34823
| 38>    C       -1.88254         6.64797         1.50329
| 39>    S       -1.77987         5.69998         2.93354
| 40>    C       -2.19654         7.92961         1.07463
| 41>    C       -2.02753         7.93179        -0.33639
| 42>    N       -1.62035         6.69423        -0.76025
| 43>    C       -1.35750         6.29320        -2.11395
| 44>    C       -2.31171         9.15717        -0.92160
| 45>    C       -2.69775        10.09945         0.02518
| 46>    S       -2.70790         9.47031         1.66705
| 47>    C       -3.07535        11.44277        -0.22593
| 48>    C       -3.46286        12.29720         0.83169
| 49>    C       -3.88727        13.65521         0.61615
| 50>    N       -4.24302        14.40650         1.66261
| 51>    C       -4.20902        13.90837         2.87443
| 52>    C       -3.79208        12.55468         3.08854
| 53>    N       -3.43675        11.80491         2.07396
| 54>    C       -3.76249        12.01205         4.39687
| 55>    N       -3.75516        11.60456         5.46727
| 56>    C       -4.58879        14.71937         3.97213
| 57>    N       -4.88894        15.34062         4.88630
| 58>    C       -3.95341        14.23608        -0.67174
| 59>    C       -3.54239        13.39290        -1.73388
| 60>    C       -3.11241        12.02672        -1.51578
| 61>    N       -2.77969        11.43029        -2.66020
| 62>    S       -2.97796        12.45962        -3.87685
| 63>    N       -3.49993        13.71787        -3.02555
| 64>    C       -4.42324        15.56147        -0.85173
| 65>    C       -4.55308        16.23654        -2.06204
| 66>    C       -5.07801        17.50700        -1.88326
| 67>    C       -5.35238        17.81855        -0.52391
| 68>    S       -4.94554        16.51269         0.53062
| 69>    C       -5.88522        19.10191        -0.50382
| 70>    C       -5.92300        19.54168        -1.85916
| 71>    N       -5.43615        18.55973        -2.68390
| 72>    C       -5.28565        18.64839        -4.10927
| 73>    C       -6.45164        20.80780        -1.99863
| 74>    C       -6.83013        21.35851        -0.76554
| 75>    S       -6.50455        20.27958         0.58913
| 76>    C       -7.42590        22.62627        -0.69701
| 77>    C       -7.89194        23.33949         0.37841
| 78>    C       -8.53655        24.63658         0.32041
| 79>    C       -8.80513        25.38451        -0.79939
| 80>    C       -9.44262        26.64220        -0.77536
| 81>    N       -9.95451        27.66857        -0.83214
| 82>    C       -8.49835        25.02731        -2.12766
| 83>    N       -8.28804        24.81725        -3.23813
| 84>    C       -8.87143        25.02354         1.68823
| 85>    C       -8.43485        23.99416         2.57050
| 86>    C       -7.81830        22.91572         1.78379
| 87>    O       -7.34312        21.88224         2.21945
| 88>    C       -8.60719        24.07457         3.92152
| 89>    C       -9.24417        25.21244         4.46621
| 90>    C       -9.69214        26.24385         3.59190
| 91>    C       -9.49407        26.13268         2.19558
| 92>    C      -10.33354        27.37048         4.14479
| 93>    C      -10.52198        27.47617         5.49628
| 94>    C      -10.07685        26.46171         6.35633
| 95>    C       -9.45157        25.35341         5.85204
| 96>    H       -1.70745        -0.33890         6.60212
| 97>    H       -0.24790         4.28492         7.77721
| 98>    H       -0.52398         3.76505        10.13378
| 99>    H       -1.11260         2.17708        11.92155
|100>    H       -1.82301        -0.11421        11.36320
|101>    H       -1.95395        -0.83438         9.01138
|102>    H       -1.23795         2.17677         1.93528
|103>    H       -0.94688         3.82767        -0.10040
|104>    H       -1.18104         7.17907        -2.72057
|105>    H       -2.20363         5.73951        -2.53138
|106>    H       -0.47163         5.65810        -2.14420
|107>    H       -2.25903         9.39399        -1.96744
|108>    H       -4.27062        15.78688        -2.99508
|109>    H       -6.14123        19.17206        -4.53625
|110>    H       -5.23679        17.64491        -4.52807
|111>    H       -4.37311        19.18928        -4.37710
|112>    H       -6.57932        21.33962        -2.92444
|113>    H       -7.53537        23.09170        -1.66917
|114>    H       -8.26363        23.27939         4.56634
|115>    H       -9.84370        26.93312         1.56338
|116>    H      -10.67424        28.14953         3.47864
|117>    H      -11.01533        28.34303         5.90974
|118>    H      -10.23195        26.56205         7.42019
|119>    H       -9.10708        24.56823         6.50899
|120> *
|121>
|122>                          ****END OF INPUT****

CARTESIAN COORDINATES (ANGSTROEM)
---------------------------------
  C     -0.292340    3.564830    4.963330
  C      0.570490    4.623050    4.841610
  C      1.119800    5.313400    5.939630
  N      1.589140    5.907030    6.802680
  C      1.081790    5.052610    3.600010
  N      1.554630    5.383770    2.607400
  C     -0.620560    2.876980    6.206170
  C     -1.055680    1.556700    5.887440
  C     -1.389370    0.660080    6.860930
  C     -1.313940    1.054010    8.216360
  C     -0.899640    2.378690    8.538670
  C     -0.550910    3.284420    7.510180
  C     -0.838690    2.760110    9.894180
  C     -1.164970    1.875840   10.886010
  C     -1.569330    0.570930   10.568200
  C     -1.642470    0.169100    9.262050
  C     -1.080530    1.390910    4.422130
  O     -1.340280    0.395340    3.784640
  C     -0.779720    2.743580    3.876330
  C     -1.067740    3.035060    2.578640
  C     -1.279310    4.300290    1.983640
  C     -1.229810    4.569430    0.623950
  C     -1.538150    5.895710    0.348230
  C     -1.882540    6.647970    1.503290
  S     -1.779870    5.699980    2.933540
  C     -2.196540    7.929610    1.074630
  C     -2.027530    7.931790   -0.336390
  N     -1.620350    6.694230   -0.760250
  C     -1.357500    6.293200   -2.113950
  C     -2.311710    9.157170   -0.921600
  C     -2.697750   10.099450    0.025180
  S     -2.707900    9.470310    1.667050
  C     -3.075350   11.442770   -0.225930
  C     -3.462860   12.297200    0.831690
  C     -3.887270   13.655210    0.616150
  N     -4.243020   14.406500    1.662610
  C     -4.209020   13.908370    2.874430
  C     -3.792080   12.554680    3.088540
  N     -3.436750   11.804910    2.073960
  C     -3.762490   12.012050    4.396870
  N     -3.755160   11.604560    5.467270
  C     -4.588790   14.719370    3.972130
  N     -4.888940   15.340620    4.886300
  C     -3.953410   14.236080   -0.671740
  C     -3.542390   13.392900   -1.733880
  C     -3.112410   12.026720   -1.515780
  N     -2.779690   11.430290   -2.660200
  S     -2.977960   12.459620   -3.876850
  N     -3.499930   13.717870   -3.025550
  C     -4.423240   15.561470   -0.851730
  C     -4.553080   16.236540   -2.062040
  C     -5.078010   17.507000   -1.883260
  C     -5.352380   17.818550   -0.523910
  S     -4.945540   16.512690    0.530620
  C     -5.885220   19.101910   -0.503820
  C     -5.923000   19.541680   -1.859160
  N     -5.436150   18.559730   -2.683900
  C     -5.285650   18.648390   -4.109270
  C     -6.451640   20.807800   -1.998630
  C     -6.830130   21.358510   -0.765540
  S     -6.504550   20.279580    0.589130
  C     -7.425900   22.626270   -0.697010
  C     -7.891940   23.339490    0.378410
  C     -8.536550   24.636580    0.320410
  C     -8.805130   25.384510   -0.799390
  C     -9.442620   26.642200   -0.775360
  N     -9.954510   27.668570   -0.832140
  C     -8.498350   25.027310   -2.127660
  N     -8.288040   24.817250   -3.238130
  C     -8.871430   25.023540    1.688230
  C     -8.434850   23.994160    2.570500
  C     -7.818300   22.915720    1.783790
  O     -7.343120   21.882240    2.219450
  C     -8.607190   24.074570    3.921520
  C     -9.244170   25.212440    4.466210
  C     -9.692140   26.243850    3.591900
  C     -9.494070   26.132680    2.195580
  C    -10.333540   27.370480    4.144790
  C    -10.521980   27.476170    5.496280
  C    -10.076850   26.461710    6.356330
  C     -9.451570   25.353410    5.852040
  H     -1.707450   -0.338900    6.602120
  H     -0.247900    4.284920    7.777210
  H     -0.523980    3.765050   10.133780
  H     -1.112600    2.177080   11.921550
  H     -1.823010   -0.114210   11.363200
  H     -1.953950   -0.834380    9.011380
  H     -1.237950    2.176770    1.935280
  H     -0.946880    3.827670   -0.100400
  H     -1.181040    7.179070   -2.720570
  H     -2.203630    5.739510   -2.531380
  H     -0.471630    5.658100   -2.144200
  H     -2.259030    9.393990   -1.967440
  H     -4.270620   15.786880   -2.995080
  H     -6.141230   19.172060   -4.536250
  H     -5.236790   17.644910   -4.528070
  H     -4.373110   19.189280   -4.377100
  H     -6.579320   21.339620   -2.924440
  H     -7.535370   23.091700   -1.669170
  H     -8.263630   23.279390    4.566340
  H     -9.843700   26.933120    1.563380
  H    -10.674240   28.149530    3.478640
  H    -11.015330   28.343030    5.909740
  H    -10.231950   26.562050    7.420190
  H     -9.107080   24.568230    6.508990

 Total Charge           Charge          ....    0
 Multiplicity           Mult            ....    1
 Number of Electrons    NEL             ....  576
 Basis Dimension        Dim             .... 1274

ORBITAL ENERGIES
----------------

  NO   OCC          E(Eh)            E(eV)
   0   2.0000     -89.053681     -2423.2739
   1   2.0000     -88.965135     -2420.8644
   2   2.0000     -88.959901     -2420.7220
   3   2.0000     -88.958629     -2420.6874
   4   2.0000     -88.957574     -2420.6587
   5   2.0000     -19.211161      -522.7623
   6   2.0000     -19.207392      -522.6597
   7   2.0000     -14.477558      -393.9544
   8   2.0000     -14.473037      -393.8313
   9   2.0000     -14.469647      -393.7391
  10   2.0000     -14.469018      -393.7220
  11   2.0000     -14.464662      -393.6035
  12   2.0000     -14.464153      -393.5896
  13   2.0000     -14.432315      -392.7232
  14   2.0000     -14.432238      -392.7212
  15   2.0000     -14.410365      -392.1260
  16   2.0000     -14.407803      -392.0562
  17   2.0000     -14.405616      -391.9967
  18   2.0000     -14.405455      -391.9924
  19   2.0000     -10.388195      -282.6771
  20   2.0000     -10.387772      -282.6656
  21   2.0000     -10.359513      -281.8967
  22   2.0000     -10.359373      -281.8929
  23   2.0000     -10.353707      -281.7387
  24   2.0000     -10.353458      -281.7319
  25   2.0000     -10.352792      -281.7138
  26   2.0000     -10.352529      -281.7066
  27   2.0000     -10.334847      -281.2255
  28   2.0000     -10.333206      -281.1808
  29   2.0000     -10.332808      -281.1700
  30   2.0000     -10.331165      -281.1253
  31   2.0000     -10.330390      -281.1042
  32   2.0000     -10.327988      -281.0388
  33   2.0000     -10.325600      -280.9739
  34   2.0000     -10.325445      -280.9696
  35   2.0000     -10.325209      -280.9632
  36   2.0000     -10.323904      -280.9277
  37   2.0000     -10.322125      -280.8793
  38   2.0000     -10.319994      -280.8213
  39   2.0000     -10.319859      -280.8176
  40   2.0000     -10.319768      -280.8152
  41   2.0000     -10.319565      -280.8096
  42   2.0000     -10.317895      -280.7642
  43   2.0000     -10.317674      -280.7582
  44   2.0000     -10.315468      -280.6982
  45   2.0000     -10.314976      -280.6848
  46   2.0000     -10.314058      -280.6598
  47   2.0000     -10.313758      -280.6516
  48   2.0000     -10.310283      -280.5571
  49   2.0000     -10.309316      -280.5307
  50   2.0000     -10.308589      -280.5110
  51   2.0000     -10.308144      -280.4988
  52   2.0000     -10.301461      -280.3170
  53   2.0000     -10.300061      -280.2789
  54   2.0000     -10.298106      -280.2257
  55   2.0000     -10.297440      -280.2076
  56   2.0000     -10.296918      -280.1934
  57   2.0000     -10.294963      -280.1402
  58   2.0000     -10.294897      -280.1384
  59   2.0000     -10.292057      -280.0611
  60   2.0000     -10.291768      -280.0532
  61   2.0000     -10.291239      -280.0388
  62   2.0000     -10.290934      -280.0306
  63   2.0000     -10.290649      -280.0228
  64   2.0000     -10.290647      -280.0227
  65   2.0000     -10.290369      -280.0152
  66   2.0000     -10.290323      -280.0139
  67   2.0000     -10.289153      -279.9821
  68   2.0000     -10.289015      -279.9783
  69   2.0000     -10.288741      -279.9709
  70   2.0000     -10.288161      -279.9551
  71   2.0000     -10.283433      -279.8264
  72   2.0000     -10.281254      -279.7672
  73   2.0000     -10.280777      -279.7542
  74   2.0000     -10.280776      -279.7541
  75   2.0000     -10.280490      -279.7463
  76   2.0000     -10.280377      -279.7433
  77   2.0000     -10.279864      -279.7293
  78   2.0000     -10.279745      -279.7261
  79   2.0000     -10.279579      -279.7216
  80   2.0000     -10.279094      -279.7084
  81   2.0000      -8.145061      -221.6384
  82   2.0000      -8.059517      -219.3106
  83   2.0000      -8.052755      -219.1266
  84   2.0000      -8.051633      -219.0961
  85   2.0000      -8.050344      -219.0610
  86   2.0000      -6.116270      -166.4322
  87   2.0000      -6.108356      -166.2168
  88   2.0000      -6.107697      -166.1989
  89   2.0000      -6.029248      -164.0642
  90   2.0000      -6.025092      -163.9511
  91   2.0000      -6.022787      -163.8884
  92   2.0000      -6.021559      -163.8549
  93   2.0000      -6.020864      -163.8360
  94   2.0000      -6.020167      -163.8171
  95   2.0000      -6.018063      -163.7598
  96   2.0000      -6.016932      -163.7290
  97   2.0000      -6.015581      -163.6923
  98   2.0000      -6.014077      -163.6514
  99   2.0000      -6.013033      -163.6229
 100   2.0000      -6.011815      -163.5898
 101   2.0000      -1.151482       -31.3334
 102   2.0000      -1.129971       -30.7481
 103   2.0000      -1.126988       -30.6669
 104   2.0000      -1.122333       -30.5402
 105   2.0000      -1.104921       -30.0664
 106   2.0000      -1.100984       -29.9593
 107   2.0000      -1.057856       -28.7857
 108   2.0000      -1.018010       -27.7014
 109   2.0000      -1.011656       -27.5285
 110   2.0000      -1.010844       -27.5065
 111   2.0000      -1.009839       -27.4791
 112   2.0000      -1.005345       -27.3568
 113   2.0000      -0.994857       -27.0714
 114   2.0000      -0.991906       -26.9911
 115   2.0000      -0.991142       -26.9704
 116   2.0000      -0.989086       -26.9144
 117   2.0000      -0.986245       -26.8371
 118   2.0000      -0.982279       -26.7292
 119   2.0000      -0.980728       -26.6870
 120   2.0000      -0.978494       -26.6262
 121   2.0000      -0.966528       -26.3006
 122   2.0000      -0.964518       -26.2459
 123   2.0000      -0.963456       -26.2170
 124   2.0000      -0.920422       -25.0460
 125   2.0000      -0.918536       -24.9946
 126   2.0000      -0.915681       -24.9169
 127   2.0000      -0.912780       -24.8380
 128   2.0000      -0.904240       -24.6056
 129   2.0000      -0.896477       -24.3944
 130   2.0000      -0.886873       -24.1330
 131   2.0000      -0.880109       -23.9490
 132   2.0000      -0.875279       -23.8175
 133   2.0000      -0.873829       -23.7781
 134   2.0000      -0.863792       -23.5050
 135   2.0000      -0.857682       -23.3387
 136   2.0000      -0.849923       -23.1276
 137   2.0000      -0.845282       -23.0013
 138   2.0000      -0.844119       -22.9696
 139   2.0000      -0.842131       -22.9155
 140   2.0000      -0.841617       -22.9016
 141   2.0000      -0.822410       -22.3789
 142   2.0000      -0.821333       -22.3496
 143   2.0000      -0.815392       -22.1879
 144   2.0000      -0.814219       -22.1560
 145   2.0000      -0.801146       -21.8003
 146   2.0000      -0.796148       -21.6643
 147   2.0000      -0.776880       -21.1400
 148   2.0000      -0.771052       -20.9814
 149   2.0000      -0.762379       -20.7454
 150   2.0000      -0.755055       -20.5461
 151   2.0000      -0.752984       -20.4897
 152   2.0000      -0.748637       -20.3714
 153   2.0000      -0.736577       -20.0433
 154   2.0000      -0.718223       -19.5438
 155   2.0000      -0.712816       -19.3967
 156   2.0000      -0.712251       -19.3813
 157   2.0000      -0.701225       -19.0813
 158   2.0000      -0.697691       -18.9851
 159   2.0000      -0.695925       -18.9371
 160   2.0000      -0.693211       -18.8632
 161   2.0000      -0.687976       -18.7208
 162   2.0000      -0.678171       -18.4540
 163   2.0000      -0.671764       -18.2796
 164   2.0000      -0.670125       -18.2350
 165   2.0000      -0.668573       -18.1928
 166   2.0000      -0.660296       -17.9676
 167   2.0000      -0.657356       -17.8876
 168   2.0000      -0.651890       -17.7388
 169   2.0000      -0.647976       -17.6323
 170   2.0000      -0.647348       -17.6152
 171   2.0000      -0.642071       -17.4716
 172   2.0000      -0.629998       -17.1431
 173   2.0000      -0.628714       -17.1082
 174   2.0000      -0.626208       -17.0400
 175   2.0000      -0.624390       -16.9905
 176   2.0000      -0.609340       -16.5810
 177   2.0000      -0.606467       -16.5028
 178   2.0000      -0.601432       -16.3658
 179   2.0000      -0.600930       -16.3521
 180   2.0000      -0.599504       -16.3133
 181   2.0000      -0.596868       -16.2416
 182   2.0000      -0.593801       -16.1581
 183   2.0000      -0.588344       -16.0096
 184   2.0000      -0.586196       -15.9512
 185   2.0000      -0.578338       -15.7374
 186   2.0000      -0.575757       -15.6671
 187   2.0000      -0.572777       -15.5861
 188   2.0000      -0.567719       -15.4484
 189   2.0000      -0.565714       -15.3939
 190   2.0000      -0.564484       -15.3604
 191   2.0000      -0.559278       -15.2187
 192   2.0000      -0.549704       -14.9582
 193   2.0000      -0.547102       -14.8874
 194   2.0000      -0.540965       -14.7204
 195   2.0000      -0.540281       -14.7018
 196   2.0000      -0.537195       -14.6178
 197   2.0000      -0.534535       -14.5454
 198   2.0000      -0.531458       -14.4617
 199   2.0000      -0.530767       -14.4429
 200   2.0000      -0.529313       -14.4033
 201   2.0000      -0.527784       -14.3617
 202   2.0000      -0.525361       -14.2958
 203   2.0000      -0.523483       -14.2447
 204   2.0000      -0.517453       -14.0806
 205   2.0000      -0.515619       -14.0307
 206   2.0000      -0.512394       -13.9430
 207   2.0000      -0.511402       -13.9159
 208   2.0000      -0.510943       -13.9035
 209   2.0000      -0.508321       -13.8321
 210   2.0000      -0.505962       -13.7679
 211   2.0000      -0.504891       -13.7388
 212   2.0000      -0.502756       -13.6807
 213   2.0000      -0.499981       -13.6052
 214   2.0000      -0.499023       -13.5791
 215   2.0000      -0.498161       -13.5556
 216   2.0000      -0.494641       -13.4599
 217   2.0000      -0.493451       -13.4275
 218   2.0000      -0.491267       -13.3680
 219   2.0000      -0.489870       -13.3300
 220   2.0000      -0.488938       -13.3047
 221   2.0000      -0.486906       -13.2494
 222   2.0000      -0.482102       -13.1187
 223   2.0000      -0.481742       -13.1089
 224   2.0000      -0.481398       -13.0995
 225   2.0000      -0.480245       -13.0681
 226   2.0000      -0.475720       -12.9450
 227   2.0000      -0.471355       -12.8262
 228   2.0000      -0.469151       -12.7662
 229   2.0000      -0.466202       -12.6860
 230   2.0000      -0.461224       -12.5506
 231   2.0000      -0.459384       -12.5005
 232   2.0000      -0.458883       -12.4868
 233   2.0000      -0.457625       -12.4526
 234   2.0000      -0.457066       -12.4374
 235   2.0000      -0.455468       -12.3939
 236   2.0000      -0.449972       -12.2444
 237   2.0000      -0.447825       -12.1859
 238   2.0000      -0.444158       -12.0862
 239   2.0000      -0.443190       -12.0598
 240   2.0000      -0.441630       -12.0174
 241   2.0000      -0.438329       -11.9275
 242   2.0000      -0.437133       -11.8950
 243   2.0000      -0.434346       -11.8191
 244   2.0000      -0.434166       -11.8143
 245   2.0000      -0.432920       -11.7804
 246   2.0000      -0.428778       -11.6676
 247   2.0000      -0.427949       -11.6451
 248   2.0000      -0.427357       -11.6290
 249   2.0000      -0.426839       -11.6149
 250   2.0000      -0.426040       -11.5931
 251   2.0000      -0.423635       -11.5277
 252   2.0000      -0.423365       -11.5204
 253   2.0000      -0.419952       -11.4275
 254   2.0000      -0.418939       -11.3999
 255   2.0000      -0.417610       -11.3638
 256   2.0000      -0.416674       -11.3383
 257   2.0000      -0.415574       -11.3083
 258   2.0000      -0.412253       -11.2180
 259   2.0000      -0.409433       -11.1412
 260   2.0000      -0.402842       -10.9619
 261   2.0000      -0.400704       -10.9037
 262   2.0000      -0.397273       -10.8103
 263   2.0000      -0.396581       -10.7915
 264   2.0000      -0.391880       -10.6636
 265   2.0000      -0.390054       -10.6139
 266   2.0000      -0.378151       -10.2900
 267   2.0000      -0.376994       -10.2585
 268   2.0000      -0.374558       -10.1922
 269   2.0000      -0.367542       -10.0013
 270   2.0000      -0.363387        -9.8883
 271   2.0000      -0.356608        -9.7038
 272   2.0000      -0.347306        -9.4507
 273   2.0000      -0.346145        -9.4191
 274   2.0000      -0.336141        -9.1469
 275   2.0000      -0.333344        -9.0707
 276   2.0000      -0.331785        -9.0283
 277   2.0000      -0.326081        -8.8731
 278   2.0000      -0.325598        -8.8600
 279   2.0000      -0.311629        -8.4798
 280   2.0000      -0.309616        -8.4251
 281   2.0000      -0.300355        -8.1731
 282   2.0000      -0.289120        -7.8673
 283   2.0000      -0.287129        -7.8132
 284   2.0000      -0.280691        -7.6380
 285   2.0000      -0.277471        -7.5504
 286   2.0000      -0.262160        -7.1337
 287   2.0000      -0.229047        -6.2327
 288   0.0000      -0.135659        -3.6915
 289   0.0000      -0.087354        -2.3770
 290   0.0000      -0.084656        -2.3036
 291   0.0000      -0.057533        -1.5655
 292   0.0000      -0.050911        -1.3854

MULLIKEN ATOMIC CHARGES
-----------------------
   0 C :    0.243030
   1 C :   -0.315002
   2 C :   -0.179926
   3 N :    0.153886
   4 C :   -0.200069
   5 N :    0.164060
   6 C :    0.035923
   7 C :    0.011593
   8 C :   -0.083486
   9 C :    0.093166
  10 C :    0.094640
  11 C :   -0.078626
  12 C :   -0.015619
  13 C :    0.033715
  14 C :    0.034453
  15 C :   -0.014160
  16 C :    0.142030
  17 O :   -0.147294
  18 C :   -0.136022
  19 C :    0.043568
  20 C :   -0.095897
  21 C :   -0.043641
  22 C :    0.179621
  23 C :   -0.112956
  24 S :    0.170254
  25 C :   -0.080714
  26 C :    0.193520
  27 N :   -0.164520
  28 C :    0.124922
  29 C :   -0.121151
  30 C :   -0.165825
  31 S :    0.168481
  32 C :    0.188138
  33 C :   -0.060977
  34 C :   -0.057545
  35 N :    0.004754
  36 C :   -0.103697
  37 C :   -0.102857
  38 N :    0.001059
  39 C :   -0.236267
  40 N :    0.248989
  41 C :   -0.234695
  42 N :    0.248203
  43 C :    0.186324
  44 C :   -0.013121
  45 C :   -0.010397
  46 N :   -0.292302
  47 S :    0.544638
  48 N :   -0.292376
  49 C :   -0.166625
  50 C :   -0.127860
  51 C :    0.207301
  52 C :   -0.091833
  53 S :    0.170272
  54 C :   -0.099667
  55 C :    0.217606
  56 N :   -0.170882
  57 C :    0.126976
  58 C :   -0.135681
  59 C :   -0.045459
  60 S :    0.210290
  61 C :   -0.034892
  62 C :   -0.094280
  63 C :    0.337740
  64 C :   -0.366726
  65 C :   -0.184960
  66 N :    0.143827
  67 C :   -0.184022
  68 N :    0.131096
  69 C :    0.041804
  70 C :   -0.000332
  71 C :    0.164542
  72 O :   -0.177513
  73 C :   -0.082598
  74 C :    0.097337
  75 C :    0.096025
  76 C :   -0.084557
  77 C :   -0.019297
  78 C :    0.036541
  79 C :    0.034049
  80 C :   -0.017738
  81 H :   -0.014116
  82 H :   -0.005613
  83 H :   -0.011051
  84 H :   -0.005593
  85 H :   -0.006585
  86 H :   -0.020003
  87 H :    0.024125
  88 H :   -0.013590
  89 H :    0.043361
  90 H :    0.043241
  91 H :    0.046067
  92 H :   -0.009753
  93 H :   -0.011563
  94 H :    0.042753
  95 H :    0.039998
  96 H :    0.043860
  97 H :   -0.003734
  98 H :    0.003467
  99 H :   -0.013255
 100 H :   -0.010749
 101 H :   -0.010089
 102 H :   -0.007349
 103 H :   -0.006024
 104 H :   -0.018117
Sum of atomic charges:    0.0000000

LOEWDIN ATOMIC CHARGES
----------------------
   0 C :    0.059596
   1 C :   -0.141789
   2 C :   -0.019679
   3 N :   -0.052933
   4 C :   -0.031688
   5 N :   -0.054901
   6 C :   -0.021609
   7 C :   -0.056539
   8 C :    0.030832
   9 C :   -0.009869
  10 C :   -0.005395
  11 C :    0.015419
  12 C :   -0.006328
  13 C :   -0.014042
  14 C :   -0.014890
  15 C :   -0.009887
  16 C :    0.082693
  17 O :   -0.149033
  18 C :   -0.098754
  19 C :    0.046565
  20 C :   -0.165460
  21 C :   -0.031723
  22 C :   -0.007292
  23 C :   -0.198554
  24 S :    0.451705
  25 C :   -0.215463
  26 C :   -0.007623
  27 N :    0.028386
  28 C :    0.040719
  29 C :   -0.053855
  30 C :   -0.153249
  31 S :    0.454683
  32 C :   -0.040117
  33 C :   -0.013293
  34 C :   -0.012088
  35 N :   -0.012777
  36 C :   -0.020483
  37 C :   -0.021966
  38 N :   -0.012451
  39 C :   -0.038212
  40 N :    0.000554
  41 C :   -0.037930
  42 N :    0.001430
  43 C :   -0.044322
  44 C :   -0.034460
  45 C :   -0.035703
  46 N :   -0.277546
  47 S :    0.666171
  48 N :   -0.277893
  49 C :   -0.150235
  50 C :   -0.059641
  51 C :   -0.002366
  52 C :   -0.221958
  53 S :    0.457295
  54 C :   -0.204261
  55 C :   -0.013297
  56 N :    0.020080
  57 C :    0.040565
  58 C :   -0.039974
  59 C :   -0.171044
  60 S :    0.491286
  61 C :    0.051144
  62 C :   -0.112811
  63 C :    0.078787
  64 C :   -0.151111
  65 C :   -0.017590
  66 N :   -0.061890
  67 C :   -0.019421
  68 N :   -0.065730
  69 C :   -0.025040
  70 C :   -0.053617
  71 C :    0.082424
  72 O :   -0.166155
  73 C :    0.030277
  74 C :   -0.008969
  75 C :   -0.007269
  76 C :    0.018098
  77 C :   -0.006183
  78 C :   -0.015350
  79 C :   -0.013988
  80 C :   -0.010114
  81 H :    0.038357
  82 H :    0.038769
  83 H :    0.034227
  84 H :    0.032680
  85 H :    0.032098
  86 H :    0.030916
  87 H :    0.050185
  88 H :    0.036873
  89 H :    0.037430
  90 H :    0.029781
  91 H :    0.035859
  92 H :    0.028693
  93 H :    0.028030
  94 H :    0.034774
  95 H :    0.035782
  96 H :    0.029894
  97 H :    0.037850
  98 H :    0.049097
  99 H :    0.038971
 100 H :    0.038466
 101 H :    0.034295
 102 H :    0.032203
 103 H :    0.032203
 104 H :    0.031668

  Mayer bond orders larger than 0.100000
B(  0-C ,  1-C ) :   1.6553 B(  0-C ,  6-C ) :   0.9992 B(  0-C , 18-C ) :   1.0427
B(  1-C ,  2-C ) :   1.1394 B(  1-C ,  4-C ) :   1.1516 B(  2-C ,  3-N ) :   2.9916
B(  4-C ,  5-N ) :   3.0203 B(  6-C ,  7-C ) :   1.2141 B(  6-C , 11-C ) :   1.4626
B(  7-C ,  8-C ) :   1.4779 B(  7-C , 16-C ) :   0.9208 B(  8-C ,  9-C ) :   1.1842
B(  8-C , 81-H ) :   1.0150 B(  9-C , 10-C ) :   1.2570 B(  9-C , 15-C ) :   1.2473
B( 10-C , 11-C ) :   1.2016 B( 10-C , 12-C ) :   1.2423 B( 11-C , 82-H ) :   0.9947
B( 12-C , 13-C ) :   1.4893 B( 12-C , 83-H ) :   0.9972 B( 13-C , 14-C ) :   1.2603
B( 13-C , 84-H ) :   0.9890 B( 14-C , 15-C ) :   1.4890 B( 14-C , 85-H ) :   0.9887
B( 15-C , 86-H ) :   0.9966 B( 16-C , 17-O ) :   2.2708 B( 16-C , 18-C ) :   0.9400
B( 18-C , 19-C ) :   1.6247 B( 19-C , 20-C ) :   1.1528 B( 19-C , 87-H ) :   0.9481
B( 20-C , 21-C ) :   1.3969 B( 20-C , 24-S ) :   1.0924 B( 21-C , 22-C ) :   1.2511
B( 21-C , 88-H ) :   1.0176 B( 22-C , 23-C ) :   1.3333 B( 22-C , 27-N ) :   1.1470
B( 23-C , 24-S ) :   1.0467 B( 23-C , 25-C ) :   1.4423 B( 25-C , 26-C ) :   1.3408
B( 25-C , 31-S ) :   0.9816 B( 26-C , 27-N ) :   1.1453 B( 26-C , 29-C ) :   1.2218
B( 27-N , 28-C ) :   0.9668 B( 28-C , 89-H ) :   0.9726 B( 28-C , 90-H ) :   0.9732
B( 28-C , 91-H ) :   0.9712 B( 29-C , 30-C ) :   1.4090 B( 29-C , 92-H ) :   1.0000
B( 30-C , 31-S ) :   1.0833 B( 30-C , 32-C ) :   1.2406 B( 32-C , 33-C ) :   1.2399
B( 32-C , 43-C ) :   0.1155 B( 32-C , 45-C ) :   1.1856 B( 33-C , 34-C ) :   1.1098
B( 33-C , 38-N ) :   1.4075 B( 34-C , 35-N ) :   1.4061 B( 34-C , 43-C ) :   1.2453
B( 35-N , 36-C ) :   1.6966 B( 36-C , 37-C ) :   1.2191 B( 36-C , 41-C ) :   1.1649
B( 37-C , 38-N ) :   1.6911 B( 37-C , 39-C ) :   1.1646 B( 39-C , 40-N ) :   3.0376
B( 41-C , 42-N ) :   3.0362 B( 43-C , 44-C ) :   1.1850 B( 43-C , 49-C ) :   1.2345
B( 44-C , 45-C ) :   1.0987 B( 44-C , 48-N ) :   1.5214 B( 45-C , 46-N ) :   1.5204
B( 46-N , 47-S ) :   1.2700 B( 46-N , 48-N ) :   0.1474 B( 47-S , 48-N ) :   1.2681
B( 49-C , 50-C ) :   1.4062 B( 49-C , 53-S ) :   1.0920 B( 50-C , 51-C ) :   1.2205
B( 50-C , 93-H ) :   1.0007 B( 51-C , 52-C ) :   1.3413 B( 51-C , 56-N ) :   1.1423
B( 52-C , 53-S ) :   0.9834 B( 52-C , 54-C ) :   1.4251 B( 54-C , 55-C ) :   1.3016
B( 54-C , 60-S ) :   1.0137 B( 55-C , 56-N ) :   1.1336 B( 55-C , 58-C ) :   1.2660
B( 56-N , 57-C ) :   0.9681 B( 57-C , 94-H ) :   0.9712 B( 57-C , 95-H ) :   0.9723
B( 57-C , 96-H ) :   0.9738 B( 58-C , 59-C ) :   1.3095 B( 58-C , 97-H ) :   1.0337
B( 59-C , 60-S ) :   1.0758 B( 59-C , 61-C ) :   1.2958 B( 61-C , 62-C ) :   1.4636
B( 61-C , 98-H ) :   0.9370 B( 62-C , 63-C ) :   1.0929 B( 62-C , 71-C ) :   0.9752
B( 63-C , 64-C ) :   1.6021 B( 63-C , 69-C ) :   0.9803 B( 64-C , 65-C ) :   1.1521
B( 64-C , 67-C ) :   1.1476 B( 65-C , 66-N ) :   2.9594 B( 67-C , 68-N ) :   2.9506
B( 69-C , 70-C ) :   1.2148 B( 69-C , 76-C ) :   1.4573 B( 70-C , 71-C ) :   0.9567
B( 70-C , 73-C ) :   1.4739 B( 71-C , 72-O ) :   2.1366 B( 73-C , 74-C ) :   1.1731
B( 73-C , 99-H ) :   1.0164 B( 74-C , 75-C ) :   1.2592 B( 74-C , 80-C ) :   1.2458
B( 75-C , 76-C ) :   1.1999 B( 75-C , 77-C ) :   1.2428 B( 76-C ,100-H ) :   0.9888
B( 77-C , 78-C ) :   1.4863 B( 77-C ,101-H ) :   0.9967 B( 78-C , 79-C ) :   1.2626
B( 78-C ,102-H ) :   0.9878 B( 79-C , 80-C ) :   1.4862 B( 79-C ,103-H ) :   0.9891
B( 80-C ,104-H ) :   0.9974

-----------------------------------------------------------------------------
         ABSORPTION SPECTRUM VIA TRANSITION ELECTRIC DIPOLE MOMENTS
-----------------------------------------------------------------------------
State   Energy  Wavelength   fosc         T2         TX        TY        TZ
        (cm-1)    (nm)                  (au**2)     (au)      (au)      (au)
-----------------------------------------------------------------------------
   0    5991.3   1669.1   0.684818723  37.62949  -2.02614   5.70506  -0.98818
   1   14470.1    691.1   0.032210044   0.73282  -0.16646   0.02904   0.83921
   2   15294.6    653.8   0.053023113   1.14131   0.37005  -0.94027   0.34680
   3   15773.9    634.0   0.036817230   0.76840   0.35419  -0.60189  -0.52979
   4   17581.0    568.8   0.916471844  17.16131   1.57808  -3.44721   1.66964
   5   18480.4    541.1   0.720642354  12.83758  -1.40027   3.23761   0.62823
   6   21933.2    455.9   0.085148850   1.27806  -0.51352   1.00244  -0.09736
   7   22496.8    444.5   0.170866543   2.50042   0.25360  -0.91392  -1.26525
   8   22873.6    437.2   0.008597884   0.12375   0.24985  -0.04422  -0.24365
   9   23582.5    424.0   0.024109442   0.33657  -0.04845  -0.49975   0.29065
  10   23767.0    420.8   0.004796865   0.06644  -0.16442  -0.15580   0.12303
  11   24188.2    413.4   0.015605587   0.21240   0.15991  -0.43223   0.00229
  12   24335.0    410.9   0.018277954   0.24727  -0.08137  -0.29780   0.38983
  13   25104.9    398.3   0.039861777   0.52272   0.24021  -0.61359   0.29755
  14   25727.9    388.7   0.111032383   1.42076  -0.21532   0.94358   0.69574
  15   26490.1    377.5   0.159021054   1.97627   0.09169   1.34502  -0.39848
  16   26917.6    371.5   0.080219695   0.98112   0.00298  -0.80904  -0.57146
  17   27044.5    369.8   0.007995932   0.09733  -0.22803   0.05065  -0.20681
  18   27083.5    369.2   0.036001613   0.43762   0.28918  -0.46223   0.37462
  19   27383.3    365.2   0.063010340   0.75753   0.04195  -0.16652  -0.85326
  20   27567.5    362.7   0.019813969   0.23662  -0.07979   0.15468   0.45423
  21   27924.9    358.1   0.049889888   0.58816  -0.13815  -0.46629   0.59300
  22   28173.5    354.9   0.005183996   0.06058  -0.08466   0.20439  -0.10786
  23   28617.0    349.4   0.084007875   0.96643  -0.11011  -0.66184   0.71852
  24   29322.4    341.0   0.224131069   2.51639  -0.23479  -0.93492   1.25984
  25   29558.4    338.3   0.119247664   1.32814   0.09732  -0.16133  -1.13694
  26   29735.9    336.3   0.367922622   4.07335  -0.62622   0.85117   1.71951
  27   30457.8    328.3   0.178410159   1.92840   0.30633  -1.27957   0.44414
  28   30965.2    322.9   0.050127040   0.53293  -0.04908  -0.16559   0.70930
  29   31175.2    320.8   0.189593417   2.00211  -0.58216   0.85866   0.96224
  30   31217.8    320.3   0.253492637   2.67324  -0.03406  -0.07448   1.63295
  31   31507.0    317.4   0.002203103   0.02302  -0.01656  -0.05278   0.14128
  32   31632.4    316.1   0.007681532   0.07995  -0.03399   0.15604   0.23332
  33   31931.4    313.2   0.050106673   0.51660  -0.03063  -0.11741   0.70843
  34   32147.5    311.1   0.001317695   0.01349  -0.00916  -0.08905   0.07403
  35   32363.3    309.0   0.025995190   0.26443  -0.20774   0.34938   0.31498
  36   32631.8    306.5   0.137676085   1.38897  -0.19615  -0.29863   1.12309
  37   32733.5    305.5   0.006825063   0.06864  -0.04556  -0.19246  -0.17183
  38   33453.0    298.9   0.002539330   0.02499  -0.03376  -0.05710   0.14349
  39   33621.3    297.4   0.206239307   2.01945  -0.56541  -1.17653   0.56171
  40   33712.7    296.6   0.008584685   0.08383   0.11518  -0.22480   0.14153
  41   33959.5    294.5   0.054815300   0.53139   0.11417   0.43367   0.57471
  42   34020.1    293.9   0.075795134   0.73347  -0.16831  -0.74607  -0.38538
  43   34181.7    292.6   0.062343812   0.60045  -0.28513   0.19093   0.69476
  44   34389.8    290.8   0.061487223   0.58861   0.35310  -0.18076  -0.65671
  45   34646.8    288.6   0.106877402   1.01554   0.09350   0.04620  -1.00233
  46   34759.1    287.7   0.061845413   0.58575   0.07329  -0.18170   0.73984
  47   34963.7    286.0   0.115550042   1.08800  -0.07034  -0.57106   0.87003
  48   35136.1    284.6   0.049513051   0.46392  -0.14049  -0.48048   0.46187
  49   35159.4    284.4   0.597494122   5.59458  -0.47032  -0.60410   2.23796
  50   35477.7    281.9   0.229285563   2.12763  -0.08325   0.63979   1.30820
  51   35569.9    281.1   0.473776165   4.38496  -0.66803  -0.27552   1.96540
  52   35740.8    279.8   0.027304582   0.25151   0.07411   0.07921  -0.48963
  53   35999.2    277.8   0.018422776   0.16848  -0.02906  -0.28008  -0.29864
  54   36389.6    274.8   0.118602726   1.07298   0.17753   0.22428  -0.99557
  55   36666.1    272.7   0.014352272   0.12886   0.24945   0.23540   0.10595
  56   37284.6    268.2   0.026856870   0.23714  -0.06129   0.04073   0.48138
  57   37478.8    266.8   0.006047779   0.05312  -0.00885   0.16442  -0.16128
  58   37829.4    264.3   0.008317632   0.07238  -0.04732  -0.17497   0.19883
  59   38428.8    260.2   0.009325410   0.07989  -0.22105   0.13305   0.11543
  60   38601.5    259.1   0.014289053   0.12186   0.13562  -0.10969   0.30239
  61   38724.7    258.2   0.005519450   0.04692   0.00110   0.19533  -0.09364
  62   39203.3    255.1   0.007264755   0.06101  -0.03147   0.07834   0.23212
  63   39233.7    254.9   0.001743744   0.01463  -0.09440   0.01821  -0.07341
  64   39573.8    252.7   0.236537903   1.96774  -0.23544   0.79043   1.13469
  65   39675.2    252.0   0.074202062   0.61570  -0.50754  -0.45050   0.39390
  66   39841.0    251.0   0.130085761   1.07492  -0.41597   0.93282  -0.17814
  67   40228.4    248.6   0.002622900   0.02146   0.06936  -0.05652  -0.11601

FINAL SINGLE POINT ENERGY     -5170.718054557034

DIPOLE MOMENT
-------------
                                X             Y             Z
Electronic contribution:      8.07249       0.38226     -13.36269
Nuclear contribution   :     -8.42463      -2.86339      10.86188
                        -----------------------------------------
Total Dipole Moment    :     -0.35214      -2.48113      -2.50081
                        -----------------------------------------
Magnitude (a.u.)       :      3.54035
Magnitude (Debye)      :      8.99885

Rotational constants in cm-1:     0.001378     0.000180     0.000161
Rotational constants in MHz :    41.318649     5.408186     4.840805

                             ****ORCA TERMINATED NORMALLY****
TOTAL RUN TIME: 0 days 0 hours 11 minutes 42 seconds 275 msec
