                         Program Version 4.2.0 -  RELEASE  -
|  1> # ORCA input file
|  2> # SCF done       -200.990581744172          0.000313378664
|  3> ! CAM-B3LYP def2-SVP def2/J RIJCOSX Grid4 TightSCF
|  4> %maxcore 5000
|  5> %tddft
|  6>     Mode sTDDFT
|  7>     Ethresh 5.0
|  8>     maxcore 5000
|  9> end
| 10>
| 11> %pal
| 12>   nprocs 6
| 13>   end
| 14> * xyz 0 1
| 15>    C        3.31274         4.05320        -3.57214
| 16>    C        3.91886         5.23759        -3.24370
| 17>    C        4.63104         6.03352        -4.16315
| 18>    N        5.20765         6.72148        -4.87829
| 19>    C        3.96893         5.73831        -1.92685
| 20>    N        4.05503         6.15235        -0.85949
| 21>    C        3.46415         3.34833        -4.83890
| 22>    C        3.16971         1.96907        -4.62609
| 23>    C        3.26630         1.05356        -5.63419
| 24>    C        3.65739         1.48499        -6.92199
| 25>    C        3.93835         2.86473        -7.14316
| 26>    C        3.83704         3.79018        -6.07923
| 27>    C        4.32145         3.28170        -8.43404
| 28>    C        4.42545         2.38069        -9.45855
| 29>    C        4.14928         1.02269        -9.24014
| 30>    C        3.77416         0.58438        -7.99910
| 31>    C        2.76197         1.76644        -3.22422
| 32>    O        2.49468         0.73051        -2.66202
| 33>    C        2.67316         3.14084        -2.64631
| 34>    C        1.97481         3.34196        -1.49875
| 35>    C        1.39450         4.53568        -1.00297
| 36>    C        0.98704         4.76153         0.30222
| 37>    C        0.39368         6.01046         0.46043
| 38>    C        0.30915         6.72984        -0.74703
| 39>    S        0.98107         5.88390        -2.05982
| 40>    C       -0.33291         7.96872        -0.49927
| 41>    C       -0.64299         8.03792         0.87413
| 42>    C       -0.20017         6.81225         1.51929
| 43>    C       -0.33011         6.47993         2.83520
| 44>    C       -0.93722         7.34301         3.77280
| 45>    N       -1.43472         8.03301         4.54130
| 46>    C        0.11944         5.24391         3.34744
| 47>    N        0.47317         4.23729         3.76642
| 48>    C       -1.28849         9.22342         1.21905
| 49>    C       -1.46934        10.03567         0.11534
| 50>    S       -0.83591         9.35049        -1.36354
| 51>    C       -2.12458        11.29933         0.04063
| 52>    N       -2.23445        11.85091        -1.15945
| 53>    N       -2.85884        12.96429        -1.37127
| 54>    C       -3.44378        13.66136        -0.40770
| 55>    C       -3.36571        13.19929         0.93703
| 56>    C       -2.67957        11.96475         1.17063
| 57>    N       -2.67771        11.62978         2.45729
| 58>    S       -3.46028        12.76168         3.28859
| 59>    N       -3.84269        13.72627         2.06061
| 60>    C       -4.16058        14.83015        -0.79721
| 61>    C       -4.89965        15.68990        -0.00681
| 62>    C       -5.51612        16.67743        -0.77225
| 63>    C       -5.22744        16.55768        -2.14742
| 64>    S       -4.20178        15.23942        -2.49702
| 65>    C       -5.93076        17.57427        -2.84066
| 66>    C       -6.67245        18.32830        -1.90694
| 67>    C       -6.41263        17.80494        -0.57466
| 68>    C       -6.89872        18.27493         0.60916
| 69>    C       -7.73516        19.40949         0.69413
| 70>    N       -8.39629        20.34081         0.78984
| 71>    C       -6.57879        17.66935         1.84362
| 72>    N       -6.32721        17.18142         2.85014
| 73>    C       -7.46122        19.30734        -2.49907
| 74>    C       -7.33081        19.31465        -3.88038
| 75>    S       -6.16676        18.10836        -4.43675
| 76>    C       -7.94433        20.12183        -4.86462
| 77>    C       -9.14227        20.77168        -4.78760
| 78>    C       -9.68068        21.64333        -5.81710
| 79>    C       -8.96298        22.26629        -6.80458
| 80>    C       -9.53125        23.12499        -7.76849
| 81>    N       -9.93749        23.82482        -8.58267
| 82>    C       -7.56528        22.16678        -6.96838
| 83>    N       -6.43080        22.14579        -7.14535
| 84>    C      -11.10476        21.81042        -5.56122
| 85>    C      -11.42640        21.13624        -4.34899
| 86>    C      -10.21868        20.50188        -3.79573
| 87>    O      -10.15411        19.83760        -2.78398
| 88>    C      -12.69593        21.11737        -3.84757
| 89>    C      -13.72371        21.78186        -4.55309
| 90>    C      -13.41245        22.45124        -5.77213
| 91>    C      -12.08689        22.45675        -6.26418
| 92>    C      -14.44875        23.10128        -6.47270
| 93>    C      -15.73052        23.09269        -5.99347
| 94>    C      -16.03518        22.43524        -4.79223
| 95>    C      -15.05284        21.79468        -4.08670
| 96>    H        3.04748         0.01180        -5.45268
| 97>    H        4.04498         4.83105        -6.27326
| 98>    H        4.53626         4.32772        -8.59611
| 99>    H        4.72181         2.70956       -10.44327
|100>    H        4.23522         0.32559       -10.06012
|101>    H        3.56065        -0.46010        -7.82532
|102>    H        1.76149         2.44706        -0.92113
|103>    H        1.15064         4.04822         1.08976
|104>    H       -1.62154         9.50381         2.20200
|105>    H       -4.97478        15.57227         1.05913
|106>    H       -8.09637        19.98924        -1.96648
|107>    H       -7.40653        20.16938        -5.80474
|108>    H      -12.91218        20.60112        -2.92407
|109>    H      -11.88374        22.96582        -7.19306
|110>    H      -14.20930        23.60771        -7.39618
|111>    H      -16.51727        23.59305        -6.53784
|112>    H      -17.05195        22.43828        -4.42899
|113>    H      -15.28086        21.28656        -3.16119
|114> *
|115>
|116>                          ****END OF INPUT****

CARTESIAN COORDINATES (ANGSTROEM)
---------------------------------
  C      3.312740    4.053200   -3.572140
  C      3.918860    5.237590   -3.243700
  C      4.631040    6.033520   -4.163150
  N      5.207650    6.721480   -4.878290
  C      3.968930    5.738310   -1.926850
  N      4.055030    6.152350   -0.859490
  C      3.464150    3.348330   -4.838900
  C      3.169710    1.969070   -4.626090
  C      3.266300    1.053560   -5.634190
  C      3.657390    1.484990   -6.921990
  C      3.938350    2.864730   -7.143160
  C      3.837040    3.790180   -6.079230
  C      4.321450    3.281700   -8.434040
  C      4.425450    2.380690   -9.458550
  C      4.149280    1.022690   -9.240140
  C      3.774160    0.584380   -7.999100
  C      2.761970    1.766440   -3.224220
  O      2.494680    0.730510   -2.662020
  C      2.673160    3.140840   -2.646310
  C      1.974810    3.341960   -1.498750
  C      1.394500    4.535680   -1.002970
  C      0.987040    4.761530    0.302220
  C      0.393680    6.010460    0.460430
  C      0.309150    6.729840   -0.747030
  S      0.981070    5.883900   -2.059820
  C     -0.332910    7.968720   -0.499270
  C     -0.642990    8.037920    0.874130
  C     -0.200170    6.812250    1.519290
  C     -0.330110    6.479930    2.835200
  C     -0.937220    7.343010    3.772800
  N     -1.434720    8.033010    4.541300
  C      0.119440    5.243910    3.347440
  N      0.473170    4.237290    3.766420
  C     -1.288490    9.223420    1.219050
  C     -1.469340   10.035670    0.115340
  S     -0.835910    9.350490   -1.363540
  C     -2.124580   11.299330    0.040630
  N     -2.234450   11.850910   -1.159450
  N     -2.858840   12.964290   -1.371270
  C     -3.443780   13.661360   -0.407700
  C     -3.365710   13.199290    0.937030
  C     -2.679570   11.964750    1.170630
  N     -2.677710   11.629780    2.457290
  S     -3.460280   12.761680    3.288590
  N     -3.842690   13.726270    2.060610
  C     -4.160580   14.830150   -0.797210
  C     -4.899650   15.689900   -0.006810
  C     -5.516120   16.677430   -0.772250
  C     -5.227440   16.557680   -2.147420
  S     -4.201780   15.239420   -2.497020
  C     -5.930760   17.574270   -2.840660
  C     -6.672450   18.328300   -1.906940
  C     -6.412630   17.804940   -0.574660
  C     -6.898720   18.274930    0.609160
  C     -7.735160   19.409490    0.694130
  N     -8.396290   20.340810    0.789840
  C     -6.578790   17.669350    1.843620
  N     -6.327210   17.181420    2.850140
  C     -7.461220   19.307340   -2.499070
  C     -7.330810   19.314650   -3.880380
  S     -6.166760   18.108360   -4.436750
  C     -7.944330   20.121830   -4.864620
  C     -9.142270   20.771680   -4.787600
  C     -9.680680   21.643330   -5.817100
  C     -8.962980   22.266290   -6.804580
  C     -9.531250   23.124990   -7.768490
  N     -9.937490   23.824820   -8.582670
  C     -7.565280   22.166780   -6.968380
  N     -6.430800   22.145790   -7.145350
  C    -11.104760   21.810420   -5.561220
  C    -11.426400   21.136240   -4.348990
  C    -10.218680   20.501880   -3.795730
  O    -10.154110   19.837600   -2.783980
  C    -12.695930   21.117370   -3.847570
  C    -13.723710   21.781860   -4.553090
  C    -13.412450   22.451240   -5.772130
  C    -12.086890   22.456750   -6.264180
  C    -14.448750   23.101280   -6.472700
  C    -15.730520   23.092690   -5.993470
  C    -16.035180   22.435240   -4.792230
  C    -15.052840   21.794680   -4.086700
  H      3.047480    0.011800   -5.452680
  H      4.044980    4.831050   -6.273260
  H      4.536260    4.327720   -8.596110
  H      4.721810    2.709560  -10.443270
  H      4.235220    0.325590  -10.060120
  H      3.560650   -0.460100   -7.825320
  H      1.761490    2.447060   -0.921130
  H      1.150640    4.048220    1.089760
  H     -1.621540    9.503810    2.202000
  H     -4.974780   15.572270    1.059130
  H     -8.096370   19.989240   -1.966480
  H     -7.406530   20.169380   -5.804740
  H    -12.912180   20.601120   -2.924070
  H    -11.883740   22.965820   -7.193060
  H    -14.209300   23.607710   -7.396180
  H    -16.517270   23.593050   -6.537840
  H    -17.051950   22.438280   -4.428990
  H    -15.280860   21.286560   -3.161190

 Total Charge           Charge          ....    0
 Multiplicity           Mult            ....    1
 Number of Electrons    NEL             ....  570
 Basis Dimension        Dim             .... 1244

ORBITAL ENERGIES
----------------

  NO   OCC          E(Eh)            E(eV)
   0   2.0000     -89.060034     -2423.4467
   1   2.0000     -88.999644     -2421.8034
   2   2.0000     -88.999091     -2421.7884
   3   2.0000     -88.996489     -2421.7176
   4   2.0000     -88.996291     -2421.7122
   5   2.0000     -19.219503      -522.9893
   6   2.0000     -19.218195      -522.9537
   7   2.0000     -14.474768      -393.8785
   8   2.0000     -14.474703      -393.8767
   9   2.0000     -14.462330      -393.5400
  10   2.0000     -14.462074      -393.5330
  11   2.0000     -14.434627      -392.7862
  12   2.0000     -14.434499      -392.7827
  13   2.0000     -14.434057      -392.7707
  14   2.0000     -14.431660      -392.7054
  15   2.0000     -14.419989      -392.3879
  16   2.0000     -14.419482      -392.3741
  17   2.0000     -14.417234      -392.3129
  18   2.0000     -14.415927      -392.2773
  19   2.0000     -10.371513      -282.2232
  20   2.0000     -10.370561      -282.1973
  21   2.0000     -10.370176      -282.1868
  22   2.0000     -10.369766      -282.1757
  23   2.0000     -10.359044      -281.8839
  24   2.0000     -10.358738      -281.8756
  25   2.0000     -10.358089      -281.8579
  26   2.0000     -10.356826      -281.8236
  27   2.0000     -10.356244      -281.8077
  28   2.0000     -10.356109      -281.8041
  29   2.0000     -10.348480      -281.5964
  30   2.0000     -10.347263      -281.5634
  31   2.0000     -10.346937      -281.5545
  32   2.0000     -10.346809      -281.5510
  33   2.0000     -10.343738      -281.4674
  34   2.0000     -10.342276      -281.4276
  35   2.0000     -10.340915      -281.3906
  36   2.0000     -10.340690      -281.3845
  37   2.0000     -10.334606      -281.2189
  38   2.0000     -10.334420      -281.2139
  39   2.0000     -10.334049      -281.2038
  40   2.0000     -10.333411      -281.1864
  41   2.0000     -10.331218      -281.1267
  42   2.0000     -10.331205      -281.1264
  43   2.0000     -10.331162      -281.1252
  44   2.0000     -10.330849      -281.1167
  45   2.0000     -10.330410      -281.1048
  46   2.0000     -10.328794      -281.0608
  47   2.0000     -10.322285      -280.8836
  48   2.0000     -10.321210      -280.8544
  49   2.0000     -10.320087      -280.8239
  50   2.0000     -10.318656      -280.7849
  51   2.0000     -10.316976      -280.7392
  52   2.0000     -10.313130      -280.6345
  53   2.0000     -10.312785      -280.6251
  54   2.0000     -10.312411      -280.6150
  55   2.0000     -10.312264      -280.6110
  56   2.0000     -10.311814      -280.5987
  57   2.0000     -10.309785      -280.5435
  58   2.0000     -10.309731      -280.5420
  59   2.0000     -10.307668      -280.4859
  60   2.0000     -10.304816      -280.4083
  61   2.0000     -10.304275      -280.3936
  62   2.0000     -10.304201      -280.3916
  63   2.0000     -10.301544      -280.3193
  64   2.0000     -10.301207      -280.3101
  65   2.0000     -10.300942      -280.3029
  66   2.0000     -10.300794      -280.2988
  67   2.0000     -10.299126      -280.2535
  68   2.0000     -10.298874      -280.2466
  69   2.0000     -10.298382      -280.2332
  70   2.0000     -10.298015      -280.2232
  71   2.0000     -10.293484      -280.0999
  72   2.0000     -10.290286      -280.0129
  73   2.0000     -10.289683      -279.9965
  74   2.0000     -10.289310      -279.9864
  75   2.0000     -10.289066      -279.9797
  76   2.0000     -10.288651      -279.9684
  77   2.0000     -10.287742      -279.9437
  78   2.0000     -10.287278      -279.9311
  79   2.0000     -10.287080      -279.9257
  80   2.0000     -10.286643      -279.9138
  81   2.0000      -8.151421      -221.8114
  82   2.0000      -8.093929      -220.2470
  83   2.0000      -8.093882      -220.2457
  84   2.0000      -8.090287      -220.1479
  85   2.0000      -8.090185      -220.1451
  86   2.0000      -6.122566      -166.6035
  87   2.0000      -6.114635      -166.3877
  88   2.0000      -6.114085      -166.3727
  89   2.0000      -6.063105      -164.9855
  90   2.0000      -6.063058      -164.9842
  91   2.0000      -6.059564      -164.8891
  92   2.0000      -6.059476      -164.8867
  93   2.0000      -6.058901      -164.8711
  94   2.0000      -6.058899      -164.8710
  95   2.0000      -6.056449      -164.8043
  96   2.0000      -6.056318      -164.8008
  97   2.0000      -6.055171      -164.7696
  98   2.0000      -6.055088      -164.7673
  99   2.0000      -6.052845      -164.7063
 100   2.0000      -6.052684      -164.7019
 101   2.0000      -1.164418       -31.6854
 102   2.0000      -1.139541       -31.0085
 103   2.0000      -1.135236       -30.8914
 104   2.0000      -1.133776       -30.8516
 105   2.0000      -1.053883       -28.6776
 106   2.0000      -1.052846       -28.6494
 107   2.0000      -1.027472       -27.9589
 108   2.0000      -1.025875       -27.9155
 109   2.0000      -1.024251       -27.8713
 110   2.0000      -1.020946       -27.7814
 111   2.0000      -1.019653       -27.7462
 112   2.0000      -1.012046       -27.5392
 113   2.0000      -1.010050       -27.4849
 114   2.0000      -1.006556       -27.3898
 115   2.0000      -1.004853       -27.3434
 116   2.0000      -1.002367       -27.2758
 117   2.0000      -0.999965       -27.2104
 118   2.0000      -0.997549       -27.1447
 119   2.0000      -0.995048       -27.0766
 120   2.0000      -0.977463       -26.5981
 121   2.0000      -0.974896       -26.5283
 122   2.0000      -0.971251       -26.4291
 123   2.0000      -0.966054       -26.2877
 124   2.0000      -0.948853       -25.8196
 125   2.0000      -0.939199       -25.5569
 126   2.0000      -0.930372       -25.3167
 127   2.0000      -0.928862       -25.2756
 128   2.0000      -0.920166       -25.0390
 129   2.0000      -0.917288       -24.9607
 130   2.0000      -0.901966       -24.5437
 131   2.0000      -0.898283       -24.4435
 132   2.0000      -0.885554       -24.0972
 133   2.0000      -0.883007       -24.0278
 134   2.0000      -0.880975       -23.9725
 135   2.0000      -0.879466       -23.9315
 136   2.0000      -0.872663       -23.7464
 137   2.0000      -0.867660       -23.6102
 138   2.0000      -0.863713       -23.5028
 139   2.0000      -0.862934       -23.4816
 140   2.0000      -0.839980       -22.8570
 141   2.0000      -0.832072       -22.6418
 142   2.0000      -0.829652       -22.5760
 143   2.0000      -0.820128       -22.3168
 144   2.0000      -0.812291       -22.1036
 145   2.0000      -0.788051       -21.4440
 146   2.0000      -0.784891       -21.3580
 147   2.0000      -0.784144       -21.3376
 148   2.0000      -0.779509       -21.2115
 149   2.0000      -0.765478       -20.8297
 150   2.0000      -0.763330       -20.7713
 151   2.0000      -0.757839       -20.6218
 152   2.0000      -0.748407       -20.3652
 153   2.0000      -0.731377       -19.9018
 154   2.0000      -0.721159       -19.6237
 155   2.0000      -0.712528       -19.3889
 156   2.0000      -0.709027       -19.2936
 157   2.0000      -0.705982       -19.2107
 158   2.0000      -0.705100       -19.1867
 159   2.0000      -0.701570       -19.0907
 160   2.0000      -0.696863       -18.9626
 161   2.0000      -0.694265       -18.8919
 162   2.0000      -0.687577       -18.7099
 163   2.0000      -0.686349       -18.6765
 164   2.0000      -0.681170       -18.5356
 165   2.0000      -0.678273       -18.4567
 166   2.0000      -0.672178       -18.2909
 167   2.0000      -0.658454       -17.9174
 168   2.0000      -0.654522       -17.8104
 169   2.0000      -0.650099       -17.6901
 170   2.0000      -0.638653       -17.3786
 171   2.0000      -0.637367       -17.3436
 172   2.0000      -0.633343       -17.2341
 173   2.0000      -0.630043       -17.1443
 174   2.0000      -0.624925       -17.0051
 175   2.0000      -0.622110       -16.9285
 176   2.0000      -0.621576       -16.9139
 177   2.0000      -0.612777       -16.6745
 178   2.0000      -0.611129       -16.6297
 179   2.0000      -0.610239       -16.6055
 180   2.0000      -0.607384       -16.5277
 181   2.0000      -0.595981       -16.2175
 182   2.0000      -0.591567       -16.0973
 183   2.0000      -0.590595       -16.0709
 184   2.0000      -0.580603       -15.7990
 185   2.0000      -0.578571       -15.7437
 186   2.0000      -0.562192       -15.2980
 187   2.0000      -0.560275       -15.2459
 188   2.0000      -0.556625       -15.1465
 189   2.0000      -0.556153       -15.1337
 190   2.0000      -0.551390       -15.0041
 191   2.0000      -0.550290       -14.9742
 192   2.0000      -0.549088       -14.9414
 193   2.0000      -0.548076       -14.9139
 194   2.0000      -0.544196       -14.8083
 195   2.0000      -0.539830       -14.6895
 196   2.0000      -0.539139       -14.6707
 197   2.0000      -0.538385       -14.6502
 198   2.0000      -0.532262       -14.4836
 199   2.0000      -0.529567       -14.4102
 200   2.0000      -0.526861       -14.3366
 201   2.0000      -0.522093       -14.2069
 202   2.0000      -0.521566       -14.1925
 203   2.0000      -0.520677       -14.1683
 204   2.0000      -0.516571       -14.0566
 205   2.0000      -0.515765       -14.0347
 206   2.0000      -0.514068       -13.9885
 207   2.0000      -0.512356       -13.9419
 208   2.0000      -0.510481       -13.8909
 209   2.0000      -0.509647       -13.8682
 210   2.0000      -0.508173       -13.8281
 211   2.0000      -0.507601       -13.8125
 212   2.0000      -0.504761       -13.7352
 213   2.0000      -0.503305       -13.6956
 214   2.0000      -0.501324       -13.6417
 215   2.0000      -0.498129       -13.5548
 216   2.0000      -0.497134       -13.5277
 217   2.0000      -0.494559       -13.4576
 218   2.0000      -0.492958       -13.4141
 219   2.0000      -0.489547       -13.3212
 220   2.0000      -0.486424       -13.2363
 221   2.0000      -0.484686       -13.1890
 222   2.0000      -0.479428       -13.0459
 223   2.0000      -0.477819       -13.0021
 224   2.0000      -0.469310       -12.7706
 225   2.0000      -0.466757       -12.7011
 226   2.0000      -0.465405       -12.6643
 227   2.0000      -0.464296       -12.6341
 228   2.0000      -0.462176       -12.5764
 229   2.0000      -0.460952       -12.5431
 230   2.0000      -0.460411       -12.5284
 231   2.0000      -0.458791       -12.4843
 232   2.0000      -0.456300       -12.4165
 233   2.0000      -0.454026       -12.3547
 234   2.0000      -0.453246       -12.3334
 235   2.0000      -0.450177       -12.2499
 236   2.0000      -0.449219       -12.2239
 237   2.0000      -0.448127       -12.1942
 238   2.0000      -0.446400       -12.1472
 239   2.0000      -0.445645       -12.1266
 240   2.0000      -0.444526       -12.0962
 241   2.0000      -0.443429       -12.0663
 242   2.0000      -0.442925       -12.0526
 243   2.0000      -0.442428       -12.0391
 244   2.0000      -0.441748       -12.0206
 245   2.0000      -0.440736       -11.9930
 246   2.0000      -0.438036       -11.9196
 247   2.0000      -0.435572       -11.8525
 248   2.0000      -0.435227       -11.8431
 249   2.0000      -0.434075       -11.8118
 250   2.0000      -0.431790       -11.7496
 251   2.0000      -0.430872       -11.7246
 252   2.0000      -0.429842       -11.6966
 253   2.0000      -0.429005       -11.6738
 254   2.0000      -0.428282       -11.6541
 255   2.0000      -0.423821       -11.5328
 256   2.0000      -0.420984       -11.4556
 257   2.0000      -0.420535       -11.4433
 258   2.0000      -0.411671       -11.2021
 259   2.0000      -0.410891       -11.1809
 260   2.0000      -0.410575       -11.1723
 261   2.0000      -0.405573       -11.0362
 262   2.0000      -0.403651       -10.9839
 263   2.0000      -0.402502       -10.9526
 264   2.0000      -0.393742       -10.7143
 265   2.0000      -0.393269       -10.7014
 266   2.0000      -0.384893       -10.4735
 267   2.0000      -0.380210       -10.3460
 268   2.0000      -0.375307       -10.2126
 269   2.0000      -0.366590        -9.9754
 270   2.0000      -0.357318        -9.7231
 271   2.0000      -0.354710        -9.6522
 272   2.0000      -0.348280        -9.4772
 273   2.0000      -0.342529        -9.3207
 274   2.0000      -0.337035        -9.1712
 275   2.0000      -0.329483        -8.9657
 276   2.0000      -0.326415        -8.8822
 277   2.0000      -0.325335        -8.8528
 278   2.0000      -0.322224        -8.7682
 279   2.0000      -0.319204        -8.6860
 280   2.0000      -0.315318        -8.5802
 281   2.0000      -0.299083        -8.1385
 282   2.0000      -0.296252        -8.0614
 283   2.0000      -0.281863        -7.6699
 284   2.0000      -0.261774        -7.1232
 285   0.0000      -0.125752        -3.4219
 286   0.0000      -0.114285        -3.1098
 287   0.0000      -0.098227        -2.6729
 288   0.0000      -0.091844        -2.4992
 289   0.0000      -0.089212        -2.4276

MULLIKEN ATOMIC CHARGES
-----------------------
   0 C :    0.243574
   1 C :   -0.323692
   2 C :   -0.174970
   3 N :    0.159185
   4 C :   -0.206378
   5 N :    0.173116
   6 C :    0.037356
   7 C :    0.010254
   8 C :   -0.080862
   9 C :    0.094140
  10 C :    0.093837
  11 C :   -0.078524
  12 C :   -0.018181
  13 C :    0.037302
  14 C :    0.035309
  15 C :   -0.015641
  16 C :    0.144607
  17 O :   -0.139254
  18 C :   -0.139653
  19 C :    0.049030
  20 C :   -0.096781
  21 C :    0.008500
  22 C :    0.028310
  23 C :   -0.089726
  24 S :    0.211527
  25 C :   -0.085500
  26 C :    0.015066
  27 C :    0.304859
  28 C :   -0.295900
  29 C :   -0.188426
  30 N :    0.176555
  31 C :   -0.190555
  32 N :    0.182159
  33 C :   -0.055119
  34 C :   -0.124609
  35 S :    0.254418
  36 C :    0.020170
  37 N :   -0.063565
  38 N :   -0.059971
  39 C :    0.015630
  40 C :    0.030932
  41 C :    0.027456
  42 N :   -0.253475
  43 S :    0.573975
  44 N :   -0.249794
  45 C :   -0.130404
  46 C :   -0.053278
  47 C :    0.013828
  48 C :   -0.084561
  49 S :    0.252033
  50 C :   -0.094356
  51 C :   -0.023052
  52 C :    0.306830
  53 C :   -0.293894
  54 C :   -0.187649
  55 N :    0.184379
  56 C :   -0.191690
  57 N :    0.177443
  58 C :    0.055273
  59 C :   -0.118762
  60 S :    0.211580
  61 C :    0.027568
  62 C :   -0.098617
  63 C :    0.296691
  64 C :   -0.340221
  65 C :   -0.181110
  66 N :    0.148522
  67 C :   -0.204996
  68 N :    0.159434
  69 C :    0.052835
  70 C :   -0.012367
  71 C :    0.155945
  72 O :   -0.149980
  73 C :   -0.076457
  74 C :    0.096893
  75 C :    0.096156
  76 C :   -0.082067
  77 C :   -0.018859
  78 C :    0.037743
  79 C :    0.035314
  80 C :   -0.013940
  81 H :   -0.009628
  82 H :   -0.004660
  83 H :   -0.009350
  84 H :   -0.004124
  85 H :   -0.002872
  86 H :   -0.015828
  87 H :    0.035330
  88 H :    0.019662
  89 H :    0.019125
  90 H :    0.020771
  91 H :    0.030392
  92 H :    0.026348
  93 H :   -0.011331
  94 H :   -0.007769
  95 H :   -0.009908
  96 H :   -0.004061
  97 H :   -0.004477
  98 H :   -0.016519
Sum of atomic charges:   -0.0000000

LOEWDIN ATOMIC CHARGES
----------------------
   0 C :    0.059925
   1 C :   -0.143101
   2 C :   -0.020133
   3 N :   -0.048574
   4 C :   -0.035818
   5 N :   -0.047269
   6 C :   -0.023702
   7 C :   -0.057424
   8 C :    0.033728
   9 C :   -0.008762
  10 C :   -0.005361
  11 C :    0.016511
  12 C :   -0.006335
  13 C :   -0.011758
  14 C :   -0.011981
  15 C :   -0.008669
  16 C :    0.083943
  17 O :   -0.140210
  18 C :   -0.095437
  19 C :    0.049775
  20 C :   -0.174569
  21 C :    0.012359
  22 C :   -0.066517
  23 C :   -0.156576
  24 S :    0.512647
  25 C :   -0.175816
  26 C :   -0.063756
  27 C :    0.079211
  28 C :   -0.096762
  29 C :   -0.016929
  30 N :   -0.028588
  31 C :   -0.017608
  32 N :   -0.027070
  33 C :   -0.009706
  34 C :   -0.175166
  35 S :    0.527014
  36 C :   -0.026027
  37 N :   -0.063962
  38 N :   -0.063463
  39 C :   -0.026995
  40 C :   -0.054496
  41 C :   -0.054433
  42 N :   -0.262138
  43 S :    0.697106
  44 N :   -0.262471
  45 C :   -0.174788
  46 C :   -0.010899
  47 C :   -0.063419
  48 C :   -0.177440
  49 S :    0.524483
  50 C :   -0.164446
  51 C :   -0.069187
  52 C :    0.076542
  53 C :   -0.094716
  54 C :   -0.019120
  55 N :   -0.021328
  56 C :   -0.016558
  57 N :   -0.029582
  58 C :    0.024761
  59 C :   -0.175622
  60 S :    0.496614
  61 C :    0.042791
  62 C :   -0.090080
  63 C :    0.074998
  64 C :   -0.139871
  65 C :   -0.017653
  66 N :   -0.052433
  67 C :   -0.025483
  68 N :   -0.052131
  69 C :   -0.026251
  70 C :   -0.055543
  71 C :    0.084622
  72 O :   -0.137818
  73 C :    0.034117
  74 C :   -0.008154
  75 C :   -0.005962
  76 C :    0.019842
  77 C :   -0.005406
  78 C :   -0.012515
  79 C :   -0.011809
  80 C :   -0.008715
  81 H :    0.040121
  82 H :    0.038830
  83 H :    0.034610
  84 H :    0.033528
  85 H :    0.033464
  86 H :    0.032402
  87 H :    0.055590
  88 H :    0.047675
  89 H :    0.042022
  90 H :    0.042242
  91 H :    0.045955
  92 H :    0.044670
  93 H :    0.039814
  94 H :    0.039075
  95 H :    0.034653
  96 H :    0.033473
  97 H :    0.033099
  98 H :    0.032298

  Mayer bond orders larger than 0.100000
B(  0-C ,  1-C ) :   1.6569 B(  0-C ,  6-C ) :   1.0044 B(  0-C , 18-C ) :   1.0311
B(  1-C ,  2-C ) :   1.1346 B(  1-C ,  4-C ) :   1.1543 B(  2-C ,  3-N ) :   2.9926
B(  4-C ,  5-N ) :   3.0198 B(  6-C ,  7-C ) :   1.2126 B(  6-C , 11-C ) :   1.4576
B(  7-C ,  8-C ) :   1.4754 B(  7-C , 16-C ) :   0.9218 B(  8-C ,  9-C ) :   1.1859
B(  8-C , 81-H ) :   1.0160 B(  9-C , 10-C ) :   1.2555 B(  9-C , 15-C ) :   1.2450
B( 10-C , 11-C ) :   1.2043 B( 10-C , 12-C ) :   1.2412 B( 11-C , 82-H ) :   0.9943
B( 12-C , 13-C ) :   1.4900 B( 12-C , 83-H ) :   0.9977 B( 13-C , 14-C ) :   1.2597
B( 13-C , 84-H ) :   0.9888 B( 14-C , 15-C ) :   1.4889 B( 14-C , 85-H ) :   0.9896
B( 15-C , 86-H ) :   0.9979 B( 16-C , 17-O ) :   2.2759 B( 16-C , 18-C ) :   0.9320
B( 18-C , 19-C ) :   1.6570 B( 19-C , 20-C ) :   1.1283 B( 19-C , 87-H ) :   0.9460
B( 20-C , 21-C ) :   1.4057 B( 20-C , 24-S ) :   1.0939 B( 21-C , 22-C ) :   1.3024
B( 21-C , 88-H ) :   1.0007 B( 22-C , 23-C ) :   1.4116 B( 22-C , 27-C ) :   0.9880
B( 23-C , 24-S ) :   1.1545 B( 23-C , 25-C ) :   1.2056 B( 25-C , 26-C ) :   1.4239
B( 25-C , 35-S ) :   1.1230 B( 26-C , 27-C ) :   0.9954 B( 26-C , 33-C ) :   1.2714
B( 27-C , 28-C ) :   1.7189 B( 28-C , 29-C ) :   1.1374 B( 28-C , 31-C ) :   1.1324
B( 29-C , 30-N ) :   2.9894 B( 31-C , 32-N ) :   2.9955 B( 33-C , 34-C ) :   1.4803
B( 33-C , 89-H ) :   0.9836 B( 34-C , 35-S ) :   1.0939 B( 34-C , 36-C ) :   1.1611
B( 36-C , 37-N ) :   1.7070 B( 36-C , 39-C ) :   0.1201 B( 36-C , 41-C ) :   1.1239
B( 37-N , 38-N ) :   1.2377 B( 38-N , 39-C ) :   1.7098 B( 39-C , 40-C ) :   1.1260
B( 39-C , 45-C ) :   1.1622 B( 40-C , 41-C ) :   1.1903 B( 40-C , 44-N ) :   1.5517
B( 41-C , 42-N ) :   1.5487 B( 42-N , 43-S ) :   1.2802 B( 42-N , 44-N ) :   0.1414
B( 43-S , 44-N ) :   1.2789 B( 45-C , 46-C ) :   1.4828 B( 45-C , 49-S ) :   1.0938
B( 46-C , 47-C ) :   1.2705 B( 46-C , 90-H ) :   0.9833 B( 47-C , 48-C ) :   1.4238
B( 47-C , 52-C ) :   0.9993 B( 48-C , 49-S ) :   1.1219 B( 48-C , 50-C ) :   1.1997
B( 50-C , 51-C ) :   1.3956 B( 50-C , 60-S ) :   1.1613 B( 51-C , 52-C ) :   0.9914
B( 51-C , 58-C ) :   1.3387 B( 52-C , 53-C ) :   1.7171 B( 53-C , 54-C ) :   1.1331
B( 53-C , 56-C ) :   1.1396 B( 54-C , 55-N ) :   2.9940 B( 56-C , 57-N ) :   2.9898
B( 58-C , 59-C ) :   1.4195 B( 58-C , 91-H ) :   0.9751 B( 59-C , 60-S ) :   1.0805
B( 59-C , 61-C ) :   1.1754 B( 61-C , 62-C ) :   1.6152 B( 61-C , 92-H ) :   0.9317
B( 62-C , 63-C ) :   1.0627 B( 62-C , 71-C ) :   0.9400 B( 63-C , 64-C ) :   1.6432
B( 63-C , 69-C ) :   0.9919 B( 64-C , 65-C ) :   1.1427 B( 64-C , 67-C ) :   1.1381
B( 65-C , 66-N ) :   2.9686 B( 67-C , 68-N ) :   2.9967 B( 69-C , 70-C ) :   1.2106
B( 69-C , 76-C ) :   1.4506 B( 70-C , 71-C ) :   0.9476 B( 70-C , 73-C ) :   1.4752
B( 71-C , 72-O ) :   2.2026 B( 73-C , 74-C ) :   1.1776 B( 73-C , 93-H ) :   1.0162
B( 74-C , 75-C ) :   1.2547 B( 74-C , 80-C ) :   1.2461 B( 75-C , 76-C ) :   1.2062
B( 75-C , 77-C ) :   1.2399 B( 76-C , 94-H ) :   0.9903 B( 77-C , 78-C ) :   1.4897
B( 77-C , 95-H ) :   0.9970 B( 78-C , 79-C ) :   1.2595 B( 78-C , 96-H ) :   0.9889
B( 79-C , 80-C ) :   1.4869 B( 79-C , 97-H ) :   0.9893 B( 80-C , 98-H ) :   0.9978

-----------------------------------------------------------------------------
         ABSORPTION SPECTRUM VIA TRANSITION ELECTRIC DIPOLE MOMENTS
-----------------------------------------------------------------------------
State   Energy  Wavelength   fosc         T2         TX        TY        TZ
        (cm-1)    (nm)                  (au**2)     (au)      (au)      (au)
-----------------------------------------------------------------------------
   0   13628.4    733.8   0.998841585  24.12832  -2.86745   3.97449  -0.33090
   1   15096.2    662.4   0.115821140   2.52578   0.49856  -0.67771   1.34830
   2   18265.0    547.5   0.823042363  14.83467  -2.19954   3.14472  -0.32774
   3   20788.9    481.0   0.009019399   0.14283  -0.26041   0.26691   0.06146
   4   21233.6    471.0   0.437186777   6.77828   0.23746   0.34244  -2.56995
   5   22114.6    452.2   0.080136044   1.19296  -0.82811   0.27088   0.65864
   6   22807.4    438.5   0.315590700   4.55538  -1.36469   1.09816  -1.21944
   7   24151.7    414.0   0.026468975   0.36080   0.05739  -0.41596  -0.42951
   8   24926.4    401.2   0.054139087   0.71504   0.25139   0.25954   0.76451
   9   25385.1    393.9   0.038252647   0.49609   0.68625  -0.15596   0.02867
  10   26593.0    376.0   0.003578629   0.04430   0.19255   0.07967   0.02964
  11   27206.5    367.6   0.022790224   0.27577  -0.06689  -0.52076   0.01051
  12   27465.6    364.1   0.021171158   0.25376   0.28952  -0.40232   0.08989
  13   28435.2    351.7   0.039679375   0.45939  -0.36933   0.55757  -0.11000
  14   28773.9    347.5   0.022853995   0.26148  -0.26365  -0.07722   0.43128
  15   28926.6    345.7   0.133246821   1.51647  -0.11550   0.11285   1.22082
  16   29005.0    344.8   0.012803651   0.14532  -0.20330   0.11752  -0.30030
  17   29139.0    343.2   0.034712811   0.39218   0.17368  -0.15967  -0.58011
  18   29189.2    342.6   0.135757409   1.53115  -0.06280   0.31338   1.19541
  19   29511.4    338.9   0.033893360   0.37809   0.27734   0.54664   0.04861
  20   30167.5    331.5   0.482886312   5.26964   1.64199  -1.38718  -0.80576
  21   30432.1    328.6   0.165393684   1.78922   1.33656   0.02947  -0.04432
  22   30795.6    324.7   0.114233475   1.22118   0.38611   1.03535   0.01213
  23   30800.9    324.7   0.006076172   0.06494  -0.04044  -0.23073   0.10035
  24   30908.6    323.5   0.029099770   0.30995  -0.01586  -0.52373   0.18815
  25   31322.6    319.3   0.480454765   5.04976   0.64478  -1.07369  -1.86580
  26   31628.1    316.2   0.168142191   1.75017   0.22246  -0.76505   1.05612
  27   31999.4    312.5   0.034756201   0.35757  -0.51595   0.30213  -0.00940
  28   32093.1    311.6   0.384629631   3.94555   0.42510   0.11576   1.93686
  29   32236.6    310.2   0.201357133   2.05633   1.26067  -0.68323   0.01572
  30   32467.1    308.0   0.086825021   0.88039  -0.12367  -0.60670  -0.70499
  31   32755.5    305.3   0.127179154   1.27823  -0.23077   1.10674  -0.00991
  32   32924.7    303.7   0.255027124   2.55000  -0.93094   1.14435  -0.61141
  33   33040.2    302.7   0.409345804   4.07871  -1.34983   1.06677   1.05767
  34   33546.3    298.1   0.096204533   0.94412  -0.41102   0.23735   0.84785
  35   33791.8    295.9   0.005151667   0.05019  -0.03550   0.09907  -0.19778
  36   34279.2    291.7   0.184823458   1.77502   0.00034   1.33022   0.07444
  37   34388.3    290.8   0.028535692   0.27318  -0.26280   0.25198  -0.37500
  38   34610.6    288.9   0.169674380   1.61392   0.75275  -0.85226   0.56651
  39   34841.8    287.0   0.231404518   2.18649   1.29842  -0.02891  -0.70694
  40   34955.2    286.1   0.407817995   3.84088   1.12995   0.32313  -1.56833
  41   35077.8    285.1   0.219901634   2.06382   0.84487   0.89164   0.74497
  42   35472.1    281.9   0.090842902   0.84310  -0.02519  -0.06578   0.91550
  43   35655.3    280.5   0.092186515   0.85118  -0.10300   0.61911   0.67621
  44   35941.2    278.2   0.232555238   2.13014  -0.04461   0.51273   1.36575
  45   36143.3    276.7   0.007623492   0.06944  -0.10376   0.13946  -0.19805
  46   36476.8    274.1   0.099829768   0.90099  -0.55333   0.73598   0.23054
  47   36899.9    271.0   0.085859809   0.76602   0.15004   0.63455   0.58383
  48   37118.2    269.4   0.024265104   0.21521   0.35735  -0.00625   0.29577
  49   37261.6    268.4   0.039980022   0.35323   0.38619   0.19013  -0.40980
  50   37417.8    267.3   0.014800424   0.13022   0.26683   0.17384  -0.16971
  51   37567.1    266.2   0.014607519   0.12801   0.00098  -0.17703   0.31092
  52   37607.3    265.9   0.021246991   0.18599  -0.40507   0.06277   0.13406
  53   37615.6    265.8   0.025245701   0.22095  -0.01816   0.32640  -0.33777
  54   38097.7    262.5   0.034698821   0.29984   0.24821  -0.44544  -0.19953
  55   38221.6    261.6   0.044010060   0.37907  -0.06038  -0.22925   0.56821
  56   38337.0    260.8   0.015595664   0.13392  -0.04164   0.20563   0.29985
  57   38672.8    258.6   0.024277473   0.20667   0.24484   0.01184  -0.38286
  58   38824.2    257.6   0.000890352   0.00755   0.07237  -0.01951  -0.04394
  59   38874.7    257.2   0.035350575   0.29937  -0.08452  -0.52442   0.13119
  60   39083.8    255.9   0.030726251   0.25881   0.11090   0.20986  -0.44997
  61   39179.9    255.2   0.015191127   0.12764  -0.27819  -0.22282   0.02463
  62   39308.0    254.4   0.028194812   0.23614   0.39544  -0.15506  -0.23606
  63   39472.1    253.3   0.125378011   1.04570  -0.59096  -0.08581   0.83012
  64   39572.5    252.7   0.048949073   0.40722   0.04120  -0.28459   0.56967
  65   39878.3    250.8   0.054243657   0.44780  -0.14722   0.62354  -0.19321
  66   39916.3    250.5   0.045491844   0.37520  -0.00577   0.32982  -0.51612
  67   39976.8    250.1   0.101004614   0.83178   0.03476  -0.34583   0.84319
  68   40212.9    248.7   0.010574127   0.08657   0.24593   0.16030  -0.01972
  69   40301.1    248.1   0.094214248   0.76962   0.31136   0.63262  -0.52198

FINAL SINGLE POINT ENERGY     -5167.006447925105

DIPOLE MOMENT
-------------
                                X             Y             Z
Electronic contribution:     17.91516       3.50402      37.11206
Nuclear contribution   :    -20.10252      -5.37515     -39.07615
                        -----------------------------------------
Total Dipole Moment    :     -2.18736      -1.87112      -1.96409
                        -----------------------------------------
Magnitude (a.u.)       :      3.48472
Magnitude (Debye)      :      8.85746

Rotational constants in cm-1:     0.001116     0.000176     0.000158
Rotational constants in MHz :    33.463092     5.270713     4.746708

                             ****ORCA TERMINATED NORMALLY****
TOTAL RUN TIME: 0 days 0 hours 10 minutes 56 seconds 199 msec
