                         Program Version 4.2.0 -  RELEASE  -
|  1> # ORCA input file
|  2> # SCF done       -209.261859272556          0.000694003079
|  3> ! CAM-B3LYP def2-SVP def2/J RIJCOSX Grid4 TightSCF
|  4> %maxcore 5000
|  5> %tddft
|  6>     Mode sTDDFT
|  7>     Ethresh 5.0
|  8>     maxcore 5000
|  9> end
| 10>
| 11> %pal
| 12>   nprocs 6
| 13>   end
| 14> * xyz 0 1
| 15>    C       -3.43915         2.50996         4.55781
| 16>    C       -4.54928         3.06086         3.97352
| 17>    C       -5.71125         3.42032         4.68606
| 18>    N       -6.67232         3.74238         5.22421
| 19>    C       -4.68005         3.24694         2.58222
| 20>    N       -4.82717         3.37989         1.45139
| 21>    C       -3.35400         2.04424         5.93614
| 22>    C       -2.31389         1.07190         6.02125
| 23>    C       -2.03271         0.42652         7.19110
| 24>    C       -2.78285         0.73778         8.34769
| 25>    C       -3.81109         1.72208         8.27191
| 26>    C       -4.08609         2.36955         7.04577
| 27>    C       -4.54586         2.02826         9.43529
| 28>    C       -4.28254         1.39118        10.61724
| 29>    C       -3.27182         0.42097        10.69076
| 30>    C       -2.53835         0.10107         9.58050
| 31>    C       -1.66123         0.93718         4.70698
| 32>    O       -0.78302         0.17526         4.37819
| 33>    C       -2.27012         2.00922         3.86201
| 34>    C       -1.64580         2.40106         2.72245
| 35>    C       -1.78188         3.61655         2.00353
| 36>    C       -1.43297         3.82555         0.67993
| 37>    C       -1.65182         5.14165         0.27914
| 38>    C       -2.12912         5.95340         1.32324
| 39>    S       -2.33203         5.09863         2.77922
| 40>    C       -2.31511         7.26901         0.82765
| 41>    C       -1.96665         7.28738        -0.53369
| 42>    C       -1.53022         5.95456        -0.92241
| 43>    C       -1.09249         5.54988        -2.14792
| 44>    C       -1.00070         6.43056        -3.24761
| 45>    N       -0.91260         7.14283        -4.14116
| 46>    C       -0.67939         4.22292        -2.39666
| 47>    N       -0.33245         3.15034        -2.60425
| 48>    C       -2.14191         8.54219        -1.11756
| 49>    C       -2.60889         9.47528        -0.20928
| 50>    S       -2.82686         8.78662         1.39358
| 51>    C       -2.94571        10.85636        -0.44706
| 52>    C       -3.20464        11.37102        -1.72774
| 53>    F       -3.13674        10.57333        -2.79991
| 54>    C       -3.56941        12.68851        -1.93599
| 55>    F       -3.81586        13.07294        -3.19723
| 56>    C       -3.71826        13.61474        -0.89136
| 57>    C       -3.42492        13.10802         0.38563
| 58>    C       -3.06332        11.79098         0.59380
| 59>    F       -2.80196        11.41282         1.85440
| 60>    F       -3.46870        13.90774         1.45798
| 61>    C       -4.16132        14.96901        -1.10706
| 62>    C       -4.68007        15.83882        -0.16431
| 63>    C       -5.03277        17.06598        -0.72254
| 64>    C       -4.77083        17.13321        -2.10233
| 65>    S       -4.11153        15.68675        -2.71061
| 66>    C       -5.17080        18.40957        -2.57510
| 67>    C       -5.68604        19.14789        -1.48761
| 68>    C       -5.62273        18.32325        -0.29054
| 69>    C       -6.04541        18.64523         0.96408
| 70>    C       -6.63606        19.88652         1.29053
| 71>    N       -7.13058        20.87470         1.59393
| 72>    C       -5.94522        17.74200         2.04536
| 73>    N       -5.87549        17.01756         2.93098
| 74>    C       -6.11307        20.42025        -1.84295
| 75>    C       -5.93315        20.67378        -3.19643
| 76>    S       -5.22099        19.28350        -4.03057
| 77>    C       -6.24589        21.78133        -4.01393
| 78>    C       -6.73042        23.02196        -3.70743
| 79>    C       -7.06870        24.02750        -4.70689
| 80>    C       -7.15453        23.84950        -6.06377
| 81>    C       -7.50486        24.87198        -6.97193
| 82>    N       -7.77336        25.65445        -7.76772
| 83>    C       -6.94684        22.64262        -6.76449
| 84>    N       -6.81256        21.70344        -7.41265
| 85>    C       -7.38047        25.26861        -4.00824
| 86>    C       -7.30484        25.02839        -2.60817
| 87>    C       -6.91414        23.63248        -2.36385
| 88>    O       -6.74974        23.12440        -1.27496
| 89>    C       -7.56865        26.00119        -1.68751
| 90>    C       -7.92477        27.29191        -2.13611
| 91>    C       -7.98979        27.54760        -3.53661
| 92>    C       -7.71293        26.51750        -4.46470
| 93>    C       -8.33879        28.84183        -3.97367
| 94>    C       -8.61453        29.83429        -3.07283
| 95>    C       -8.55381        29.57979        -1.69442
| 96>    C       -8.21583        28.33546        -1.23583
| 97>    H       -1.24788        -0.31387         7.23476
| 98>    H       -4.86282         3.11792         7.01533
| 99>    H       -5.32538         2.77319         9.37248
|100>    H       -4.85245         1.63090        11.50229
|101>    H       -3.07714        -0.07151        11.63162
|102>    H       -1.75904        -0.64508         9.63162
|103>    H       -0.88414         1.72193         2.35023
|104>    H       -1.07216         3.03571         0.04624
|105>    H       -1.92907         8.76325        -2.14661
|106>    H       -4.81448        15.59103         0.87142
|107>    H       -6.52901        21.14875        -1.17007
|108>    H       -6.06049        21.58892        -5.06435
|109>    H       -7.50794        25.78460        -0.63134
|110>    H       -7.76919        26.74762        -5.51650
|111>    H       -8.38637        29.03319        -5.03565
|112>    H       -8.88193        30.82182        -3.41776
|113>    H       -8.77587        30.37448        -0.99805
|114>    H       -8.16676        28.13252        -0.17608
|115> *
|116>
|117>                          ****END OF INPUT****

CARTESIAN COORDINATES (ANGSTROEM)
---------------------------------
  C     -3.439150    2.509960    4.557810
  C     -4.549280    3.060860    3.973520
  C     -5.711250    3.420320    4.686060
  N     -6.672320    3.742380    5.224210
  C     -4.680050    3.246940    2.582220
  N     -4.827170    3.379890    1.451390
  C     -3.354000    2.044240    5.936140
  C     -2.313890    1.071900    6.021250
  C     -2.032710    0.426520    7.191100
  C     -2.782850    0.737780    8.347690
  C     -3.811090    1.722080    8.271910
  C     -4.086090    2.369550    7.045770
  C     -4.545860    2.028260    9.435290
  C     -4.282540    1.391180   10.617240
  C     -3.271820    0.420970   10.690760
  C     -2.538350    0.101070    9.580500
  C     -1.661230    0.937180    4.706980
  O     -0.783020    0.175260    4.378190
  C     -2.270120    2.009220    3.862010
  C     -1.645800    2.401060    2.722450
  C     -1.781880    3.616550    2.003530
  C     -1.432970    3.825550    0.679930
  C     -1.651820    5.141650    0.279140
  C     -2.129120    5.953400    1.323240
  S     -2.332030    5.098630    2.779220
  C     -2.315110    7.269010    0.827650
  C     -1.966650    7.287380   -0.533690
  C     -1.530220    5.954560   -0.922410
  C     -1.092490    5.549880   -2.147920
  C     -1.000700    6.430560   -3.247610
  N     -0.912600    7.142830   -4.141160
  C     -0.679390    4.222920   -2.396660
  N     -0.332450    3.150340   -2.604250
  C     -2.141910    8.542190   -1.117560
  C     -2.608890    9.475280   -0.209280
  S     -2.826860    8.786620    1.393580
  C     -2.945710   10.856360   -0.447060
  C     -3.204640   11.371020   -1.727740
  F     -3.136740   10.573330   -2.799910
  C     -3.569410   12.688510   -1.935990
  F     -3.815860   13.072940   -3.197230
  C     -3.718260   13.614740   -0.891360
  C     -3.424920   13.108020    0.385630
  C     -3.063320   11.790980    0.593800
  F     -2.801960   11.412820    1.854400
  F     -3.468700   13.907740    1.457980
  C     -4.161320   14.969010   -1.107060
  C     -4.680070   15.838820   -0.164310
  C     -5.032770   17.065980   -0.722540
  C     -4.770830   17.133210   -2.102330
  S     -4.111530   15.686750   -2.710610
  C     -5.170800   18.409570   -2.575100
  C     -5.686040   19.147890   -1.487610
  C     -5.622730   18.323250   -0.290540
  C     -6.045410   18.645230    0.964080
  C     -6.636060   19.886520    1.290530
  N     -7.130580   20.874700    1.593930
  C     -5.945220   17.742000    2.045360
  N     -5.875490   17.017560    2.930980
  C     -6.113070   20.420250   -1.842950
  C     -5.933150   20.673780   -3.196430
  S     -5.220990   19.283500   -4.030570
  C     -6.245890   21.781330   -4.013930
  C     -6.730420   23.021960   -3.707430
  C     -7.068700   24.027500   -4.706890
  C     -7.154530   23.849500   -6.063770
  C     -7.504860   24.871980   -6.971930
  N     -7.773360   25.654450   -7.767720
  C     -6.946840   22.642620   -6.764490
  N     -6.812560   21.703440   -7.412650
  C     -7.380470   25.268610   -4.008240
  C     -7.304840   25.028390   -2.608170
  C     -6.914140   23.632480   -2.363850
  O     -6.749740   23.124400   -1.274960
  C     -7.568650   26.001190   -1.687510
  C     -7.924770   27.291910   -2.136110
  C     -7.989790   27.547600   -3.536610
  C     -7.712930   26.517500   -4.464700
  C     -8.338790   28.841830   -3.973670
  C     -8.614530   29.834290   -3.072830
  C     -8.553810   29.579790   -1.694420
  C     -8.215830   28.335460   -1.235830
  H     -1.247880   -0.313870    7.234760
  H     -4.862820    3.117920    7.015330
  H     -5.325380    2.773190    9.372480
  H     -4.852450    1.630900   11.502290
  H     -3.077140   -0.071510   11.631620
  H     -1.759040   -0.645080    9.631620
  H     -0.884140    1.721930    2.350230
  H     -1.072160    3.035710    0.046240
  H     -1.929070    8.763250   -2.146610
  H     -4.814480   15.591030    0.871420
  H     -6.529010   21.148750   -1.170070
  H     -6.060490   21.588920   -5.064350
  H     -7.507940   25.784600   -0.631340
  H     -7.769190   26.747620   -5.516500
  H     -8.386370   29.033190   -5.035650
  H     -8.881930   30.821820   -3.417760
  H     -8.775870   30.374480   -0.998050
  H     -8.166760   28.132520   -0.176080

 Total Charge           Charge          ....    0
 Multiplicity           Mult            ....    1
 Number of Electrons    NEL             ....  574
 Basis Dimension        Dim             .... 1254

ORBITAL ENERGIES
----------------

  NO   OCC          E(Eh)            E(eV)
   0   2.0000     -89.002364     -2421.8775
   1   2.0000     -89.001407     -2421.8514
   2   2.0000     -89.000316     -2421.8217
   3   2.0000     -88.999843     -2421.8089
   4   2.0000     -24.825598      -675.5389
   5   2.0000     -24.825220      -675.5286
   6   2.0000     -24.821041      -675.4149
   7   2.0000     -24.820567      -675.4020
   8   2.0000     -19.220293      -523.0108
   9   2.0000     -19.219011      -522.9759
  10   2.0000     -14.435509      -392.8102
  11   2.0000     -14.435452      -392.8086
  12   2.0000     -14.435316      -392.8049
  13   2.0000     -14.431753      -392.7080
  14   2.0000     -14.420851      -392.4113
  15   2.0000     -14.420344      -392.3975
  16   2.0000     -14.419565      -392.3763
  17   2.0000     -14.415145      -392.2560
  18   2.0000     -10.401566      -283.0410
  19   2.0000     -10.401350      -283.0351
  20   2.0000     -10.401092      -283.0281
  21   2.0000     -10.400600      -283.0147
  22   2.0000     -10.371859      -282.2326
  23   2.0000     -10.371800      -282.2310
  24   2.0000     -10.371378      -282.2195
  25   2.0000     -10.371033      -282.2102
  26   2.0000     -10.359365      -281.8926
  27   2.0000     -10.358192      -281.8607
  28   2.0000     -10.349798      -281.6323
  29   2.0000     -10.349379      -281.6209
  30   2.0000     -10.347833      -281.5788
  31   2.0000     -10.347504      -281.5699
  32   2.0000     -10.346064      -281.5307
  33   2.0000     -10.344570      -281.4901
  34   2.0000     -10.344368      -281.4846
  35   2.0000     -10.344217      -281.4805
  36   2.0000     -10.343628      -281.4644
  37   2.0000     -10.343060      -281.4490
  38   2.0000     -10.342206      -281.4257
  39   2.0000     -10.341399      -281.4038
  40   2.0000     -10.335271      -281.2370
  41   2.0000     -10.335248      -281.2364
  42   2.0000     -10.335149      -281.2337
  43   2.0000     -10.333531      -281.1897
  44   2.0000     -10.332974      -281.1745
  45   2.0000     -10.330693      -281.1125
  46   2.0000     -10.330687      -281.1123
  47   2.0000     -10.329368      -281.0764
  48   2.0000     -10.323165      -280.9076
  49   2.0000     -10.322537      -280.8905
  50   2.0000     -10.322196      -280.8812
  51   2.0000     -10.318321      -280.7758
  52   2.0000     -10.316978      -280.7393
  53   2.0000     -10.315614      -280.7021
  54   2.0000     -10.314316      -280.6668
  55   2.0000     -10.313341      -280.6403
  56   2.0000     -10.313232      -280.6373
  57   2.0000     -10.313136      -280.6347
  58   2.0000     -10.312640      -280.6212
  59   2.0000     -10.308532      -280.5094
  60   2.0000     -10.308271      -280.5023
  61   2.0000     -10.305464      -280.4259
  62   2.0000     -10.305235      -280.4197
  63   2.0000     -10.303476      -280.3718
  64   2.0000     -10.302293      -280.3396
  65   2.0000     -10.301975      -280.3310
  66   2.0000     -10.301784      -280.3258
  67   2.0000     -10.301595      -280.3207
  68   2.0000     -10.298117      -280.2260
  69   2.0000     -10.297850      -280.2187
  70   2.0000     -10.297410      -280.2068
  71   2.0000     -10.296651      -280.1861
  72   2.0000     -10.294344      -280.1233
  73   2.0000     -10.290288      -280.0130
  74   2.0000     -10.289886      -280.0020
  75   2.0000     -10.289654      -279.9957
  76   2.0000     -10.289258      -279.9849
  77   2.0000     -10.288651      -279.9684
  78   2.0000     -10.286839      -279.9191
  79   2.0000     -10.286348      -279.9058
  80   2.0000     -10.286142      -279.9001
  81   2.0000     -10.285772      -279.8901
  82   2.0000      -8.096547      -220.3182
  83   2.0000      -8.095634      -220.2934
  84   2.0000      -8.094566      -220.2643
  85   2.0000      -8.094519      -220.2631
  86   2.0000      -6.065867      -165.0606
  87   2.0000      -6.064912      -165.0347
  88   2.0000      -6.063786      -165.0040
  89   2.0000      -6.063659      -165.0006
  90   2.0000      -6.061437      -164.9401
  91   2.0000      -6.060519      -164.9151
  92   2.0000      -6.059522      -164.8880
  93   2.0000      -6.059507      -164.8876
  94   2.0000      -6.058952      -164.8725
  95   2.0000      -6.058096      -164.8492
  96   2.0000      -6.057139      -164.8231
  97   2.0000      -6.056949      -164.8180
  98   2.0000      -1.348605       -36.6974
  99   2.0000      -1.347759       -36.6744
 100   2.0000      -1.330300       -36.1993
 101   2.0000      -1.329821       -36.1863
 102   2.0000      -1.136037       -30.9131
 103   2.0000      -1.134771       -30.8787
 104   2.0000      -1.055501       -28.7217
 105   2.0000      -1.055181       -28.7129
 106   2.0000      -1.028419       -27.9847
 107   2.0000      -1.026999       -27.9461
 108   2.0000      -1.025180       -27.8966
 109   2.0000      -1.021049       -27.7842
 110   2.0000      -1.019426       -27.7400
 111   2.0000      -1.013080       -27.5673
 112   2.0000      -1.011137       -27.5144
 113   2.0000      -1.009587       -27.4723
 114   2.0000      -1.003273       -27.3004
 115   2.0000      -1.001792       -27.2601
 116   2.0000      -1.000248       -27.2181
 117   2.0000      -0.997875       -27.1536
 118   2.0000      -0.995260       -27.0824
 119   2.0000      -0.977226       -26.5917
 120   2.0000      -0.973698       -26.4957
 121   2.0000      -0.968944       -26.3663
 122   2.0000      -0.965272       -26.2664
 123   2.0000      -0.936775       -25.4909
 124   2.0000      -0.931462       -25.3464
 125   2.0000      -0.927328       -25.2339
 126   2.0000      -0.921891       -25.0859
 127   2.0000      -0.912541       -24.8315
 128   2.0000      -0.902462       -24.5572
 129   2.0000      -0.896673       -24.3997
 130   2.0000      -0.886309       -24.1177
 131   2.0000      -0.882507       -24.0142
 132   2.0000      -0.882242       -24.0070
 133   2.0000      -0.880300       -23.9542
 134   2.0000      -0.874152       -23.7869
 135   2.0000      -0.873874       -23.7793
 136   2.0000      -0.866346       -23.5745
 137   2.0000      -0.865623       -23.5548
 138   2.0000      -0.864826       -23.5331
 139   2.0000      -0.836155       -22.7529
 140   2.0000      -0.832758       -22.6605
 141   2.0000      -0.828881       -22.5550
 142   2.0000      -0.818276       -22.2664
 143   2.0000      -0.808617       -22.0036
 144   2.0000      -0.787159       -21.4197
 145   2.0000      -0.785713       -21.3803
 146   2.0000      -0.779900       -21.2222
 147   2.0000      -0.766965       -20.8702
 148   2.0000      -0.763871       -20.7860
 149   2.0000      -0.761376       -20.7181
 150   2.0000      -0.753045       -20.4914
 151   2.0000      -0.734573       -19.9888
 152   2.0000      -0.728873       -19.8336
 153   2.0000      -0.713922       -19.4268
 154   2.0000      -0.712865       -19.3980
 155   2.0000      -0.710222       -19.3261
 156   2.0000      -0.706108       -19.2142
 157   2.0000      -0.705831       -19.2066
 158   2.0000      -0.701927       -19.1004
 159   2.0000      -0.700432       -19.0597
 160   2.0000      -0.694943       -18.9104
 161   2.0000      -0.691155       -18.8073
 162   2.0000      -0.686892       -18.6913
 163   2.0000      -0.682585       -18.5741
 164   2.0000      -0.679726       -18.4963
 165   2.0000      -0.677463       -18.4347
 166   2.0000      -0.665209       -18.1013
 167   2.0000      -0.663133       -18.0448
 168   2.0000      -0.654820       -17.8185
 169   2.0000      -0.649713       -17.6796
 170   2.0000      -0.641078       -17.4446
 171   2.0000      -0.640769       -17.4362
 172   2.0000      -0.638133       -17.3645
 173   2.0000      -0.635480       -17.2923
 174   2.0000      -0.631035       -17.1713
 175   2.0000      -0.626174       -17.0391
 176   2.0000      -0.623214       -16.9585
 177   2.0000      -0.621439       -16.9102
 178   2.0000      -0.616041       -16.7633
 179   2.0000      -0.612624       -16.6704
 180   2.0000      -0.611818       -16.6484
 181   2.0000      -0.607252       -16.5242
 182   2.0000      -0.604240       -16.4422
 183   2.0000      -0.599134       -16.3033
 184   2.0000      -0.595285       -16.1985
 185   2.0000      -0.588552       -16.0153
 186   2.0000      -0.585085       -15.9210
 187   2.0000      -0.581069       -15.8117
 188   2.0000      -0.575325       -15.6554
 189   2.0000      -0.567060       -15.4305
 190   2.0000      -0.562889       -15.3170
 191   2.0000      -0.560176       -15.2432
 192   2.0000      -0.558633       -15.2012
 193   2.0000      -0.556176       -15.1343
 194   2.0000      -0.555735       -15.1223
 195   2.0000      -0.552088       -15.0231
 196   2.0000      -0.550730       -14.9861
 197   2.0000      -0.547886       -14.9087
 198   2.0000      -0.546859       -14.8808
 199   2.0000      -0.544302       -14.8112
 200   2.0000      -0.541488       -14.7346
 201   2.0000      -0.539501       -14.6806
 202   2.0000      -0.538918       -14.6647
 203   2.0000      -0.530756       -14.4426
 204   2.0000      -0.527482       -14.3535
 205   2.0000      -0.524751       -14.2792
 206   2.0000      -0.522891       -14.2286
 207   2.0000      -0.521056       -14.1786
 208   2.0000      -0.519748       -14.1431
 209   2.0000      -0.518160       -14.0998
 210   2.0000      -0.516433       -14.0529
 211   2.0000      -0.514703       -14.0058
 212   2.0000      -0.511995       -13.9321
 213   2.0000      -0.510693       -13.8967
 214   2.0000      -0.509536       -13.8652
 215   2.0000      -0.508306       -13.8317
 216   2.0000      -0.507536       -13.8107
 217   2.0000      -0.504046       -13.7158
 218   2.0000      -0.501848       -13.6560
 219   2.0000      -0.500856       -13.6290
 220   2.0000      -0.499150       -13.5826
 221   2.0000      -0.498078       -13.5534
 222   2.0000      -0.496334       -13.5059
 223   2.0000      -0.495485       -13.4828
 224   2.0000      -0.493075       -13.4172
 225   2.0000      -0.488498       -13.2927
 226   2.0000      -0.486101       -13.2275
 227   2.0000      -0.483970       -13.1695
 228   2.0000      -0.475279       -12.9330
 229   2.0000      -0.470583       -12.8052
 230   2.0000      -0.469419       -12.7735
 231   2.0000      -0.466686       -12.6992
 232   2.0000      -0.465766       -12.6741
 233   2.0000      -0.465602       -12.6697
 234   2.0000      -0.464828       -12.6486
 235   2.0000      -0.461873       -12.5682
 236   2.0000      -0.458591       -12.4789
 237   2.0000      -0.456534       -12.4229
 238   2.0000      -0.455461       -12.3937
 239   2.0000      -0.453838       -12.3496
 240   2.0000      -0.451324       -12.2811
 241   2.0000      -0.449358       -12.2276
 242   2.0000      -0.447938       -12.1890
 243   2.0000      -0.445866       -12.1326
 244   2.0000      -0.445381       -12.1194
 245   2.0000      -0.445264       -12.1162
 246   2.0000      -0.444505       -12.0956
 247   2.0000      -0.443917       -12.0796
 248   2.0000      -0.443573       -12.0702
 249   2.0000      -0.442976       -12.0540
 250   2.0000      -0.442267       -12.0347
 251   2.0000      -0.440389       -11.9836
 252   2.0000      -0.437737       -11.9114
 253   2.0000      -0.435420       -11.8484
 254   2.0000      -0.434844       -11.8327
 255   2.0000      -0.434386       -11.8203
 256   2.0000      -0.431964       -11.7543
 257   2.0000      -0.431289       -11.7360
 258   2.0000      -0.429883       -11.6977
 259   2.0000      -0.428589       -11.6625
 260   2.0000      -0.426823       -11.6144
 261   2.0000      -0.421536       -11.4706
 262   2.0000      -0.420591       -11.4449
 263   2.0000      -0.412792       -11.2326
 264   2.0000      -0.409663       -11.1475
 265   2.0000      -0.406878       -11.0717
 266   2.0000      -0.404875       -11.0172
 267   2.0000      -0.402228       -10.9452
 268   2.0000      -0.387494       -10.5442
 269   2.0000      -0.381646       -10.3851
 270   2.0000      -0.375850       -10.2274
 271   2.0000      -0.368961       -10.0399
 272   2.0000      -0.358585        -9.7576
 273   2.0000      -0.356766        -9.7081
 274   2.0000      -0.348193        -9.4748
 275   2.0000      -0.341841        -9.3020
 276   2.0000      -0.340607        -9.2684
 277   2.0000      -0.338748        -9.2178
 278   2.0000      -0.331849        -9.0301
 279   2.0000      -0.328779        -8.9465
 280   2.0000      -0.324278        -8.8241
 281   2.0000      -0.319634        -8.6977
 282   2.0000      -0.316691        -8.6176
 283   2.0000      -0.299565        -8.1516
 284   2.0000      -0.295777        -8.0485
 285   2.0000      -0.282114        -7.6767
 286   2.0000      -0.265699        -7.2300
 287   0.0000      -0.120507        -3.2792
 288   0.0000      -0.114717        -3.1216
 289   0.0000      -0.093535        -2.5452
 290   0.0000      -0.092516        -2.5175
 291   0.0000      -0.064979        -1.7682

MULLIKEN ATOMIC CHARGES
-----------------------
   0 C :    0.246521
   1 C :   -0.322901
   2 C :   -0.177471
   3 N :    0.159491
   4 C :   -0.205308
   5 N :    0.173667
   6 C :    0.035393
   7 C :    0.012713
   8 C :   -0.084566
   9 C :    0.098081
  10 C :    0.098459
  11 C :   -0.082885
  12 C :   -0.021779
  13 C :    0.037487
  14 C :    0.037291
  15 C :   -0.018382
  16 C :    0.143433
  17 O :   -0.138427
  18 C :   -0.138187
  19 C :    0.049357
  20 C :   -0.102433
  21 C :    0.014802
  22 C :    0.028106
  23 C :   -0.085315
  24 S :    0.209889
  25 C :   -0.099993
  26 C :    0.012101
  27 C :    0.299389
  28 C :   -0.292679
  29 C :   -0.190832
  30 N :    0.182316
  31 C :   -0.191215
  32 N :    0.183065
  33 C :   -0.035498
  34 C :   -0.096141
  35 S :    0.223549
  36 C :    0.016249
  37 C :    0.169405
  38 F :   -0.159291
  39 C :    0.156219
  40 F :   -0.169546
  41 C :    0.015399
  42 C :    0.167321
  43 C :    0.154774
  44 F :   -0.170457
  45 F :   -0.160195
  46 C :   -0.091031
  47 C :   -0.042673
  48 C :    0.013962
  49 C :   -0.101671
  50 S :    0.225416
  51 C :   -0.084093
  52 C :   -0.003629
  53 C :    0.314577
  54 C :   -0.302275
  55 C :   -0.195278
  56 N :    0.200522
  57 C :   -0.192185
  58 N :    0.179151
  59 C :   -0.011100
  60 C :   -0.113117
  61 S :    0.211601
  62 C :    0.032196
  63 C :   -0.084673
  64 C :    0.317140
  65 C :   -0.356975
  66 C :   -0.179621
  67 N :    0.147028
  68 C :   -0.190318
  69 N :    0.149356
  70 C :    0.051320
  71 C :   -0.004565
  72 C :    0.160366
  73 O :   -0.148634
  74 C :   -0.082018
  75 C :    0.100396
  76 C :    0.098527
  77 C :   -0.085841
  78 C :   -0.022794
  79 C :    0.039376
  80 C :    0.036647
  81 C :   -0.018492
  82 H :   -0.008680
  83 H :   -0.003588
  84 H :   -0.008701
  85 H :   -0.003215
  86 H :   -0.003974
  87 H :   -0.014618
  88 H :    0.036317
  89 H :    0.018709
  90 H :    0.019944
  91 H :    0.020615
  92 H :    0.040271
  93 H :    0.007385
  94 H :   -0.007917
  95 H :   -0.008194
  96 H :   -0.007898
  97 H :   -0.005300
  98 H :   -0.003737
  99 H :   -0.014991
Sum of atomic charges:    0.0000000

LOEWDIN ATOMIC CHARGES
----------------------
   0 C :    0.060313
   1 C :   -0.142564
   2 C :   -0.020302
   3 N :   -0.048451
   4 C :   -0.035329
   5 N :   -0.047728
   6 C :   -0.023975
   7 C :   -0.057531
   8 C :    0.033956
   9 C :   -0.008496
  10 C :   -0.005070
  11 C :    0.016567
  12 C :   -0.006289
  13 C :   -0.011615
  14 C :   -0.011666
  15 C :   -0.008587
  16 C :    0.084060
  17 O :   -0.139350
  18 C :   -0.094776
  19 C :    0.049785
  20 C :   -0.175942
  21 C :    0.012487
  22 C :   -0.067074
  23 C :   -0.156873
  24 S :    0.510494
  25 C :   -0.183528
  26 C :   -0.062307
  27 C :    0.079419
  28 C :   -0.095030
  29 C :   -0.018038
  30 N :   -0.025421
  31 C :   -0.017204
  32 N :   -0.025721
  33 C :   -0.016210
  34 C :   -0.166089
  35 S :    0.506679
  36 C :   -0.077954
  37 C :    0.065748
  38 F :   -0.032549
  39 C :    0.056044
  40 F :   -0.045346
  41 C :   -0.078784
  42 C :    0.065738
  43 C :    0.054615
  44 F :   -0.046312
  45 F :   -0.032653
  46 C :   -0.164000
  47 C :   -0.018909
  48 C :   -0.059717
  49 C :   -0.187570
  50 S :    0.505097
  51 C :   -0.162021
  52 C :   -0.071787
  53 C :    0.074292
  54 C :   -0.092045
  55 C :   -0.023480
  56 N :   -0.012777
  57 C :   -0.017043
  58 N :   -0.027025
  59 C :    0.015671
  60 C :   -0.174187
  61 S :    0.500616
  62 C :    0.041300
  63 C :   -0.091953
  64 C :    0.077567
  65 C :   -0.142142
  66 C :   -0.016807
  67 N :   -0.053667
  68 C :   -0.023928
  69 N :   -0.054056
  70 C :   -0.027004
  71 C :   -0.055903
  72 C :    0.087572
  73 O :   -0.135537
  74 C :    0.034334
  75 C :   -0.007869
  76 C :   -0.006061
  77 C :    0.019901
  78 C :   -0.005446
  79 C :   -0.012841
  80 C :   -0.011652
  81 C :   -0.008940
  82 H :    0.040287
  83 H :    0.038926
  84 H :    0.034671
  85 H :    0.033822
  86 H :    0.033375
  87 H :    0.032591
  88 H :    0.055545
  89 H :    0.047530
  90 H :    0.040730
  91 H :    0.039997
  92 H :    0.042968
  93 H :    0.042496
  94 H :    0.040798
  95 H :    0.038994
  96 H :    0.034987
  97 H :    0.033176
  98 H :    0.033252
  99 H :    0.032729

  Mayer bond orders larger than 0.100000
B(  0-C ,  1-C ) :   1.6584 B(  0-C ,  6-C ) :   1.0034 B(  0-C , 18-C ) :   1.0295
B(  1-C ,  2-C ) :   1.1357 B(  1-C ,  4-C ) :   1.1533 B(  2-C ,  3-N ) :   2.9932
B(  4-C ,  5-N ) :   3.0191 B(  6-C ,  7-C ) :   1.2142 B(  6-C , 11-C ) :   1.4559
B(  7-C ,  8-C ) :   1.4732 B(  7-C , 16-C ) :   0.9214 B(  8-C ,  9-C ) :   1.1848
B(  8-C , 82-H ) :   1.0172 B(  9-C , 10-C ) :   1.2550 B(  9-C , 15-C ) :   1.2437
B( 10-C , 11-C ) :   1.2043 B( 10-C , 12-C ) :   1.2398 B( 11-C , 83-H ) :   0.9954
B( 12-C , 13-C ) :   1.4904 B( 12-C , 84-H ) :   0.9985 B( 13-C , 14-C ) :   1.2592
B( 13-C , 85-H ) :   0.9886 B( 14-C , 15-C ) :   1.4901 B( 14-C , 86-H ) :   0.9889
B( 15-C , 87-H ) :   0.9986 B( 16-C , 17-O ) :   2.2769 B( 16-C , 18-C ) :   0.9316
B( 18-C , 19-C ) :   1.6640 B( 19-C , 20-C ) :   1.1181 B( 19-C , 88-H ) :   0.9472
B( 20-C , 21-C ) :   1.4152 B( 20-C , 24-S ) :   1.0946 B( 21-C , 22-C ) :   1.2982
B( 21-C , 89-H ) :   0.9994 B( 22-C , 23-C ) :   1.4184 B( 22-C , 27-C ) :   0.9915
B( 23-C , 24-S ) :   1.1529 B( 23-C , 25-C ) :   1.1982 B( 25-C , 26-C ) :   1.4303
B( 25-C , 35-S ) :   1.1249 B( 26-C , 27-C ) :   0.9965 B( 26-C , 33-C ) :   1.2912
B( 27-C , 28-C ) :   1.7205 B( 28-C , 29-C ) :   1.1346 B( 28-C , 31-C ) :   1.1343
B( 29-C , 30-N ) :   2.9943 B( 31-C , 32-N ) :   2.9945 B( 33-C , 34-C ) :   1.4744
B( 33-C , 90-H ) :   0.9932 B( 34-C , 35-S ) :   1.1118 B( 34-C , 36-C ) :   1.0861
B( 36-C , 37-C ) :   1.2909 B( 36-C , 41-C ) :   0.1206 B( 36-C , 43-C ) :   1.2799
B( 37-C , 38-F ) :   1.1503 B( 37-C , 39-C ) :   1.3272 B( 39-C , 40-F ) :   1.1390
B( 39-C , 41-C ) :   1.2821 B( 41-C , 42-C ) :   1.2833 B( 41-C , 46-C ) :   1.0901
B( 42-C , 43-C ) :   1.3249 B( 42-C , 45-F ) :   1.1482 B( 43-C , 44-F ) :   1.1392
B( 46-C , 47-C ) :   1.4689 B( 46-C , 50-S ) :   1.1144 B( 47-C , 48-C ) :   1.2912
B( 47-C , 91-H ) :   0.9917 B( 48-C , 49-C ) :   1.4308 B( 48-C , 53-C ) :   0.9961
B( 49-C , 50-S ) :   1.1173 B( 49-C , 51-C ) :   1.1937 B( 51-C , 52-C ) :   1.3904
B( 51-C , 61-S ) :   1.1661 B( 52-C , 53-C ) :   0.9969 B( 52-C , 59-C ) :   1.3041
B( 53-C , 54-C ) :   1.7152 B( 54-C , 55-C ) :   1.1392 B( 54-C , 57-C ) :   1.1365
B( 55-C , 56-N ) :   2.9983 B( 57-C , 58-N ) :   2.9895 B( 59-C , 60-C ) :   1.4069
B( 59-C , 92-H ) :   0.9672 B( 60-C , 61-S ) :   1.0824 B( 60-C , 62-C ) :   1.2083
B( 62-C , 63-C ) :   1.6030 B( 62-C , 93-H ) :   0.9099 B( 63-C , 64-C ) :   1.0779
B( 63-C , 72-C ) :   0.9325 B( 64-C , 65-C ) :   1.6215 B( 64-C , 70-C ) :   0.9844
B( 65-C , 66-C ) :   1.1492 B( 65-C , 68-C ) :   1.1381 B( 66-C , 67-N ) :   2.9617
B( 68-C , 69-N ) :   2.9694 B( 70-C , 71-C ) :   1.2163 B( 70-C , 77-C ) :   1.4442
B( 71-C , 72-C ) :   0.9558 B( 71-C , 74-C ) :   1.4696 B( 72-C , 73-O ) :   2.1653
B( 74-C , 75-C ) :   1.1751 B( 74-C , 94-H ) :   1.0182 B( 75-C , 76-C ) :   1.2561
B( 75-C , 81-C ) :   1.2433 B( 76-C , 77-C ) :   1.2067 B( 76-C , 78-C ) :   1.2384
B( 77-C , 95-H ) :   0.9909 B( 78-C , 79-C ) :   1.4904 B( 78-C , 96-H ) :   0.9979
B( 79-C , 80-C ) :   1.2595 B( 79-C , 97-H ) :   0.9879 B( 80-C , 81-C ) :   1.4879
B( 80-C , 98-H ) :   0.9887 B( 81-C , 99-H ) :   0.9987

-----------------------------------------------------------------------------
         ABSORPTION SPECTRUM VIA TRANSITION ELECTRIC DIPOLE MOMENTS
-----------------------------------------------------------------------------
State   Energy  Wavelength   fosc         T2         TX        TY        TZ
        (cm-1)    (nm)                  (au**2)     (au)      (au)      (au)
-----------------------------------------------------------------------------
   0   14799.0    675.7   0.605337779  13.46605   0.41013  -3.34000   1.46364
   1   15625.3    640.0   0.124022798   2.61306  -0.67193   1.42774  -0.35089
   2   21021.6    475.7   1.375648670  21.54359   0.02646   3.97285  -2.39987
   3   22275.1    448.9   0.796246652  11.76804   1.65983  -2.92535   0.67479
   4   23968.7    417.2   0.010275314   0.14113   0.04249   0.16362   0.33549
   5   24661.1    405.5   0.035421892   0.47286   0.39624  -0.54842  -0.12285
   6   25387.0    393.9   0.082508338   1.06994  -0.21161   0.49518   0.88316
   7   25674.8    389.5   0.055418578   0.71060   0.06917   0.47233  -0.69478
   8   27531.5    363.2   0.031090761   0.37177   0.03690   0.60198   0.08961
   9   27773.8    360.1   0.012682125   0.15033   0.16199  -0.31284   0.16191
  10   28268.0    353.8   0.229831680   2.67664   0.57616  -1.51436   0.22671
  11   28929.6    345.7   0.398389621   4.53357   0.72897  -1.99230   0.18138
  12   29289.0    341.4   0.056303420   0.63286   0.16020  -0.72804   0.27776
  13   29489.1    339.1   0.216677535   2.41896  -0.51739   1.44757   0.23626
  14   29555.1    338.4   0.011824219   0.13171  -0.09421   0.06678   0.34406
  15   30222.2    330.9   0.159274140   1.73498  -0.03252   0.36686   1.26465
  16   30424.7    328.7   0.036167247   0.39135  -0.19007  -0.53809   0.25630
  17   30556.2    327.3   0.599240927   6.45622  -0.87876   1.17870   2.07236
  18   31283.3    319.7   0.070372059   0.74056   0.45292  -0.14766   0.71668
  19   31374.4    318.7   0.609875780   6.39943  -0.73697   0.38298   2.38948
  20   31597.1    316.5   0.015142066   0.15777  -0.13956   0.37115  -0.02314
  21   31787.7    314.6   0.233149158   2.41463   0.23122  -1.35559   0.72355
  22   32265.0    309.9   0.042198991   0.43057   0.01626  -0.13382   0.64218
  23   32586.1    306.9   0.334125952   3.37562  -0.16115   1.49488  -1.05593
  24   32772.5    305.1   0.019887381   0.19978   0.02363  -0.14138  -0.42336
  25   32973.7    303.3   0.288429824   2.87971   0.34174  -0.75327  -1.48172
  26   33132.9    301.8   0.182672761   1.81506  -0.32277   1.26561  -0.33033
  27   33205.1    301.2   0.089212046   0.88449   0.32344  -0.85063   0.23729
  28   33502.7    298.5   0.057287709   0.56293  -0.33671   0.66906  -0.04375
  29   33791.8    295.9   0.057704152   0.56218   0.04273  -0.45941  -0.59101
  30   34001.2    294.1   0.039172493   0.37928  -0.15831   0.50986  -0.30702
  31   34053.7    293.7   0.005666506   0.05478  -0.03191   0.06364  -0.22296
  32   34429.1    290.5   0.070518997   0.67430   0.49633  -0.31466   0.57354
  33   34692.6    288.2   0.130215256   1.23566  -0.10255   0.77277   0.79245
  34   34748.0    287.8   0.100478391   0.95196   0.26006  -0.79453  -0.50304
  35   35042.4    285.4   0.541096043   5.08342  -0.55728   1.02480   1.92942
  36   35402.4    282.5   0.395438109   3.67723   0.13720   0.74513  -1.76159
  37   35474.5    281.9   0.099420700   0.92265   0.61709  -0.30585   0.66955
  38   35887.7    278.6   0.179586981   1.64742   0.05386   0.07869   1.27997
  39   36584.5    273.3   0.010143649   0.09128   0.06672  -0.09023   0.28051
  40   36760.1    272.0   0.007850621   0.07031  -0.13518   0.20591  -0.09816
  41   37223.3    268.6   0.086931314   0.76884   0.26610  -0.34802   0.75955
  42   37772.6    264.7   0.016458173   0.14344  -0.16952   0.14084   0.30801
  43   37962.3    263.4   0.018539230   0.16077  -0.02140   0.26729   0.29811
  44   38235.9    261.5   0.032912511   0.28338   0.34456  -0.34609   0.21185
  45   38606.6    259.0   0.043274878   0.36902   0.18137   0.08778  -0.57308
  46   38798.0    257.7   0.088159214   0.74806  -0.06796  -0.14982  -0.84911
  47   38946.1    256.8   0.031054292   0.26250  -0.11799   0.07488  -0.49292
  48   39106.0    255.7   0.026692414   0.22471  -0.04207   0.15603   0.44564
  49   39171.4    255.3   0.003583999   0.03012  -0.09297  -0.03130   0.14317
  50   39418.0    253.7   0.044138437   0.36864   0.25261  -0.02116   0.55170
  51   39695.6    251.9   0.065350002   0.54197  -0.20296   0.50043  -0.50035
  52   39740.2    251.6   0.055097974   0.45644   0.01021   0.35680  -0.57361
  53   39810.7    251.2   0.062817966   0.51947  -0.05589   0.59463  -0.40344
  54   39911.3    250.6   0.056902785   0.46937  -0.19868   0.15669   0.63667
  55   40151.8    249.1   0.022044660   0.18075   0.30777   0.11493  -0.26984

FINAL SINGLE POINT ENERGY     -5025.302962580105

DIPOLE MOMENT
-------------
                                X             Y             Z
Electronic contribution:     17.28340     -18.56117     -30.70867
Nuclear contribution   :    -16.10651      19.39117      34.17859
                        -----------------------------------------
Total Dipole Moment    :      1.17689       0.83000       3.46992
                        -----------------------------------------
Magnitude (a.u.)       :      3.75690
Magnitude (Debye)      :      9.54928

Rotational constants in cm-1:     0.001702     0.000156     0.000145
Rotational constants in MHz :    51.027285     4.680308     4.351444

                             ****ORCA TERMINATED NORMALLY****
TOTAL RUN TIME: 0 days 0 hours 10 minutes 32 seconds 25 msec
