                         Program Version 4.2.0 -  RELEASE  -
|  1> # ORCA input file
|  2> # SCF done       -178.096742218956          0.000717448584
|  3> ! CAM-B3LYP def2-SVP def2/J RIJCOSX Grid4 TightSCF
|  4> %maxcore 5000
|  5> %tddft
|  6>     Mode sTDDFT
|  7>     Ethresh 5.0
|  8>     maxcore 5000
|  9> end
| 10>
| 11> %pal
| 12>   nprocs 6
| 13>   end
| 14> * xyz 0 1
| 15>    C        3.55009        -2.18531         2.84278
| 16>    S        4.81663        -1.07320         2.50763
| 17>    C        3.79252         0.32266         2.72350
| 18>    C        4.33175         1.70649         2.62490
| 19>    C        4.99601         2.13294         3.93629
| 20>    C        2.54218        -0.09271         3.04462
| 21>    C        2.38539        -1.52807         3.11578
| 22>    N        1.14205        -1.95009         3.44479
| 23>    C        0.33023        -0.96963         3.63115
| 24>    S        1.02944         0.67532         3.40251
| 25>    C       -1.02656        -1.06957         4.03643
| 26>    C       -1.60457        -2.25290         4.35256
| 27>    C       -2.92676        -2.42547         4.84727
| 28>    C       -3.39251        -3.65698         5.24798
| 29>    C       -4.64130        -3.89685         5.81338
| 30>    C       -5.57128        -2.79700         6.09881
| 31>    C       -5.34800        -1.51204         5.75132
| 32>    S       -3.92218        -0.97287         4.96117
| 33>    C       -6.65563        -3.39165         6.80053
| 34>    C       -6.41350        -4.75542         6.96701
| 35>    C       -7.45801        -5.40068         7.66518
| 36>    C       -8.44217        -4.52896         8.00723
| 37>    S       -8.14895        -2.90019         7.49373
| 38>    C       -5.17741        -5.09770         6.31637
| 39>    C       -4.62726        -6.40123         6.29851
| 40>    C       -3.81868        -7.00095         5.37985
| 41>    C       -3.56230        -6.68239         4.01715
| 42>    C       -2.51235        -7.36580         3.35006
| 43>    C       -2.28900        -7.23820         1.93291
| 44>    N       -1.27235        -7.88751         1.36412
| 45>    C       -0.48148        -8.65104         2.09051
| 46>    C       -0.71922        -8.79212         3.48867
| 47>    N       -1.70838        -8.15504         4.07578
| 48>    C        0.11268        -9.63266         4.26888
| 49>    N        0.79805       -10.32150         4.87601
| 50>    C        0.59151        -9.32586         1.46485
| 51>    N        1.46698        -9.88943         0.98522
| 52>    C       -3.11735        -6.46348         1.08308
| 53>    C       -4.15359        -5.75611         1.75252
| 54>    C       -4.36197        -5.86365         3.18369
| 55>    N       -5.42043        -5.15786         3.57643
| 56>    S       -6.08118        -4.41664         2.31618
| 57>    N       -5.06705        -4.96805         1.19078
| 58>    C       -2.93560        -6.47700        -0.33125
| 59>    C       -3.73852        -5.71716        -1.17115
| 60>    C       -3.71501        -5.74359        -2.55085
| 61>    C       -2.81688        -6.61454        -3.29282
| 62>    C       -1.90390        -7.40459        -2.68517
| 63>    S       -1.68296        -7.52862        -0.98226
| 64>    C       -3.14432        -6.41405        -4.66467
| 65>    C       -4.17984        -5.47980        -4.78222
| 66>    C       -4.52240        -5.25221        -6.13651
| 67>    C       -3.76730        -6.00055        -6.98047
| 68>    S       -2.60853        -7.01002        -6.17976
| 69>    C       -4.54970        -5.03188        -3.46718
| 70>    C       -5.50707        -4.08855        -3.07462
| 71>    C       -6.44224        -3.48607        -3.87353
| 72>    C       -7.34368        -2.53359        -3.37282
| 73>    S       -8.64893        -1.89683        -4.35013
| 74>    C       -9.25892        -0.87171        -3.07716
| 75>    C      -10.48175        -0.04715        -3.26348
| 76>    C      -11.74723        -0.88736        -3.07010
| 77>    C       -8.48755        -1.02573        -1.96684
| 78>    C       -7.39693        -1.94790        -2.10757
| 79>    N       -6.60865        -2.06517        -1.02578
| 80>    C       -6.99525        -1.31694        -0.04901
| 81>    S       -8.46508        -0.34128        -0.37135
| 82>    C       -6.34375        -1.20356         1.21857
| 83>    C       -5.17827        -1.79884         1.48625
| 84>    H        3.73699        -3.23868         2.82212
| 85>    H        3.50729         2.38559         2.39459
| 86>    H        5.06275         1.75833         1.81552
| 87>    H        4.27595         2.10344         4.75087
| 88>    H        5.38240         3.14505         3.84979
| 89>    H        5.81927         1.46391         4.17652
| 90>    H       -1.57210        -0.14003         4.12055
| 91>    H       -1.00638        -3.14904         4.25920
| 92>    H       -2.71436        -4.49307         5.14335
| 93>    H       -6.05259        -0.72084         5.95348
| 94>    H       -7.48377        -6.44844         7.90347
| 95>    H       -9.34943        -4.73660         8.54029
| 96>    H       -4.88631        -7.00210         7.16441
| 97>    H       -3.33811        -7.92215         5.68725
| 98>    H       -4.46034        -5.08039        -0.68104
| 99>    H       -1.22624        -8.03450        -3.24072
|100>    H       -5.27720        -4.57167        -6.48467
|101>    H       -3.81303        -6.02871        -8.05161
|102>    H       -5.51883        -3.81642        -2.02814
|103>    H       -6.54065        -3.75134        -4.91493
|104>    H      -10.48435         0.38308        -4.26723
|105>    H      -10.46710         0.76623        -2.53401
|106>    H      -11.77530        -1.69863        -3.79406
|107>    H      -12.63035        -0.26868        -3.20454
|108>    H      -11.76912        -1.31314        -2.06955
|109>    H       -6.84900        -0.59500         1.95571
|110>    H       -4.66725        -2.36683         0.72871
|111>    H       -4.68660        -1.67507         2.43448
|112> *
|113>
|114>                          ****END OF INPUT****

CARTESIAN COORDINATES (ANGSTROEM)
---------------------------------
  C      3.550090   -2.185310    2.842780
  S      4.816630   -1.073200    2.507630
  C      3.792520    0.322660    2.723500
  C      4.331750    1.706490    2.624900
  C      4.996010    2.132940    3.936290
  C      2.542180   -0.092710    3.044620
  C      2.385390   -1.528070    3.115780
  N      1.142050   -1.950090    3.444790
  C      0.330230   -0.969630    3.631150
  S      1.029440    0.675320    3.402510
  C     -1.026560   -1.069570    4.036430
  C     -1.604570   -2.252900    4.352560
  C     -2.926760   -2.425470    4.847270
  C     -3.392510   -3.656980    5.247980
  C     -4.641300   -3.896850    5.813380
  C     -5.571280   -2.797000    6.098810
  C     -5.348000   -1.512040    5.751320
  S     -3.922180   -0.972870    4.961170
  C     -6.655630   -3.391650    6.800530
  C     -6.413500   -4.755420    6.967010
  C     -7.458010   -5.400680    7.665180
  C     -8.442170   -4.528960    8.007230
  S     -8.148950   -2.900190    7.493730
  C     -5.177410   -5.097700    6.316370
  C     -4.627260   -6.401230    6.298510
  C     -3.818680   -7.000950    5.379850
  C     -3.562300   -6.682390    4.017150
  C     -2.512350   -7.365800    3.350060
  C     -2.289000   -7.238200    1.932910
  N     -1.272350   -7.887510    1.364120
  C     -0.481480   -8.651040    2.090510
  C     -0.719220   -8.792120    3.488670
  N     -1.708380   -8.155040    4.075780
  C      0.112680   -9.632660    4.268880
  N      0.798050  -10.321500    4.876010
  C      0.591510   -9.325860    1.464850
  N      1.466980   -9.889430    0.985220
  C     -3.117350   -6.463480    1.083080
  C     -4.153590   -5.756110    1.752520
  C     -4.361970   -5.863650    3.183690
  N     -5.420430   -5.157860    3.576430
  S     -6.081180   -4.416640    2.316180
  N     -5.067050   -4.968050    1.190780
  C     -2.935600   -6.477000   -0.331250
  C     -3.738520   -5.717160   -1.171150
  C     -3.715010   -5.743590   -2.550850
  C     -2.816880   -6.614540   -3.292820
  C     -1.903900   -7.404590   -2.685170
  S     -1.682960   -7.528620   -0.982260
  C     -3.144320   -6.414050   -4.664670
  C     -4.179840   -5.479800   -4.782220
  C     -4.522400   -5.252210   -6.136510
  C     -3.767300   -6.000550   -6.980470
  S     -2.608530   -7.010020   -6.179760
  C     -4.549700   -5.031880   -3.467180
  C     -5.507070   -4.088550   -3.074620
  C     -6.442240   -3.486070   -3.873530
  C     -7.343680   -2.533590   -3.372820
  S     -8.648930   -1.896830   -4.350130
  C     -9.258920   -0.871710   -3.077160
  C    -10.481750   -0.047150   -3.263480
  C    -11.747230   -0.887360   -3.070100
  C     -8.487550   -1.025730   -1.966840
  C     -7.396930   -1.947900   -2.107570
  N     -6.608650   -2.065170   -1.025780
  C     -6.995250   -1.316940   -0.049010
  S     -8.465080   -0.341280   -0.371350
  C     -6.343750   -1.203560    1.218570
  C     -5.178270   -1.798840    1.486250
  H      3.736990   -3.238680    2.822120
  H      3.507290    2.385590    2.394590
  H      5.062750    1.758330    1.815520
  H      4.275950    2.103440    4.750870
  H      5.382400    3.145050    3.849790
  H      5.819270    1.463910    4.176520
  H     -1.572100   -0.140030    4.120550
  H     -1.006380   -3.149040    4.259200
  H     -2.714360   -4.493070    5.143350
  H     -6.052590   -0.720840    5.953480
  H     -7.483770   -6.448440    7.903470
  H     -9.349430   -4.736600    8.540290
  H     -4.886310   -7.002100    7.164410
  H     -3.338110   -7.922150    5.687250
  H     -4.460340   -5.080390   -0.681040
  H     -1.226240   -8.034500   -3.240720
  H     -5.277200   -4.571670   -6.484670
  H     -3.813030   -6.028710   -8.051610
  H     -5.518830   -3.816420   -2.028140
  H     -6.540650   -3.751340   -4.914930
  H    -10.484350    0.383080   -4.267230
  H    -10.467100    0.766230   -2.534010
  H    -11.775300   -1.698630   -3.794060
  H    -12.630350   -0.268680   -3.204540
  H    -11.769120   -1.313140   -2.069550
  H     -6.849000   -0.595000    1.955710
  H     -4.667250   -2.366830    0.728710
  H     -4.686600   -1.675070    2.434480

 Total Charge           Charge          ....    0
 Multiplicity           Mult            ....    1
 Number of Electrons    NEL             ....  540
 Basis Dimension        Dim             .... 1142

ORBITAL ENERGIES
----------------

  NO   OCC          E(Eh)            E(eV)
   0   2.0000     -89.031079     -2422.6588
   1   2.0000     -88.972780     -2421.0724
   2   2.0000     -88.961193     -2420.7571
   3   2.0000     -88.960489     -2420.7380
   4   2.0000     -88.959132     -2420.7011
   5   2.0000     -88.958557     -2420.6854
   6   2.0000     -88.955950     -2420.6145
   7   2.0000     -88.947282     -2420.3786
   8   2.0000     -88.942157     -2420.2391
   9   2.0000     -14.450064      -393.2062
  10   2.0000     -14.444780      -393.0624
  11   2.0000     -14.439817      -392.9274
  12   2.0000     -14.434143      -392.7730
  13   2.0000     -14.417296      -392.3146
  14   2.0000     -14.417263      -392.3137
  15   2.0000     -14.417061      -392.3082
  16   2.0000     -14.397719      -391.7819
  17   2.0000     -10.367370      -282.1105
  18   2.0000     -10.364989      -282.0457
  19   2.0000     -10.347441      -281.5682
  20   2.0000     -10.336446      -281.2690
  21   2.0000     -10.334797      -281.2241
  22   2.0000     -10.334054      -281.2039
  23   2.0000     -10.333639      -281.1926
  24   2.0000     -10.326859      -281.0081
  25   2.0000     -10.325668      -280.9757
  26   2.0000     -10.319443      -280.8063
  27   2.0000     -10.317086      -280.7422
  28   2.0000     -10.311932      -280.6019
  29   2.0000     -10.311097      -280.5792
  30   2.0000     -10.310819      -280.5716
  31   2.0000     -10.310230      -280.5556
  32   2.0000     -10.309592      -280.5383
  33   2.0000     -10.307992      -280.4947
  34   2.0000     -10.306149      -280.4446
  35   2.0000     -10.300935      -280.3027
  36   2.0000     -10.297124      -280.1990
  37   2.0000     -10.296128      -280.1719
  38   2.0000     -10.295343      -280.1505
  39   2.0000     -10.293110      -280.0898
  40   2.0000     -10.292949      -280.0854
  41   2.0000     -10.292828      -280.0821
  42   2.0000     -10.292150      -280.0636
  43   2.0000     -10.291936      -280.0578
  44   2.0000     -10.291394      -280.0431
  45   2.0000     -10.290414      -280.0164
  46   2.0000     -10.288167      -279.9553
  47   2.0000     -10.286949      -279.9221
  48   2.0000     -10.286674      -279.9146
  49   2.0000     -10.285829      -279.8916
  50   2.0000     -10.285598      -279.8854
  51   2.0000     -10.284943      -279.8675
  52   2.0000     -10.284626      -279.8589
  53   2.0000     -10.284382      -279.8523
  54   2.0000     -10.281990      -279.7872
  55   2.0000     -10.281937      -279.7857
  56   2.0000     -10.279286      -279.7136
  57   2.0000     -10.278125      -279.6820
  58   2.0000     -10.277622      -279.6683
  59   2.0000     -10.275468      -279.6097
  60   2.0000     -10.274552      -279.5848
  61   2.0000     -10.273318      -279.5512
  62   2.0000     -10.273187      -279.5476
  63   2.0000     -10.272142      -279.5192
  64   2.0000     -10.271887      -279.5123
  65   2.0000     -10.270039      -279.4620
  66   2.0000     -10.269361      -279.4435
  67   2.0000     -10.266031      -279.3529
  68   2.0000     -10.254798      -279.0472
  69   2.0000      -8.121234      -220.9900
  70   2.0000      -8.067204      -219.5198
  71   2.0000      -8.055827      -219.2102
  72   2.0000      -8.054526      -219.1748
  73   2.0000      -8.054481      -219.1736
  74   2.0000      -8.054355      -219.1701
  75   2.0000      -8.051266      -219.0861
  76   2.0000      -8.042787      -218.8554
  77   2.0000      -8.038141      -218.7289
  78   2.0000      -6.092391      -165.7824
  79   2.0000      -6.084496      -165.5676
  80   2.0000      -6.084106      -165.5569
  81   2.0000      -6.036777      -164.2691
  82   2.0000      -6.032316      -164.1477
  83   2.0000      -6.029161      -164.0618
  84   2.0000      -6.025240      -163.9551
  85   2.0000      -6.024170      -163.9260
  86   2.0000      -6.023967      -163.9205
  87   2.0000      -6.023946      -163.9199
  88   2.0000      -6.021107      -163.8427
  89   2.0000      -6.020715      -163.8320
  90   2.0000      -6.020300      -163.8207
  91   2.0000      -6.019622      -163.8022
  92   2.0000      -6.019076      -163.7874
  93   2.0000      -6.017759      -163.7516
  94   2.0000      -6.016688      -163.7224
  95   2.0000      -6.016481      -163.7168
  96   2.0000      -6.016228      -163.7099
  97   2.0000      -6.015599      -163.6928
  98   2.0000      -6.013320      -163.6308
  99   2.0000      -6.012133      -163.5985
 100   2.0000      -6.007772      -163.4798
 101   2.0000      -6.007695      -163.4777
 102   2.0000      -6.005103      -163.4071
 103   2.0000      -6.003997      -163.3771
 104   2.0000      -5.999174      -163.2458
 105   2.0000      -1.126651       -30.6577
 106   2.0000      -1.108239       -30.1567
 107   2.0000      -1.071971       -29.1698
 108   2.0000      -1.052597       -28.6426
 109   2.0000      -1.035437       -28.1757
 110   2.0000      -1.005113       -27.3505
 111   2.0000      -1.003437       -27.3049
 112   2.0000      -1.001682       -27.2571
 113   2.0000      -0.992289       -27.0016
 114   2.0000      -0.983758       -26.7694
 115   2.0000      -0.979538       -26.6546
 116   2.0000      -0.971588       -26.4383
 117   2.0000      -0.970631       -26.4122
 118   2.0000      -0.962959       -26.2035
 119   2.0000      -0.954780       -25.9809
 120   2.0000      -0.927433       -25.2367
 121   2.0000      -0.925846       -25.1936
 122   2.0000      -0.913212       -24.8498
 123   2.0000      -0.905871       -24.6500
 124   2.0000      -0.896675       -24.3998
 125   2.0000      -0.895666       -24.3723
 126   2.0000      -0.891042       -24.2465
 127   2.0000      -0.884344       -24.0642
 128   2.0000      -0.878451       -23.9039
 129   2.0000      -0.873216       -23.7614
 130   2.0000      -0.865985       -23.5646
 131   2.0000      -0.862511       -23.4701
 132   2.0000      -0.861206       -23.4346
 133   2.0000      -0.851199       -23.1623
 134   2.0000      -0.838765       -22.8240
 135   2.0000      -0.832844       -22.6628
 136   2.0000      -0.820843       -22.3363
 137   2.0000      -0.813971       -22.1493
 138   2.0000      -0.810817       -22.0634
 139   2.0000      -0.805183       -21.9101
 140   2.0000      -0.802745       -21.8438
 141   2.0000      -0.791768       -21.5451
 142   2.0000      -0.784425       -21.3453
 143   2.0000      -0.778233       -21.1768
 144   2.0000      -0.771791       -21.0015
 145   2.0000      -0.761813       -20.7300
 146   2.0000      -0.745238       -20.2790
 147   2.0000      -0.730432       -19.8761
 148   2.0000      -0.727400       -19.7936
 149   2.0000      -0.726030       -19.7563
 150   2.0000      -0.720970       -19.6186
 151   2.0000      -0.715784       -19.4775
 152   2.0000      -0.706429       -19.2229
 153   2.0000      -0.705247       -19.1907
 154   2.0000      -0.692988       -18.8572
 155   2.0000      -0.684785       -18.6340
 156   2.0000      -0.680526       -18.5180
 157   2.0000      -0.673828       -18.3358
 158   2.0000      -0.663678       -18.0596
 159   2.0000      -0.653502       -17.7827
 160   2.0000      -0.650246       -17.6941
 161   2.0000      -0.649522       -17.6744
 162   2.0000      -0.646578       -17.5943
 163   2.0000      -0.638136       -17.3646
 164   2.0000      -0.631816       -17.1926
 165   2.0000      -0.629350       -17.1255
 166   2.0000      -0.624416       -16.9912
 167   2.0000      -0.617213       -16.7952
 168   2.0000      -0.615920       -16.7600
 169   2.0000      -0.608851       -16.5677
 170   2.0000      -0.606123       -16.4934
 171   2.0000      -0.600309       -16.3352
 172   2.0000      -0.596037       -16.2190
 173   2.0000      -0.590485       -16.0679
 174   2.0000      -0.579552       -15.7704
 175   2.0000      -0.573184       -15.5971
 176   2.0000      -0.569892       -15.5075
 177   2.0000      -0.568124       -15.4594
 178   2.0000      -0.563701       -15.3391
 179   2.0000      -0.559948       -15.2370
 180   2.0000      -0.556721       -15.1492
 181   2.0000      -0.554066       -15.0769
 182   2.0000      -0.550114       -14.9694
 183   2.0000      -0.547268       -14.8919
 184   2.0000      -0.543498       -14.7893
 185   2.0000      -0.542451       -14.7608
 186   2.0000      -0.537930       -14.6378
 187   2.0000      -0.534713       -14.5503
 188   2.0000      -0.527463       -14.3530
 189   2.0000      -0.524766       -14.2796
 190   2.0000      -0.521942       -14.2028
 191   2.0000      -0.520511       -14.1638
 192   2.0000      -0.519351       -14.1322
 193   2.0000      -0.516449       -14.0533
 194   2.0000      -0.514189       -13.9918
 195   2.0000      -0.512932       -13.9576
 196   2.0000      -0.509956       -13.8766
 197   2.0000      -0.507888       -13.8203
 198   2.0000      -0.505145       -13.7457
 199   2.0000      -0.503677       -13.7057
 200   2.0000      -0.498229       -13.5575
 201   2.0000      -0.492649       -13.4057
 202   2.0000      -0.489652       -13.3241
 203   2.0000      -0.483014       -13.1435
 204   2.0000      -0.481286       -13.0965
 205   2.0000      -0.479025       -13.0349
 206   2.0000      -0.477413       -12.9911
 207   2.0000      -0.473493       -12.8844
 208   2.0000      -0.471227       -12.8227
 209   2.0000      -0.469532       -12.7766
 210   2.0000      -0.468035       -12.7359
 211   2.0000      -0.463451       -12.6111
 212   2.0000      -0.461523       -12.5587
 213   2.0000      -0.458335       -12.4719
 214   2.0000      -0.457454       -12.4479
 215   2.0000      -0.452959       -12.3257
 216   2.0000      -0.452281       -12.3072
 217   2.0000      -0.451570       -12.2878
 218   2.0000      -0.450130       -12.2486
 219   2.0000      -0.445694       -12.1280
 220   2.0000      -0.444259       -12.0889
 221   2.0000      -0.443706       -12.0739
 222   2.0000      -0.442481       -12.0405
 223   2.0000      -0.441032       -12.0011
 224   2.0000      -0.436173       -11.8689
 225   2.0000      -0.433280       -11.7902
 226   2.0000      -0.432383       -11.7657
 227   2.0000      -0.431832       -11.7507
 228   2.0000      -0.430442       -11.7129
 229   2.0000      -0.427908       -11.6440
 230   2.0000      -0.425967       -11.5911
 231   2.0000      -0.423453       -11.5227
 232   2.0000      -0.422591       -11.4993
 233   2.0000      -0.420166       -11.4333
 234   2.0000      -0.419196       -11.4069
 235   2.0000      -0.417766       -11.3680
 236   2.0000      -0.416114       -11.3230
 237   2.0000      -0.412316       -11.2197
 238   2.0000      -0.411919       -11.2089
 239   2.0000      -0.411287       -11.1917
 240   2.0000      -0.411094       -11.1864
 241   2.0000      -0.406154       -11.0520
 242   2.0000      -0.404156       -10.9976
 243   2.0000      -0.400543       -10.8993
 244   2.0000      -0.397538       -10.8176
 245   2.0000      -0.389024       -10.5859
 246   2.0000      -0.385667       -10.4945
 247   2.0000      -0.375903       -10.2288
 248   2.0000      -0.374281       -10.1847
 249   2.0000      -0.367999       -10.0138
 250   2.0000      -0.363476        -9.8907
 251   2.0000      -0.356337        -9.6964
 252   2.0000      -0.353040        -9.6067
 253   2.0000      -0.352124        -9.5818
 254   2.0000      -0.350467        -9.5367
 255   2.0000      -0.340998        -9.2790
 256   2.0000      -0.338873        -9.2212
 257   2.0000      -0.335045        -9.1170
 258   2.0000      -0.331625        -9.0240
 259   2.0000      -0.330707        -8.9990
 260   2.0000      -0.328868        -8.9489
 261   2.0000      -0.297728        -8.1016
 262   2.0000      -0.295020        -8.0279
 263   2.0000      -0.289403        -7.8750
 264   2.0000      -0.285247        -7.7620
 265   2.0000      -0.274395        -7.4667
 266   2.0000      -0.264743        -7.2040
 267   2.0000      -0.258107        -7.0235
 268   2.0000      -0.231420        -6.2973
 269   2.0000      -0.205263        -5.5855
 270   0.0000      -0.118640        -3.2284
 271   0.0000      -0.066130        -1.7995
 272   0.0000      -0.061492        -1.6733
 273   0.0000      -0.037561        -1.0221
 274   0.0000      -0.032946        -0.8965

MULLIKEN ATOMIC CHARGES
-----------------------
   0 C :   -0.180792
   1 S :    0.114996
   2 C :   -0.336488
   3 C :    0.084550
   4 C :    0.020816
   5 C :    0.032609
   6 C :    0.129166
   7 N :   -0.030426
   8 C :   -0.102725
   9 S :    0.065090
  10 C :    0.042439
  11 C :    0.015374
  12 C :   -0.058015
  13 C :   -0.023696
  14 C :    0.057866
  15 C :    0.061140
  16 C :   -0.136371
  17 S :    0.087614
  18 C :   -0.107988
  19 C :    0.045307
  20 C :    0.014913
  21 C :   -0.071041
  22 S :    0.123068
  23 C :    0.135001
  24 C :   -0.047000
  25 C :   -0.069008
  26 C :    0.040043
  27 C :   -0.048928
  28 C :   -0.051111
  29 N :   -0.029441
  30 C :   -0.095647
  31 C :   -0.143775
  32 N :    0.053400
  33 C :   -0.220519
  34 N :    0.232772
  35 C :   -0.241945
  36 N :    0.233930
  37 C :    0.127616
  38 C :    0.027639
  39 C :    0.010213
  40 N :   -0.278089
  41 S :    0.541255
  42 N :   -0.319136
  43 C :   -0.124958
  44 C :   -0.068274
  45 C :    0.058790
  46 C :    0.067872
  47 C :   -0.111333
  48 S :    0.163106
  49 C :   -0.100813
  50 C :    0.042892
  51 C :    0.001718
  52 C :   -0.070786
  53 S :    0.138092
  54 C :    0.127991
  55 C :   -0.047853
  56 C :    0.039891
  57 C :   -0.165440
  58 S :    0.130219
  59 C :   -0.338017
  60 C :    0.084329
  61 C :    0.019016
  62 C :    0.047794
  63 C :    0.089610
  64 N :   -0.022562
  65 C :   -0.096397
  66 S :    0.080708
  67 C :    0.005665
  68 C :    0.020071
  69 H :    0.015641
  70 H :    0.012243
  71 H :    0.012407
  72 H :    0.019577
  73 H :    0.016087
  74 H :    0.013234
  75 H :   -0.001784
  76 H :    0.015473
  77 H :    0.000194
  78 H :    0.031794
  79 H :   -0.015788
  80 H :    0.025487
  81 H :   -0.007832
  82 H :    0.002760
  83 H :    0.015159
  84 H :    0.032537
  85 H :   -0.014562
  86 H :    0.027292
  87 H :   -0.002224
  88 H :   -0.051508
  89 H :    0.015409
  90 H :    0.015832
  91 H :    0.016046
  92 H :    0.020958
  93 H :    0.019466
  94 H :   -0.007373
  95 H :    0.060627
  96 H :    0.036834
Sum of atomic charges:   -0.0000000

LOEWDIN ATOMIC CHARGES
----------------------
   0 C :   -0.206788
   1 S :    0.439825
   2 C :   -0.201154
   3 C :   -0.043542
   4 C :   -0.050577
   5 C :   -0.216995
   6 C :   -0.065417
   7 N :   -0.100077
   8 C :   -0.095598
   9 S :    0.332501
  10 C :   -0.082459
  11 C :    0.003046
  12 C :   -0.176709
  13 C :   -0.002755
  14 C :   -0.027153
  15 C :   -0.047648
  16 C :   -0.148183
  17 S :    0.442810
  18 C :   -0.202613
  19 C :   -0.036251
  20 C :   -0.060178
  21 C :   -0.166381
  22 S :    0.417846
  23 C :   -0.029172
  24 C :   -0.016829
  25 C :   -0.030559
  26 C :   -0.062021
  27 C :   -0.000638
  28 C :   -0.013455
  29 N :   -0.030054
  30 C :   -0.040765
  31 C :   -0.028773
  32 N :   -0.008655
  33 C :   -0.034359
  34 N :   -0.013629
  35 C :   -0.038785
  36 N :   -0.018188
  37 C :   -0.050664
  38 C :   -0.032174
  39 C :   -0.044167
  40 N :   -0.264412
  41 S :    0.701111
  42 N :   -0.283811
  43 C :   -0.162191
  44 C :    0.009391
  45 C :   -0.018239
  46 C :   -0.067004
  47 C :   -0.142889
  48 S :    0.494488
  49 C :   -0.180977
  50 C :   -0.049561
  51 C :   -0.061590
  52 C :   -0.166959
  53 S :    0.432997
  54 C :   -0.013662
  55 C :   -0.011417
  56 C :   -0.035324
  57 C :   -0.178223
  58 S :    0.431007
  59 C :   -0.189968
  60 C :   -0.043327
  61 C :   -0.049271
  62 C :   -0.213573
  63 C :   -0.056326
  64 N :   -0.085100
  65 C :   -0.100371
  66 S :    0.350217
  67 C :   -0.072996
  68 C :   -0.010052
  69 H :    0.026772
  70 H :    0.032278
  71 H :    0.030466
  72 H :    0.026329
  73 H :    0.023294
  74 H :    0.022633
  75 H :    0.020214
  76 H :    0.043882
  77 H :    0.044153
  78 H :    0.034031
  79 H :    0.031493
  80 H :    0.022920
  81 H :    0.034096
  82 H :    0.035393
  83 H :    0.036511
  84 H :    0.034673
  85 H :    0.028704
  86 H :    0.023962
  87 H :    0.033236
  88 H :    0.024336
  89 H :    0.032446
  90 H :    0.033636
  91 H :    0.023424
  92 H :    0.025437
  93 H :    0.026595
  94 H :    0.029009
  95 H :    0.031062
  96 H :    0.014388

  Mayer bond orders larger than 0.100000
B(  0-C ,  1-S ) :   1.1490 B(  0-C ,  6-C ) :   1.4930 B(  0-C , 69-H ) :   0.9800
B(  1-S ,  2-C ) :   1.1554 B(  2-C ,  3-C ) :   1.0615 B(  2-C ,  5-C ) :   1.6037
B(  3-C ,  4-C ) :   1.1008 B(  3-C , 70-H ) :   0.9331 B(  3-C , 71-H ) :   0.9243
B(  4-C , 72-H ) :   0.9721 B(  4-C , 73-H ) :   0.9689 B(  4-C , 74-H ) :   0.9698
B(  5-C ,  6-C ) :   1.1827 B(  5-C ,  9-S ) :   1.0195 B(  6-C ,  7-N ) :   1.2695
B(  7-N ,  8-C ) :   1.7890 B(  7-N ,  9-S ) :   0.1070 B(  8-C ,  9-S ) :   1.0105
B(  8-C , 10-C ) :   1.1015 B( 10-C , 11-C ) :   1.6672 B( 10-C , 75-H ) :   0.9386
B( 11-C , 12-C ) :   1.1459 B( 11-C , 76-H ) :   0.9854 B( 12-C , 13-C ) :   1.5031
B( 12-C , 17-S ) :   1.0296 B( 13-C , 14-C ) :   1.2344 B( 13-C , 77-H ) :   0.9703
B( 14-C , 15-C ) :   1.0542 B( 14-C , 23-C ) :   1.3779 B( 15-C , 16-C ) :   1.6094
B( 15-C , 18-C ) :   1.1683 B( 16-C , 17-S ) :   1.1263 B( 16-C , 78-H ) :   0.9410
B( 18-C , 19-C ) :   1.4391 B( 18-C , 22-S ) :   1.0764 B( 19-C , 20-C ) :   1.2199
B( 19-C , 23-C ) :   1.1239 B( 20-C , 21-C ) :   1.5833 B( 20-C , 79-H ) :   0.9976
B( 21-C , 22-S ) :   1.1517 B( 21-C , 80-H ) :   0.9663 B( 23-C , 24-C ) :   1.1380
B( 24-C , 25-C ) :   1.6406 B( 24-C , 81-H ) :   0.9521 B( 25-C , 26-C ) :   1.1983
B( 25-C , 82-H ) :   0.9412 B( 26-C , 27-C ) :   1.2383 B( 26-C , 39-C ) :   1.1838
B( 27-C , 28-C ) :   1.1146 B( 27-C , 32-N ) :   1.4729 B( 28-C , 29-N ) :   1.4240
B( 28-C , 37-C ) :   1.1895 B( 29-N , 30-C ) :   1.6298 B( 30-C , 31-C ) :   1.2511
B( 30-C , 35-C ) :   1.1617 B( 31-C , 32-N ) :   1.7048 B( 31-C , 33-C ) :   1.1631
B( 33-C , 34-N ) :   3.0504 B( 35-C , 36-N ) :   3.0364 B( 37-C , 38-C ) :   1.1657
B( 37-C , 43-C ) :   1.2740 B( 38-C , 39-C ) :   1.1132 B( 38-C , 42-N ) :   1.5057
B( 39-C , 40-N ) :   1.5106 B( 40-N , 41-S ) :   1.2744 B( 40-N , 42-N ) :   0.1299
B( 41-S , 42-N ) :   1.2384 B( 43-C , 44-C ) :   1.4072 B( 43-C , 48-S ) :   1.0474
B( 44-C , 45-C ) :   1.3345 B( 44-C , 83-H ) :   0.9412 B( 45-C , 46-C ) :   1.0704
B( 45-C , 54-C ) :   1.2494 B( 46-C , 47-C ) :   1.5882 B( 46-C , 49-C ) :   1.1552
B( 47-C , 48-S ) :   1.1209 B( 47-C , 84-H ) :   0.9416 B( 49-C , 50-C ) :   1.4342
B( 49-C , 53-S ) :   1.0980 B( 50-C , 51-C ) :   1.2036 B( 50-C , 54-C ) :   1.0922
B( 51-C , 52-C ) :   1.5996 B( 51-C , 85-H ) :   1.0013 B( 52-C , 53-S ) :   1.1420
B( 52-C , 86-H ) :   0.9653 B( 54-C , 55-C ) :   1.2485 B( 55-C , 56-C ) :   1.5244
B( 55-C , 87-H ) :   0.9448 B( 56-C , 57-C ) :   1.2028 B( 56-C , 88-H ) :   0.9621
B( 57-C , 58-S ) :   1.1025 B( 57-C , 63-C ) :   1.3726 B( 58-S , 59-C ) :   1.1272
B( 59-C , 60-C ) :   1.0595 B( 59-C , 62-C ) :   1.6033 B( 60-C , 61-C ) :   1.0989
B( 60-C , 89-H ) :   0.9226 B( 60-C , 90-H ) :   0.9330 B( 61-C , 91-H ) :   0.9703
B( 61-C , 92-H ) :   0.9689 B( 61-C , 93-H ) :   0.9720 B( 62-C , 63-C ) :   1.2045
B( 62-C , 66-S ) :   1.0174 B( 63-C , 64-N ) :   1.3285 B( 64-N , 65-C ) :   1.7337
B( 64-N , 66-S ) :   0.1026 B( 65-C , 66-S ) :   1.0281 B( 65-C , 67-C ) :   1.0907
B( 67-C , 68-C ) :   1.8953 B( 67-C , 94-H ) :   0.9509 B( 68-C , 95-H ) :   0.9495
B( 68-C , 96-H ) :   0.9320

-----------------------------------------------------------------------------
         ABSORPTION SPECTRUM VIA TRANSITION ELECTRIC DIPOLE MOMENTS
-----------------------------------------------------------------------------
State   Energy  Wavelength   fosc         T2         TX        TY        TZ
        (cm-1)    (nm)                  (au**2)     (au)      (au)      (au)
-----------------------------------------------------------------------------
   0    4136.5   2417.5   0.136802076  10.88773   1.07763  -0.06352   3.11808
   1    9365.4   1067.8   0.121963246   4.28723  -0.76171   1.63784  -1.01218
   2   14800.7    675.6   0.073476980   1.63435  -0.23038   0.54611  -1.13271
   3   16218.3    616.6   0.398888762   8.09694   1.00719  -2.66127   0.01289
   4   16461.3    607.5   0.220991270   4.41963   2.07484   0.33169  -0.06832
   5   18665.5    535.7   0.005972232   0.10534  -0.00491  -0.21892  -0.23955
   6   20305.2    492.5   0.008064385   0.13075  -0.25175   0.18165  -0.18541
   7   20474.4    488.4   0.053223584   0.85579  -0.01215  -0.59253   0.71032
   8   20871.1    479.1   0.113800311   1.79504  -0.82222   1.05268  -0.10418
   9   21126.4    473.3   0.065969435   1.02800  -0.94873   0.11434   0.33887
  10   21472.4    465.7   0.061911668   0.94922   0.46921   0.85348  -0.02511
  11   22120.2    452.1   0.156934203   2.33563  -0.54035   1.32166   0.54485
  12   22170.1    451.1   0.409711927   6.08396   2.14139   0.55419  -1.09145
  13   22999.7    434.8   0.218118019   3.12209   0.79851  -0.82331  -1.34411
  14   23436.8    426.7   0.026250813   0.36874  -0.00151   0.58306   0.16963
  15   23669.7    422.5   0.061616228   0.85700  -0.25158  -0.87774   0.15259
  16   23946.9    417.6   0.033486889   0.46036   0.58791   0.26992   0.20462
  17   24667.7    405.4   0.006663016   0.08892   0.09734   0.15497   0.23544
  18   26155.0    382.3   0.037492049   0.47191   0.09092   0.18372   0.65566
  19   26787.8    373.3   0.054165680   0.66568  -0.43411  -0.03431   0.68996
  20   27018.4    370.1   0.232926443   2.83815   1.58848  -0.28177  -0.48528
  21   27265.2    366.8   0.148956671   1.79857   0.45686   0.33168  -1.21648
  22   27708.1    360.9   0.128966749   1.53231  -0.55847   0.80161   0.76015
  23   28068.0    356.3   0.022518770   0.26412   0.02613  -0.28592  -0.42625
  24   28711.4    348.3   0.021176796   0.24282   0.12262   0.42110  -0.22463
  25   29373.1    340.4   0.054510143   0.61095  -0.60934   0.38524   0.30206
  26   30144.9    331.7   0.220651725   2.40973  -1.37746   0.70255  -0.13695
  27   30674.1    326.0   0.038116251   0.40909   0.40794  -0.14544   0.47066
  28   30784.3    324.8   0.007925997   0.08476  -0.03647   0.28727  -0.03015
  29   31065.6    321.9   0.064702535   0.68567   0.21527  -0.26454   0.75455
  30   31286.5    319.6   0.350718999   3.69044   1.45313  -1.10429  -0.59949
  31   31420.3    318.3   0.197631451   2.07072  -0.60135   0.78423   1.04599
  32   31596.3    316.5   0.099617233   1.03794  -0.80162   0.53468   0.33087
  33   32452.2    308.1   0.173535862   1.76044   0.22600  -0.51504  -1.20170
  34   32699.7    305.8   0.012662417   0.12748  -0.20860   0.27999   0.07465
  35   32929.6    303.7   0.042526994   0.42516   0.25711   0.40881  -0.43810
  36   33109.3    302.0   0.077214101   0.76776  -0.62449  -0.30298   0.53476
  37   33276.0    300.5   0.413197086   4.08792   1.68759   0.60916  -0.93214
  38   33703.9    296.7   0.049008575   0.47870  -0.07363  -0.66548  -0.17442
  39   33856.3    295.4   0.052528562   0.51078   0.53357   0.22782   0.41734
  40   33938.0    294.7   0.325270483   3.15525   0.89899  -1.33173   0.75733
  41   34009.5    294.0   0.000694803   0.00673  -0.06366  -0.02795  -0.04350
  42   34136.3    292.9   0.075848084   0.73148   0.53635  -0.55070   0.37489
  43   34502.2    289.8   0.298659670   2.84974   1.45428  -0.15161   0.84370
  44   34821.8    287.2   0.058342306   0.55158  -0.24555   0.13771   0.68725
  45   35027.5    285.5   0.173654844   1.63212   1.05149  -0.72116   0.08009
  46   35092.3    285.0   0.095727657   0.89805  -0.91098   0.04269  -0.25757
  47   35553.5    281.3   0.088234969   0.81702   0.68608  -0.18024   0.56020
  48   35753.3    279.7   0.356883627   3.28614  -0.39541  -0.81004   1.57278
  49   35898.4    278.6   0.021766724   0.19962   0.10836   0.36465  -0.23431
  50   36263.9    275.8   0.518965744   4.71128   1.98536  -0.81571   0.32284
  51   36612.6    273.1   0.050569461   0.45471   0.45507  -0.45912  -0.19192
  52   36933.2    270.8   0.028112153   0.25058   0.39673  -0.26730   0.14744
  53   36991.9    270.3   0.019630257   0.17470   0.10716  -0.27415   0.29675
  54   37265.6    268.3   0.073570741   0.64994   0.59191   0.13051  -0.53156
  55   37305.5    268.1   0.004160424   0.03671  -0.09167  -0.14476   0.08576
  56   37525.7    266.5   0.054670185   0.47962  -0.59375   0.22725  -0.27465
  57   37589.2    266.0   0.011502158   0.10074  -0.18288   0.25940  -0.00152
  58   37660.4    265.5   0.112303811   0.98171   0.95878  -0.05218   0.24442
  59   37783.1    264.7   0.122982461   1.07157  -0.14708  -0.76803   0.67828
  60   38035.8    262.9   0.013989366   0.12108   0.22767   0.05508   0.25733
  61   38644.5    258.8   0.036212544   0.30849  -0.04311   0.26122   0.48826
  62   38777.2    257.9   0.001064217   0.00904   0.08862   0.03406   0.00465
  63   38821.0    257.6   0.024271036   0.20582   0.44043   0.07270   0.08101
  64   38925.1    256.9   0.085260065   0.72109  -0.60321  -0.19559   0.56479
  65   39121.3    255.6   0.117390621   0.98786   0.69712   0.14689  -0.69304
  66   39210.3    255.0   0.034417162   0.28897  -0.52337  -0.04919  -0.11238
  67   39667.4    252.1   0.092686513   0.76923   0.19774  -0.25866   0.81439
  68   39811.7    251.2   0.055165349   0.45618   0.03124  -0.20480   0.64285
  69   39910.0    250.6   0.067941663   0.56044   0.20140   0.16349   0.70225
  70   40029.9    249.8   0.004006982   0.03295  -0.00109  -0.04675  -0.17541
  71   40061.2    249.6   0.051544401   0.42358   0.39685  -0.13684  -0.49735

FINAL SINGLE POINT ENERGY     -6015.758346436630

DIPOLE MOMENT
-------------
                                X             Y             Z
Electronic contribution:      7.18168     -38.07166       4.87643
Nuclear contribution   :    -10.66788      41.06194      -6.17239
                        -----------------------------------------
Total Dipole Moment    :     -3.48620       2.99028      -1.29596
                        -----------------------------------------
Magnitude (a.u.)       :      4.77230
Magnitude (Debye)      :     12.13023

Rotational constants in cm-1:     0.000751     0.000597     0.000524
Rotational constants in MHz :    22.499429    17.884851    15.696231

                             ****ORCA TERMINATED NORMALLY****
TOTAL RUN TIME: 0 days 0 hours 11 minutes 57 seconds 506 msec
