                         Program Version 4.2.0 -  RELEASE  -
|  1> # ORCA input file
|  2> # SCF done       -207.002273267161          0.000880074335
|  3> ! CAM-B3LYP def2-SVP def2/J RIJCOSX Grid4 TightSCF
|  4> %maxcore 5000
|  5> %tddft
|  6>     Mode sTDDFT
|  7>     Ethresh 5.0
|  8>     maxcore 5000
|  9> end
| 10>
| 11> %pal
| 12>   nprocs 6
| 13>   end
| 14> * xyz 0 1
| 15>    C       -9.68766        -8.69429         1.86720
| 16>    C       -8.79392        -9.75395         1.93877
| 17>    C       -7.44354        -9.53738         2.16534
| 18>    C       -6.94704        -8.25278         2.33744
| 19>    C       -7.82902        -7.18963         2.26598
| 20>    C       -9.20416        -7.40633         2.02396
| 21>    C       -9.88133        -6.11362         1.97965
| 22>    C      -11.23752        -5.92368         1.83379
| 23>    C      -12.17464        -6.96942         1.72176
| 24>    N      -12.99725        -7.76582         1.62709
| 25>    C      -11.89473        -4.67957         1.81091
| 26>    N      -12.49966        -3.70047         1.78480
| 27>    C       -8.85625        -5.09995         2.09543
| 28>    C       -7.62149        -5.75972         2.45227
| 29>    C       -6.57071        -5.19246         3.13437
| 30>    C       -6.60854        -3.88285         3.65044
| 31>    N       -6.63058        -2.84477         4.14252
| 32>    C       -5.40062        -5.88257         3.49824
| 33>    N       -4.41153        -6.38516         3.79701
| 34>    C       -9.07892        -3.76094         1.82230
| 35>    C       -8.21333        -2.75661         1.41757
| 36>    S       -6.57544        -2.98892         0.86092
| 37>    C       -8.57624        -1.39364         1.26829
| 38>    C       -9.82428        -0.82917         1.54517
| 39>    C      -10.06856         0.50733         1.31119
| 40>    O      -11.26895         1.08924         1.55685
| 41>    C      -12.32384         0.29989         2.06537
| 42>    C       -9.02765         1.32698         0.76675
| 43>    O       -9.11700         2.64269         0.44875
| 44>    C      -10.33575         3.35337         0.49946
| 45>    C       -7.78816         0.77489         0.52068
| 46>    C       -7.52285        -0.57540         0.78470
| 47>    C       -6.33619        -1.30088         0.54859
| 48>    C       -5.05684        -0.86684         0.14794
| 49>    C       -4.55428         0.38289         0.36229
| 50>    C       -3.27405         0.83325        -0.02381
| 51>    N       -2.44496         0.16705        -0.90507
| 52>    C       -1.30387         0.88819        -1.05279
| 53>    C       -0.08412         0.93589        -1.71586
| 54>    C        0.56064         2.09502        -1.25998
| 55>    N       -0.24639         2.73413        -0.33877
| 56>    C       -1.40191         2.03187        -0.21303
| 57>    C       -2.63748         2.00584         0.41599
| 58>    C        1.83233         2.62039        -1.59327
| 59>    C        2.56379         2.25056        -2.67808
| 60>    C        3.83246         2.77512        -3.02167
| 61>    S        4.26591         2.87623        -4.69670
| 62>    C        4.85044         3.31067        -2.21411
| 63>    C        4.90996         3.31866        -0.80474
| 64>    C        5.95275         3.93632        -0.16646
| 65>    O        6.12687         4.00020         1.17408
| 66>    C        5.19161         3.35987         2.00594
| 67>    C        6.96698         4.61176        -0.93073
| 68>    O        7.87251         5.28493        -0.20026
| 69>    C        8.86591         6.02483        -0.87913
| 70>    C        6.96947         4.52235        -2.30179
| 71>    C        5.94021         3.83635        -2.96362
| 72>    C        5.78529         3.66701        -4.35652
| 73>    C        6.59332         4.05744        -5.42587
| 74>    C        7.94479         4.31682        -5.39813
| 75>    C        8.66610         4.78756        -6.50254
| 76>    C        8.14612         5.52644        -7.55029
| 77>    C        8.67994         5.57295        -8.89616
| 78>    C        9.88989         5.09191        -9.33392
| 79>    C       10.87007         4.48546        -8.52411
| 80>    N       11.71400         3.97855        -7.93114
| 81>    C       10.33617         5.16855       -10.66833
| 82>    N       10.76647         5.20105       -11.73288
| 83>    C        7.66428         6.20384        -9.73443
| 84>    C        6.59895         6.63318        -8.91191
| 85>    C        5.48442         7.24519        -9.45864
| 86>    C        5.43808         7.42989       -10.83284
| 87>    C        6.48738         7.02018       -11.64142
| 88>    C        7.60918         6.40498       -11.10357
| 89>    C        6.94673         6.34077        -7.52895
| 90>    C        6.41411         6.97862        -6.43187
| 91>    C        5.28359         7.81417        -6.47475
| 92>    N        4.34895         8.48158        -6.43744
| 93>    C        6.98991         6.94462        -5.14999
| 94>    N        7.45132         7.02087        -4.09945
| 95>    H      -10.73389        -8.88334         1.69160
| 96>    H       -9.16028       -10.76165         1.81414
| 97>    H       -6.76687       -10.37717         2.21069
| 98>    H       -5.89499        -8.09418         2.51201
| 99>    H      -10.11423        -3.45263         1.84197
|100>    H      -10.60960        -1.45517         1.93267
|101>    H      -12.07944        -0.10582         3.05084
|102>    H      -12.58065        -0.51870         1.38791
|103>    H      -13.17139         0.97742         2.15321
|104>    H      -10.09553         4.34483         0.11578
|105>    H      -10.71327         3.43964         1.51987
|106>    H      -11.09842         2.89473        -0.13272
|107>    H       -7.04252         1.41503         0.08101
|108>    H       -4.41439        -1.63464        -0.26540
|109>    H       -5.13515         1.08882         0.93565
|110>    H       -2.68392        -0.68244        -1.38537
|111>    H        0.31771         0.23261        -2.41627
|112>    H       -0.02513         3.61052         0.10163
|113>    H       -3.04911         2.70785         1.11260
|114>    H        2.19495         3.42214        -0.96423
|115>    H        2.12029         1.57410        -3.39592
|116>    H        4.14028         2.81228        -0.24806
|117>    H        4.19220         3.79372         1.89538
|118>    H        5.54343         3.52289         3.02295
|119>    H        5.14456         2.28440         1.80610
|120>    H        9.41125         6.56000        -0.10413
|121>    H        8.42529         6.73697        -1.58180
|122>    H        9.55362         5.36380        -1.41539
|123>    H        7.72256         5.02426        -2.88009
|124>    H        6.10138         4.09338        -6.39272
|125>    H        8.51453         4.01805        -4.53091
|126>    H        9.70718         4.50038        -6.55475
|127>    H        4.66155         7.56308        -8.83881
|128>    H        4.57244         7.89905       -11.27527
|129>    H        6.43361         7.17867       -12.70777
|130>    H        8.41333         6.09332       -11.74936
|131> *
|132>
|133>                          ****END OF INPUT****

CARTESIAN COORDINATES (ANGSTROEM)
---------------------------------
  C     -9.687660   -8.694290    1.867200
  C     -8.793920   -9.753950    1.938770
  C     -7.443540   -9.537380    2.165340
  C     -6.947040   -8.252780    2.337440
  C     -7.829020   -7.189630    2.265980
  C     -9.204160   -7.406330    2.023960
  C     -9.881330   -6.113620    1.979650
  C    -11.237520   -5.923680    1.833790
  C    -12.174640   -6.969420    1.721760
  N    -12.997250   -7.765820    1.627090
  C    -11.894730   -4.679570    1.810910
  N    -12.499660   -3.700470    1.784800
  C     -8.856250   -5.099950    2.095430
  C     -7.621490   -5.759720    2.452270
  C     -6.570710   -5.192460    3.134370
  C     -6.608540   -3.882850    3.650440
  N     -6.630580   -2.844770    4.142520
  C     -5.400620   -5.882570    3.498240
  N     -4.411530   -6.385160    3.797010
  C     -9.078920   -3.760940    1.822300
  C     -8.213330   -2.756610    1.417570
  S     -6.575440   -2.988920    0.860920
  C     -8.576240   -1.393640    1.268290
  C     -9.824280   -0.829170    1.545170
  C    -10.068560    0.507330    1.311190
  O    -11.268950    1.089240    1.556850
  C    -12.323840    0.299890    2.065370
  C     -9.027650    1.326980    0.766750
  O     -9.117000    2.642690    0.448750
  C    -10.335750    3.353370    0.499460
  C     -7.788160    0.774890    0.520680
  C     -7.522850   -0.575400    0.784700
  C     -6.336190   -1.300880    0.548590
  C     -5.056840   -0.866840    0.147940
  C     -4.554280    0.382890    0.362290
  C     -3.274050    0.833250   -0.023810
  N     -2.444960    0.167050   -0.905070
  C     -1.303870    0.888190   -1.052790
  C     -0.084120    0.935890   -1.715860
  C      0.560640    2.095020   -1.259980
  N     -0.246390    2.734130   -0.338770
  C     -1.401910    2.031870   -0.213030
  C     -2.637480    2.005840    0.415990
  C      1.832330    2.620390   -1.593270
  C      2.563790    2.250560   -2.678080
  C      3.832460    2.775120   -3.021670
  S      4.265910    2.876230   -4.696700
  C      4.850440    3.310670   -2.214110
  C      4.909960    3.318660   -0.804740
  C      5.952750    3.936320   -0.166460
  O      6.126870    4.000200    1.174080
  C      5.191610    3.359870    2.005940
  C      6.966980    4.611760   -0.930730
  O      7.872510    5.284930   -0.200260
  C      8.865910    6.024830   -0.879130
  C      6.969470    4.522350   -2.301790
  C      5.940210    3.836350   -2.963620
  C      5.785290    3.667010   -4.356520
  C      6.593320    4.057440   -5.425870
  C      7.944790    4.316820   -5.398130
  C      8.666100    4.787560   -6.502540
  C      8.146120    5.526440   -7.550290
  C      8.679940    5.572950   -8.896160
  C      9.889890    5.091910   -9.333920
  C     10.870070    4.485460   -8.524110
  N     11.714000    3.978550   -7.931140
  C     10.336170    5.168550  -10.668330
  N     10.766470    5.201050  -11.732880
  C      7.664280    6.203840   -9.734430
  C      6.598950    6.633180   -8.911910
  C      5.484420    7.245190   -9.458640
  C      5.438080    7.429890  -10.832840
  C      6.487380    7.020180  -11.641420
  C      7.609180    6.404980  -11.103570
  C      6.946730    6.340770   -7.528950
  C      6.414110    6.978620   -6.431870
  C      5.283590    7.814170   -6.474750
  N      4.348950    8.481580   -6.437440
  C      6.989910    6.944620   -5.149990
  N      7.451320    7.020870   -4.099450
  H    -10.733890   -8.883340    1.691600
  H     -9.160280  -10.761650    1.814140
  H     -6.766870  -10.377170    2.210690
  H     -5.894990   -8.094180    2.512010
  H    -10.114230   -3.452630    1.841970
  H    -10.609600   -1.455170    1.932670
  H    -12.079440   -0.105820    3.050840
  H    -12.580650   -0.518700    1.387910
  H    -13.171390    0.977420    2.153210
  H    -10.095530    4.344830    0.115780
  H    -10.713270    3.439640    1.519870
  H    -11.098420    2.894730   -0.132720
  H     -7.042520    1.415030    0.081010
  H     -4.414390   -1.634640   -0.265400
  H     -5.135150    1.088820    0.935650
  H     -2.683920   -0.682440   -1.385370
  H      0.317710    0.232610   -2.416270
  H     -0.025130    3.610520    0.101630
  H     -3.049110    2.707850    1.112600
  H      2.194950    3.422140   -0.964230
  H      2.120290    1.574100   -3.395920
  H      4.140280    2.812280   -0.248060
  H      4.192200    3.793720    1.895380
  H      5.543430    3.522890    3.022950
  H      5.144560    2.284400    1.806100
  H      9.411250    6.560000   -0.104130
  H      8.425290    6.736970   -1.581800
  H      9.553620    5.363800   -1.415390
  H      7.722560    5.024260   -2.880090
  H      6.101380    4.093380   -6.392720
  H      8.514530    4.018050   -4.530910
  H      9.707180    4.500380   -6.554750
  H      4.661550    7.563080   -8.838810
  H      4.572440    7.899050  -11.275270
  H      6.433610    7.178670  -12.707770
  H      8.413330    6.093320  -11.749360

 Total Charge           Charge          ....    0
 Multiplicity           Mult            ....    1
 Number of Electrons    NEL             ....  554
 Basis Dimension        Dim             .... 1308

ORBITAL ENERGIES
----------------

  NO   OCC          E(Eh)            E(eV)
   0   2.0000     -88.976564     -2421.1754
   1   2.0000     -88.976120     -2421.1633
   2   2.0000     -19.266719      -524.2741
   3   2.0000     -19.259851      -524.0872
   4   2.0000     -19.257409      -524.0207
   5   2.0000     -19.250268      -523.8264
   6   2.0000     -14.480932      -394.0462
   7   2.0000     -14.478968      -393.9928
   8   2.0000     -14.415502      -392.2657
   9   2.0000     -14.415354      -392.2617
  10   2.0000     -14.411537      -392.1579
  11   2.0000     -14.409410      -392.1000
  12   2.0000     -14.408857      -392.0849
  13   2.0000     -14.407277      -392.0419
  14   2.0000     -14.404875      -391.9766
  15   2.0000     -14.404377      -391.9630
  16   2.0000     -10.360662      -281.9279
  17   2.0000     -10.352943      -281.7179
  18   2.0000     -10.351418      -281.6764
  19   2.0000     -10.349623      -281.6276
  20   2.0000     -10.338947      -281.3370
  21   2.0000     -10.336537      -281.2715
  22   2.0000     -10.336476      -281.2698
  23   2.0000     -10.335978      -281.2563
  24   2.0000     -10.335763      -281.2504
  25   2.0000     -10.334063      -281.2041
  26   2.0000     -10.333665      -281.1933
  27   2.0000     -10.333224      -281.1813
  28   2.0000     -10.332305      -281.1563
  29   2.0000     -10.331358      -281.1305
  30   2.0000     -10.330854      -281.1168
  31   2.0000     -10.330710      -281.1129
  32   2.0000     -10.330698      -281.1126
  33   2.0000     -10.327913      -281.0368
  34   2.0000     -10.320426      -280.8331
  35   2.0000     -10.320342      -280.8308
  36   2.0000     -10.320151      -280.8256
  37   2.0000     -10.319768      -280.8152
  38   2.0000     -10.319463      -280.8069
  39   2.0000     -10.316540      -280.7273
  40   2.0000     -10.315579      -280.7012
  41   2.0000     -10.314501      -280.6718
  42   2.0000     -10.313796      -280.6527
  43   2.0000     -10.313708      -280.6503
  44   2.0000     -10.312988      -280.6307
  45   2.0000     -10.312426      -280.6154
  46   2.0000     -10.312353      -280.6134
  47   2.0000     -10.311943      -280.6022
  48   2.0000     -10.310943      -280.5750
  49   2.0000     -10.310890      -280.5736
  50   2.0000     -10.310785      -280.5707
  51   2.0000     -10.308925      -280.5201
  52   2.0000     -10.308030      -280.4958
  53   2.0000     -10.305924      -280.4385
  54   2.0000     -10.303735      -280.3789
  55   2.0000     -10.303245      -280.3656
  56   2.0000     -10.302980      -280.3583
  57   2.0000     -10.302949      -280.3575
  58   2.0000     -10.302550      -280.3466
  59   2.0000     -10.300025      -280.2779
  60   2.0000     -10.299841      -280.2729
  61   2.0000     -10.298335      -280.2319
  62   2.0000     -10.298008      -280.2230
  63   2.0000     -10.296578      -280.1841
  64   2.0000     -10.294240      -280.1205
  65   2.0000     -10.292576      -280.0752
  66   2.0000     -10.291876      -280.0562
  67   2.0000     -10.291723      -280.0520
  68   2.0000     -10.290861      -280.0286
  69   2.0000     -10.290702      -280.0242
  70   2.0000     -10.288456      -279.9631
  71   2.0000     -10.288151      -279.9548
  72   2.0000     -10.287860      -279.9469
  73   2.0000     -10.287551      -279.9385
  74   2.0000     -10.287269      -279.9308
  75   2.0000     -10.287072      -279.9254
  76   2.0000     -10.286288      -279.9041
  77   2.0000     -10.284635      -279.8591
  78   2.0000     -10.283388      -279.8252
  79   2.0000     -10.278095      -279.6812
  80   2.0000      -8.072312      -219.6588
  81   2.0000      -8.071000      -219.6231
  82   2.0000      -6.041384      -164.3944
  83   2.0000      -6.040178      -164.3616
  84   2.0000      -6.037419      -164.2865
  85   2.0000      -6.036098      -164.2506
  86   2.0000      -6.034645      -164.2110
  87   2.0000      -6.033291      -164.1742
  88   2.0000      -1.175602       -31.9898
  89   2.0000      -1.174655       -31.9640
  90   2.0000      -1.153240       -31.3813
  91   2.0000      -1.148540       -31.2534
  92   2.0000      -1.112696       -30.2780
  93   2.0000      -1.076104       -29.2823
  94   2.0000      -1.025567       -27.9071
  95   2.0000      -1.022991       -27.8370
  96   2.0000      -1.012485       -27.5511
  97   2.0000      -1.011184       -27.5157
  98   2.0000      -1.008707       -27.4483
  99   2.0000      -1.005692       -27.3663
 100   2.0000      -0.998570       -27.1725
 101   2.0000      -0.994886       -27.0722
 102   2.0000      -0.990778       -26.9604
 103   2.0000      -0.988540       -26.8996
 104   2.0000      -0.986974       -26.8569
 105   2.0000      -0.984545       -26.7908
 106   2.0000      -0.952527       -25.9196
 107   2.0000      -0.947371       -25.7793
 108   2.0000      -0.943489       -25.6736
 109   2.0000      -0.943004       -25.6605
 110   2.0000      -0.934360       -25.4252
 111   2.0000      -0.928360       -25.2620
 112   2.0000      -0.926801       -25.2195
 113   2.0000      -0.924402       -25.1543
 114   2.0000      -0.913613       -24.8607
 115   2.0000      -0.899500       -24.4766
 116   2.0000      -0.889813       -24.2130
 117   2.0000      -0.884088       -24.0572
 118   2.0000      -0.881864       -23.9968
 119   2.0000      -0.879259       -23.9258
 120   2.0000      -0.869453       -23.6590
 121   2.0000      -0.862423       -23.4677
 122   2.0000      -0.861317       -23.4376
 123   2.0000      -0.857367       -23.3301
 124   2.0000      -0.855538       -23.2804
 125   2.0000      -0.853056       -23.2128
 126   2.0000      -0.847941       -23.0736
 127   2.0000      -0.834508       -22.7081
 128   2.0000      -0.822399       -22.3786
 129   2.0000      -0.808234       -21.9932
 130   2.0000      -0.801496       -21.8098
 131   2.0000      -0.800346       -21.7785
 132   2.0000      -0.794255       -21.6128
 133   2.0000      -0.785801       -21.3827
 134   2.0000      -0.781116       -21.2553
 135   2.0000      -0.777529       -21.1576
 136   2.0000      -0.776774       -21.1371
 137   2.0000      -0.756157       -20.5761
 138   2.0000      -0.739933       -20.1346
 139   2.0000      -0.720683       -19.6108
 140   2.0000      -0.716822       -19.5057
 141   2.0000      -0.714693       -19.4478
 142   2.0000      -0.713129       -19.4052
 143   2.0000      -0.706788       -19.2327
 144   2.0000      -0.704703       -19.1759
 145   2.0000      -0.703277       -19.1372
 146   2.0000      -0.701815       -19.0974
 147   2.0000      -0.701504       -19.0889
 148   2.0000      -0.701097       -19.0778
 149   2.0000      -0.693865       -18.8810
 150   2.0000      -0.679147       -18.4805
 151   2.0000      -0.673480       -18.3263
 152   2.0000      -0.665529       -18.1100
 153   2.0000      -0.662485       -18.0271
 154   2.0000      -0.659062       -17.9340
 155   2.0000      -0.656017       -17.8511
 156   2.0000      -0.653830       -17.7916
 157   2.0000      -0.652469       -17.7546
 158   2.0000      -0.648946       -17.6587
 159   2.0000      -0.641398       -17.4533
 160   2.0000      -0.636724       -17.3261
 161   2.0000      -0.627944       -17.0872
 162   2.0000      -0.621352       -16.9078
 163   2.0000      -0.616840       -16.7851
 164   2.0000      -0.613674       -16.6989
 165   2.0000      -0.612091       -16.6559
 166   2.0000      -0.607217       -16.5232
 167   2.0000      -0.603862       -16.4319
 168   2.0000      -0.598597       -16.2887
 169   2.0000      -0.585321       -15.9274
 170   2.0000      -0.584033       -15.8923
 171   2.0000      -0.575323       -15.6553
 172   2.0000      -0.575217       -15.6524
 173   2.0000      -0.574589       -15.6354
 174   2.0000      -0.573356       -15.6018
 175   2.0000      -0.571695       -15.5566
 176   2.0000      -0.570974       -15.5370
 177   2.0000      -0.568790       -15.4776
 178   2.0000      -0.561483       -15.2787
 179   2.0000      -0.558767       -15.2048
 180   2.0000      -0.554629       -15.0922
 181   2.0000      -0.553071       -15.0498
 182   2.0000      -0.550070       -14.9682
 183   2.0000      -0.546589       -14.8734
 184   2.0000      -0.546276       -14.8649
 185   2.0000      -0.543604       -14.7922
 186   2.0000      -0.539694       -14.6858
 187   2.0000      -0.538524       -14.6540
 188   2.0000      -0.537269       -14.6198
 189   2.0000      -0.532809       -14.4985
 190   2.0000      -0.530545       -14.4369
 191   2.0000      -0.529177       -14.3996
 192   2.0000      -0.527880       -14.3643
 193   2.0000      -0.527217       -14.3463
 194   2.0000      -0.526419       -14.3246
 195   2.0000      -0.522239       -14.2108
 196   2.0000      -0.517866       -14.0919
 197   2.0000      -0.514794       -14.0083
 198   2.0000      -0.512501       -13.9459
 199   2.0000      -0.511680       -13.9235
 200   2.0000      -0.509408       -13.8617
 201   2.0000      -0.506531       -13.7834
 202   2.0000      -0.501472       -13.6458
 203   2.0000      -0.500831       -13.6283
 204   2.0000      -0.498227       -13.5575
 205   2.0000      -0.496478       -13.5098
 206   2.0000      -0.494413       -13.4537
 207   2.0000      -0.493345       -13.4246
 208   2.0000      -0.491696       -13.3797
 209   2.0000      -0.488936       -13.3046
 210   2.0000      -0.480995       -13.0885
 211   2.0000      -0.479666       -13.0524
 212   2.0000      -0.475846       -12.9484
 213   2.0000      -0.474452       -12.9105
 214   2.0000      -0.470999       -12.8165
 215   2.0000      -0.469507       -12.7759
 216   2.0000      -0.465318       -12.6619
 217   2.0000      -0.462862       -12.5951
 218   2.0000      -0.460602       -12.5336
 219   2.0000      -0.458286       -12.4706
 220   2.0000      -0.457660       -12.4536
 221   2.0000      -0.452777       -12.3207
 222   2.0000      -0.451426       -12.2839
 223   2.0000      -0.450948       -12.2709
 224   2.0000      -0.448969       -12.2171
 225   2.0000      -0.447414       -12.1747
 226   2.0000      -0.446208       -12.1419
 227   2.0000      -0.445895       -12.1334
 228   2.0000      -0.443759       -12.0753
 229   2.0000      -0.441845       -12.0232
 230   2.0000      -0.440375       -11.9832
 231   2.0000      -0.439217       -11.9517
 232   2.0000      -0.437843       -11.9143
 233   2.0000      -0.436520       -11.8783
 234   2.0000      -0.436425       -11.8757
 235   2.0000      -0.434460       -11.8222
 236   2.0000      -0.434368       -11.8198
 237   2.0000      -0.433155       -11.7868
 238   2.0000      -0.428258       -11.6535
 239   2.0000      -0.424654       -11.5554
 240   2.0000      -0.424564       -11.5530
 241   2.0000      -0.422268       -11.4905
 242   2.0000      -0.421493       -11.4694
 243   2.0000      -0.421045       -11.4572
 244   2.0000      -0.419494       -11.4150
 245   2.0000      -0.418129       -11.3779
 246   2.0000      -0.417250       -11.3539
 247   2.0000      -0.416309       -11.3283
 248   2.0000      -0.413994       -11.2653
 249   2.0000      -0.411910       -11.2086
 250   2.0000      -0.410253       -11.1635
 251   2.0000      -0.407575       -11.0907
 252   2.0000      -0.405937       -11.0461
 253   2.0000      -0.402508       -10.9528
 254   2.0000      -0.402036       -10.9400
 255   2.0000      -0.399647       -10.8749
 256   2.0000      -0.397292       -10.8109
 257   2.0000      -0.394260       -10.7284
 258   2.0000      -0.384127       -10.4526
 259   2.0000      -0.375819       -10.2265
 260   2.0000      -0.375463       -10.2169
 261   2.0000      -0.373182       -10.1548
 262   2.0000      -0.370724       -10.0879
 263   2.0000      -0.359492        -9.7823
 264   2.0000      -0.336547        -9.1579
 265   2.0000      -0.330389        -8.9903
 266   2.0000      -0.325924        -8.8688
 267   2.0000      -0.323856        -8.8126
 268   2.0000      -0.320935        -8.7331
 269   2.0000      -0.312866        -8.5135
 270   2.0000      -0.300819        -8.1857
 271   2.0000      -0.294035        -8.0011
 272   2.0000      -0.292651        -7.9634
 273   2.0000      -0.288426        -7.8485
 274   2.0000      -0.273550        -7.4437
 275   2.0000      -0.248166        -6.7529
 276   2.0000      -0.226430        -6.1615
 277   0.0000      -0.113612        -3.0915
 278   0.0000      -0.097155        -2.6437
 279   0.0000      -0.080095        -2.1795
 280   0.0000      -0.076350        -2.0776
 281   0.0000      -0.051685        -1.4064

MULLIKEN ATOMIC CHARGES
-----------------------
   0 C :   -0.035035
   1 C :    0.042814
   2 C :    0.044726
   3 C :   -0.037428
   4 C :    0.003682
   5 C :    0.007077
   6 C :    0.305843
   7 C :   -0.365666
   8 C :   -0.192975
   9 N :    0.147811
  10 C :   -0.168125
  11 N :    0.117562
  12 C :   -0.076199
  13 C :    0.220143
  14 C :   -0.341149
  15 C :   -0.216782
  16 N :    0.165868
  17 C :   -0.175440
  18 N :    0.142497
  19 C :    0.000119
  20 C :   -0.117938
  21 S :    0.172565
  22 C :    0.168329
  23 C :   -0.167676
  24 C :    0.197360
  25 O :   -0.319711
  26 C :    0.172209
  27 C :    0.165460
  28 O :   -0.308133
  29 C :    0.203144
  30 C :   -0.123573
  31 C :    0.139674
  32 C :   -0.087751
  33 C :   -0.002644
  34 C :    0.041702
  35 C :    0.069963
  36 N :   -0.033171
  37 C :    0.124422
  38 C :   -0.163573
  39 C :    0.094960
  40 N :   -0.033488
  41 C :    0.122482
  42 C :   -0.153565
  43 C :    0.002045
  44 C :    0.005494
  45 C :   -0.103216
  46 S :    0.163366
  47 C :    0.119138
  48 C :   -0.188817
  49 C :    0.208026
  50 O :   -0.286655
  51 C :    0.179474
  52 C :    0.214359
  53 O :   -0.280298
  54 C :    0.166551
  55 C :   -0.171294
  56 C :    0.159182
  57 C :   -0.142916
  58 C :    0.074773
  59 C :   -0.058066
  60 C :    0.044165
  61 C :   -0.095797
  62 C :    0.313359
  63 C :   -0.360861
  64 C :   -0.185610
  65 N :    0.148869
  66 C :   -0.186580
  67 N :    0.147117
  68 C :    0.015998
  69 C :   -0.005434
  70 C :   -0.033149
  71 C :    0.046271
  72 C :    0.044096
  73 C :   -0.039727
  74 C :    0.216142
  75 C :   -0.345435
  76 C :   -0.185716
  77 N :    0.148078
  78 C :   -0.161074
  79 N :    0.144800
  80 H :    0.001765
  81 H :   -0.002378
  82 H :   -0.000788
  83 H :    0.001783
  84 H :   -0.015865
  85 H :   -0.013894
  86 H :    0.037740
  87 H :    0.049879
  88 H :    0.038848
  89 H :    0.027512
  90 H :    0.024973
  91 H :    0.019673
  92 H :   -0.027744
  93 H :   -0.024006
  94 H :    0.010625
  95 H :    0.129847
  96 H :   -0.025386
  97 H :    0.126118
  98 H :   -0.022806
  99 H :   -0.008101
 100 H :   -0.001337
 101 H :   -0.039680
 102 H :    0.013418
 103 H :    0.045402
 104 H :    0.028587
 105 H :    0.038875
 106 H :    0.052495
 107 H :    0.023589
 108 H :   -0.023726
 109 H :    0.013141
 110 H :    0.011211
 111 H :    0.023244
 112 H :    0.002276
 113 H :   -0.000626
 114 H :    0.000861
 115 H :    0.003426
Sum of atomic charges:   -0.0000000

LOEWDIN ATOMIC CHARGES
----------------------
   0 C :    0.001900
   1 C :   -0.005296
   2 C :   -0.001692
   3 C :   -0.003612
   4 C :   -0.009516
   5 C :   -0.014075
   6 C :    0.082552
   7 C :   -0.160258
   8 C :   -0.021208
   9 N :   -0.064280
  10 C :   -0.009936
  11 N :   -0.081965
  12 C :   -0.096885
  13 C :    0.061601
  14 C :   -0.157360
  15 C :   -0.037990
  16 N :   -0.059989
  17 C :   -0.020966
  18 N :   -0.063268
  19 C :    0.034458
  20 C :   -0.195491
  21 S :    0.493276
  22 C :   -0.000411
  23 C :   -0.067831
  24 C :    0.055092
  25 O :   -0.087887
  26 C :    0.081358
  27 C :    0.044407
  28 O :   -0.103124
  29 C :    0.077684
  30 C :   -0.038767
  31 C :   -0.058212
  32 C :   -0.108293
  33 C :   -0.077296
  34 C :    0.008226
  35 C :   -0.004323
  36 N :    0.070914
  37 C :   -0.003876
  38 C :   -0.087247
  39 C :    0.003922
  40 N :    0.072658
  41 C :   -0.019580
  42 C :   -0.068948
  43 C :   -0.019310
  44 C :   -0.047818
  45 C :   -0.140129
  46 S :    0.464145
  47 C :   -0.050314
  48 C :   -0.079621
  49 C :    0.047995
  50 O :   -0.083149
  51 C :    0.078399
  52 C :    0.065086
  53 O :   -0.073160
  54 C :    0.078960
  55 C :   -0.069592
  56 C :   -0.013119
  57 C :   -0.192852
  58 C :    0.019986
  59 C :   -0.061992
  60 C :    0.057103
  61 C :   -0.083661
  62 C :    0.077385
  63 C :   -0.144675
  64 C :   -0.020588
  65 N :   -0.055440
  66 C :   -0.019145
  67 N :   -0.057707
  68 C :   -0.012632
  69 C :   -0.012300
  70 C :   -0.001915
  71 C :   -0.001045
  72 C :   -0.002503
  73 C :    0.002085
  74 C :    0.066688
  75 C :   -0.155721
  76 C :   -0.022713
  77 N :   -0.064847
  78 C :    0.004126
  79 N :   -0.068728
  80 H :    0.040178
  81 H :    0.034884
  82 H :    0.034979
  83 H :    0.039205
  84 H :    0.044848
  85 H :    0.036720
  86 H :    0.023282
  87 H :    0.026565
  88 H :    0.030956
  89 H :    0.022791
  90 H :    0.015113
  91 H :    0.014598
  92 H :    0.033439
  93 H :    0.023893
  94 H :    0.043858
  95 H :    0.090621
  96 H :    0.027201
  97 H :    0.092088
  98 H :    0.030480
  99 H :    0.031659
 100 H :    0.032556
 101 H :    0.027872
 102 H :    0.012118
 103 H :    0.032820
 104 H :    0.017410
 105 H :    0.030349
 106 H :    0.026143
 107 H :    0.018023
 108 H :    0.030556
 109 H :    0.034863
 110 H :    0.036661
 111 H :    0.045709
 112 H :    0.039641
 113 H :    0.035442
 114 H :    0.036000
 115 H :    0.040735

  Mayer bond orders larger than 0.100000
B(  0-C ,  1-C ) :   1.3575 B(  0-C ,  5-C ) :   1.3943 B(  0-C , 80-H ) :   0.9836
B(  1-C ,  2-C ) :   1.3888 B(  1-C , 81-H ) :   0.9866 B(  2-C ,  3-C ) :   1.3524
B(  2-C , 82-H ) :   0.9870 B(  3-C ,  4-C ) :   1.3946 B(  3-C , 83-H ) :   0.9863
B(  4-C ,  5-C ) :   1.3179 B(  4-C , 13-C ) :   1.0048 B(  5-C ,  6-C ) :   0.9866
B(  6-C ,  7-C ) :   1.5701 B(  6-C , 12-C ) :   1.1346 B(  7-C ,  8-C ) :   1.1542
B(  7-C , 10-C ) :   1.1551 B(  8-C ,  9-N ) :   2.9716 B( 10-C , 11-N ) :   2.9549
B( 12-C , 13-C ) :   1.0697 B( 12-C , 19-C ) :   1.4044 B( 13-C , 14-C ) :   1.5985
B( 14-C , 15-C ) :   1.1606 B( 14-C , 17-C ) :   1.1446 B( 15-C , 16-N ) :   3.0226
B( 17-C , 18-N ) :   2.9853 B( 19-C , 20-C ) :   1.3943 B( 19-C , 84-H ) :   0.9188
B( 20-C , 21-S ) :   1.0628 B( 20-C , 22-C ) :   1.2054 B( 21-S , 32-C ) :   1.1849
B( 22-C , 23-C ) :   1.2285 B( 22-C , 31-C ) :   1.2470 B( 23-C , 24-C ) :   1.3930
B( 23-C , 85-H ) :   0.9837 B( 24-C , 25-O ) :   1.1616 B( 24-C , 27-C ) :   1.1844
B( 25-O , 26-C ) :   0.9377 B( 26-C , 86-H ) :   0.9696 B( 26-C , 87-H ) :   0.9674
B( 26-C , 88-H ) :   0.9751 B( 27-C , 28-O ) :   1.1869 B( 27-C , 30-C ) :   1.5038
B( 28-O , 29-C ) :   0.9361 B( 29-C , 89-H ) :   0.9776 B( 29-C , 90-H ) :   0.9751
B( 29-C , 91-H ) :   0.9755 B( 30-C , 31-C ) :   1.1725 B( 30-C , 92-H ) :   0.9981
B( 31-C , 32-C ) :   1.2675 B( 32-C , 33-C ) :   1.2079 B( 33-C , 34-C ) :   1.5634
B( 33-C , 93-H ) :   0.9458 B( 34-C , 35-C ) :   1.2043 B( 34-C , 94-H ) :   0.9549
B( 35-C , 36-N ) :   1.1858 B( 35-C , 42-C ) :   1.3288 B( 36-N , 37-C ) :   1.1751
B( 36-N , 95-H ) :   0.9301 B( 37-C , 38-C ) :   1.2747 B( 37-C , 41-C ) :   1.2890
B( 38-C , 39-C ) :   1.3844 B( 38-C , 96-H ) :   1.0318 B( 39-C , 40-N ) :   1.1749
B( 39-C , 43-C ) :   1.1333 B( 40-N , 41-C ) :   1.1645 B( 40-N , 97-H ) :   0.9358
B( 41-C , 42-C ) :   1.2705 B( 42-C , 98-H ) :   1.0427 B( 43-C , 44-C ) :   1.6516
B( 43-C , 99-H ) :   0.9604 B( 44-C , 45-C ) :   1.1424 B( 44-C ,100-H ) :   0.9560
B( 45-C , 46-S ) :   1.1701 B( 45-C , 47-C ) :   1.3245 B( 46-S , 57-C ) :   1.0823
B( 47-C , 48-C ) :   1.1470 B( 47-C , 56-C ) :   1.2356 B( 48-C , 49-C ) :   1.4647
B( 48-C ,101-H ) :   0.9989 B( 49-C , 50-O ) :   1.1981 B( 49-C , 52-C ) :   1.1966
B( 50-O , 51-C ) :   0.9662 B( 51-C ,102-H ) :   0.9670 B( 51-C ,103-H ) :   0.9783
B( 51-C ,104-H ) :   0.9677 B( 52-C , 53-O ) :   1.2301 B( 52-C , 55-C ) :   1.4377
B( 53-O , 54-C ) :   0.9403 B( 54-C ,105-H ) :   0.9759 B( 54-C ,106-H ) :   0.9644
B( 54-C ,107-H ) :   0.9679 B( 55-C , 56-C ) :   1.2001 B( 55-C ,108-H ) :   0.9793
B( 56-C , 57-C ) :   1.2691 B( 57-C , 58-C ) :   1.2985 B( 58-C , 59-C ) :   1.4913
B( 58-C ,109-H ) :   0.9402 B( 59-C , 60-C ) :   1.2993 B( 59-C ,110-H ) :   0.9568
B( 60-C , 61-C ) :   1.4583 B( 60-C ,111-H ) :   0.9310 B( 61-C , 62-C ) :   1.0977
B( 61-C , 74-C ) :   1.0685 B( 62-C , 63-C ) :   1.6050 B( 62-C , 68-C ) :   0.9854
B( 63-C , 64-C ) :   1.1450 B( 63-C , 66-C ) :   1.1517 B( 64-C , 65-N ) :   2.9654
B( 66-C , 67-N ) :   2.9695 B( 68-C , 69-C ) :   1.3179 B( 68-C , 73-C ) :   1.3875
B( 69-C , 70-C ) :   1.3890 B( 69-C , 74-C ) :   1.0026 B( 70-C , 71-C ) :   1.3573
B( 70-C ,112-H ) :   0.9862 B( 71-C , 72-C ) :   1.3840 B( 71-C ,113-H ) :   0.9860
B( 72-C , 73-C ) :   1.3635 B( 72-C ,114-H ) :   0.9863 B( 73-C ,115-H ) :   0.9830
B( 74-C , 75-C ) :   1.5936 B( 75-C , 76-C ) :   1.1502 B( 75-C , 78-C ) :   1.1621
B( 76-C , 77-N ) :   2.9864 B( 78-C , 79-N ) :   2.9470

-----------------------------------------------------------------------------
         ABSORPTION SPECTRUM VIA TRANSITION ELECTRIC DIPOLE MOMENTS
-----------------------------------------------------------------------------
State   Energy  Wavelength   fosc         T2         TX        TY        TZ
        (cm-1)    (nm)                  (au**2)     (au)      (au)      (au)
-----------------------------------------------------------------------------
   0   10591.5    944.2   2.139712542  66.50804  -5.83215  -4.29381   3.74931
   1   13939.9    717.4   0.124952483   2.95095   0.10433  -0.91724  -1.44870
   2   18199.0    549.5   0.184937938   3.34545  -1.77074  -0.20238  -0.41107
   3   18389.6    543.8   0.100656617   1.80196  -1.27697  -0.40289   0.09487
   4   18513.3    540.2   0.150260516   2.67200   1.12578  -0.74268  -0.92361
   5   19889.7    502.8   0.380460364   6.29733   2.35700  -0.50314   0.69910
   6   23117.0    432.6   0.007119428   0.10139   0.15826  -0.27579  -0.01684
   7   23268.4    429.8   0.105324435   1.49018  -0.47809   1.12282  -0.02989
   8   23849.3    419.3   0.152844894   2.10985  -0.31962  -0.31754  -1.38089
   9   24452.5    409.0   0.067852499   0.91352   0.64197  -0.62934   0.32455
  10   25739.4    388.5   0.143216083   1.83176   1.23195   0.51840   0.21287
  11   25983.2    384.9   0.196080479   2.48438  -0.84733   1.32873   0.02953
  12   26253.0    380.9   0.075004380   0.94055   0.58620  -0.31325  -0.70626
  13   27143.5    368.4   0.136883246   1.66020   1.22501  -0.39934   0.00882
  14   27304.8    366.2   0.025413333   0.30641  -0.21090  -0.40313  -0.31531
  15   28167.3    355.0   0.041392859   0.48379   0.33086  -0.61145  -0.02123
  16   28920.6    345.8   0.050563447   0.57558  -0.42131   0.36975   0.51123
  17   29442.3    339.6   0.150070735   1.67803   0.87866  -0.69024  -0.65540
  18   29916.0    334.3   0.071192753   0.78344   0.32553   0.43056  -0.70149
  19   30214.8    331.0   0.098026094   1.06806   0.97790   0.08720   0.32275
  20   30875.7    323.9   0.016849361   0.17966  -0.14730  -0.38958   0.07867
  21   31112.7    321.4   0.035018723   0.37054   0.51075   0.25280  -0.21393
  22   31258.3    319.9   0.136061681   1.43300  -0.85569  -0.29732   0.78256
  23   31563.3    316.8   0.210055172   2.19092  -0.89529   0.51253   1.06146
  24   31785.8    314.6   0.084111221   0.87116  -0.32171  -0.46071  -0.74526
  25   31923.7    313.2   0.526375150   5.42823   2.16984   0.78515   0.32181
  26   32146.0    311.1   0.003833122   0.03926   0.16016  -0.09023   0.07391
  27   32297.7    309.6   0.086333890   0.88001  -0.79841   0.14793  -0.46974
  28   32402.0    308.6   0.027691437   0.28135   0.15296  -0.04005  -0.50631
  29   32786.9    305.0   0.002064841   0.02073   0.11039   0.05661   0.07309
  30   33041.0    302.7   0.059591719   0.59376  -0.34355   0.43212   0.53759
  31   33458.2    298.9   0.062073480   0.61077  -0.64900   0.16972   0.40095
  32   33608.4    297.5   0.212520200   2.08175  -0.67302   1.23100   0.33680
  33   34004.1    294.1   0.020796903   0.20135   0.43314  -0.09115  -0.07369
  34   34302.3    291.5   0.266028700   2.55317  -0.85562   1.18385  -0.64775
  35   34382.9    290.8   0.168218390   1.61067  -0.48974   0.20474  -1.15278
  36   35001.7    285.7   0.052872194   0.49730  -0.20377  -0.61382  -0.28106
  37   35658.4    280.4   0.074086932   0.68400  -0.15053   0.78826   0.19996
  38   35732.1    279.9   0.017320247   0.15958  -0.23651   0.32077   0.02729
  39   36463.2    274.2   0.018135289   0.16374  -0.18098   0.27182  -0.23895
  40   36691.8    272.5   0.011134098   0.09990   0.05677  -0.16086  -0.26609
  41   37023.1    270.1   0.032465636   0.28869   0.23067   0.01045  -0.48515
  42   37122.2    269.4   0.168484098   1.49417  -0.37635  -0.53315  -1.03358
  43   37819.9    264.4   0.002123737   0.01849   0.06564  -0.09574  -0.07080
  44   38214.1    261.7   0.232333801   2.00154   0.97109  -0.95435   0.38437
  45   38837.3    257.5   0.095367498   0.80840  -0.06720   0.38263   0.81085
  46   39012.0    256.3   0.025640879   0.21638  -0.32649   0.30962  -0.11794
  47   39323.4    254.3   0.154166800   1.29067   0.31167   0.89406  -0.62785
  48   39892.0    250.7   0.008951700   0.07387  -0.03625  -0.12833   0.23684
  49   40095.2    249.4   0.001374837   0.01129   0.02650  -0.09014   0.04962

FINAL SINGLE POINT ENERGY     -4100.567960091051

DIPOLE MOMENT
-------------
                                X             Y             Z
Electronic contribution:      7.47913     -20.23585     -15.15933
Nuclear contribution   :     -9.03008      21.42077      15.61099
                        -----------------------------------------
Total Dipole Moment    :     -1.55095       1.18492       0.45166
                        -----------------------------------------
Magnitude (a.u.)       :      2.00336
Magnitude (Debye)      :      5.09215

Rotational constants in cm-1:     0.001363     0.000168     0.000166
Rotational constants in MHz :    40.853539     5.047722     4.964176

                             ****ORCA TERMINATED NORMALLY****
TOTAL RUN TIME: 0 days 0 hours 17 minutes 31 seconds 934 msec
