                         Program Version 4.2.0 -  RELEASE  -
|  1> # ORCA input file
|  2> # SCF done       -206.401667779631          0.000595373472
|  3> ! CAM-B3LYP def2-SVP def2/J RIJCOSX Grid4 TightSCF
|  4> %maxcore 5000
|  5> %tddft
|  6>     Mode sTDDFT
|  7>     Ethresh 5.0
|  8>     maxcore 5000
|  9> end
| 10>
| 11> %pal
| 12>   nprocs 6
| 13>   end
| 14> * xyz 0 1
| 15>    C        9.27985         0.61879        -3.58320
| 16>    C        8.49478        -0.45082        -3.89568
| 17>    C        8.59725        -0.78126        -5.28630
| 18>    C        9.45491         0.00214        -5.98500
| 19>    S       10.15395         1.19059        -4.95426
| 20>    C        7.63562        -1.82698        -5.59682
| 21>    O        7.42060        -2.33081        -6.69382
| 22>    C        6.95418        -2.14192        -4.32739
| 23>    C        7.49986        -1.32918        -3.27014
| 24>    C        7.16782        -1.31108        -1.92588
| 25>    N        7.85508        -0.55705        -0.94051
| 26>    O        7.22993        -0.22333         0.05235
| 27>    O        9.02220        -0.25450        -1.12879
| 28>    N        6.06033        -2.03969        -1.35903
| 29>    O        5.00728        -2.04086        -1.96150
| 30>    O        6.27111        -2.62309        -0.31863
| 31>    C        5.94726        -3.11237        -4.32520
| 32>    N        5.50287        -3.58738        -5.49066
| 33>    C        4.60478        -4.57796        -5.75177
| 34>    S        3.82140        -4.48367        -7.30522
| 35>    C        2.86172        -5.86093        -6.89216
| 36>    N        1.91996        -6.31848        -7.83534
| 37>    O        1.26155        -7.29400        -7.54142
| 38>    O        1.83511        -5.68527        -8.86851
| 39>    C        3.13020        -6.35463        -5.64943
| 40>    C        4.16065        -5.65379        -4.97666
| 41>    C        4.62238        -6.13168        -3.70422
| 42>    C        5.80133        -5.98556        -3.06104
| 43>    C        7.03540        -5.38128        -3.45943
| 44>    C        7.59131        -5.33792        -4.76276
| 45>    C        8.84182        -4.68041        -5.03289
| 46>    N        9.33096        -4.65959        -6.27107
| 47>    C        8.66107        -5.24290        -7.24506
| 48>    C        7.42608        -5.89814        -6.97904
| 49>    N        6.92613        -5.93529        -5.76398
| 50>    C        6.68384        -6.50927        -8.02190
| 51>    N        6.07532        -6.98208        -8.86873
| 52>    C        9.19352        -5.20860        -8.55661
| 53>    N        9.60489        -5.19703        -9.62554
| 54>    C        9.58590        -3.99134        -4.01184
| 55>    C        9.09343        -4.17505        -2.69491
| 56>    C        7.87536        -4.88865        -2.43286
| 57>    N        7.61330        -4.95724        -1.12683
| 58>    S        8.75066        -4.19984        -0.29947
| 59>    N        9.65271        -3.75919        -1.55878
| 60>    C       10.66998        -3.20101        -4.40615
| 61>    C       11.40943        -2.28309        -3.68141
| 62>    C       12.33483        -1.38377        -4.27363
| 63>    C       12.79645        -0.41238        -3.43093
| 64>    C       12.26408        -0.52855        -2.13346
| 65>    S       11.23561        -1.92885        -1.99169
| 66>    C       12.29736         0.33233        -1.04223
| 67>    C       12.78719         1.65249        -0.91856
| 68>    C       12.36527         2.28052         0.21838
| 69>    C       11.51344         1.48458         1.02608
| 70>    S       11.40485        -0.13146         0.36887
| 71>    C       10.70790         1.87517         2.07632
| 72>    C        9.70818         1.01659         2.54655
| 73>    C        8.70561         1.33572         3.42596
| 74>    C        7.58372         0.49188         3.77457
| 75>    C        7.33025        -0.77727         3.31474
| 76>    C        6.19907        -1.53559         3.68569
| 77>    N        5.31031        -2.20262         3.97269
| 78>    C        8.13052        -1.52953         2.43181
| 79>    N        8.71543        -2.23732         1.74006
| 80>    C        6.73746         1.24975         4.69203
| 81>    C        7.31758         2.52650         4.90382
| 82>    C        8.56373         2.63469         4.12153
| 83>    O        9.31071         3.59001         4.06549
| 84>    C        6.74851         3.47398         5.71936
| 85>    C        5.54784         3.14921         6.35925
| 86>    C        4.97570         1.87261         6.14312
| 87>    C        5.55150         0.91406         5.31795
| 88>    S        3.49370         1.67891         7.02825
| 89>    C        3.65912         3.29327         7.66633
| 90>    C        4.76732         3.94551         7.24071
| 91>   Br        2.35524         3.96508         8.83428
| 92>    H        9.43068         1.12141        -2.65055
| 93>    H        9.70300        -0.03571        -7.02663
| 94>    H        5.40308        -3.41127        -3.44407
| 95>    H        5.96792        -3.17030        -6.31604
| 96>    H        2.62619        -7.21532        -5.24733
| 97>    H        3.87860        -6.73054        -3.19364
| 98>    H        5.83841        -6.33911        -2.03737
| 99>    H       10.89601        -3.25949        -5.46461
|100>    H       12.59699        -1.45811        -5.31457
|101>    H       13.47528         0.37068        -3.71836
|102>    H       13.39067         2.11189        -1.68117
|103>    H       12.58895         3.30168         0.47141
|104>    H       10.77868         2.87988         2.46723
|105>    H        9.68710         0.02661         2.10902
|106>    H        7.21424         4.43710         5.85805
|107>    H        5.07481        -0.04246         5.18538
|108>    H        5.02446         4.94666         7.53487
|109> *
|110>
|111>                          ****END OF INPUT****

CARTESIAN COORDINATES (ANGSTROEM)
---------------------------------
  C      9.279850    0.618790   -3.583200
  C      8.494780   -0.450820   -3.895680
  C      8.597250   -0.781260   -5.286300
  C      9.454910    0.002140   -5.985000
  S     10.153950    1.190590   -4.954260
  C      7.635620   -1.826980   -5.596820
  O      7.420600   -2.330810   -6.693820
  C      6.954180   -2.141920   -4.327390
  C      7.499860   -1.329180   -3.270140
  C      7.167820   -1.311080   -1.925880
  N      7.855080   -0.557050   -0.940510
  O      7.229930   -0.223330    0.052350
  O      9.022200   -0.254500   -1.128790
  N      6.060330   -2.039690   -1.359030
  O      5.007280   -2.040860   -1.961500
  O      6.271110   -2.623090   -0.318630
  C      5.947260   -3.112370   -4.325200
  N      5.502870   -3.587380   -5.490660
  C      4.604780   -4.577960   -5.751770
  S      3.821400   -4.483670   -7.305220
  C      2.861720   -5.860930   -6.892160
  N      1.919960   -6.318480   -7.835340
  O      1.261550   -7.294000   -7.541420
  O      1.835110   -5.685270   -8.868510
  C      3.130200   -6.354630   -5.649430
  C      4.160650   -5.653790   -4.976660
  C      4.622380   -6.131680   -3.704220
  C      5.801330   -5.985560   -3.061040
  C      7.035400   -5.381280   -3.459430
  C      7.591310   -5.337920   -4.762760
  C      8.841820   -4.680410   -5.032890
  N      9.330960   -4.659590   -6.271070
  C      8.661070   -5.242900   -7.245060
  C      7.426080   -5.898140   -6.979040
  N      6.926130   -5.935290   -5.763980
  C      6.683840   -6.509270   -8.021900
  N      6.075320   -6.982080   -8.868730
  C      9.193520   -5.208600   -8.556610
  N      9.604890   -5.197030   -9.625540
  C      9.585900   -3.991340   -4.011840
  C      9.093430   -4.175050   -2.694910
  C      7.875360   -4.888650   -2.432860
  N      7.613300   -4.957240   -1.126830
  S      8.750660   -4.199840   -0.299470
  N      9.652710   -3.759190   -1.558780
  C     10.669980   -3.201010   -4.406150
  C     11.409430   -2.283090   -3.681410
  C     12.334830   -1.383770   -4.273630
  C     12.796450   -0.412380   -3.430930
  C     12.264080   -0.528550   -2.133460
  S     11.235610   -1.928850   -1.991690
  C     12.297360    0.332330   -1.042230
  C     12.787190    1.652490   -0.918560
  C     12.365270    2.280520    0.218380
  C     11.513440    1.484580    1.026080
  S     11.404850   -0.131460    0.368870
  C     10.707900    1.875170    2.076320
  C      9.708180    1.016590    2.546550
  C      8.705610    1.335720    3.425960
  C      7.583720    0.491880    3.774570
  C      7.330250   -0.777270    3.314740
  C      6.199070   -1.535590    3.685690
  N      5.310310   -2.202620    3.972690
  C      8.130520   -1.529530    2.431810
  N      8.715430   -2.237320    1.740060
  C      6.737460    1.249750    4.692030
  C      7.317580    2.526500    4.903820
  C      8.563730    2.634690    4.121530
  O      9.310710    3.590010    4.065490
  C      6.748510    3.473980    5.719360
  C      5.547840    3.149210    6.359250
  C      4.975700    1.872610    6.143120
  C      5.551500    0.914060    5.317950
  S      3.493700    1.678910    7.028250
  C      3.659120    3.293270    7.666330
  C      4.767320    3.945510    7.240710
  Br     2.355240    3.965080    8.834280
  H      9.430680    1.121410   -2.650550
  H      9.703000   -0.035710   -7.026630
  H      5.403080   -3.411270   -3.444070
  H      5.967920   -3.170300   -6.316040
  H      2.626190   -7.215320   -5.247330
  H      3.878600   -6.730540   -3.193640
  H      5.838410   -6.339110   -2.037370
  H     10.896010   -3.259490   -5.464610
  H     12.596990   -1.458110   -5.314570
  H     13.475280    0.370680   -3.718360
  H     13.390670    2.111890   -1.681170
  H     12.588950    3.301680    0.471410
  H     10.778680    2.879880    2.467230
  H      9.687100    0.026610    2.109020
  H      7.214240    4.437100    5.858050
  H      5.074810   -0.042460    5.185380
  H      5.024460    4.946660    7.534870

 Total Charge           Charge          ....    0
 Multiplicity           Mult            ....    1
 Number of Electrons    NEL             ....  596
 Basis Dimension        Dim             .... 1205

ORBITAL ENERGIES
----------------

  NO   OCC          E(Eh)            E(eV)
   0   2.0000    -482.886760    -13140.0168
   1   2.0000     -89.036375     -2422.8029
   2   2.0000     -88.992346     -2421.6048
   3   2.0000     -88.982085     -2421.3256
   4   2.0000     -88.976634     -2421.1773
   5   2.0000     -88.970258     -2421.0038
   6   2.0000     -88.968441     -2420.9543
   7   2.0000     -62.564486     -1702.4662
   8   2.0000     -56.398438     -1534.6795
   9   2.0000     -56.395716     -1534.6055
  10   2.0000     -56.395688     -1534.6047
  11   2.0000     -19.262927      -524.1709
  12   2.0000     -19.261889      -524.1426
  13   2.0000     -19.257687      -524.0283
  14   2.0000     -19.255268      -523.9625
  15   2.0000     -19.237797      -523.4871
  16   2.0000     -19.235109      -523.4139
  17   2.0000     -19.234262      -523.3909
  18   2.0000     -19.219480      -522.9886
  19   2.0000     -14.668768      -399.1575
  20   2.0000     -14.666251      -399.0890
  21   2.0000     -14.646353      -398.5475
  22   2.0000     -14.494614      -394.4185
  23   2.0000     -14.460438      -393.4885
  24   2.0000     -14.454806      -393.3353
  25   2.0000     -14.452091      -393.2614
  26   2.0000     -14.440966      -392.9587
  27   2.0000     -14.427977      -392.6052
  28   2.0000     -14.423549      -392.4847
  29   2.0000     -14.420618      -392.4050
  30   2.0000     -14.413173      -392.2024
  31   2.0000     -10.388490      -282.6852
  32   2.0000     -10.379581      -282.4428
  33   2.0000     -10.373914      -282.2886
  34   2.0000     -10.373521      -282.2779
  35   2.0000     -10.370180      -282.1869
  36   2.0000     -10.369235      -282.1612
  37   2.0000     -10.367121      -282.1037
  38   2.0000     -10.366759      -282.0939
  39   2.0000     -10.360152      -281.9141
  40   2.0000     -10.351163      -281.6695
  41   2.0000     -10.349229      -281.6169
  42   2.0000     -10.344854      -281.4978
  43   2.0000     -10.343764      -281.4681
  44   2.0000     -10.341931      -281.4182
  45   2.0000     -10.341925      -281.4181
  46   2.0000     -10.341482      -281.4060
  47   2.0000     -10.341370      -281.4030
  48   2.0000     -10.340828      -281.3882
  49   2.0000     -10.337576      -281.2998
  50   2.0000     -10.332159      -281.1523
  51   2.0000     -10.330458      -281.1061
  52   2.0000     -10.330196      -281.0989
  53   2.0000     -10.330098      -281.0962
  54   2.0000     -10.327328      -281.0209
  55   2.0000     -10.326699      -281.0038
  56   2.0000     -10.321971      -280.8751
  57   2.0000     -10.321171      -280.8533
  58   2.0000     -10.318118      -280.7703
  59   2.0000     -10.316959      -280.7387
  60   2.0000     -10.316379      -280.7229
  61   2.0000     -10.316198      -280.7180
  62   2.0000     -10.316019      -280.7131
  63   2.0000     -10.314805      -280.6801
  64   2.0000     -10.310826      -280.5718
  65   2.0000     -10.310468      -280.5621
  66   2.0000     -10.309536      -280.5367
  67   2.0000     -10.309053      -280.5236
  68   2.0000     -10.308808      -280.5169
  69   2.0000     -10.306764      -280.4613
  70   2.0000     -10.306001      -280.4405
  71   2.0000     -10.305113      -280.4164
  72   2.0000     -10.303644      -280.3764
  73   2.0000     -10.303073      -280.3609
  74   2.0000     -10.302407      -280.3427
  75   2.0000     -10.302053      -280.3331
  76   2.0000     -10.300437      -280.2891
  77   2.0000     -10.297969      -280.2220
  78   2.0000     -10.293648      -280.1044
  79   2.0000     -10.293411      -280.0979
  80   2.0000     -10.286353      -279.9059
  81   2.0000      -8.793924      -239.2948
  82   2.0000      -8.126312      -221.1282
  83   2.0000      -8.087815      -220.0806
  84   2.0000      -8.077591      -219.8024
  85   2.0000      -8.072672      -219.6686
  86   2.0000      -8.066380      -219.4974
  87   2.0000      -8.062666      -219.3963
  88   2.0000      -6.630247      -180.4182
  89   2.0000      -6.615663      -180.0214
  90   2.0000      -6.615436      -180.0152
  91   2.0000      -6.097363      -165.9177
  92   2.0000      -6.089638      -165.7075
  93   2.0000      -6.088972      -165.6893
  94   2.0000      -6.057082      -164.8216
  95   2.0000      -6.052401      -164.6942
  96   2.0000      -6.050507      -164.6427
  97   2.0000      -6.047268      -164.5545
  98   2.0000      -6.042835      -164.4339
  99   2.0000      -6.042336      -164.4203
 100   2.0000      -6.039017      -164.3300
 101   2.0000      -6.038084      -164.3046
 102   2.0000      -6.035986      -164.2475
 103   2.0000      -6.033897      -164.1907
 104   2.0000      -6.032371      -164.1492
 105   2.0000      -6.031822      -164.1342
 106   2.0000      -6.027861      -164.0264
 107   2.0000      -6.027461      -164.0155
 108   2.0000      -6.023911      -163.9189
 109   2.0000      -2.746084       -74.7247
 110   2.0000      -2.742012       -74.6139
 111   2.0000      -2.741896       -74.6108
 112   2.0000      -2.730283       -74.2948
 113   2.0000      -2.730260       -74.2941
 114   2.0000      -1.349940       -36.7337
 115   2.0000      -1.330072       -36.1931
 116   2.0000      -1.317786       -35.8588
 117   2.0000      -1.164449       -31.6863
 118   2.0000      -1.156370       -31.4664
 119   2.0000      -1.151229       -31.3265
 120   2.0000      -1.137633       -30.9566
 121   2.0000      -1.137436       -30.9512
 122   2.0000      -1.133041       -30.8316
 123   2.0000      -1.119100       -30.4522
 124   2.0000      -1.100485       -29.9457
 125   2.0000      -1.044092       -28.4112
 126   2.0000      -1.030876       -28.0516
 127   2.0000      -1.027075       -27.9481
 128   2.0000      -1.023947       -27.8630
 129   2.0000      -1.015613       -27.6362
 130   2.0000      -1.011057       -27.5123
 131   2.0000      -1.006100       -27.3774
 132   2.0000      -1.004910       -27.3450
 133   2.0000      -1.000079       -27.2135
 134   2.0000      -0.996480       -27.1156
 135   2.0000      -0.990970       -26.9657
 136   2.0000      -0.990020       -26.9398
 137   2.0000      -0.988830       -26.9074
 138   2.0000      -0.978069       -26.6146
 139   2.0000      -0.947755       -25.7897
 140   2.0000      -0.946186       -25.7470
 141   2.0000      -0.928684       -25.2708
 142   2.0000      -0.920656       -25.0523
 143   2.0000      -0.910212       -24.7681
 144   2.0000      -0.909447       -24.7473
 145   2.0000      -0.905702       -24.6454
 146   2.0000      -0.896884       -24.4055
 147   2.0000      -0.887222       -24.1425
 148   2.0000      -0.886867       -24.1329
 149   2.0000      -0.879479       -23.9318
 150   2.0000      -0.870730       -23.6938
 151   2.0000      -0.859546       -23.3894
 152   2.0000      -0.856198       -23.2983
 153   2.0000      -0.850044       -23.1309
 154   2.0000      -0.847271       -23.0554
 155   2.0000      -0.834617       -22.7111
 156   2.0000      -0.830279       -22.5930
 157   2.0000      -0.827987       -22.5307
 158   2.0000      -0.819816       -22.3083
 159   2.0000      -0.808206       -21.9924
 160   2.0000      -0.807135       -21.9633
 161   2.0000      -0.794016       -21.6063
 162   2.0000      -0.783617       -21.3233
 163   2.0000      -0.778179       -21.1753
 164   2.0000      -0.763975       -20.7888
 165   2.0000      -0.761721       -20.7275
 166   2.0000      -0.752494       -20.4764
 167   2.0000      -0.734748       -19.9935
 168   2.0000      -0.727079       -19.7848
 169   2.0000      -0.715332       -19.4652
 170   2.0000      -0.709411       -19.3040
 171   2.0000      -0.702864       -19.1259
 172   2.0000      -0.698884       -19.0176
 173   2.0000      -0.697362       -18.9762
 174   2.0000      -0.694114       -18.8878
 175   2.0000      -0.692463       -18.8429
 176   2.0000      -0.687235       -18.7006
 177   2.0000      -0.675762       -18.3884
 178   2.0000      -0.675508       -18.3815
 179   2.0000      -0.669511       -18.2183
 180   2.0000      -0.663429       -18.0528
 181   2.0000      -0.660379       -17.9698
 182   2.0000      -0.656298       -17.8588
 183   2.0000      -0.651587       -17.7306
 184   2.0000      -0.646478       -17.5915
 185   2.0000      -0.644378       -17.5344
 186   2.0000      -0.638446       -17.3730
 187   2.0000      -0.636932       -17.3318
 188   2.0000      -0.632731       -17.2175
 189   2.0000      -0.632038       -17.1986
 190   2.0000      -0.630682       -17.1617
 191   2.0000      -0.627687       -17.0802
 192   2.0000      -0.625718       -17.0267
 193   2.0000      -0.624984       -17.0067
 194   2.0000      -0.622439       -16.9374
 195   2.0000      -0.605403       -16.4738
 196   2.0000      -0.603055       -16.4100
 197   2.0000      -0.602376       -16.3915
 198   2.0000      -0.599728       -16.3194
 199   2.0000      -0.598211       -16.2782
 200   2.0000      -0.596599       -16.2343
 201   2.0000      -0.593449       -16.1486
 202   2.0000      -0.591129       -16.0854
 203   2.0000      -0.584247       -15.8982
 204   2.0000      -0.582573       -15.8526
 205   2.0000      -0.572274       -15.5724
 206   2.0000      -0.567134       -15.4325
 207   2.0000      -0.560701       -15.2575
 208   2.0000      -0.558819       -15.2063
 209   2.0000      -0.551011       -14.9938
 210   2.0000      -0.549396       -14.9498
 211   2.0000      -0.546739       -14.8775
 212   2.0000      -0.544636       -14.8203
 213   2.0000      -0.543471       -14.7886
 214   2.0000      -0.543088       -14.7782
 215   2.0000      -0.541234       -14.7277
 216   2.0000      -0.537333       -14.6216
 217   2.0000      -0.534525       -14.5452
 218   2.0000      -0.533738       -14.5238
 219   2.0000      -0.528766       -14.3885
 220   2.0000      -0.525599       -14.3023
 221   2.0000      -0.521018       -14.1776
 222   2.0000      -0.516558       -14.0562
 223   2.0000      -0.513223       -13.9655
 224   2.0000      -0.510526       -13.8921
 225   2.0000      -0.508939       -13.8489
 226   2.0000      -0.507586       -13.8121
 227   2.0000      -0.506459       -13.7815
 228   2.0000      -0.501095       -13.6355
 229   2.0000      -0.500480       -13.6187
 230   2.0000      -0.498518       -13.5654
 231   2.0000      -0.495329       -13.4786
 232   2.0000      -0.494841       -13.4653
 233   2.0000      -0.492974       -13.4145
 234   2.0000      -0.492367       -13.3980
 235   2.0000      -0.488262       -13.2863
 236   2.0000      -0.486719       -13.2443
 237   2.0000      -0.484892       -13.1946
 238   2.0000      -0.473403       -12.8820
 239   2.0000      -0.471037       -12.8176
 240   2.0000      -0.468155       -12.7391
 241   2.0000      -0.465241       -12.6598
 242   2.0000      -0.460406       -12.5283
 243   2.0000      -0.459976       -12.5166
 244   2.0000      -0.458057       -12.4644
 245   2.0000      -0.457234       -12.4420
 246   2.0000      -0.453373       -12.3369
 247   2.0000      -0.452695       -12.3185
 248   2.0000      -0.449700       -12.2370
 249   2.0000      -0.449599       -12.2342
 250   2.0000      -0.444597       -12.0981
 251   2.0000      -0.442833       -12.0501
 252   2.0000      -0.441084       -12.0025
 253   2.0000      -0.440669       -11.9912
 254   2.0000      -0.437855       -11.9146
 255   2.0000      -0.435869       -11.8606
 256   2.0000      -0.433260       -11.7896
 257   2.0000      -0.432836       -11.7781
 258   2.0000      -0.431527       -11.7424
 259   2.0000      -0.427407       -11.6303
 260   2.0000      -0.425713       -11.5842
 261   2.0000      -0.424084       -11.5399
 262   2.0000      -0.420856       -11.4521
 263   2.0000      -0.413197       -11.2437
 264   2.0000      -0.410989       -11.1836
 265   2.0000      -0.409988       -11.1563
 266   2.0000      -0.408209       -11.1079
 267   2.0000      -0.406167       -11.0524
 268   2.0000      -0.400174       -10.8893
 269   2.0000      -0.398791       -10.8516
 270   2.0000      -0.392048       -10.6682
 271   2.0000      -0.389029       -10.5860
 272   2.0000      -0.388194       -10.5633
 273   2.0000      -0.387438       -10.5427
 274   2.0000      -0.381345       -10.3769
 275   2.0000      -0.380368       -10.3503
 276   2.0000      -0.376734       -10.2514
 277   2.0000      -0.376182       -10.2364
 278   2.0000      -0.373722       -10.1695
 279   2.0000      -0.365851        -9.9553
 280   2.0000      -0.364546        -9.9198
 281   2.0000      -0.362239        -9.8570
 282   2.0000      -0.359857        -9.7922
 283   2.0000      -0.357887        -9.7386
 284   2.0000      -0.353873        -9.6294
 285   2.0000      -0.348574        -9.4852
 286   2.0000      -0.343921        -9.3586
 287   2.0000      -0.343273        -9.3409
 288   2.0000      -0.340463        -9.2645
 289   2.0000      -0.337606        -9.1867
 290   2.0000      -0.329579        -8.9683
 291   2.0000      -0.323930        -8.8146
 292   2.0000      -0.319281        -8.6881
 293   2.0000      -0.316743        -8.6190
 294   2.0000      -0.295418        -8.0387
 295   2.0000      -0.288811        -7.8590
 296   2.0000      -0.279486        -7.6052
 297   2.0000      -0.236416        -6.4332
 298   0.0000      -0.142563        -3.8793
 299   0.0000      -0.097243        -2.6461
 300   0.0000      -0.094573        -2.5735
 301   0.0000      -0.071281        -1.9397
 302   0.0000      -0.064675        -1.7599

MULLIKEN ATOMIC CHARGES
-----------------------
   0 C :   -0.135937
   1 C :    0.056262
   2 C :    0.054753
   3 C :   -0.149517
   4 S :    0.138612
   5 C :    0.172495
   6 O :   -0.225645
   7 C :   -0.155739
   8 C :    0.280010
   9 C :   -0.012495
  10 N :    0.267628
  11 O :   -0.244174
  12 O :   -0.250984
  13 N :    0.225522
  14 O :   -0.231158
  15 O :   -0.195700
  16 C :    0.060276
  17 N :    0.004519
  18 C :   -0.164573
  19 S :    0.185634
  20 C :    0.028401
  21 N :    0.275199
  22 O :   -0.242960
  23 O :   -0.252310
  24 C :   -0.022873
  25 C :    0.189708
  26 C :   -0.014216
  27 C :   -0.049730
  28 C :   -0.017049
  29 C :   -0.069220
  30 C :   -0.051412
  31 N :    0.061496
  32 C :   -0.119384
  33 C :   -0.129174
  34 N :    0.039943
  35 C :   -0.225678
  36 N :    0.252750
  37 C :   -0.223300
  38 N :    0.235307
  39 C :    0.095189
  40 C :    0.037229
  41 C :    0.001927
  42 N :   -0.255088
  43 S :    0.606492
  44 N :   -0.341594
  45 C :   -0.091962
  46 C :    0.001695
  47 C :    0.030868
  48 C :    0.046986
  49 C :   -0.025093
  50 S :    0.170461
  51 C :   -0.039960
  52 C :    0.033550
  53 C :    0.045927
  54 C :   -0.015313
  55 S :    0.126748
  56 C :    0.014361
  57 C :   -0.052248
  58 C :   -0.062731
  59 C :    0.335498
  60 C :   -0.356011
  61 C :   -0.196108
  62 N :    0.151984
  63 C :   -0.146363
  64 N :    0.117185
  65 C :    0.010681
  66 C :   -0.016231
  67 C :    0.137083
  68 O :   -0.154680
  69 C :   -0.070336
  70 C :    0.119281
  71 C :   -0.091686
  72 C :   -0.018722
  73 S :    0.189111
  74 C :   -0.123987
  75 C :    0.038683
  76 Br:    0.024578
  77 H :    0.046059
  78 H :    0.040537
  79 H :    0.045857
  80 H :    0.176135
  81 H :    0.012812
  82 H :    0.003849
  83 H :    0.019512
  84 H :    0.008226
  85 H :   -0.000491
  86 H :   -0.008670
  87 H :    0.000540
  88 H :    0.007491
  89 H :    0.022441
  90 H :    0.026232
  91 H :   -0.012175
  92 H :   -0.006947
  93 H :   -0.004099
Sum of atomic charges:   -0.0000000

LOEWDIN ATOMIC CHARGES
----------------------
   0 C :   -0.145656
   1 C :   -0.062134
   2 C :   -0.086875
   3 C :   -0.142739
   4 S :    0.483111
   5 C :    0.090015
   6 O :   -0.175584
   7 C :   -0.152739
   8 C :    0.062144
   9 C :   -0.100368
  10 N :    0.282210
  11 O :   -0.206092
  12 O :   -0.212459
  13 N :    0.273583
  14 O :   -0.191185
  15 O :   -0.172034
  16 C :    0.118383
  17 N :    0.084165
  18 C :   -0.119399
  19 S :    0.473097
  20 C :   -0.196545
  21 N :    0.274160
  22 O :   -0.207421
  23 O :   -0.217581
  24 C :    0.004652
  25 C :   -0.078864
  26 C :   -0.015074
  27 C :   -0.023672
  28 C :   -0.062098
  29 C :   -0.008736
  30 C :   -0.006288
  31 N :    0.002578
  32 C :   -0.037749
  33 C :   -0.023034
  34 N :   -0.007006
  35 C :   -0.040034
  36 N :   -0.003916
  37 C :   -0.036055
  38 N :   -0.015012
  39 C :   -0.018267
  40 C :   -0.053774
  41 C :   -0.046160
  42 N :   -0.285587
  43 S :    0.745805
  44 N :   -0.301709
  45 C :   -0.034953
  46 C :   -0.126846
  47 C :   -0.026257
  48 C :   -0.026832
  49 C :   -0.185151
  50 S :    0.500134
  51 C :   -0.159645
  52 C :   -0.019515
  53 C :   -0.019128
  54 C :   -0.114431
  55 S :    0.455134
  56 C :   -0.037381
  57 C :    0.046990
  58 C :   -0.081499
  59 C :    0.076060
  60 C :   -0.136941
  61 C :   -0.016198
  62 N :   -0.053499
  63 C :    0.001595
  64 N :   -0.094987
  65 C :   -0.018446
  66 C :   -0.051025
  67 C :    0.082698
  68 O :   -0.149900
  69 C :    0.021225
  70 C :   -0.032722
  71 C :   -0.143547
  72 C :   -0.008887
  73 S :    0.434719
  74 C :   -0.271506
  75 C :   -0.070504
  76 Br:    0.137596
  77 H :    0.023795
  78 H :    0.036756
  79 H :    0.035435
  80 H :    0.073057
  81 H :    0.047178
  82 H :    0.040724
  83 H :    0.044723
  84 H :    0.041586
  85 H :    0.036082
  86 H :    0.032510
  87 H :    0.037464
  88 H :    0.041204
  89 H :    0.041741
  90 H :    0.028848
  91 H :    0.040442
  92 H :    0.041408
  93 H :    0.038638

  Mayer bond orders larger than 0.100000
B(  0-C ,  1-C ) :   1.5543 B(  0-C ,  4-S ) :   1.1793 B(  0-C , 77-H ) :   0.9458
B(  1-C ,  2-C ) :   1.2275 B(  1-C ,  8-C ) :   0.9986 B(  2-C ,  3-C ) :   1.5360
B(  2-C ,  5-C ) :   1.0037 B(  3-C ,  4-S ) :   1.1744 B(  3-C , 78-H ) :   0.9741
B(  5-C ,  6-O ) :   1.9867 B(  5-C ,  7-C ) :   1.0081 B(  6-O , 80-H ) :   0.1521
B(  7-C ,  8-C ) :   1.1809 B(  7-C , 16-C ) :   1.3345 B(  8-C ,  9-C ) :   1.4783
B(  9-C , 10-N ) :   0.9690 B(  9-C , 13-N ) :   0.9041 B( 10-N , 11-O ) :   1.4940
B( 10-N , 12-O ) :   1.4682 B( 11-O , 12-O ) :   0.2396 B( 13-N , 14-O ) :   1.4837
B( 13-N , 15-O ) :   1.5418 B( 14-O , 15-O ) :   0.2680 B( 16-C , 17-N ) :   1.3762
B( 16-C , 28-C ) :   0.1373 B( 16-C , 79-H ) :   0.9167 B( 17-N , 18-C ) :   1.1490
B( 17-N , 80-H ) :   0.8167 B( 18-C , 19-S ) :   1.1424 B( 18-C , 25-C ) :   1.3755
B( 19-S , 20-C ) :   1.0889 B( 20-C , 21-N ) :   0.9500 B( 20-C , 24-C ) :   1.5085
B( 21-N , 22-O ) :   1.5476 B( 21-N , 23-O ) :   1.5257 B( 22-O , 23-O ) :   0.2661
B( 24-C , 25-C ) :   1.1950 B( 24-C , 81-H ) :   1.0057 B( 25-C , 26-C ) :   1.0921
B( 26-C , 27-C ) :   1.7183 B( 26-C , 82-H ) :   0.9513 B( 27-C , 28-C ) :   1.1683
B( 27-C , 83-H ) :   0.9450 B( 28-C , 29-C ) :   1.1691 B( 28-C , 41-C ) :   1.1850
B( 29-C , 30-C ) :   1.1342 B( 29-C , 34-N ) :   1.4823 B( 30-C , 31-N ) :   1.5221
B( 30-C , 39-C ) :   1.1402 B( 31-N , 32-C ) :   1.6533 B( 32-C , 33-C ) :   1.2530
B( 32-C , 37-C ) :   1.1664 B( 33-C , 34-N ) :   1.6578 B( 33-C , 35-C ) :   1.1641
B( 35-C , 36-N ) :   3.0461 B( 37-C , 38-N ) :   3.0460 B( 39-C , 40-C ) :   1.1299
B( 39-C , 45-C ) :   1.3452 B( 40-C , 41-C ) :   1.1319 B( 40-C , 44-N ) :   1.4456
B( 41-C , 42-N ) :   1.5600 B( 42-N , 43-S ) :   1.2749 B( 42-N , 44-N ) :   0.1255
B( 43-S , 44-N ) :   1.2782 B( 45-C , 46-C ) :   1.3857 B( 45-C , 84-H ) :   0.9444
B( 46-C , 47-C ) :   1.1720 B( 46-C , 50-S ) :   1.1217 B( 47-C , 48-C ) :   1.5366
B( 47-C , 85-H ) :   1.0045 B( 48-C , 49-C ) :   1.2049 B( 48-C , 86-H ) :   1.0002
B( 49-C , 50-S ) :   1.0446 B( 49-C , 51-C ) :   1.4228 B( 51-C , 52-C ) :   1.1997
B( 51-C , 55-S ) :   1.1077 B( 52-C , 53-C ) :   1.5667 B( 52-C , 87-H ) :   0.9973
B( 53-C , 54-C ) :   1.1522 B( 53-C , 88-H ) :   0.9997 B( 54-C , 55-S ) :   1.0855
B( 54-C , 56-C ) :   1.4589 B( 56-C , 57-C ) :   1.2130 B( 56-C , 89-H ) :   0.9833
B( 57-C , 58-C ) :   1.5627 B( 57-C , 90-H ) :   0.9268 B( 58-C , 59-C ) :   1.0867
B( 58-C , 67-C ) :   0.9466 B( 59-C , 60-C ) :   1.6053 B( 59-C , 65-C ) :   0.9985
B( 60-C , 61-C ) :   1.1504 B( 60-C , 63-C ) :   1.1629 B( 61-C , 62-N ) :   2.9660
B( 63-C , 64-N ) :   2.9067 B( 65-C , 66-C ) :   1.2717 B( 65-C , 72-C ) :   1.4134
B( 66-C , 67-C ) :   0.9390 B( 66-C , 69-C ) :   1.4241 B( 67-C , 68-O ) :   2.2076
B( 69-C , 70-C ) :   1.2441 B( 69-C , 91-H ) :   1.0166 B( 70-C , 71-C ) :   1.3048
B( 70-C , 75-C ) :   1.1630 B( 71-C , 72-C ) :   1.3273 B( 71-C , 73-S ) :   1.0880
B( 72-C , 92-H ) :   0.9793 B( 73-S , 74-C ) :   1.0874 B( 74-C , 75-C ) :   1.6169
B( 74-C , 76-Br) :   1.0190 B( 75-C , 93-H ) :   1.0004

-----------------------------------------------------------------------------
         ABSORPTION SPECTRUM VIA TRANSITION ELECTRIC DIPOLE MOMENTS
-----------------------------------------------------------------------------
State   Energy  Wavelength   fosc         T2         TX        TY        TZ
        (cm-1)    (nm)                  (au**2)     (au)      (au)      (au)
-----------------------------------------------------------------------------
   0    5884.8   1699.3   0.305509934  17.09119  -1.11846  -2.38700  -3.18473
   1   13078.3    764.6   0.038338166   0.96506  -0.07178   0.85065   0.48611
   2   14425.4    693.2   0.133094822   3.03745  -0.70604   1.36679   0.81905
   3   15276.8    654.6   0.169094380   3.64396   1.33978  -0.57854  -1.23054
   4   16830.3    594.2   0.273499482   5.34983  -1.85624  -0.10400   1.37600
   5   20156.8    496.1   0.027136991   0.44322   0.28460  -0.37075  -0.47409
   6   20582.6    485.8   0.056580405   0.90499   0.53325   0.77768   0.12584
   7   21229.5    471.0   0.172773201   2.67925  -0.28649  -1.49607  -0.59913
   8   21783.3    459.1   0.183939856   2.77988   1.53857   0.63199   0.11525
   9   22035.4    453.8   0.201765565   3.01441   0.46096   0.95171   1.37701
  10   22292.9    448.6   0.034393872   0.50791   0.49426   0.47431   0.19660
  11   22644.6    441.6   0.126295616   1.83611   0.20877  -0.60387  -1.19493
  12   23855.5    419.2   0.011376601   0.15700   0.39384   0.02407   0.03623
  13   24174.8    413.7   0.030981554   0.42191  -0.37230  -0.02813  -0.53151
  14   24379.8    410.2   0.026155046   0.35318  -0.34473   0.00332   0.48408
  15   24841.1    402.6   0.011850803   0.15706  -0.17859   0.25347   0.24681
  16   25005.9    399.9   0.119706668   1.57598  -1.01485  -0.32186   0.66518
  17   25199.2    396.8   0.006341914   0.08285  -0.08461   0.20500  -0.18349
  18   25315.1    395.0   0.097685240   1.27035   0.22277   1.04709   0.35261
  19   25996.1    384.7   0.016452707   0.20836   0.10638   0.39349  -0.20544
  20   26058.0    383.8   0.204714036   2.58632  -1.32232   0.19844   0.89354
  21   26162.6    382.2   0.083610277   1.05209   0.89188   0.42643  -0.27351
  22   26695.9    374.6   0.080295620   0.99020   0.79060  -0.03661  -0.60317
  23   27161.7    368.2   0.047307558   0.57339  -0.48422  -0.31210   0.49144
  24   27670.9    361.4   0.073695963   0.87679  -0.70300  -0.61636  -0.05178
  25   28088.3    356.0   0.363303592   4.25813  -1.42475  -1.25652  -0.80584
  26   28448.3    351.5   0.134465114   1.55607  -0.05626  -0.69199  -1.03636
  27   28665.9    348.8   0.090671710   1.04131   0.14064  -0.15633  -0.99855
  28   29126.7    343.3   0.103465450   1.16945   0.75708   0.39766  -0.66191
  29   29370.2    340.5   0.245342884   2.75006   0.66873  -0.26031  -1.49502
  30   29646.0    337.3   0.099303845   1.10275  -0.98354  -0.15482   0.33381
  31   29874.9    334.7   0.162714922   1.79307   1.13084   0.71571  -0.04502
  32   30053.4    332.7   0.112137775   1.22838   1.01679   0.26341   0.35374
  33   30370.9    329.3   0.053490288   0.57982  -0.02897   0.63665  -0.41673
  34   30732.7    325.4   0.326986214   3.50271  -0.66299   1.06159   1.39147
  35   30815.0    324.5   0.165679460   1.77004  -0.38741   0.61805   1.11264
  36   31260.3    319.9   0.167981094   1.76906  -0.09383   0.85365   1.01564
  37   31468.0    317.8   0.013759509   0.14395   0.29201  -0.06887   0.23224
  38   31510.6    317.4   0.020736468   0.21665   0.32976   0.23840  -0.22599
  39   31648.5    316.0   0.104177822   1.08367  -1.03835  -0.02939  -0.06817
  40   31956.7    312.9   0.027013158   0.27828  -0.49364  -0.18363  -0.02972
  41   32100.0    311.5   0.006051739   0.06207   0.08437  -0.06615   0.22488
  42   32409.7    308.5   0.015024960   0.15262   0.15731  -0.33094  -0.13546
  43   32618.4    306.6   0.001051023   0.01061   0.06839  -0.07476  -0.01847
  44   32810.7    304.8   0.000682170   0.00684  -0.05514  -0.02972  -0.05404
  45   32856.5    304.4   0.012041798   0.12066   0.15047  -0.30918  -0.04919
  46   33031.6    302.7   0.013894010   0.13848   0.33471   0.11061   0.11920
  47   33153.8    301.6   0.094116197   0.93456   0.66190  -0.07417   0.70068
  48   33493.4    298.6   0.106753631   1.04930   0.59911   0.24855   0.79284
  49   33691.0    296.8   0.003657170   0.03574  -0.05816   0.17433  -0.04431
  50   34022.7    293.9   0.046670001   0.45159  -0.49349  -0.22207  -0.39842
  51   34036.9    293.8   0.056580132   0.54725   0.54893   0.45203   0.20397
  52   34254.6    291.9   0.039178496   0.37653   0.32617   0.06134  -0.51613
  53   34412.5    290.6   0.003764730   0.03602  -0.13240  -0.00923  -0.13565
  54   34725.5    288.0   0.094422527   0.89516  -0.10272   0.63261   0.69600
  55   34833.2    287.1   0.030648224   0.28966   0.46724  -0.17659  -0.20041
  56   34935.7    286.2   0.035428931   0.33386  -0.02370   0.52336   0.24370
  57   35141.4    284.6   0.170248312   1.59492  -0.43646   1.03197   0.58263
  58   35325.9    283.1   0.007603573   0.07086  -0.03717   0.03234  -0.26160
  59   35423.1    282.3   0.039740821   0.36934   0.56485   0.00021  -0.22424
  60   35518.9    281.5   0.026799936   0.24840   0.00691   0.37754  -0.32529
  61   35717.2    280.0   0.102355929   0.94343   0.17216   0.42411   0.85670
  62   35757.8    279.7   0.006429440   0.05919  -0.02128  -0.24115   0.02430
  63   35896.3    278.6   0.079642301   0.73041   0.30357   0.71067   0.36498
  64   36061.5    277.3   0.039999856   0.36517  -0.13892   0.58806   0.00749
  65   36185.2    276.4   0.008945051   0.08138  -0.17877  -0.02803   0.22054
  66   36398.2    274.7   0.021963527   0.19865  -0.34916  -0.23446   0.14755
  67   36583.1    273.4   0.030425142   0.27380   0.34642   0.35815   0.15974
  68   36658.0    272.8   0.011268516   0.10120   0.07036  -0.10783  -0.29089
  69   36702.0    272.5   0.012902110   0.11573  -0.27473  -0.19579  -0.04380
  70   36892.2    271.1   0.006477620   0.05780   0.01139   0.15093  -0.18680
  71   36962.7    270.5   0.008719935   0.07766  -0.15580  -0.22680  -0.04420
  72   37078.7    269.7   0.001453525   0.01291  -0.08355  -0.06701  -0.03788
  73   37138.5    269.3   0.006352242   0.05631  -0.03063  -0.01610  -0.23476
  74   37286.9    268.2   0.007436961   0.06566   0.20167  -0.03056  -0.15510
  75   37345.1    267.8   0.010842561   0.09558  -0.17715  -0.08782  -0.23767
  76   37552.9    266.3   0.005378384   0.04715   0.03988   0.01559   0.21288
  77   37668.3    265.5   0.003473348   0.03036   0.06094   0.14982   0.06478
  78   37752.2    264.9   0.054556329   0.47575  -0.03903   0.03797   0.68759
  79   37825.1    264.4   0.065966915   0.57414   0.34883  -0.16511  -0.65208
  80   37938.4    263.6   0.000534930   0.00464   0.03229   0.01772  -0.05731
  81   38066.4    262.7   0.030759767   0.26602  -0.37178  -0.28488   0.21598
  82   38206.0    261.7   0.042851583   0.36924   0.08310   0.08941  -0.59527
  83   38273.8    261.3   0.032670728   0.28102  -0.32648  -0.39833   0.12554
  84   38404.9    260.4   0.155741001   1.33503  -0.64400  -0.46843  -0.83718
  85   38483.0    259.9   0.022966596   0.19647   0.17470  -0.11979  -0.38936
  86   38580.9    259.2   0.146927824   1.25374  -0.09170  -0.00584  -1.11593
  87   38641.0    258.8   0.081318755   0.69282   0.44269  -0.22645  -0.66750
  88   38828.1    257.5   0.065407045   0.55457  -0.46028  -0.51168   0.28442
  89   38983.4    256.5   0.042964690   0.36283   0.40221   0.43469   0.11005
  90   39282.7    254.6   0.012447289   0.10432   0.23301   0.15751   0.15878
  91   39375.4    254.0   0.115581226   0.96636  -0.77530  -0.10447   0.59528
  92   39633.0    252.3   0.025787541   0.21420  -0.11515  -0.38005  -0.23771
  93   39731.8    251.7   0.014208531   0.11773  -0.25313  -0.18032   0.14539
  94   39823.8    251.1   0.026965724   0.22292  -0.13495   0.03986  -0.45069
  95   39851.2    250.9   0.034625467   0.28604  -0.19251   0.19386   0.45978
  96   39953.5    250.3   0.009639826   0.07943   0.10823   0.12374   0.22892
  97   39999.5    250.0   0.026517944   0.21825   0.02707  -0.14995  -0.44163
  98   40149.6    249.1   0.052225498   0.42823  -0.53743  -0.36518  -0.07774
  99   40310.0    248.1   0.031309202   0.25570   0.17588   0.18405  -0.43691

FINAL SINGLE POINT ENERGY     -8132.341381736719

DIPOLE MOMENT
-------------
                                X             Y             Z
Electronic contribution:    -60.30376      42.91350      98.89321
Nuclear contribution   :     64.00029     -38.73036     -96.10015
                        -----------------------------------------
Total Dipole Moment    :      3.69653       4.18314       2.79306
                        -----------------------------------------
Magnitude (a.u.)       :      6.24213
Magnitude (Debye)      :     15.86623

Rotational constants in cm-1:     0.001230     0.000391     0.000324
Rotational constants in MHz :    36.880050    11.708341     9.722140

                             ****ORCA TERMINATED NORMALLY****
TOTAL RUN TIME: 0 days 0 hours 14 minutes 20 seconds 792 msec
