                         Program Version 4.2.0 -  RELEASE  -
|  1> # ORCA input file
|  2> # SCF done       -224.205345063603          0.000659017372
|  3> ! CAM-B3LYP def2-SVP def2/J RIJCOSX Grid4 TightSCF
|  4> %maxcore 5000
|  5> %tddft
|  6>     Mode sTDDFT
|  7>     Ethresh 5.0
|  8>     maxcore 5000
|  9> end
| 10>
| 11> %pal
| 12>   nprocs 6
| 13>   end
| 14> * xyz 0 1
| 15>    C       -5.80849        -0.92374         4.27343
| 16>    C       -4.55607        -1.42053         4.03047
| 17>    C       -4.02435        -2.56538         4.66069
| 18>    N       -3.54453        -3.49057         5.14122
| 19>    C       -3.61668        -0.82571         3.16062
| 20>    N       -2.79284        -0.38065         2.49674
| 21>    C       -6.76154        -1.42785         5.24992
| 22>    C       -7.85931        -0.53220         5.31963
| 23>    C       -8.92775        -0.73872         6.15965
| 24>    C       -8.91123        -1.87629         6.97162
| 25>    C       -7.81148        -2.76588         6.89326
| 26>    C       -6.73253        -2.56058         6.04192
| 27>    S       -8.00897        -4.10570         7.97726
| 28>    C       -9.52672        -3.47686         8.51747
| 29>    C       -9.87789        -2.31801         7.91820
| 30>    C       -7.66519         0.57141         4.36478
| 31>    O       -8.44986         1.46254         4.12406
| 32>    C       -6.37313         0.27626         3.67819
| 33>    C       -5.93632         0.90158         2.55626
| 34>    C       -6.42132         2.16553         2.08918
| 35>    C       -6.59436         2.40973         0.71105
| 36>    C       -7.15738         3.64204         0.22626
| 37>    N       -7.21653         3.87937        -1.09332
| 38>    C       -6.85050         2.93810        -1.92530
| 39>    C       -6.41402         1.65802        -1.44018
| 40>    N       -6.27405         1.43575        -0.15969
| 41>    C       -6.10442         0.62527        -2.36223
| 42>    N       -5.86889        -0.18526        -3.13587
| 43>    C       -6.86650         3.20197        -3.31812
| 44>    N       -6.86196         3.38034        -4.44915
| 45>    C       -7.60464         4.64699         1.11130
| 46>    C       -7.30284         4.46475         2.47224
| 47>    C       -6.71114         3.23590         2.95353
| 48>    N       -6.48342         3.28331         4.26752
| 49>    S       -7.01013         4.68145         4.83507
| 50>    N       -7.52402         5.32893         3.46556
| 51>    C       -8.28781         5.81951         0.65216
| 52>    O       -8.06917         6.97039         1.29572
| 53>    C       -8.76309         7.95366         0.69468
| 54>    C       -9.48160         7.41942        -0.38198
| 55>    C       -9.18590         6.03090        -0.39444
| 56>    C       -9.89943         4.97397        -1.16416
| 57>    F       -9.81171         3.76193        -0.59623
| 58>    F      -11.22320         5.22710        -1.22989
| 59>    F       -9.49488         4.82976        -2.43760
| 60>    O      -10.23965         8.17495        -1.19074
| 61>    C      -10.47175         7.75507        -2.52789
| 62>    C       -8.67899         9.29212         1.21764
| 63>    C       -9.54535        10.29876         0.76544
| 64>    C       -9.44392        11.55430         1.31126
| 65>    C       -8.47673        11.83872         2.29283
| 66>    C       -7.61572        10.84491         2.74146
| 67>    C       -7.72715         9.57863         2.20853
| 68>    C       -8.60822        13.22534         2.68009
| 69>    C       -9.67062        13.79384         1.95402
| 70>    C      -10.28262        12.77628         1.02029
| 71>    C      -10.15345        13.21044        -0.45166
| 72>    C       -8.71110        13.47516        -0.86612
| 73>    C      -11.76510        12.52478         1.35610
| 74>    C      -11.98124        12.09160         2.80109
| 75>    C      -10.03204        15.10155         2.16129
| 76>    C       -9.31983        15.88156         3.08703
| 77>    C       -8.25348        15.30449         3.79143
| 78>    C       -7.89890        13.98596         3.60073
| 79>    C       -9.74383        17.23770         3.32721
| 80>    C       -9.01397        18.21187         3.91136
| 81>    C       -9.47682        19.54088         4.13517
| 82>    C      -10.73852        19.98471         4.37311
| 83>    C      -11.97749        19.31047         4.71224
| 84>    C      -12.11161        18.13222         5.39909
| 85>    C      -13.35175        17.58109         5.78091
| 86>    N      -14.33336        17.07655         6.09701
| 87>    C      -11.03332        17.36275         5.88034
| 88>    N      -10.20631        16.71178         6.33867
| 89>    C      -13.06573        20.23959         4.42793
| 90>    C      -12.51551        21.51923         4.15723
| 91>    C      -11.04468        21.43284         4.19439
| 92>    O      -10.24176        22.32825         4.06243
| 93>    C      -13.29955        22.61798         3.89900
| 94>    C      -14.68693        22.44522         3.89645
| 95>    C      -15.22486        21.16017         4.14956
| 96>    C      -14.43406        20.04955         4.41849
| 97>    S      -16.95886        21.18031         4.08313
| 98>    C      -16.94986        22.87405         3.73240
| 99>    C      -15.71056        23.40655         3.66272
|100>    H       -9.75033        -0.04103         6.18891
|101>    H       -5.92297        -3.27072         6.00950
|102>    H      -10.07221        -4.02384         9.26174
|103>    H      -10.78712        -1.78373         8.12645
|104>    H       -5.20677         0.42098         1.91657
|105>    H      -10.67614         8.66792        -3.08628
|106>    H      -11.33923         7.09648        -2.59441
|107>    H       -9.59554         7.26052        -2.95057
|108>    H      -10.28370        10.06842         0.01604
|109>    H       -6.87718        11.05690         3.49943
|110>    H       -7.08074         8.78462         2.54832
|111>    H      -10.74618        14.11501        -0.60274
|112>    H      -10.57369        12.42517        -1.08295
|113>    H       -8.27536        14.26709        -0.26080
|114>    H       -8.67210        13.77930        -1.90945
|115>    H       -8.10647        12.57911        -0.74596
|116>    H      -12.14693        11.75267         0.68537
|117>    H      -12.32650        13.44165         1.16495
|118>    H      -11.45415        11.16282         3.00710
|119>    H      -13.04075        11.93440         2.98812
|120>    H      -11.62060        12.85138         3.49108
|121>    H      -10.85606        15.54245         1.61799
|122>    H       -7.72924        15.89332         4.52679
|123>    H       -7.08853        13.55082         4.16547
|124>    H      -10.73367        17.48615         2.96018
|125>    H       -7.97669        18.03057         4.15622
|126>    H       -8.73087        20.32723         4.05987
|127>    H      -12.85488        23.58197         3.70663
|128>    H      -14.88784        19.08926         4.60009
|129>    H      -17.88947        23.37355         3.59724
|130>    H      -15.51098        24.44198         3.45422
|131> *
|132>
|133>                          ****END OF INPUT****

CARTESIAN COORDINATES (ANGSTROEM)
---------------------------------
  C     -5.808490   -0.923740    4.273430
  C     -4.556070   -1.420530    4.030470
  C     -4.024350   -2.565380    4.660690
  N     -3.544530   -3.490570    5.141220
  C     -3.616680   -0.825710    3.160620
  N     -2.792840   -0.380650    2.496740
  C     -6.761540   -1.427850    5.249920
  C     -7.859310   -0.532200    5.319630
  C     -8.927750   -0.738720    6.159650
  C     -8.911230   -1.876290    6.971620
  C     -7.811480   -2.765880    6.893260
  C     -6.732530   -2.560580    6.041920
  S     -8.008970   -4.105700    7.977260
  C     -9.526720   -3.476860    8.517470
  C     -9.877890   -2.318010    7.918200
  C     -7.665190    0.571410    4.364780
  O     -8.449860    1.462540    4.124060
  C     -6.373130    0.276260    3.678190
  C     -5.936320    0.901580    2.556260
  C     -6.421320    2.165530    2.089180
  C     -6.594360    2.409730    0.711050
  C     -7.157380    3.642040    0.226260
  N     -7.216530    3.879370   -1.093320
  C     -6.850500    2.938100   -1.925300
  C     -6.414020    1.658020   -1.440180
  N     -6.274050    1.435750   -0.159690
  C     -6.104420    0.625270   -2.362230
  N     -5.868890   -0.185260   -3.135870
  C     -6.866500    3.201970   -3.318120
  N     -6.861960    3.380340   -4.449150
  C     -7.604640    4.646990    1.111300
  C     -7.302840    4.464750    2.472240
  C     -6.711140    3.235900    2.953530
  N     -6.483420    3.283310    4.267520
  S     -7.010130    4.681450    4.835070
  N     -7.524020    5.328930    3.465560
  C     -8.287810    5.819510    0.652160
  O     -8.069170    6.970390    1.295720
  C     -8.763090    7.953660    0.694680
  C     -9.481600    7.419420   -0.381980
  C     -9.185900    6.030900   -0.394440
  C     -9.899430    4.973970   -1.164160
  F     -9.811710    3.761930   -0.596230
  F    -11.223200    5.227100   -1.229890
  F     -9.494880    4.829760   -2.437600
  O    -10.239650    8.174950   -1.190740
  C    -10.471750    7.755070   -2.527890
  C     -8.678990    9.292120    1.217640
  C     -9.545350   10.298760    0.765440
  C     -9.443920   11.554300    1.311260
  C     -8.476730   11.838720    2.292830
  C     -7.615720   10.844910    2.741460
  C     -7.727150    9.578630    2.208530
  C     -8.608220   13.225340    2.680090
  C     -9.670620   13.793840    1.954020
  C    -10.282620   12.776280    1.020290
  C    -10.153450   13.210440   -0.451660
  C     -8.711100   13.475160   -0.866120
  C    -11.765100   12.524780    1.356100
  C    -11.981240   12.091600    2.801090
  C    -10.032040   15.101550    2.161290
  C     -9.319830   15.881560    3.087030
  C     -8.253480   15.304490    3.791430
  C     -7.898900   13.985960    3.600730
  C     -9.743830   17.237700    3.327210
  C     -9.013970   18.211870    3.911360
  C     -9.476820   19.540880    4.135170
  C    -10.738520   19.984710    4.373110
  C    -11.977490   19.310470    4.712240
  C    -12.111610   18.132220    5.399090
  C    -13.351750   17.581090    5.780910
  N    -14.333360   17.076550    6.097010
  C    -11.033320   17.362750    5.880340
  N    -10.206310   16.711780    6.338670
  C    -13.065730   20.239590    4.427930
  C    -12.515510   21.519230    4.157230
  C    -11.044680   21.432840    4.194390
  O    -10.241760   22.328250    4.062430
  C    -13.299550   22.617980    3.899000
  C    -14.686930   22.445220    3.896450
  C    -15.224860   21.160170    4.149560
  C    -14.434060   20.049550    4.418490
  S    -16.958860   21.180310    4.083130
  C    -16.949860   22.874050    3.732400
  C    -15.710560   23.406550    3.662720
  H     -9.750330   -0.041030    6.188910
  H     -5.922970   -3.270720    6.009500
  H    -10.072210   -4.023840    9.261740
  H    -10.787120   -1.783730    8.126450
  H     -5.206770    0.420980    1.916570
  H    -10.676140    8.667920   -3.086280
  H    -11.339230    7.096480   -2.594410
  H     -9.595540    7.260520   -2.950570
  H    -10.283700   10.068420    0.016040
  H     -6.877180   11.056900    3.499430
  H     -7.080740    8.784620    2.548320
  H    -10.746180   14.115010   -0.602740
  H    -10.573690   12.425170   -1.082950
  H     -8.275360   14.267090   -0.260800
  H     -8.672100   13.779300   -1.909450
  H     -8.106470   12.579110   -0.745960
  H    -12.146930   11.752670    0.685370
  H    -12.326500   13.441650    1.164950
  H    -11.454150   11.162820    3.007100
  H    -13.040750   11.934400    2.988120
  H    -11.620600   12.851380    3.491080
  H    -10.856060   15.542450    1.617990
  H     -7.729240   15.893320    4.526790
  H     -7.088530   13.550820    4.165470
  H    -10.733670   17.486150    2.960180
  H     -7.976690   18.030570    4.156220
  H     -8.730870   20.327230    4.059870
  H    -12.854880   23.581970    3.706630
  H    -14.887840   19.089260    4.600090
  H    -17.889470   23.373550    3.597240
  H    -15.510980   24.441980    3.454220

 Total Charge           Charge          ....    0
 Multiplicity           Mult            ....    1
 Number of Electrons    NEL             ....  598
 Basis Dimension        Dim             .... 1357

ORBITAL ENERGIES
----------------

  NO   OCC          E(Eh)            E(eV)
   0   2.0000     -89.050504     -2423.1874
   1   2.0000     -88.970384     -2421.0072
   2   2.0000     -88.967277     -2420.9227
   3   2.0000     -24.813849      -675.2191
   4   2.0000     -24.808707      -675.0792
   5   2.0000     -24.808599      -675.0763
   6   2.0000     -19.317361      -525.6521
   7   2.0000     -19.270103      -524.3662
   8   2.0000     -19.220942      -523.0284
   9   2.0000     -19.212198      -522.7905
  10   2.0000     -14.467731      -393.6870
  11   2.0000     -14.467304      -393.6754
  12   2.0000     -14.456360      -393.3776
  13   2.0000     -14.453332      -393.2952
  14   2.0000     -14.432506      -392.7284
  15   2.0000     -14.430361      -392.6701
  16   2.0000     -14.419048      -392.3622
  17   2.0000     -14.417247      -392.3132
  18   2.0000     -14.414544      -392.2397
  19   2.0000     -14.412986      -392.1973
  20   2.0000     -10.536086      -286.7015
  21   2.0000     -10.388790      -282.6933
  22   2.0000     -10.384722      -282.5827
  23   2.0000     -10.372287      -282.2443
  24   2.0000     -10.368772      -282.1486
  25   2.0000     -10.363124      -281.9949
  26   2.0000     -10.360631      -281.9271
  27   2.0000     -10.357646      -281.8459
  28   2.0000     -10.357386      -281.8388
  29   2.0000     -10.349704      -281.6298
  30   2.0000     -10.349675      -281.6290
  31   2.0000     -10.347800      -281.5779
  32   2.0000     -10.347557      -281.5713
  33   2.0000     -10.343912      -281.4722
  34   2.0000     -10.341458      -281.4054
  35   2.0000     -10.340589      -281.3817
  36   2.0000     -10.336454      -281.2692
  37   2.0000     -10.332831      -281.1706
  38   2.0000     -10.325110      -280.9605
  39   2.0000     -10.324791      -280.9518
  40   2.0000     -10.323950      -280.9290
  41   2.0000     -10.321347      -280.8581
  42   2.0000     -10.321219      -280.8546
  43   2.0000     -10.321133      -280.8523
  44   2.0000     -10.320849      -280.8446
  45   2.0000     -10.319445      -280.8064
  46   2.0000     -10.317980      -280.7665
  47   2.0000     -10.317504      -280.7536
  48   2.0000     -10.316494      -280.7261
  49   2.0000     -10.314977      -280.6848
  50   2.0000     -10.314721      -280.6778
  51   2.0000     -10.312106      -280.6067
  52   2.0000     -10.310589      -280.5654
  53   2.0000     -10.307802      -280.4895
  54   2.0000     -10.307355      -280.4774
  55   2.0000     -10.306951      -280.4664
  56   2.0000     -10.306013      -280.4409
  57   2.0000     -10.303649      -280.3765
  58   2.0000     -10.303227      -280.3651
  59   2.0000     -10.302033      -280.3326
  60   2.0000     -10.299202      -280.2555
  61   2.0000     -10.298179      -280.2277
  62   2.0000     -10.295016      -280.1416
  63   2.0000     -10.294926      -280.1392
  64   2.0000     -10.293997      -280.1139
  65   2.0000     -10.292719      -280.0791
  66   2.0000     -10.290511      -280.0190
  67   2.0000     -10.289675      -279.9963
  68   2.0000     -10.285823      -279.8915
  69   2.0000     -10.285594      -279.8852
  70   2.0000     -10.282635      -279.8047
  71   2.0000     -10.279762      -279.7266
  72   2.0000     -10.279494      -279.7193
  73   2.0000     -10.279131      -279.7094
  74   2.0000     -10.278400      -279.6895
  75   2.0000     -10.278265      -279.6858
  76   2.0000     -10.277643      -279.6689
  77   2.0000     -10.277031      -279.6522
  78   2.0000     -10.276354      -279.6338
  79   2.0000     -10.274780      -279.5910
  80   2.0000     -10.274588      -279.5858
  81   2.0000     -10.267764      -279.4001
  82   2.0000     -10.266253      -279.3589
  83   2.0000     -10.250737      -278.9367
  84   2.0000     -10.247506      -278.8488
  85   2.0000      -8.141570      -221.5434
  86   2.0000      -8.066624      -219.5040
  87   2.0000      -8.063522      -219.4196
  88   2.0000      -6.112434      -166.3278
  89   2.0000      -6.104875      -166.1221
  90   2.0000      -6.104631      -166.1154
  91   2.0000      -6.036135      -164.2516
  92   2.0000      -6.033034      -164.1672
  93   2.0000      -6.031815      -164.1340
  94   2.0000      -6.028746      -164.0505
  95   2.0000      -6.028322      -164.0390
  96   2.0000      -6.025193      -163.9538
  97   2.0000      -1.401459       -38.1356
  98   2.0000      -1.304235       -35.4900
  99   2.0000      -1.299019       -35.3481
 100   2.0000      -1.243259       -33.8308
 101   2.0000      -1.172203       -31.8973
 102   2.0000      -1.147570       -31.2270
 103   2.0000      -1.135335       -30.8940
 104   2.0000      -1.127281       -30.6749
 105   2.0000      -1.126990       -30.6670
 106   2.0000      -1.053641       -28.6710
 107   2.0000      -1.023707       -27.8565
 108   2.0000      -1.019340       -27.7376
 109   2.0000      -1.016720       -27.6664
 110   2.0000      -1.011554       -27.5258
 111   2.0000      -1.007722       -27.4215
 112   2.0000      -1.006178       -27.3795
 113   2.0000      -1.000304       -27.2196
 114   2.0000      -0.996481       -27.1156
 115   2.0000      -0.994776       -27.0692
 116   2.0000      -0.992276       -27.0012
 117   2.0000      -0.990666       -26.9574
 118   2.0000      -0.985337       -26.8124
 119   2.0000      -0.984089       -26.7784
 120   2.0000      -0.956690       -26.0329
 121   2.0000      -0.941071       -25.6079
 122   2.0000      -0.935916       -25.4676
 123   2.0000      -0.934547       -25.4303
 124   2.0000      -0.928400       -25.2631
 125   2.0000      -0.918311       -24.9885
 126   2.0000      -0.913343       -24.8533
 127   2.0000      -0.910003       -24.7625
 128   2.0000      -0.899698       -24.4820
 129   2.0000      -0.892285       -24.2803
 130   2.0000      -0.885915       -24.1070
 131   2.0000      -0.884743       -24.0751
 132   2.0000      -0.881398       -23.9841
 133   2.0000      -0.870092       -23.6764
 134   2.0000      -0.854417       -23.2499
 135   2.0000      -0.842148       -22.9160
 136   2.0000      -0.840517       -22.8716
 137   2.0000      -0.840001       -22.8576
 138   2.0000      -0.837847       -22.7990
 139   2.0000      -0.834939       -22.7198
 140   2.0000      -0.826935       -22.5020
 141   2.0000      -0.825066       -22.4512
 142   2.0000      -0.823102       -22.3977
 143   2.0000      -0.809704       -22.0332
 144   2.0000      -0.801312       -21.8048
 145   2.0000      -0.799771       -21.7629
 146   2.0000      -0.785009       -21.3612
 147   2.0000      -0.771950       -21.0058
 148   2.0000      -0.766057       -20.8455
 149   2.0000      -0.761051       -20.7093
 150   2.0000      -0.756010       -20.5721
 151   2.0000      -0.748784       -20.3755
 152   2.0000      -0.739004       -20.1093
 153   2.0000      -0.732106       -19.9216
 154   2.0000      -0.725638       -19.7456
 155   2.0000      -0.723447       -19.6860
 156   2.0000      -0.717299       -19.5187
 157   2.0000      -0.705965       -19.2103
 158   2.0000      -0.701523       -19.0894
 159   2.0000      -0.696233       -18.9455
 160   2.0000      -0.694471       -18.8975
 161   2.0000      -0.692676       -18.8487
 162   2.0000      -0.686621       -18.6839
 163   2.0000      -0.684166       -18.6171
 164   2.0000      -0.682031       -18.5590
 165   2.0000      -0.677708       -18.4414
 166   2.0000      -0.677465       -18.4348
 167   2.0000      -0.676671       -18.4131
 168   2.0000      -0.668409       -18.1883
 169   2.0000      -0.665776       -18.1167
 170   2.0000      -0.664789       -18.0898
 171   2.0000      -0.661029       -17.9875
 172   2.0000      -0.659080       -17.9345
 173   2.0000      -0.655802       -17.8453
 174   2.0000      -0.644271       -17.5315
 175   2.0000      -0.634840       -17.2749
 176   2.0000      -0.625496       -17.0206
 177   2.0000      -0.623736       -16.9727
 178   2.0000      -0.622617       -16.9423
 179   2.0000      -0.619242       -16.8504
 180   2.0000      -0.617736       -16.8095
 181   2.0000      -0.604840       -16.4585
 182   2.0000      -0.600196       -16.3322
 183   2.0000      -0.598995       -16.2995
 184   2.0000      -0.597717       -16.2647
 185   2.0000      -0.596240       -16.2245
 186   2.0000      -0.594214       -16.1694
 187   2.0000      -0.588495       -16.0138
 188   2.0000      -0.584682       -15.9100
 189   2.0000      -0.579405       -15.7664
 190   2.0000      -0.574821       -15.6417
 191   2.0000      -0.567415       -15.4402
 192   2.0000      -0.565747       -15.3948
 193   2.0000      -0.563425       -15.3316
 194   2.0000      -0.562417       -15.3042
 195   2.0000      -0.557651       -15.1745
 196   2.0000      -0.553119       -15.0511
 197   2.0000      -0.550042       -14.9674
 198   2.0000      -0.549186       -14.9441
 199   2.0000      -0.548379       -14.9222
 200   2.0000      -0.546968       -14.8838
 201   2.0000      -0.544323       -14.8118
 202   2.0000      -0.543527       -14.7901
 203   2.0000      -0.541490       -14.7347
 204   2.0000      -0.541094       -14.7239
 205   2.0000      -0.536511       -14.5992
 206   2.0000      -0.536375       -14.5955
 207   2.0000      -0.533631       -14.5208
 208   2.0000      -0.529000       -14.3948
 209   2.0000      -0.526197       -14.3186
 210   2.0000      -0.523803       -14.2534
 211   2.0000      -0.522520       -14.2185
 212   2.0000      -0.521380       -14.1875
 213   2.0000      -0.520910       -14.1747
 214   2.0000      -0.517387       -14.0788
 215   2.0000      -0.515291       -14.0218
 216   2.0000      -0.513718       -13.9790
 217   2.0000      -0.512471       -13.9450
 218   2.0000      -0.508332       -13.8324
 219   2.0000      -0.503980       -13.7140
 220   2.0000      -0.501489       -13.6462
 221   2.0000      -0.498206       -13.5569
 222   2.0000      -0.496882       -13.5208
 223   2.0000      -0.495986       -13.4965
 224   2.0000      -0.494348       -13.4519
 225   2.0000      -0.493510       -13.4291
 226   2.0000      -0.492892       -13.4123
 227   2.0000      -0.489628       -13.3235
 228   2.0000      -0.487864       -13.2755
 229   2.0000      -0.485674       -13.2159
 230   2.0000      -0.482695       -13.1348
 231   2.0000      -0.482187       -13.1210
 232   2.0000      -0.480026       -13.0622
 233   2.0000      -0.478134       -13.0107
 234   2.0000      -0.477008       -12.9800
 235   2.0000      -0.473789       -12.8925
 236   2.0000      -0.472032       -12.8447
 237   2.0000      -0.466175       -12.6853
 238   2.0000      -0.464083       -12.6283
 239   2.0000      -0.458744       -12.4831
 240   2.0000      -0.457434       -12.4474
 241   2.0000      -0.457203       -12.4411
 242   2.0000      -0.454952       -12.3799
 243   2.0000      -0.454168       -12.3585
 244   2.0000      -0.451743       -12.2926
 245   2.0000      -0.450777       -12.2663
 246   2.0000      -0.448490       -12.2040
 247   2.0000      -0.447271       -12.1709
 248   2.0000      -0.446927       -12.1615
 249   2.0000      -0.445670       -12.1273
 250   2.0000      -0.445287       -12.1169
 251   2.0000      -0.444014       -12.0822
 252   2.0000      -0.441337       -12.0094
 253   2.0000      -0.440532       -11.9875
 254   2.0000      -0.438102       -11.9214
 255   2.0000      -0.436238       -11.8706
 256   2.0000      -0.435824       -11.8594
 257   2.0000      -0.433780       -11.8037
 258   2.0000      -0.432159       -11.7596
 259   2.0000      -0.429687       -11.6924
 260   2.0000      -0.429079       -11.6758
 261   2.0000      -0.428007       -11.6467
 262   2.0000      -0.427191       -11.6245
 263   2.0000      -0.426346       -11.6015
 264   2.0000      -0.424106       -11.5405
 265   2.0000      -0.423042       -11.5116
 266   2.0000      -0.422042       -11.4843
 267   2.0000      -0.416584       -11.3358
 268   2.0000      -0.416382       -11.3303
 269   2.0000      -0.414641       -11.2830
 270   2.0000      -0.412734       -11.2311
 271   2.0000      -0.410859       -11.1800
 272   2.0000      -0.410028       -11.1574
 273   2.0000      -0.403511       -10.9801
 274   2.0000      -0.402598       -10.9553
 275   2.0000      -0.398626       -10.8472
 276   2.0000      -0.393481       -10.7072
 277   2.0000      -0.387305       -10.5391
 278   2.0000      -0.386615       -10.5203
 279   2.0000      -0.384339       -10.4584
 280   2.0000      -0.379679       -10.3316
 281   2.0000      -0.378143       -10.2898
 282   2.0000      -0.372650       -10.1403
 283   2.0000      -0.364310        -9.9134
 284   2.0000      -0.357555        -9.7296
 285   2.0000      -0.354534        -9.6474
 286   2.0000      -0.348159        -9.4739
 287   2.0000      -0.338842        -9.2204
 288   2.0000      -0.336774        -9.1641
 289   2.0000      -0.330598        -8.9960
 290   2.0000      -0.325349        -8.8532
 291   2.0000      -0.320798        -8.7294
 292   2.0000      -0.316951        -8.6247
 293   2.0000      -0.313696        -8.5361
 294   2.0000      -0.308283        -8.3888
 295   2.0000      -0.297824        -8.1042
 296   2.0000      -0.295317        -8.0360
 297   2.0000      -0.280968        -7.6455
 298   2.0000      -0.250911        -6.8276
 299   0.0000      -0.132937        -3.6174
 300   0.0000      -0.089557        -2.4370
 301   0.0000      -0.084305        -2.2941
 302   0.0000      -0.060543        -1.6475
 303   0.0000      -0.057364        -1.5610

MULLIKEN ATOMIC CHARGES
-----------------------
   0 C :    0.287069
   1 C :   -0.327972
   2 C :   -0.188051
   3 N :    0.159693
   4 C :   -0.200203
   5 N :    0.168557
   6 C :    0.022467
   7 C :   -0.022450
   8 C :   -0.066486
   9 C :    0.112940
  10 C :   -0.093660
  11 C :   -0.023431
  12 S :    0.145032
  13 C :   -0.049562
  14 C :    0.027940
  15 C :    0.157373
  16 O :   -0.153411
  17 C :   -0.054839
  18 C :   -0.068765
  19 C :    0.071743
  20 C :   -0.039351
  21 C :   -0.072555
  22 N :    0.054143
  23 C :   -0.128111
  24 C :   -0.131752
  25 N :    0.056930
  26 C :   -0.194115
  27 N :    0.237664
  28 C :   -0.204382
  29 N :    0.237696
  30 C :    0.096885
  31 C :    0.039264
  32 C :    0.008740
  33 N :   -0.268763
  34 S :    0.558471
  35 N :   -0.257530
  36 C :    0.026851
  37 O :   -0.159944
  38 C :    0.139899
  39 C :    0.098529
  40 C :   -0.141155
  41 C :    0.538586
  42 F :   -0.157020
  43 F :   -0.164046
  44 F :   -0.156607
  45 O :   -0.308079
  46 C :    0.175216
  47 C :    0.038603
  48 C :   -0.103814
  49 C :    0.024493
  50 C :    0.105307
  51 C :   -0.045313
  52 C :   -0.005394
  53 C :    0.116276
  54 C :    0.013005
  55 C :   -0.137924
  56 C :    0.069805
  57 C :    0.023845
  58 C :    0.063942
  59 C :    0.024105
  60 C :   -0.098632
  61 C :    0.092907
  62 C :    0.015143
  63 C :   -0.043932
  64 C :    0.020858
  65 C :    0.010488
  66 C :    0.040763
  67 C :   -0.115530
  68 C :    0.265035
  69 C :   -0.339979
  70 C :   -0.180166
  71 N :    0.150645
  72 C :   -0.198143
  73 N :    0.174061
  74 C :   -0.003580
  75 C :    0.005806
  76 C :    0.128710
  77 O :   -0.145279
  78 C :   -0.067139
  79 C :    0.108836
  80 C :   -0.092708
  81 C :   -0.023554
  82 S :    0.138667
  83 C :   -0.051547
  84 C :    0.027853
  85 H :   -0.012019
  86 H :   -0.002869
  87 H :    0.040914
  88 H :   -0.006362
  89 H :    0.049559
  90 H :    0.039557
  91 H :    0.045453
  92 H :    0.037995
  93 H :   -0.020109
  94 H :   -0.030915
  95 H :   -0.013319
  96 H :   -0.002830
  97 H :   -0.001725
  98 H :    0.021493
  99 H :    0.010076
 100 H :    0.021826
 101 H :    0.000144
 102 H :   -0.002000
 103 H :    0.020879
 104 H :    0.012776
 105 H :    0.025788
 106 H :   -0.039590
 107 H :   -0.013670
 108 H :   -0.031929
 109 H :    0.003328
 110 H :    0.007628
 111 H :    0.028309
 112 H :   -0.011433
 113 H :   -0.005140
 114 H :    0.038413
 115 H :   -0.006197
Sum of atomic charges:   -0.0000000

LOEWDIN ATOMIC CHARGES
----------------------
   0 C :    0.073145
   1 C :   -0.128014
   2 C :   -0.017936
   3 N :   -0.046264
   4 C :   -0.023512
   5 N :   -0.042787
   6 C :   -0.021854
   7 C :   -0.052315
   8 C :    0.023909
   9 C :   -0.033921
  10 C :   -0.144350
  11 C :   -0.007733
  12 S :    0.432994
  13 C :   -0.147479
  14 C :   -0.057395
  15 C :    0.085863
  16 O :   -0.144975
  17 C :   -0.063073
  18 C :    0.075917
  19 C :   -0.031078
  20 C :    0.008019
  21 C :   -0.009255
  22 N :    0.002303
  23 C :   -0.028524
  24 C :   -0.015836
  25 N :   -0.001741
  26 C :   -0.034672
  27 N :    0.003619
  28 C :   -0.037206
  29 N :   -0.003950
  30 C :   -0.018669
  31 C :   -0.039440
  32 C :   -0.027422
  33 N :   -0.275075
  34 S :    0.700946
  35 N :   -0.279374
  36 C :    0.050980
  37 O :    0.060870
  38 C :    0.028896
  39 C :    0.022910
  40 C :   -0.131740
  41 C :    0.172549
  42 F :   -0.051150
  43 F :   -0.058385
  44 F :   -0.052523
  45 O :   -0.090272
  46 C :    0.079391
  47 C :   -0.036631
  48 C :   -0.012673
  49 C :    0.005958
  50 C :   -0.014004
  51 C :   -0.014800
  52 C :   -0.009011
  53 C :   -0.007357
  54 C :    0.002392
  55 C :   -0.035576
  56 C :   -0.011357
  57 C :   -0.057935
  58 C :   -0.011453
  59 C :   -0.057251
  60 C :   -0.011778
  61 C :   -0.032130
  62 C :    0.006059
  63 C :   -0.014207
  64 C :    0.038548
  65 C :   -0.041326
  66 C :    0.070038
  67 C :   -0.094111
  68 C :    0.067656
  69 C :   -0.141959
  70 C :   -0.020145
  71 N :   -0.055861
  72 C :   -0.014965
  73 N :   -0.046097
  74 C :   -0.020480
  75 C :   -0.055023
  76 C :    0.082694
  77 O :   -0.144594
  78 C :    0.023723
  79 C :   -0.035815
  80 C :   -0.145092
  81 C :   -0.012232
  82 S :    0.427842
  83 C :   -0.149917
  84 C :   -0.057476
  85 H :    0.040169
  86 H :    0.041456
  87 H :    0.030254
  88 H :    0.035617
  89 H :    0.050308
  90 H :    0.029704
  91 H :    0.018924
  92 H :    0.021402
  93 H :    0.026874
  94 H :    0.028739
  95 H :    0.030199
  96 H :    0.019753
  97 H :    0.020483
  98 H :    0.025271
  99 H :    0.024486
 100 H :    0.025409
 101 H :    0.020972
 102 H :    0.019664
 103 H :    0.025222
 104 H :    0.025795
 105 H :    0.026906
 106 H :    0.025062
 107 H :    0.031096
 108 H :    0.029025
 109 H :    0.031642
 110 H :    0.035256
 111 H :    0.046882
 112 H :    0.040613
 113 H :    0.040037
 114 H :    0.029311
 115 H :    0.035424

  Mayer bond orders larger than 0.100000
B(  0-C ,  1-C ) :   1.6596 B(  0-C ,  6-C ) :   1.0134 B(  0-C , 17-C ) :   1.0462
B(  1-C ,  2-C ) :   1.1388 B(  1-C ,  4-C ) :   1.1416 B(  2-C ,  3-N ) :   2.9779
B(  4-C ,  5-N ) :   2.9945 B(  6-C ,  7-C ) :   1.2637 B(  6-C , 11-C ) :   1.4074
B(  7-C ,  8-C ) :   1.4255 B(  7-C , 15-C ) :   0.9579 B(  8-C ,  9-C ) :   1.2481
B(  8-C , 85-H ) :   1.0165 B(  9-C , 10-C ) :   1.2967 B(  9-C , 14-C ) :   1.1738
B( 10-C , 11-C ) :   1.3272 B( 10-C , 12-S ) :   1.1001 B( 11-C , 86-H ) :   0.9829
B( 12-S , 13-C ) :   1.1273 B( 13-C , 14-C ) :   1.6270 B( 13-C , 87-H ) :   0.9688
B( 14-C , 88-H ) :   0.9995 B( 15-C , 16-O ) :   2.2139 B( 15-C , 17-C ) :   0.9293
B( 17-C , 18-C ) :   1.6633 B( 18-C , 19-C ) :   1.1251 B( 18-C , 89-H ) :   0.9296
B( 19-C , 20-C ) :   1.2709 B( 19-C , 30-C ) :   0.1397 B( 19-C , 32-C ) :   1.2191
B( 20-C , 21-C ) :   1.1057 B( 20-C , 25-N ) :   1.4404 B( 21-C , 22-N ) :   1.4659
B( 21-C , 30-C ) :   1.3133 B( 22-N , 23-C ) :   1.7091 B( 23-C , 24-C ) :   1.1955
B( 23-C , 28-C ) :   1.1529 B( 24-C , 25-N ) :   1.7546 B( 24-C , 26-C ) :   1.1446
B( 26-C , 27-N ) :   3.0489 B( 28-C , 29-N ) :   3.0466 B( 30-C , 31-C ) :   1.2423
B( 30-C , 36-C ) :   1.0249 B( 31-C , 32-C ) :   1.0991 B( 31-C , 35-N ) :   1.5206
B( 32-C , 33-N ) :   1.4967 B( 33-N , 34-S ) :   1.3001 B( 33-N , 35-N ) :   0.1552
B( 34-S , 35-N ) :   1.3043 B( 36-C , 37-O ) :   1.2100 B( 36-C , 38-C ) :   0.1372
B( 36-C , 40-C ) :   1.4594 B( 37-O , 38-C ) :   1.1637 B( 38-C , 39-C ) :   1.3970
B( 38-C , 47-C ) :   1.0476 B( 39-C , 40-C ) :   1.2456 B( 39-C , 45-O ) :   1.1989
B( 40-C , 41-C ) :   0.9472 B( 41-C , 42-F ) :   1.1431 B( 41-C , 43-F ) :   1.1540
B( 41-C , 44-F ) :   1.1428 B( 45-O , 46-C ) :   0.9163 B( 46-C , 90-H ) :   0.9777
B( 46-C , 91-H ) :   0.9686 B( 46-C , 92-H ) :   0.9653 B( 47-C , 48-C ) :   1.3155
B( 47-C , 52-C ) :   1.3280 B( 48-C , 49-C ) :   1.3784 B( 48-C , 93-H ) :   1.0028
B( 49-C , 50-C ) :   1.3623 B( 49-C , 55-C ) :   0.9138 B( 50-C , 51-C ) :   1.3315
B( 50-C , 53-C ) :   0.9986 B( 51-C , 52-C ) :   1.3778 B( 51-C , 94-H ) :   0.9941
B( 52-C , 95-H ) :   0.9907 B( 53-C , 54-C ) :   1.3655 B( 53-C , 63-C ) :   1.3241
B( 54-C , 55-C ) :   0.9156 B( 54-C , 60-C ) :   1.3822 B( 55-C , 56-C ) :   1.0367
B( 55-C , 58-C ) :   1.0360 B( 56-C , 57-C ) :   1.1001 B( 56-C , 96-H ) :   0.9397
B( 56-C , 97-H ) :   0.9391 B( 57-C , 98-H ) :   0.9644 B( 57-C , 99-H ) :   0.9641
B( 57-C ,100-H ) :   0.9645 B( 58-C , 59-C ) :   1.1026 B( 58-C ,101-H ) :   0.9392
B( 58-C ,102-H ) :   0.9394 B( 59-C ,103-H ) :   0.9643 B( 59-C ,104-H ) :   0.9637
B( 59-C ,105-H ) :   0.9644 B( 60-C , 61-C ) :   1.2803 B( 60-C ,106-H ) :   1.0143
B( 61-C , 62-C ) :   1.3499 B( 61-C , 64-C ) :   1.0914 B( 62-C , 63-C ) :   1.4007
B( 62-C ,107-H ) :   0.9804 B( 63-C ,108-H ) :   0.9929 B( 64-C , 65-C ) :   1.6758
B( 64-C ,109-H ) :   0.9749 B( 65-C , 66-C ) :   1.1273 B( 65-C ,110-H ) :   0.9536
B( 66-C , 67-C ) :   1.6880 B( 66-C ,111-H ) :   0.9297 B( 67-C , 68-C ) :   1.0281
B( 67-C , 76-C ) :   0.9397 B( 68-C , 69-C ) :   1.6520 B( 68-C , 74-C ) :   1.0134
B( 69-C , 70-C ) :   1.1273 B( 69-C , 72-C ) :   1.1658 B( 70-C , 71-N ) :   2.9882
B( 72-C , 73-N ) :   3.0057 B( 74-C , 75-C ) :   1.2697 B( 74-C , 81-C ) :   1.4136
B( 75-C , 76-C ) :   0.9229 B( 75-C , 78-C ) :   1.4239 B( 76-C , 77-O ) :   2.2667
B( 78-C , 79-C ) :   1.2531 B( 78-C ,112-H ) :   1.0163 B( 79-C , 80-C ) :   1.3024
B( 79-C , 84-C ) :   1.1709 B( 80-C , 81-C ) :   1.3236 B( 80-C , 82-S ) :   1.0959
B( 81-C ,113-H ) :   0.9855 B( 82-S , 83-C ) :   1.1261 B( 83-C , 84-C ) :   1.6297
B( 83-C ,114-H ) :   0.9688 B( 84-C ,115-H ) :   0.9994

-----------------------------------------------------------------------------
         ABSORPTION SPECTRUM VIA TRANSITION ELECTRIC DIPOLE MOMENTS
-----------------------------------------------------------------------------
State   Energy  Wavelength   fosc         T2         TX        TY        TZ
        (cm-1)    (nm)                  (au**2)     (au)      (au)      (au)
-----------------------------------------------------------------------------
   0   11353.7    880.8   0.687792843  19.94333  -1.28240   4.23197  -0.62384
   1   19480.6    513.3   0.078344553   1.32398   0.01684   0.19076   1.13460
   2   20571.1    486.1   0.608153803   9.73266   1.44653  -2.56792  -1.02274
   3   22218.7    450.1   0.044164830   0.65438  -0.25150  -0.45566   0.61927
   4   22792.1    438.7   0.094898187   1.37072  -0.12098   0.98515  -0.62093
   5   23281.2    429.5   0.150582691   2.12934  -0.29673   0.88369  -1.12267
   6   24510.7    408.0   0.065997363   0.88643   0.16176   0.43469  -0.81934
   7   25274.9    395.6   0.011247834   0.14651   0.36542  -0.07066   0.08935
   8   26508.4    377.2   0.010310121   0.12804  -0.23693   0.21473  -0.16062
   9   26823.4    372.8   0.195708490   2.40199   0.07234  -1.54433   0.10858
  10   27445.3    364.4   0.059480519   0.71348   0.57646  -0.03133   0.61660
  11   27649.8    361.7   0.028041964   0.33388  -0.48516  -0.29555  -0.10562
  12   27748.3    360.4   0.316434650   3.75424   0.00450   1.92087  -0.25390
  13   28296.9    353.4   0.125592799   1.46117   0.03071  -0.88289  -0.82506
  14   28959.2    345.3   0.062250238   0.70767  -0.60882   0.00033   0.58052
  15   29131.8    343.3   0.107033781   1.20957   0.82686  -0.63388  -0.35224
  16   29463.4    339.4   0.008240963   0.09208  -0.03351   0.21514   0.21136
  17   29594.9    337.9   0.230948029   2.56905   0.37163  -0.85791  -1.30189
  18   30068.7    332.6   0.263857183   2.88889  -0.47900   1.63075  -0.00968
  19   30158.9    331.6   0.210281751   2.29542  -1.04457   0.10504   1.09236
  20   30212.3    331.0   0.065423687   0.71290   0.57576   0.61109  -0.08929
  21   30695.9    325.8   0.271746089   2.91446  -0.01374  -1.69594   0.19509
  22   30837.5    324.3   0.180668117   1.92876  -0.96141   0.69579   0.72134
  23   31401.3    318.5   0.119295269   1.25069   0.03177  -0.05353   1.11661
  24   31474.7    317.7   0.331634419   3.46875  -0.23165  -0.45988  -1.78986
  25   32045.1    312.1   0.107907259   1.10857   0.77299   0.71407   0.03407
  26   32517.1    307.5   0.039655165   0.40148  -0.38453   0.44525   0.23531
  27   33006.0    303.0   0.257906062   2.57243  -0.56552   1.50076   0.01819
  28   33111.9    302.0   0.051885650   0.51587  -0.11333  -0.14963   0.69328
  29   33285.3    300.4   0.017974383   0.17778  -0.29393  -0.14352   0.26606
  30   33385.1    299.5   0.023171704   0.22850   0.19941   0.26633   0.34322
  31   33601.8    297.6   0.022349729   0.21897   0.18271   0.42838   0.04557
  32   33759.4    296.2   0.036940629   0.36023   0.29243   0.31706  -0.41737
  33   34169.7    292.7   0.051211210   0.49340  -0.11003   0.23481  -0.65281
  34   34631.7    288.8   0.462209070   4.39379  -1.20540   1.57624  -0.67548
  35   35127.6    284.7   0.478164968   4.48130   1.87383  -0.22181  -0.95961
  36   35864.1    278.8   0.047945575   0.44011   0.59270   0.26808  -0.13020
  37   36206.8    276.2   0.137577410   1.25093   0.46647   0.29068  -0.97409
  38   36747.6    272.1   0.066797194   0.59842  -0.57861   0.19715  -0.47409
  39   36910.7    270.9   0.266132343   2.37368  -0.65339   1.08401   0.87846
  40   37121.8    269.4   0.071108692   0.63062   0.00096   0.13276  -0.78294
  41   37401.2    267.4   0.087431777   0.76959  -0.11612   0.36382   0.78977
  42   37655.1    265.6   0.001974913   0.01727  -0.01817  -0.05512   0.11789
  43   38212.2    261.7   0.064386661   0.55471  -0.43770  -0.59833  -0.07166
  44   38557.7    259.4   0.157534128   1.34505  -0.43647  -0.30186  -1.03123
  45   39120.0    255.6   0.079710875   0.67080  -0.01367  -0.80434   0.15382
  46   39188.5    255.2   0.052707207   0.44278  -0.27333  -0.09641   0.59898
  47   39333.2    254.2   0.006956898   0.05823   0.08088  -0.22731   0.00432
  48   39822.3    251.1   0.012408051   0.10258  -0.28288   0.14084   0.05214
  49   40147.8    249.1   0.095920475   0.78655   0.59277   0.58083  -0.31274
  50   40157.4    249.0   0.083822886   0.68718   0.42719  -0.59828   0.38308

FINAL SINGLE POINT ENERGY     -4833.091526208821

DIPOLE MOMENT
-------------
                                X             Y             Z
Electronic contribution:     25.91559    -103.00272       0.09154
Nuclear contribution   :    -29.09800     105.79079       1.24921
                        -----------------------------------------
Total Dipole Moment    :     -3.18241       2.78807       1.34074
                        -----------------------------------------
Magnitude (a.u.)       :      4.43832
Magnitude (Debye)      :     11.28131

Rotational constants in cm-1:     0.001245     0.000186     0.000174
Rotational constants in MHz :    37.324314     5.572533     5.212211

                             ****ORCA TERMINATED NORMALLY****
TOTAL RUN TIME: 0 days 0 hours 13 minutes 49 seconds 92 msec
