                         Program Version 4.2.0 -  RELEASE  -
|  1> # ORCA input file
|  2> # SCF done       -189.054812851968          0.002404372168
|  3> ! CAM-B3LYP def2-SVP def2/J RIJCOSX Grid4 TightSCF
|  4> %maxcore 5000
|  5> %tddft
|  6>     Mode sTDDFT
|  7>     Ethresh 5.0
|  8>     maxcore 5000
|  9> end
| 10>
| 11> %pal
| 12>   nprocs 6
| 13>   end
| 14> * xyz 0 1
| 15>    C       -9.95252        -1.15581        -7.47962
| 16>    C      -10.43264        -2.41545        -7.23620
| 17>    C      -10.37092        -3.47676        -8.16218
| 18>    N      -10.33719        -4.37957        -8.87044
| 19>    C      -11.08713        -2.80417        -6.04867
| 20>    N      -11.63467        -3.18214        -5.11237
| 21>    C       -9.38325        -0.67664        -8.73684
| 22>    C       -9.17795         0.72577        -8.64488
| 23>    C       -8.67949         1.46966        -9.68725
| 24>    C       -8.36376         0.80060       -10.87443
| 25>    C       -8.56476        -0.59796       -10.95389
| 26>    C       -9.07183        -1.35106        -9.90071
| 27>    S       -8.10844        -1.22170       -12.50897
| 28>    C       -7.66386         0.38351       -13.02732
| 29>    C       -7.84425         1.33809       -12.08403
| 30>   Br       -7.00316         0.64476       -14.76230
| 31>    C       -9.58611         1.17842        -7.30859
| 32>    O       -9.57318         2.32269        -6.86485
| 33>    C      -10.01333        -0.02291        -6.58895
| 34>    C      -10.45079         0.02832        -5.29052
| 35>    N      -10.53473         1.20693        -4.65639
| 36>    C      -11.02327         1.41713        -3.41433
| 37>    S      -11.49483         0.09682        -2.38594
| 38>    C      -11.99320         1.24398        -1.17815
| 39>    N      -12.55167         0.81460         0.01508
| 40>    O      -12.98702         1.69682         0.76094
| 41>    O      -12.60331        -0.37676         0.25098
| 42>    C      -11.79555         2.54982        -1.56028
| 43>    C      -11.25034         2.67539        -2.84211
| 44>    C      -11.02060         3.94256        -3.49275
| 45>    C      -11.70782         5.03883        -3.12563
| 46>    C      -11.47402         6.37386        -3.62011
| 47>    C      -11.05849         6.58529        -4.95544
| 48>    C      -10.44612         7.82166        -5.31785
| 49>    C       -9.99845         8.00900        -6.64942
| 50>    C      -10.18377         7.04219        -7.59009
| 51>    C      -10.85607         5.85171        -7.25348
| 52>    C      -11.28086         5.62988        -5.97660
| 53>    C      -10.27311         8.79601        -4.34027
| 54>    C      -10.81332         8.65485        -3.06452
| 55>    C      -11.51714         7.45775        -2.70915
| 56>    C      -12.16134         7.42432        -1.42915
| 57>    C      -11.95212         8.45119        -0.53940
| 58>    C      -11.16056         9.56634        -0.85630
| 59>    C      -10.63980         9.68524        -2.10658
| 60>    C      -13.23175         6.47682        -1.06978
| 61>    C      -13.36010         5.82186         0.08582
| 62>    C      -12.27450         5.69728         1.11006
| 63>    C      -14.65035         5.09837         0.43002
| 64>    N      -14.73015         3.80107        -0.19491
| 65>    C      -15.71622         3.40831        -0.98711
| 66>    C      -15.72434         2.23876        -1.70508
| 67>    C      -16.82886         1.80247        -2.43598
| 68>    C      -16.85527         0.73850        -3.31387
| 69>    C      -15.78976         0.10998        -4.02892
| 70>    C      -14.60501         0.70370        -4.41900
| 71>    C      -13.67952         0.11603        -5.28952
| 72>    N      -12.87033        -0.27593        -6.00915
| 73>    C      -14.27198         2.03909        -4.14191
| 74>    N      -13.94710         3.12983        -3.97455
| 75>    C      -16.28256        -1.16175        -4.54649
| 76>    C      -17.68337        -1.21123        -4.33991
| 77>    C      -18.10601         0.01534        -3.61876
| 78>    O      -19.23471         0.34119        -3.31866
| 79>    C      -18.44579        -2.27199        -4.75814
| 80>    C      -17.79099        -3.33500        -5.39532
| 81>    C      -16.38931        -3.28176        -5.57328
| 82>    C      -15.61585        -2.20373        -5.15741
| 83>    S      -15.78671        -4.70633        -6.36585
| 84>    C      -17.40788        -5.34225        -6.45474
| 85>    C      -18.35130        -4.53410        -5.91562
| 86>   Br      -17.70404        -7.01288        -7.25272
| 87>    H       -8.53921         2.53517        -9.59160
| 88>    H       -9.20739        -2.41447       -10.00904
| 89>    H       -7.62161         2.37883       -12.23382
| 90>    H      -10.71208        -0.86001        -4.73126
| 91>    H      -10.27048         2.01999        -5.24235
| 92>    H      -12.00732         3.38214        -0.91645
| 93>    H      -10.27681         3.98009        -4.27560
| 94>    H      -12.42496         4.94279        -2.32733
| 95>    H       -9.52434         8.94638        -6.90249
| 96>    H       -9.84447         7.19187        -8.60453
| 97>    H      -11.04472         5.11468        -8.01942
| 98>    H      -11.84371         4.73906        -5.74439
| 99>    H       -9.71449         9.69072        -4.57624
|100>    H      -12.45916         8.42888         0.41370
|101>    H      -11.01903        10.34166        -0.11861
|102>    H      -10.08892        10.56706        -2.39850
|103>    H      -14.04668         6.44155        -1.78602
|104>    H      -11.32900         6.07435         0.72944
|105>    H      -12.15403         4.65235         1.39819
|106>    H      -12.53253         6.25217         2.01249
|107>    H      -15.50833         5.69041         0.10146
|108>    H      -14.70410         4.97575         1.51747
|109>    H      -14.02021         3.12102         0.07670
|110>    H      -16.54652         4.09668        -1.09592
|111>    H      -14.83918         1.61867        -1.68810
|112>    H      -17.78849         2.26534        -2.23442
|113>    H      -19.51327        -2.28695        -4.60322
|114>    H      -14.54690        -2.21031        -5.29817
|115>    H      -19.39922        -4.77108        -5.88487
|116> *
|117>
|118>                          ****END OF INPUT****

CARTESIAN COORDINATES (ANGSTROEM)
---------------------------------
  C     -9.952520   -1.155810   -7.479620
  C    -10.432640   -2.415450   -7.236200
  C    -10.370920   -3.476760   -8.162180
  N    -10.337190   -4.379570   -8.870440
  C    -11.087130   -2.804170   -6.048670
  N    -11.634670   -3.182140   -5.112370
  C     -9.383250   -0.676640   -8.736840
  C     -9.177950    0.725770   -8.644880
  C     -8.679490    1.469660   -9.687250
  C     -8.363760    0.800600  -10.874430
  C     -8.564760   -0.597960  -10.953890
  C     -9.071830   -1.351060   -9.900710
  S     -8.108440   -1.221700  -12.508970
  C     -7.663860    0.383510  -13.027320
  C     -7.844250    1.338090  -12.084030
  Br    -7.003160    0.644760  -14.762300
  C     -9.586110    1.178420   -7.308590
  O     -9.573180    2.322690   -6.864850
  C    -10.013330   -0.022910   -6.588950
  C    -10.450790    0.028320   -5.290520
  N    -10.534730    1.206930   -4.656390
  C    -11.023270    1.417130   -3.414330
  S    -11.494830    0.096820   -2.385940
  C    -11.993200    1.243980   -1.178150
  N    -12.551670    0.814600    0.015080
  O    -12.987020    1.696820    0.760940
  O    -12.603310   -0.376760    0.250980
  C    -11.795550    2.549820   -1.560280
  C    -11.250340    2.675390   -2.842110
  C    -11.020600    3.942560   -3.492750
  C    -11.707820    5.038830   -3.125630
  C    -11.474020    6.373860   -3.620110
  C    -11.058490    6.585290   -4.955440
  C    -10.446120    7.821660   -5.317850
  C     -9.998450    8.009000   -6.649420
  C    -10.183770    7.042190   -7.590090
  C    -10.856070    5.851710   -7.253480
  C    -11.280860    5.629880   -5.976600
  C    -10.273110    8.796010   -4.340270
  C    -10.813320    8.654850   -3.064520
  C    -11.517140    7.457750   -2.709150
  C    -12.161340    7.424320   -1.429150
  C    -11.952120    8.451190   -0.539400
  C    -11.160560    9.566340   -0.856300
  C    -10.639800    9.685240   -2.106580
  C    -13.231750    6.476820   -1.069780
  C    -13.360100    5.821860    0.085820
  C    -12.274500    5.697280    1.110060
  C    -14.650350    5.098370    0.430020
  N    -14.730150    3.801070   -0.194910
  C    -15.716220    3.408310   -0.987110
  C    -15.724340    2.238760   -1.705080
  C    -16.828860    1.802470   -2.435980
  C    -16.855270    0.738500   -3.313870
  C    -15.789760    0.109980   -4.028920
  C    -14.605010    0.703700   -4.419000
  C    -13.679520    0.116030   -5.289520
  N    -12.870330   -0.275930   -6.009150
  C    -14.271980    2.039090   -4.141910
  N    -13.947100    3.129830   -3.974550
  C    -16.282560   -1.161750   -4.546490
  C    -17.683370   -1.211230   -4.339910
  C    -18.106010    0.015340   -3.618760
  O    -19.234710    0.341190   -3.318660
  C    -18.445790   -2.271990   -4.758140
  C    -17.790990   -3.335000   -5.395320
  C    -16.389310   -3.281760   -5.573280
  C    -15.615850   -2.203730   -5.157410
  S    -15.786710   -4.706330   -6.365850
  C    -17.407880   -5.342250   -6.454740
  C    -18.351300   -4.534100   -5.915620
  Br   -17.704040   -7.012880   -7.252720
  H     -8.539210    2.535170   -9.591600
  H     -9.207390   -2.414470  -10.009040
  H     -7.621610    2.378830  -12.233820
  H    -10.712080   -0.860010   -4.731260
  H    -10.270480    2.019990   -5.242350
  H    -12.007320    3.382140   -0.916450
  H    -10.276810    3.980090   -4.275600
  H    -12.424960    4.942790   -2.327330
  H     -9.524340    8.946380   -6.902490
  H     -9.844470    7.191870   -8.604530
  H    -11.044720    5.114680   -8.019420
  H    -11.843710    4.739060   -5.744390
  H     -9.714490    9.690720   -4.576240
  H    -12.459160    8.428880    0.413700
  H    -11.019030   10.341660   -0.118610
  H    -10.088920   10.567060   -2.398500
  H    -14.046680    6.441550   -1.786020
  H    -11.329000    6.074350    0.729440
  H    -12.154030    4.652350    1.398190
  H    -12.532530    6.252170    2.012490
  H    -15.508330    5.690410    0.101460
  H    -14.704100    4.975750    1.517470
  H    -14.020210    3.121020    0.076700
  H    -16.546520    4.096680   -1.095920
  H    -14.839180    1.618670   -1.688100
  H    -17.788490    2.265340   -2.234420
  H    -19.513270   -2.286950   -4.603220
  H    -14.546900   -2.210310   -5.298170
  H    -19.399220   -4.771080   -5.884870

 Total Charge           Charge          ....    0
 Multiplicity           Mult            ....    1
 Number of Electrons    NEL             ....  564
 Basis Dimension        Dim             .... 1201

ORBITAL ENERGIES
----------------

  NO   OCC          E(Eh)            E(eV)
   0   2.0000    -482.884742    -13139.9619
   1   2.0000    -482.872561    -13139.6304
   2   2.0000     -88.993114     -2421.6257
   3   2.0000     -88.974791     -2421.1272
   4   2.0000     -88.960055     -2420.7262
   5   2.0000     -62.562442     -1702.4106
   6   2.0000     -62.550262     -1702.0792
   7   2.0000     -56.396392     -1534.6238
   8   2.0000     -56.393679     -1534.5500
   9   2.0000     -56.393644     -1534.5491
  10   2.0000     -56.384192     -1534.2919
  11   2.0000     -56.381510     -1534.2189
  12   2.0000     -56.381475     -1534.2179
  13   2.0000     -19.256174      -523.9871
  14   2.0000     -19.251510      -523.8602
  15   2.0000     -19.225270      -523.1462
  16   2.0000     -19.193203      -522.2736
  17   2.0000     -14.664163      -399.0322
  18   2.0000     -14.490362      -394.3028
  19   2.0000     -14.463134      -393.5619
  20   2.0000     -14.411167      -392.1478
  21   2.0000     -14.410259      -392.1231
  22   2.0000     -14.408613      -392.0783
  23   2.0000     -14.404667      -391.9709
  24   2.0000     -10.373543      -282.2785
  25   2.0000     -10.371769      -282.2302
  26   2.0000     -10.363693      -282.0104
  27   2.0000     -10.357537      -281.8429
  28   2.0000     -10.350765      -281.6586
  29   2.0000     -10.348926      -281.6086
  30   2.0000     -10.345563      -281.5171
  31   2.0000     -10.343693      -281.4662
  32   2.0000     -10.337397      -281.2949
  33   2.0000     -10.334120      -281.2057
  34   2.0000     -10.328033      -281.0401
  35   2.0000     -10.325772      -280.9785
  36   2.0000     -10.324184      -280.9353
  37   2.0000     -10.320961      -280.8476
  38   2.0000     -10.318634      -280.7843
  39   2.0000     -10.315504      -280.6991
  40   2.0000     -10.314488      -280.6715
  41   2.0000     -10.312019      -280.6043
  42   2.0000     -10.310529      -280.5638
  43   2.0000     -10.309054      -280.5236
  44   2.0000     -10.306371      -280.4506
  45   2.0000     -10.305986      -280.4401
  46   2.0000     -10.303879      -280.3828
  47   2.0000     -10.303602      -280.3753
  48   2.0000     -10.302491      -280.3450
  49   2.0000     -10.301643      -280.3220
  50   2.0000     -10.295974      -280.1677
  51   2.0000     -10.292941      -280.0852
  52   2.0000     -10.291257      -280.0393
  53   2.0000     -10.290218      -280.0111
  54   2.0000     -10.289791      -279.9995
  55   2.0000     -10.289574      -279.9935
  56   2.0000     -10.286311      -279.9048
  57   2.0000     -10.286147      -279.9003
  58   2.0000     -10.285607      -279.8856
  59   2.0000     -10.284848      -279.8649
  60   2.0000     -10.283854      -279.8379
  61   2.0000     -10.282612      -279.8041
  62   2.0000     -10.282338      -279.7966
  63   2.0000     -10.279816      -279.7280
  64   2.0000     -10.279271      -279.7132
  65   2.0000     -10.278391      -279.6892
  66   2.0000     -10.276114      -279.6273
  67   2.0000     -10.276051      -279.6256
  68   2.0000     -10.275706      -279.6162
  69   2.0000     -10.275128      -279.6005
  70   2.0000     -10.275108      -279.5999
  71   2.0000     -10.274939      -279.5953
  72   2.0000     -10.272684      -279.5339
  73   2.0000     -10.272106      -279.5182
  74   2.0000     -10.270806      -279.4829
  75   2.0000     -10.268425      -279.4181
  76   2.0000     -10.267863      -279.4028
  77   2.0000     -10.266310      -279.3605
  78   2.0000     -10.264998      -279.3248
  79   2.0000     -10.263951      -279.2963
  80   2.0000      -8.791860      -239.2387
  81   2.0000      -8.779683      -238.9073
  82   2.0000      -8.087959      -220.0845
  83   2.0000      -8.070629      -219.6130
  84   2.0000      -8.056060      -219.2165
  85   2.0000      -6.628157      -180.3613
  86   2.0000      -6.615924      -180.0284
  87   2.0000      -6.613598      -179.9651
  88   2.0000      -6.613400      -179.9598
  89   2.0000      -6.601449      -179.6346
  90   2.0000      -6.601265      -179.6296
  91   2.0000      -6.057581      -164.8352
  92   2.0000      -6.053387      -164.7210
  93   2.0000      -6.049356      -164.6114
  94   2.0000      -6.040333      -164.3658
  95   2.0000      -6.036019      -164.2484
  96   2.0000      -6.031924      -164.1370
  97   2.0000      -6.025765      -163.9694
  98   2.0000      -6.021449      -163.8520
  99   2.0000      -6.017275      -163.7384
 100   2.0000      -2.744030       -74.6689
 101   2.0000      -2.739938       -74.5575
 102   2.0000      -2.739801       -74.5538
 103   2.0000      -2.731810       -74.3363
 104   2.0000      -2.728224       -74.2387
 105   2.0000      -2.728213       -74.2385
 106   2.0000      -2.727741       -74.2256
 107   2.0000      -2.727603       -74.2219
 108   2.0000      -2.716105       -73.9090
 109   2.0000      -2.716093       -73.9086
 110   2.0000      -1.330658       -36.2091
 111   2.0000      -1.149511       -31.2798
 112   2.0000      -1.139725       -31.0135
 113   2.0000      -1.107563       -30.1383
 114   2.0000      -1.099814       -29.9275
 115   2.0000      -1.064265       -28.9601
 116   2.0000      -1.020779       -27.7768
 117   2.0000      -1.013363       -27.5750
 118   2.0000      -1.011486       -27.5239
 119   2.0000      -1.008262       -27.4362
 120   2.0000      -1.002033       -27.2667
 121   2.0000      -0.989643       -26.9296
 122   2.0000      -0.988205       -26.8904
 123   2.0000      -0.986323       -26.8392
 124   2.0000      -0.981977       -26.7210
 125   2.0000      -0.974870       -26.5276
 126   2.0000      -0.949645       -25.8411
 127   2.0000      -0.940202       -25.5842
 128   2.0000      -0.930207       -25.3122
 129   2.0000      -0.925996       -25.1976
 130   2.0000      -0.922763       -25.1097
 131   2.0000      -0.907545       -24.6956
 132   2.0000      -0.906311       -24.6620
 133   2.0000      -0.900520       -24.5044
 134   2.0000      -0.894306       -24.3353
 135   2.0000      -0.889571       -24.2065
 136   2.0000      -0.884907       -24.0795
 137   2.0000      -0.883609       -24.0442
 138   2.0000      -0.877405       -23.8754
 139   2.0000      -0.870287       -23.6817
 140   2.0000      -0.863668       -23.5016
 141   2.0000      -0.850696       -23.1486
 142   2.0000      -0.848739       -23.0954
 143   2.0000      -0.830201       -22.5909
 144   2.0000      -0.828192       -22.5362
 145   2.0000      -0.827563       -22.5191
 146   2.0000      -0.822036       -22.3687
 147   2.0000      -0.813514       -22.1368
 148   2.0000      -0.800409       -21.7802
 149   2.0000      -0.791925       -21.5494
 150   2.0000      -0.786984       -21.4149
 151   2.0000      -0.773803       -21.0563
 152   2.0000      -0.759438       -20.6654
 153   2.0000      -0.754063       -20.5191
 154   2.0000      -0.749108       -20.3843
 155   2.0000      -0.740281       -20.1441
 156   2.0000      -0.734645       -19.9907
 157   2.0000      -0.726574       -19.7711
 158   2.0000      -0.715387       -19.4667
 159   2.0000      -0.712673       -19.3928
 160   2.0000      -0.704797       -19.1785
 161   2.0000      -0.696353       -18.9487
 162   2.0000      -0.689391       -18.7593
 163   2.0000      -0.686894       -18.6913
 164   2.0000      -0.678481       -18.4624
 165   2.0000      -0.673814       -18.3354
 166   2.0000      -0.673446       -18.3254
 167   2.0000      -0.660483       -17.9727
 168   2.0000      -0.656106       -17.8536
 169   2.0000      -0.654613       -17.8129
 170   2.0000      -0.646508       -17.5924
 171   2.0000      -0.644591       -17.5402
 172   2.0000      -0.641017       -17.4429
 173   2.0000      -0.639741       -17.4082
 174   2.0000      -0.631261       -17.1775
 175   2.0000      -0.626107       -17.0372
 176   2.0000      -0.619767       -16.8647
 177   2.0000      -0.617985       -16.8162
 178   2.0000      -0.615694       -16.7539
 179   2.0000      -0.607165       -16.5218
 180   2.0000      -0.606605       -16.5066
 181   2.0000      -0.604855       -16.4589
 182   2.0000      -0.598161       -16.2768
 183   2.0000      -0.594741       -16.1837
 184   2.0000      -0.586463       -15.9585
 185   2.0000      -0.584982       -15.9182
 186   2.0000      -0.579136       -15.7591
 187   2.0000      -0.572299       -15.5730
 188   2.0000      -0.570279       -15.5181
 189   2.0000      -0.560664       -15.2564
 190   2.0000      -0.558635       -15.2012
 191   2.0000      -0.557590       -15.1728
 192   2.0000      -0.556651       -15.1472
 193   2.0000      -0.547531       -14.8991
 194   2.0000      -0.546627       -14.8745
 195   2.0000      -0.544512       -14.8169
 196   2.0000      -0.543112       -14.7788
 197   2.0000      -0.535848       -14.5812
 198   2.0000      -0.534704       -14.5500
 199   2.0000      -0.533964       -14.5299
 200   2.0000      -0.531105       -14.4521
 201   2.0000      -0.527728       -14.3602
 202   2.0000      -0.526636       -14.3305
 203   2.0000      -0.521881       -14.2011
 204   2.0000      -0.519962       -14.1489
 205   2.0000      -0.516243       -14.0477
 206   2.0000      -0.515175       -14.0186
 207   2.0000      -0.508970       -13.8498
 208   2.0000      -0.508143       -13.8273
 209   2.0000      -0.505559       -13.7570
 210   2.0000      -0.503502       -13.7010
 211   2.0000      -0.502448       -13.6723
 212   2.0000      -0.496273       -13.5043
 213   2.0000      -0.495749       -13.4900
 214   2.0000      -0.494222       -13.4485
 215   2.0000      -0.493332       -13.4242
 216   2.0000      -0.490814       -13.3557
 217   2.0000      -0.488447       -13.2913
 218   2.0000      -0.488240       -13.2857
 219   2.0000      -0.484305       -13.1786
 220   2.0000      -0.481820       -13.1110
 221   2.0000      -0.479335       -13.0434
 222   2.0000      -0.475263       -12.9326
 223   2.0000      -0.474162       -12.9026
 224   2.0000      -0.471241       -12.8231
 225   2.0000      -0.468948       -12.7607
 226   2.0000      -0.466372       -12.6906
 227   2.0000      -0.463097       -12.6015
 228   2.0000      -0.457812       -12.4577
 229   2.0000      -0.456130       -12.4119
 230   2.0000      -0.453087       -12.3291
 231   2.0000      -0.452477       -12.3125
 232   2.0000      -0.451043       -12.2735
 233   2.0000      -0.449415       -12.2292
 234   2.0000      -0.447089       -12.1659
 235   2.0000      -0.446250       -12.1431
 236   2.0000      -0.444647       -12.0995
 237   2.0000      -0.442056       -12.0289
 238   2.0000      -0.441783       -12.0215
 239   2.0000      -0.439181       -11.9507
 240   2.0000      -0.437625       -11.9084
 241   2.0000      -0.437106       -11.8943
 242   2.0000      -0.430751       -11.7213
 243   2.0000      -0.427422       -11.6307
 244   2.0000      -0.422749       -11.5036
 245   2.0000      -0.422339       -11.4924
 246   2.0000      -0.419779       -11.4228
 247   2.0000      -0.417542       -11.3619
 248   2.0000      -0.413589       -11.2543
 249   2.0000      -0.412585       -11.2270
 250   2.0000      -0.409495       -11.1429
 251   2.0000      -0.406490       -11.0612
 252   2.0000      -0.404616       -11.0102
 253   2.0000      -0.403802       -10.9880
 254   2.0000      -0.401218       -10.9177
 255   2.0000      -0.398039       -10.8312
 256   2.0000      -0.394852       -10.7445
 257   2.0000      -0.393645       -10.7116
 258   2.0000      -0.386912       -10.5284
 259   2.0000      -0.382477       -10.4077
 260   2.0000      -0.376935       -10.2569
 261   2.0000      -0.374211       -10.1828
 262   2.0000      -0.373342       -10.1592
 263   2.0000      -0.368864       -10.0373
 264   2.0000      -0.366540        -9.9740
 265   2.0000      -0.362403        -9.8615
 266   2.0000      -0.362111        -9.8535
 267   2.0000      -0.349040        -9.4979
 268   2.0000      -0.342241        -9.3129
 269   2.0000      -0.341222        -9.2851
 270   2.0000      -0.333702        -9.0805
 271   2.0000      -0.317082        -8.6282
 272   2.0000      -0.315907        -8.5963
 273   2.0000      -0.315461        -8.5841
 274   2.0000      -0.309025        -8.4090
 275   2.0000      -0.305173        -8.3042
 276   2.0000      -0.299816        -8.1584
 277   2.0000      -0.292622        -7.9627
 278   2.0000      -0.280728        -7.6390
 279   2.0000      -0.274497        -7.4694
 280   2.0000      -0.255715        -6.9584
 281   2.0000      -0.239340        -6.5128
 282   0.0000      -0.088266        -2.4018
 283   0.0000      -0.068699        -1.8694
 284   0.0000      -0.067274        -1.8306
 285   0.0000      -0.052810        -1.4370
 286   0.0000      -0.040071        -1.0904

MULLIKEN ATOMIC CHARGES
-----------------------
   0 C :    0.339383
   1 C :   -0.354061
   2 C :   -0.191103
   3 N :    0.146752
   4 C :   -0.169408
   5 N :    0.128054
   6 C :    0.008675
   7 C :   -0.002381
   8 C :   -0.075883
   9 C :    0.117248
  10 C :   -0.091092
  11 C :   -0.023551
  12 S :    0.187174
  13 C :   -0.123800
  14 C :    0.038156
  15 Br:    0.021621
  16 C :    0.168595
  17 O :   -0.224294
  18 C :   -0.110443
  19 C :    0.045667
  20 N :    0.000828
  21 C :   -0.135484
  22 S :    0.174966
  23 C :   -0.031760
  24 N :    0.296611
  25 O :   -0.303081
  26 O :   -0.234090
  27 C :    0.009727
  28 C :    0.162797
  29 C :   -0.067875
  30 C :    0.017543
  31 C :    0.017505
  32 C :    0.042236
  33 C :    0.105164
  34 C :   -0.018137
  35 C :    0.034432
  36 C :    0.029862
  37 C :   -0.040911
  38 C :   -0.097172
  39 C :    0.067104
  40 C :    0.107626
  41 C :   -0.006801
  42 C :   -0.022848
  43 C :    0.032709
  44 C :   -0.007235
  45 C :   -0.014620
  46 C :   -0.248694
  47 C :    0.086762
  48 C :    0.224944
  49 N :   -0.125890
  50 C :    0.094174
  51 C :   -0.027383
  52 C :    0.035253
  53 C :   -0.155120
  54 C :    0.287835
  55 C :   -0.368532
  56 C :   -0.139906
  57 N :    0.094880
  58 C :   -0.205742
  59 N :    0.143642
  60 C :   -0.007428
  61 C :    0.004157
  62 C :    0.142907
  63 O :   -0.156822
  64 C :   -0.082094
  65 C :    0.111484
  66 C :   -0.091416
  67 C :   -0.019956
  68 S :    0.189262
  69 C :   -0.125892
  70 C :    0.036306
  71 Br:    0.013456
  72 H :   -0.012419
  73 H :   -0.004469
  74 H :   -0.004180
  75 H :    0.047084
  76 H :    0.179243
  77 H :   -0.011438
  78 H :    0.023801
  79 H :   -0.012775
  80 H :   -0.030919
  81 H :   -0.018623
  82 H :   -0.014888
  83 H :   -0.004253
  84 H :   -0.039220
  85 H :   -0.024261
  86 H :   -0.015628
  87 H :   -0.025560
  88 H :    0.018867
  89 H :    0.033774
  90 H :    0.029604
  91 H :    0.028594
  92 H :    0.021979
  93 H :    0.020573
  94 H :    0.141592
  95 H :    0.019719
  96 H :    0.006445
  97 H :    0.008912
  98 H :   -0.014276
  99 H :   -0.004971
 100 H :   -0.006901
Sum of atomic charges:   -0.0000000

LOEWDIN ATOMIC CHARGES
----------------------
   0 C :    0.085639
   1 C :   -0.145632
   2 C :   -0.019189
   3 N :   -0.059646
   4 C :   -0.011650
   5 N :   -0.070224
   6 C :   -0.014429
   7 C :   -0.049456
   8 C :    0.021163
   9 C :   -0.035537
  10 C :   -0.144211
  11 C :   -0.009076
  12 S :    0.434423
  13 C :   -0.273087
  14 C :   -0.070703
  15 Br:    0.135710
  16 C :    0.096805
  17 O :   -0.180247
  18 C :   -0.140044
  19 C :    0.125722
  20 N :    0.082211
  21 C :   -0.100290
  22 S :    0.470746
  23 C :   -0.224283
  24 N :    0.285328
  25 O :   -0.252090
  26 O :   -0.199842
  27 C :    0.009803
  28 C :   -0.071864
  29 C :   -0.034577
  30 C :    0.017067
  31 C :   -0.012395
  32 C :   -0.007240
  33 C :   -0.017656
  34 C :   -0.016679
  35 C :   -0.023450
  36 C :   -0.022007
  37 C :   -0.010251
  38 C :   -0.006795
  39 C :   -0.017952
  40 C :   -0.007662
  41 C :   -0.027038
  42 C :   -0.013075
  43 C :   -0.033297
  44 C :   -0.004992
  45 C :   -0.021149
  46 C :   -0.058865
  47 C :   -0.054325
  48 C :    0.052894
  49 N :    0.055052
  50 C :    0.104227
  51 C :   -0.114363
  52 C :    0.079506
  53 C :   -0.139195
  54 C :    0.083402
  55 C :   -0.185270
  56 C :   -0.000387
  57 N :   -0.086170
  58 C :   -0.011278
  59 N :   -0.080122
  60 C :   -0.021477
  61 C :   -0.049356
  62 C :    0.079998
  63 O :   -0.161433
  64 C :    0.016802
  65 C :   -0.036107
  66 C :   -0.145775
  67 C :   -0.012372
  68 S :    0.434403
  69 C :   -0.275485
  70 C :   -0.072193
  71 Br:    0.129567
  72 H :    0.040179
  73 H :    0.041796
  74 H :    0.038249
  75 H :    0.032967
  76 H :    0.090280
  77 H :    0.039393
  78 H :    0.030750
  79 H :    0.027527
  80 H :    0.026513
  81 H :    0.027369
  82 H :    0.029033
  83 H :    0.032935
  84 H :    0.026338
  85 H :    0.027693
  86 H :    0.029259
  87 H :    0.028604
  88 H :    0.033969
  89 H :    0.034275
  90 H :    0.031092
  91 H :    0.035376
  92 H :    0.033807
  93 H :    0.030160
  94 H :    0.065906
  95 H :    0.035185
  96 H :    0.025923
  97 H :    0.040110
  98 H :    0.039059
  99 H :    0.040614
 100 H :    0.037061

  Mayer bond orders larger than 0.100000
B(  0-C ,  1-C ) :   1.6267 B(  0-C ,  6-C ) :   0.9992 B(  0-C , 18-C ) :   1.1154
B(  1-C ,  2-C ) :   1.1394 B(  1-C ,  4-C ) :   1.1675 B(  2-C ,  3-N ) :   2.9730
B(  4-C ,  5-N ) :   2.8986 B(  6-C ,  7-C ) :   1.2765 B(  6-C , 11-C ) :   1.4251
B(  7-C ,  8-C ) :   1.4244 B(  7-C , 16-C ) :   0.9747 B(  8-C ,  9-C ) :   1.2395
B(  8-C , 72-H ) :   1.0182 B(  9-C , 10-C ) :   1.3140 B(  9-C , 14-C ) :   1.1627
B( 10-C , 11-C ) :   1.3171 B( 10-C , 12-S ) :   1.0879 B( 11-C , 73-H ) :   0.9809
B( 12-S , 13-C ) :   1.0879 B( 13-C , 14-C ) :   1.6177 B( 13-C , 15-Br) :   1.0171
B( 14-C , 74-H ) :   1.0000 B( 16-C , 17-O ) :   2.0296 B( 16-C , 18-C ) :   1.0128
B( 17-O , 76-H ) :   0.1422 B( 18-C , 19-C ) :   1.4555 B( 19-C , 20-N ) :   1.3237
B( 19-C , 75-H ) :   0.9174 B( 20-N , 21-C ) :   1.2166 B( 20-N , 76-H ) :   0.8213
B( 21-C , 22-S ) :   1.1404 B( 21-C , 28-C ) :   1.3554 B( 22-S , 23-C ) :   1.0674
B( 23-C , 24-N ) :   1.0169 B( 23-C , 27-C ) :   1.4177 B( 24-N , 25-O ) :   1.4067
B( 24-N , 26-O ) :   1.5407 B( 25-O , 26-O ) :   0.2261 B( 25-O , 94-H ) :   0.1193
B( 27-C , 28-C ) :   1.2753 B( 27-C , 77-H ) :   0.9929 B( 28-C , 29-C ) :   1.0511
B( 29-C , 30-C ) :   1.7747 B( 29-C , 78-H ) :   0.9642 B( 30-C , 31-C ) :   1.0934
B( 30-C , 79-H ) :   0.9202 B( 31-C , 32-C ) :   1.2715 B( 31-C , 40-C ) :   1.3102
B( 32-C , 33-C ) :   1.2224 B( 32-C , 37-C ) :   1.2242 B( 33-C , 34-C ) :   1.1860
B( 33-C , 38-C ) :   1.2912 B( 34-C , 35-C ) :   1.5394 B( 34-C , 80-H ) :   0.9960
B( 35-C , 36-C ) :   1.2120 B( 35-C , 81-H ) :   0.9885 B( 36-C , 37-C ) :   1.5358
B( 36-C , 82-H ) :   0.9848 B( 37-C , 83-H ) :   0.9896 B( 38-C , 39-C ) :   1.3086
B( 38-C , 84-H ) :   1.0071 B( 39-C , 40-C ) :   1.2111 B( 39-C , 44-C ) :   1.1850
B( 40-C , 41-C ) :   1.1743 B( 41-C , 42-C ) :   1.5591 B( 41-C , 45-C ) :   0.9928
B( 42-C , 43-C ) :   1.2052 B( 42-C , 85-H ) :   0.9850 B( 43-C , 44-C ) :   1.5309
B( 43-C , 86-H ) :   0.9882 B( 44-C , 87-H ) :   0.9988 B( 45-C , 46-C ) :   1.8811
B( 45-C , 88-H ) :   0.9402 B( 46-C , 47-C ) :   1.0782 B( 46-C , 48-C ) :   1.0182
B( 47-C , 89-H ) :   0.9503 B( 47-C , 90-H ) :   0.9455 B( 47-C , 91-H ) :   0.9434
B( 48-C , 49-N ) :   1.0098 B( 48-C , 92-H ) :   0.9378 B( 48-C , 93-H ) :   0.9322
B( 49-N , 50-C ) :   1.3786 B( 49-N , 94-H ) :   0.8768 B( 50-C , 51-C ) :   1.4422
B( 50-C , 95-H ) :   0.9656 B( 51-C , 52-C ) :   1.3081 B( 51-C , 96-H ) :   0.9590
B( 52-C , 53-C ) :   1.4348 B( 52-C , 97-H ) :   0.9569 B( 53-C , 54-C ) :   1.1528
B( 53-C , 62-C ) :   0.9691 B( 54-C , 55-C ) :   1.5305 B( 54-C , 60-C ) :   0.9990
B( 55-C , 56-C ) :   1.1640 B( 55-C , 58-C ) :   1.1897 B( 56-C , 57-N ) :   2.8627
B( 58-C , 59-N ) :   2.9267 B( 60-C , 61-C ) :   1.2753 B( 60-C , 67-C ) :   1.4195
B( 61-C , 62-C ) :   0.9113 B( 61-C , 64-C ) :   1.4376 B( 62-C , 63-O ) :   2.2653
B( 64-C , 65-C ) :   1.2387 B( 64-C , 98-H ) :   1.0171 B( 65-C , 66-C ) :   1.3206
B( 65-C , 70-C ) :   1.1638 B( 66-C , 67-C ) :   1.3191 B( 66-C , 68-S ) :   1.0831
B( 67-C , 99-H ) :   0.9837 B( 68-S , 69-C ) :   1.0900 B( 69-C , 70-C ) :   1.6158
B( 69-C , 71-Br) :   1.0128 B( 70-C ,100-H ) :   1.0005

-----------------------------------------------------------------------------
         ABSORPTION SPECTRUM VIA TRANSITION ELECTRIC DIPOLE MOMENTS
-----------------------------------------------------------------------------
State   Energy  Wavelength   fosc         T2         TX        TY        TZ
        (cm-1)    (nm)                  (au**2)     (au)      (au)      (au)
-----------------------------------------------------------------------------
   0   18132.7    551.5   0.227502802   4.13047   0.60891  -1.12492  -1.57932
   1   18858.6    530.3   0.008359866   0.14594  -0.28313   0.14666   0.21039
   2   22152.7    451.4   0.318679447   4.73590  -0.07277   1.73989   1.30514
   3   22967.3    435.4   0.107318107   1.53829  -0.02791   1.18793   0.35544
   4   23426.2    426.9   0.298120091   4.18952   0.54717  -1.19224  -1.57121
   5   24244.0    412.5   0.209943763   2.85085  -0.21030   1.48885   0.76809
   6   24421.5    409.5   0.611316111   8.24080   1.17311   1.11753  -2.36975
   7   26704.3    374.5   0.054619154   0.67335   0.29255   0.51495   0.56797
   8   27511.7    363.5   0.014773880   0.17679  -0.23128  -0.34380   0.07140
   9   27716.6    360.8   0.081812998   0.97176   0.58066   0.74132  -0.29161
  10   28228.5    354.3   0.002318825   0.02704  -0.15222   0.01940   0.05913
  11   28548.0    350.3   0.114151407   1.31638   0.23640   0.53520   0.98694
  12   29203.7    342.4   0.123837697   1.39602  -0.25501  -0.57928  -0.99771
  13   29694.1    336.8   0.027129734   0.30078   0.37149   0.32977  -0.23243
  14   29842.1    335.1   0.490624434   5.41247  -0.65678   0.08119   2.23036
  15   30024.1    333.1   0.533163002   5.84610   1.08042   2.14916  -0.24471
  16   30742.0    325.3   0.042186063   0.45176  -0.40054  -0.37792   0.38537
  17   31114.7    321.4   0.005157833   0.05457   0.12447   0.17788   0.08626
  18   31262.7    319.9   0.045741904   0.48169   0.52543   0.45083  -0.04851
  19   31527.1    317.2   0.210731565   2.20050  -1.25547  -0.76536   0.19624
  20   31775.6    314.7   0.253535809   2.62676   0.49786   1.14515   1.03321
  21   31974.9    312.7   0.071483171   0.73599   0.10940   0.64699   0.55264
  22   32539.2    307.3   0.007712195   0.07803   0.07461   0.26639  -0.03871
  23   32764.2    305.2   0.009150798   0.09195   0.14338   0.16578  -0.20953
  24   32894.2    304.0   0.046704023   0.46742  -0.31424  -0.33376   0.50723
  25   33041.4    302.7   0.002102504   0.02095  -0.03885  -0.01674  -0.13841
  26   33441.9    299.0   0.000935140   0.00921   0.03073   0.05063  -0.07548
  27   33787.0    296.0   0.000544240   0.00530   0.01199   0.00267  -0.07178
  28   34055.8    293.6   0.012328123   0.11917   0.18739   0.19862  -0.21121
  29   34208.5    292.3   0.078262596   0.75317   0.33494  -0.64281  -0.47727
  30   34486.3    290.0   0.439068397   4.19142  -0.79417  -1.66677   0.88463
  31   34631.0    288.8   0.028052053   0.26667  -0.10208  -0.33757   0.37722
  32   34916.8    286.4   0.310056884   2.92336   1.09989   1.30721   0.06925
  33   35416.4    282.4   0.066464730   0.61782  -0.53122  -0.11619  -0.56756
  34   35750.5    279.7   0.005636837   0.05191  -0.01583  -0.00560  -0.22721
  35   35886.3    278.7   0.001363296   0.01251   0.08194   0.06457   0.04030
  36   36270.8    275.7   0.002293134   0.02081   0.12125   0.06313   0.04612
  37   36533.6    273.7   0.032347421   0.29149   0.04108  -0.36894   0.39203
  38   37430.4    267.2   0.015702885   0.13811   0.00155  -0.18367  -0.32307
  39   37604.4    265.9   0.035612786   0.31178   0.04419  -0.13973  -0.53879
  40   37753.2    264.9   0.197927811   1.72595  -0.48675   0.07434   1.21799
  41   37885.8    264.0   0.000817239   0.00710   0.00170  -0.04907   0.06849
  42   38180.0    261.9   0.005920063   0.05105   0.15972  -0.07341  -0.14194
  43   38269.0    261.3   0.164224099   1.41275   0.01986  -0.63976  -1.00153
  44   38489.8    259.8   0.018573621   0.15886  -0.05496   0.35525  -0.17218
  45   38722.1    258.3   0.047451067   0.40342   0.20272  -0.46052  -0.38762
  46   39032.4    256.2   0.050110292   0.42265   0.11524   0.63241   0.09706
  47   39544.6    252.9   0.026662668   0.22197  -0.12679  -0.40960   0.19525
  48   39646.1    252.2   0.089466136   0.74291  -0.10346  -0.71887  -0.46414
  49   39885.8    250.7   0.138917633   1.14661  -0.00830   1.06632   0.09742
  50   39943.3    250.4   0.010836725   0.08932  -0.05901   0.21037   0.20390
  51   40032.7    249.8   0.168268583   1.38377   0.01935   1.02147   0.58309

FINAL SINGLE POINT ENERGY     -9173.959196072223

DIPOLE MOMENT
-------------
                                X             Y             Z
Electronic contribution:      5.52324    -157.31588    -157.95492
Nuclear contribution   :     -4.39422     160.96456     158.45568
                        -----------------------------------------
Total Dipole Moment    :      1.12903       3.64869       0.50076
                        -----------------------------------------
Magnitude (a.u.)       :      3.85206
Magnitude (Debye)      :      9.79117

Rotational constants in cm-1:     0.000669     0.000580     0.000345
Rotational constants in MHz :    20.041648    17.386039    10.327998

                             ****ORCA TERMINATED NORMALLY****
TOTAL RUN TIME: 0 days 0 hours 24 minutes 27 seconds 165 msec
