                         Program Version 4.2.0 -  RELEASE  -
|  1> # ORCA input file
|  2> # SCF done       -182.574461880709          0.000878653209
|  3> ! CAM-B3LYP def2-SVP def2/J RIJCOSX Grid4 TightSCF
|  4> %maxcore 5000
|  5> %tddft
|  6>     Mode sTDDFT
|  7>     Ethresh 5.0
|  8>     maxcore 5000
|  9> end
| 10>
| 11> %pal
| 12>   nprocs 6
| 13>   end
| 14> * xyz 0 1
| 15>    C      -11.90838         6.97709        -4.30439
| 16>    C      -12.09916         6.90004        -2.91107
| 17>    C      -12.21750         8.08391        -2.19856
| 18>    C      -12.13808         9.32605        -2.83329
| 19>    C      -11.93599         9.37860        -4.22825
| 20>    C      -11.82616         8.18584        -4.94904
| 21>    N      -11.85987        10.59412        -4.84210
| 22>    C      -11.96212        11.83223        -4.23130
| 23>    O      -11.87960        12.84640        -4.88743
| 24>    C      -12.17087        11.75215        -2.77916
| 25>    C      -12.25177        10.55963        -2.13118
| 26>    C      -12.28940        12.96552        -2.06522
| 27>    N      -12.38144        13.93304        -1.45834
| 28>    C      -12.18291         5.60752        -2.24337
| 29>    C      -11.57630         4.48067        -2.71477
| 30>    C      -11.63795         3.21710        -2.11017
| 31>    C      -12.39065         3.01067        -0.86844
| 32>    C      -13.06189         3.98521        -0.21916
| 33>    S      -13.13628         5.61042        -0.76202
| 34>    C      -12.22903         1.63347        -0.56042
| 35>    C      -11.43744         1.01602        -1.53097
| 36>    C      -11.25655        -0.35774        -1.25220
| 37>    C      -11.89697        -0.73254        -0.11371
| 38>    S      -12.74487         0.55281         0.67253
| 39>    C      -11.05816         2.00578        -2.51246
| 40>    C      -10.26802         1.84425        -3.67822
| 41>    C       -9.69430         0.70783        -4.13609
| 42>    C       -8.91992         0.65521        -5.32862
| 43>    C       -8.30392        -0.44733        -5.85614
| 44>    C       -7.59129        -0.20278        -7.06086
| 45>    C       -7.69491         1.16436        -7.42861
| 46>    S       -8.65487         2.08449        -6.30982
| 47>    C       -7.11272         1.76180        -8.53704
| 48>    O       -7.38418         3.09494        -8.64428
| 49>    C       -6.97209         3.84079        -9.75884
| 50>    C       -6.33793         0.93414        -9.36850
| 51>    C       -6.24495        -0.43548        -9.01044
| 52>    C       -6.83710        -1.03511        -7.90720
| 53>    O       -6.57999        -2.37008        -7.81045
| 54>    C       -7.19088        -3.16425        -6.82661
| 55>    S       -5.26552        -1.34501       -10.12310
| 56>    C       -4.96152         0.09739       -11.06847
| 57>    C       -5.59002         1.19494       -10.54636
| 58>    C       -4.13057         0.03652       -12.23649
| 59>    C       -3.84217         1.12795       -13.01275
| 60>    C       -3.03499         1.11398       -14.15437
| 61>    C       -2.40481        -0.12779       -14.61625
| 62>    C       -2.55111        -1.32296       -14.00386
| 63>    S       -3.49778        -1.56405       -12.59481
| 64>    C       -1.66626         0.23879       -15.77144
| 65>    C       -1.81391         1.60578       -16.02147
| 66>    C       -1.10605         1.99630       -17.18173
| 67>    C       -0.45584         0.95044       -17.75559
| 68>    S       -0.66966        -0.55233       -16.92712
| 69>    C       -2.67083         2.16833       -15.00624
| 70>    C       -3.09692         3.51581       -14.84751
| 71>    C       -2.66119         4.58288       -15.54995
| 72>    C       -3.09237         5.94931       -15.37780
| 73>    C       -4.16471         6.32146       -14.54106
| 74>    C       -4.54519         7.63142       -14.39514
| 75>    C       -3.86872         8.64326       -15.08257
| 76>    C       -2.79610         8.30165       -15.93308
| 77>    C       -2.43115         6.96030       -16.06680
| 78>    C       -2.13246         9.35801       -16.61840
| 79>    C       -2.51347        10.65442       -16.46232
| 80>    C       -3.62701        11.03319       -15.58337
| 81>    O       -4.03313        12.15797       -15.38621
| 82>    N       -4.22274         9.95535       -14.95414
| 83>    C       -1.83907        11.68573       -17.15212
| 84>    N       -1.26760        12.49949       -17.72188
| 85>    H      -11.84950         6.06994        -4.88489
| 86>    H      -12.36185         8.06103        -1.12868
| 87>    H      -11.68522         8.22388        -6.01913
| 88>    H      -11.71597        10.62129        -5.84552
| 89>    H      -12.40637        10.53558        -1.06115
| 90>    H      -10.98079         4.57723        -3.61161
| 91>    H      -13.60596         3.81086         0.69566
| 92>    H      -10.68779        -1.04914        -1.84597
| 93>    H      -11.92755        -1.70871         0.32973
| 94>    H      -10.11123         2.73920        -4.26805
| 95>    H       -9.80358        -0.22504        -3.60479
| 96>    H       -8.37119        -1.39884        -5.36400
| 97>    H       -7.41504         4.82734        -9.62145
| 98>    H       -7.34318         3.40861       -10.69315
| 99>    H       -5.88278         3.94349        -9.79428
|100>    H       -6.89335        -4.18643        -7.05975
|101>    H       -8.28132        -3.08933        -6.86821
|102>    H       -6.83232        -2.90918        -5.82473
|103>    H       -5.50336         2.16206       -10.99989
|104>    H       -4.27277         2.07186       -12.71270
|105>    H       -2.07480        -2.22156       -14.36332
|106>    H       -1.07314         2.98760       -17.59451
|107>    H        0.15288         0.96329       -18.63867
|108>    H       -3.82880         3.66944       -14.06603
|109>    H       -1.89705         4.43942       -16.29833
|110>    H       -4.71115         5.56063       -14.00638
|111>    H       -5.37186         7.89296       -13.75018
|112>    H       -1.60725         6.71340       -16.72073
|113>    H       -1.30769         9.11428       -17.27442
|114>    H       -4.99562        10.18950       -14.34112
|115> *
|116>
|117>                          ****END OF INPUT****

CARTESIAN COORDINATES (ANGSTROEM)
---------------------------------
  C    -11.908380    6.977090   -4.304390
  C    -12.099160    6.900040   -2.911070
  C    -12.217500    8.083910   -2.198560
  C    -12.138080    9.326050   -2.833290
  C    -11.935990    9.378600   -4.228250
  C    -11.826160    8.185840   -4.949040
  N    -11.859870   10.594120   -4.842100
  C    -11.962120   11.832230   -4.231300
  O    -11.879600   12.846400   -4.887430
  C    -12.170870   11.752150   -2.779160
  C    -12.251770   10.559630   -2.131180
  C    -12.289400   12.965520   -2.065220
  N    -12.381440   13.933040   -1.458340
  C    -12.182910    5.607520   -2.243370
  C    -11.576300    4.480670   -2.714770
  C    -11.637950    3.217100   -2.110170
  C    -12.390650    3.010670   -0.868440
  C    -13.061890    3.985210   -0.219160
  S    -13.136280    5.610420   -0.762020
  C    -12.229030    1.633470   -0.560420
  C    -11.437440    1.016020   -1.530970
  C    -11.256550   -0.357740   -1.252200
  C    -11.896970   -0.732540   -0.113710
  S    -12.744870    0.552810    0.672530
  C    -11.058160    2.005780   -2.512460
  C    -10.268020    1.844250   -3.678220
  C     -9.694300    0.707830   -4.136090
  C     -8.919920    0.655210   -5.328620
  C     -8.303920   -0.447330   -5.856140
  C     -7.591290   -0.202780   -7.060860
  C     -7.694910    1.164360   -7.428610
  S     -8.654870    2.084490   -6.309820
  C     -7.112720    1.761800   -8.537040
  O     -7.384180    3.094940   -8.644280
  C     -6.972090    3.840790   -9.758840
  C     -6.337930    0.934140   -9.368500
  C     -6.244950   -0.435480   -9.010440
  C     -6.837100   -1.035110   -7.907200
  O     -6.579990   -2.370080   -7.810450
  C     -7.190880   -3.164250   -6.826610
  S     -5.265520   -1.345010  -10.123100
  C     -4.961520    0.097390  -11.068470
  C     -5.590020    1.194940  -10.546360
  C     -4.130570    0.036520  -12.236490
  C     -3.842170    1.127950  -13.012750
  C     -3.034990    1.113980  -14.154370
  C     -2.404810   -0.127790  -14.616250
  C     -2.551110   -1.322960  -14.003860
  S     -3.497780   -1.564050  -12.594810
  C     -1.666260    0.238790  -15.771440
  C     -1.813910    1.605780  -16.021470
  C     -1.106050    1.996300  -17.181730
  C     -0.455840    0.950440  -17.755590
  S     -0.669660   -0.552330  -16.927120
  C     -2.670830    2.168330  -15.006240
  C     -3.096920    3.515810  -14.847510
  C     -2.661190    4.582880  -15.549950
  C     -3.092370    5.949310  -15.377800
  C     -4.164710    6.321460  -14.541060
  C     -4.545190    7.631420  -14.395140
  C     -3.868720    8.643260  -15.082570
  C     -2.796100    8.301650  -15.933080
  C     -2.431150    6.960300  -16.066800
  C     -2.132460    9.358010  -16.618400
  C     -2.513470   10.654420  -16.462320
  C     -3.627010   11.033190  -15.583370
  O     -4.033130   12.157970  -15.386210
  N     -4.222740    9.955350  -14.954140
  C     -1.839070   11.685730  -17.152120
  N     -1.267600   12.499490  -17.721880
  H    -11.849500    6.069940   -4.884890
  H    -12.361850    8.061030   -1.128680
  H    -11.685220    8.223880   -6.019130
  H    -11.715970   10.621290   -5.845520
  H    -12.406370   10.535580   -1.061150
  H    -10.980790    4.577230   -3.611610
  H    -13.605960    3.810860    0.695660
  H    -10.687790   -1.049140   -1.845970
  H    -11.927550   -1.708710    0.329730
  H    -10.111230    2.739200   -4.268050
  H     -9.803580   -0.225040   -3.604790
  H     -8.371190   -1.398840   -5.364000
  H     -7.415040    4.827340   -9.621450
  H     -7.343180    3.408610  -10.693150
  H     -5.882780    3.943490   -9.794280
  H     -6.893350   -4.186430   -7.059750
  H     -8.281320   -3.089330   -6.868210
  H     -6.832320   -2.909180   -5.824730
  H     -5.503360    2.162060  -10.999890
  H     -4.272770    2.071860  -12.712700
  H     -2.074800   -2.221560  -14.363320
  H     -1.073140    2.987600  -17.594510
  H      0.152880    0.963290  -18.638670
  H     -3.828800    3.669440  -14.066030
  H     -1.897050    4.439420  -16.298330
  H     -4.711150    5.560630  -14.006380
  H     -5.371860    7.892960  -13.750180
  H     -1.607250    6.713400  -16.720730
  H     -1.307690    9.114280  -17.274420
  H     -4.995620   10.189500  -14.341120

 Total Charge           Charge          ....    0
 Multiplicity           Mult            ....    1
 Number of Electrons    NEL             ....  522
 Basis Dimension        Dim             .... 1154

ORBITAL ENERGIES
----------------

  NO   OCC          E(Eh)            E(eV)
   0   2.0000     -88.977663     -2421.2053
   1   2.0000     -88.974174     -2421.1104
   2   2.0000     -88.959335     -2420.7066
   3   2.0000     -88.955640     -2420.6060
   4   2.0000     -88.949518     -2420.4394
   5   2.0000     -88.942196     -2420.2402
   6   2.0000     -19.253171      -523.9054
   7   2.0000     -19.250374      -523.8293
   8   2.0000     -19.194161      -522.2997
   9   2.0000     -19.185165      -522.0549
  10   2.0000     -14.478435      -393.9782
  11   2.0000     -14.469858      -393.7449
  12   2.0000     -14.403101      -391.9283
  13   2.0000     -14.396124      -391.7384
  14   2.0000     -10.395538      -282.8770
  15   2.0000     -10.386800      -282.6392
  16   2.0000     -10.353750      -281.7399
  17   2.0000     -10.342316      -281.4287
  18   2.0000     -10.337422      -281.2955
  19   2.0000     -10.336924      -281.2820
  20   2.0000     -10.334219      -281.2084
  21   2.0000     -10.330208      -281.0993
  22   2.0000     -10.328763      -281.0599
  23   2.0000     -10.328358      -281.0489
  24   2.0000     -10.326561      -281.0000
  25   2.0000     -10.326491      -280.9981
  26   2.0000     -10.325448      -280.9697
  27   2.0000     -10.325376      -280.9678
  28   2.0000     -10.320251      -280.8283
  29   2.0000     -10.316382      -280.7230
  30   2.0000     -10.311718      -280.5961
  31   2.0000     -10.309806      -280.5441
  32   2.0000     -10.309199      -280.5276
  33   2.0000     -10.307496      -280.4812
  34   2.0000     -10.305918      -280.4383
  35   2.0000     -10.303359      -280.3687
  36   2.0000     -10.303137      -280.3626
  37   2.0000     -10.300184      -280.2823
  38   2.0000     -10.299362      -280.2599
  39   2.0000     -10.298857      -280.2461
  40   2.0000     -10.298755      -280.2434
  41   2.0000     -10.298475      -280.2357
  42   2.0000     -10.296719      -280.1880
  43   2.0000     -10.295890      -280.1654
  44   2.0000     -10.295471      -280.1540
  45   2.0000     -10.295442      -280.1532
  46   2.0000     -10.295369      -280.1512
  47   2.0000     -10.295079      -280.1433
  48   2.0000     -10.293323      -280.0956
  49   2.0000     -10.293319      -280.0954
  50   2.0000     -10.291442      -280.0444
  51   2.0000     -10.289808      -279.9999
  52   2.0000     -10.289774      -279.9990
  53   2.0000     -10.288988      -279.9776
  54   2.0000     -10.287441      -279.9355
  55   2.0000     -10.286630      -279.9134
  56   2.0000     -10.285225      -279.8752
  57   2.0000     -10.284162      -279.8463
  58   2.0000     -10.282656      -279.8053
  59   2.0000     -10.279482      -279.7189
  60   2.0000     -10.278627      -279.6957
  61   2.0000     -10.278088      -279.6810
  62   2.0000     -10.277527      -279.6657
  63   2.0000     -10.277169      -279.6560
  64   2.0000     -10.276968      -279.6505
  65   2.0000     -10.274664      -279.5878
  66   2.0000     -10.273770      -279.5635
  67   2.0000     -10.273594      -279.5587
  68   2.0000     -10.272882      -279.5393
  69   2.0000     -10.272064      -279.5171
  70   2.0000      -8.073128      -219.6810
  71   2.0000      -8.069612      -219.5853
  72   2.0000      -8.054834      -219.1832
  73   2.0000      -8.051117      -219.0820
  74   2.0000      -8.044747      -218.9087
  75   2.0000      -8.037331      -218.7069
  76   2.0000      -6.042688      -164.4299
  77   2.0000      -6.039228      -164.3358
  78   2.0000      -6.038159      -164.3067
  79   2.0000      -6.034982      -164.2202
  80   2.0000      -6.034597      -164.2097
  81   2.0000      -6.031459      -164.1243
  82   2.0000      -6.024240      -163.9279
  83   2.0000      -6.020515      -163.8265
  84   2.0000      -6.020020      -163.8131
  85   2.0000      -6.016888      -163.7278
  86   2.0000      -6.016330      -163.7127
  87   2.0000      -6.014477      -163.6623
  88   2.0000      -6.013166      -163.6266
  89   2.0000      -6.010285      -163.5482
  90   2.0000      -6.006912      -163.4564
  91   2.0000      -6.005996      -163.4315
  92   2.0000      -6.003010      -163.3502
  93   2.0000      -5.998662      -163.2319
  94   2.0000      -1.156278       -31.4639
  95   2.0000      -1.153428       -31.3864
  96   2.0000      -1.143083       -31.1049
  97   2.0000      -1.134025       -30.8584
  98   2.0000      -1.065375       -28.9903
  99   2.0000      -1.055746       -28.7283
 100   2.0000      -1.008965       -27.4553
 101   2.0000      -1.006230       -27.3809
 102   2.0000      -0.996149       -27.1066
 103   2.0000      -0.989807       -26.9340
 104   2.0000      -0.986988       -26.8573
 105   2.0000      -0.982331       -26.7306
 106   2.0000      -0.980700       -26.6862
 107   2.0000      -0.966223       -26.2923
 108   2.0000      -0.964696       -26.2507
 109   2.0000      -0.963701       -26.2236
 110   2.0000      -0.939007       -25.5517
 111   2.0000      -0.931359       -25.3436
 112   2.0000      -0.929814       -25.3015
 113   2.0000      -0.926489       -25.2110
 114   2.0000      -0.913520       -24.8581
 115   2.0000      -0.900888       -24.5144
 116   2.0000      -0.892831       -24.2952
 117   2.0000      -0.885256       -24.0890
 118   2.0000      -0.876185       -23.8422
 119   2.0000      -0.871493       -23.7145
 120   2.0000      -0.867832       -23.6149
 121   2.0000      -0.858220       -23.3534
 122   2.0000      -0.856005       -23.2931
 123   2.0000      -0.851058       -23.1585
 124   2.0000      -0.842459       -22.9245
 125   2.0000      -0.840975       -22.8841
 126   2.0000      -0.827345       -22.5132
 127   2.0000      -0.819691       -22.3049
 128   2.0000      -0.809075       -22.0161
 129   2.0000      -0.807067       -21.9614
 130   2.0000      -0.804053       -21.8794
 131   2.0000      -0.797140       -21.6913
 132   2.0000      -0.782098       -21.2820
 133   2.0000      -0.774756       -21.0822
 134   2.0000      -0.771554       -20.9950
 135   2.0000      -0.764550       -20.8045
 136   2.0000      -0.757125       -20.6024
 137   2.0000      -0.748831       -20.3767
 138   2.0000      -0.746130       -20.3032
 139   2.0000      -0.744413       -20.2565
 140   2.0000      -0.734426       -19.9847
 141   2.0000      -0.730115       -19.8674
 142   2.0000      -0.720025       -19.5929
 143   2.0000      -0.706585       -19.2271
 144   2.0000      -0.697262       -18.9735
 145   2.0000      -0.684270       -18.6199
 146   2.0000      -0.675381       -18.3781
 147   2.0000      -0.673372       -18.3234
 148   2.0000      -0.671936       -18.2843
 149   2.0000      -0.666318       -18.1314
 150   2.0000      -0.662712       -18.0333
 151   2.0000      -0.653079       -17.7712
 152   2.0000      -0.651871       -17.7383
 153   2.0000      -0.649695       -17.6791
 154   2.0000      -0.647829       -17.6283
 155   2.0000      -0.643337       -17.5061
 156   2.0000      -0.635484       -17.2924
 157   2.0000      -0.626555       -17.0494
 158   2.0000      -0.620044       -16.8723
 159   2.0000      -0.616025       -16.7629
 160   2.0000      -0.611763       -16.6469
 161   2.0000      -0.607546       -16.5322
 162   2.0000      -0.602574       -16.3969
 163   2.0000      -0.596347       -16.2274
 164   2.0000      -0.593288       -16.1442
 165   2.0000      -0.588062       -16.0020
 166   2.0000      -0.585461       -15.9312
 167   2.0000      -0.581141       -15.8137
 168   2.0000      -0.576368       -15.6838
 169   2.0000      -0.571749       -15.5581
 170   2.0000      -0.568368       -15.4661
 171   2.0000      -0.566231       -15.4079
 172   2.0000      -0.563879       -15.3439
 173   2.0000      -0.562495       -15.3063
 174   2.0000      -0.558930       -15.2093
 175   2.0000      -0.557938       -15.1823
 176   2.0000      -0.557579       -15.1725
 177   2.0000      -0.552972       -15.0471
 178   2.0000      -0.548757       -14.9324
 179   2.0000      -0.547551       -14.8996
 180   2.0000      -0.539387       -14.6775
 181   2.0000      -0.538748       -14.6601
 182   2.0000      -0.536471       -14.5981
 183   2.0000      -0.535421       -14.5695
 184   2.0000      -0.531446       -14.4614
 185   2.0000      -0.527375       -14.3506
 186   2.0000      -0.523144       -14.2355
 187   2.0000      -0.520751       -14.1703
 188   2.0000      -0.514246       -13.9933
 189   2.0000      -0.512842       -13.9552
 190   2.0000      -0.512457       -13.9447
 191   2.0000      -0.511229       -13.9113
 192   2.0000      -0.508239       -13.8299
 193   2.0000      -0.504101       -13.7173
 194   2.0000      -0.502445       -13.6722
 195   2.0000      -0.502134       -13.6638
 196   2.0000      -0.498000       -13.5513
 197   2.0000      -0.497080       -13.5262
 198   2.0000      -0.492454       -13.4003
 199   2.0000      -0.490671       -13.3518
 200   2.0000      -0.484468       -13.1830
 201   2.0000      -0.481566       -13.1041
 202   2.0000      -0.478570       -13.0226
 203   2.0000      -0.478297       -13.0151
 204   2.0000      -0.473219       -12.8769
 205   2.0000      -0.466279       -12.6881
 206   2.0000      -0.464786       -12.6475
 207   2.0000      -0.464291       -12.6340
 208   2.0000      -0.458885       -12.4869
 209   2.0000      -0.457165       -12.4401
 210   2.0000      -0.456548       -12.4233
 211   2.0000      -0.456181       -12.4133
 212   2.0000      -0.452775       -12.3206
 213   2.0000      -0.450971       -12.2715
 214   2.0000      -0.449147       -12.2219
 215   2.0000      -0.448170       -12.1953
 216   2.0000      -0.445805       -12.1310
 217   2.0000      -0.441446       -12.0124
 218   2.0000      -0.439995       -11.9729
 219   2.0000      -0.434771       -11.8307
 220   2.0000      -0.433691       -11.8013
 221   2.0000      -0.431656       -11.7460
 222   2.0000      -0.431414       -11.7394
 223   2.0000      -0.426840       -11.6149
 224   2.0000      -0.426027       -11.5928
 225   2.0000      -0.425013       -11.5652
 226   2.0000      -0.424551       -11.5526
 227   2.0000      -0.421252       -11.4629
 228   2.0000      -0.416838       -11.3427
 229   2.0000      -0.416606       -11.3364
 230   2.0000      -0.415511       -11.3066
 231   2.0000      -0.413596       -11.2545
 232   2.0000      -0.412761       -11.2318
 233   2.0000      -0.409096       -11.1321
 234   2.0000      -0.403910       -10.9910
 235   2.0000      -0.402219       -10.9449
 236   2.0000      -0.400079       -10.8867
 237   2.0000      -0.399239       -10.8638
 238   2.0000      -0.392928       -10.6921
 239   2.0000      -0.390315       -10.6210
 240   2.0000      -0.387715       -10.5502
 241   2.0000      -0.380064       -10.3421
 242   2.0000      -0.374150       -10.1811
 243   2.0000      -0.359558        -9.7841
 244   2.0000      -0.350823        -9.5464
 245   2.0000      -0.345493        -9.4014
 246   2.0000      -0.342333        -9.3154
 247   2.0000      -0.337454        -9.1826
 248   2.0000      -0.332315        -9.0427
 249   2.0000      -0.332236        -9.0406
 250   2.0000      -0.330943        -9.0054
 251   2.0000      -0.317362        -8.6359
 252   2.0000      -0.316534        -8.6133
 253   2.0000      -0.305076        -8.3015
 254   2.0000      -0.296023        -8.0552
 255   2.0000      -0.291555        -7.9336
 256   2.0000      -0.278497        -7.5783
 257   2.0000      -0.270940        -7.3726
 258   2.0000      -0.245780        -6.6880
 259   2.0000      -0.233323        -6.3490
 260   2.0000      -0.217863        -5.9284
 261   0.0000      -0.067515        -1.8372
 262   0.0000      -0.058997        -1.6054
 263   0.0000      -0.053869        -1.4659
 264   0.0000      -0.049166        -1.3379
 265   0.0000      -0.030953        -0.8423

MULLIKEN ATOMIC CHARGES
-----------------------
   0 C :   -0.010456
   1 C :    0.115605
   2 C :   -0.090431
   3 C :    0.038080
   4 C :    0.093653
   5 C :   -0.016403
   6 N :   -0.029199
   7 C :    0.128816
   8 O :   -0.164539
   9 C :   -0.227534
  10 C :    0.090429
  11 C :   -0.138580
  12 N :    0.125040
  13 C :   -0.065952
  14 C :   -0.036257
  15 C :    0.039541
  16 C :    0.072020
  17 C :   -0.130903
  18 S :    0.116008
  19 C :   -0.115598
  20 C :    0.054838
  21 C :   -0.007252
  22 C :   -0.068927
  23 S :    0.127894
  24 C :    0.096928
  25 C :   -0.026396
  26 C :    0.004063
  27 C :    0.009160
  28 C :   -0.113575
  29 C :    0.087380
  30 C :   -0.145778
  31 S :    0.098394
  32 C :    0.136647
  33 O :   -0.315855
  34 C :    0.189754
  35 C :    0.077548
  36 C :   -0.146668
  37 C :    0.134800
  38 O :   -0.316315
  39 C :    0.184339
  40 S :    0.137228
  41 C :   -0.014373
  42 C :   -0.108105
  43 C :   -0.019164
  44 C :   -0.057148
  45 C :    0.050723
  46 C :    0.065848
  47 C :   -0.129120
  48 S :    0.134933
  49 C :   -0.116460
  50 C :    0.050985
  51 C :   -0.010284
  52 C :   -0.066676
  53 S :    0.125991
  54 C :    0.083289
  55 C :    0.011507
  56 C :   -0.018753
  57 C :    0.141184
  58 C :   -0.006130
  59 C :   -0.014985
  60 C :    0.089221
  61 C :    0.045100
  62 C :   -0.096760
  63 C :    0.089082
  64 C :   -0.229384
  65 C :    0.123794
  66 O :   -0.170742
  67 N :   -0.026517
  68 C :   -0.139075
  69 N :    0.121132
  70 H :   -0.001731
  71 H :   -0.007071
  72 H :   -0.026804
  73 H :    0.134391
  74 H :    0.010824
  75 H :   -0.020790
  76 H :    0.035368
  77 H :   -0.015886
  78 H :    0.023938
  79 H :   -0.027096
  80 H :   -0.043455
  81 H :   -0.044774
  82 H :    0.030204
  83 H :    0.027564
  84 H :    0.030998
  85 H :    0.035847
  86 H :    0.030643
  87 H :    0.029871
  88 H :   -0.051696
  89 H :   -0.040563
  90 H :    0.033742
  91 H :   -0.015058
  92 H :    0.024076
  93 H :   -0.053688
  94 H :   -0.051389
  95 H :   -0.022634
  96 H :   -0.037326
  97 H :   -0.026905
  98 H :    0.007026
  99 H :    0.131717
Sum of atomic charges:   -0.0000000

LOEWDIN ATOMIC CHARGES
----------------------
   0 C :    0.016277
   1 C :   -0.053346
   2 C :   -0.001390
   3 C :   -0.059819
   4 C :    0.052241
   5 C :   -0.044413
   6 N :    0.048434
   7 C :    0.070849
   8 O :   -0.189787
   9 C :   -0.110384
  10 C :    0.068082
  11 C :   -0.024674
  12 N :   -0.041475
  13 C :   -0.162072
  14 C :   -0.024576
  15 C :   -0.023249
  16 C :   -0.048035
  17 C :   -0.142553
  18 S :    0.446848
  19 C :   -0.201843
  20 C :   -0.036516
  21 C :   -0.066622
  22 C :   -0.167308
  23 S :    0.423533
  24 C :   -0.049339
  25 C :   -0.020832
  26 C :   -0.052185
  27 C :   -0.144500
  28 C :   -0.074205
  29 C :   -0.071730
  30 C :   -0.171815
  31 S :    0.399375
  32 C :    0.020303
  33 O :   -0.111101
  34 C :    0.076601
  35 C :   -0.073908
  36 C :   -0.173014
  37 C :    0.021935
  38 O :   -0.110480
  39 C :    0.078434
  40 S :    0.406469
  41 C :   -0.177358
  42 C :   -0.062868
  43 C :   -0.178136
  44 C :   -0.022392
  45 C :   -0.019479
  46 C :   -0.050541
  47 C :   -0.141590
  48 S :    0.448493
  49 C :   -0.202324
  50 C :   -0.036856
  51 C :   -0.068368
  52 C :   -0.167168
  53 S :    0.421258
  54 C :   -0.056030
  55 C :   -0.014213
  56 C :   -0.042485
  57 C :   -0.033023
  58 C :    0.012088
  59 C :   -0.048744
  60 C :    0.046935
  61 C :   -0.062534
  62 C :    0.003920
  63 C :    0.068468
  64 C :   -0.114397
  65 C :    0.068777
  66 O :   -0.196753
  67 N :    0.048131
  68 C :   -0.024232
  69 N :   -0.046876
  70 H :    0.036341
  71 H :    0.025751
  72 H :    0.033287
  73 H :    0.099848
  74 H :    0.048013
  75 H :    0.035253
  76 H :    0.036079
  77 H :    0.027376
  78 H :    0.023150
  79 H :    0.017362
  80 H :    0.027794
  81 H :    0.022579
  82 H :    0.028621
  83 H :    0.015962
  84 H :    0.015208
  85 H :    0.030104
  86 H :    0.017392
  87 H :    0.015858
  88 H :    0.020110
  89 H :    0.031387
  90 H :    0.035975
  91 H :    0.027061
  92 H :    0.023008
  93 H :    0.019526
  94 H :    0.024082
  95 H :    0.028644
  96 H :    0.029138
  97 H :    0.030415
  98 H :    0.046574
  99 H :    0.098190

  Mayer bond orders larger than 0.100000
B(  0-C ,  1-C ) :   1.3058 B(  0-C ,  5-C ) :   1.4417 B(  0-C , 70-H ) :   0.9865
B(  1-C ,  2-C ) :   1.3727 B(  1-C , 13-C ) :   1.0216 B(  2-C ,  3-C ) :   1.2903
B(  2-C , 71-H ) :   0.9889 B(  3-C ,  4-C ) :   1.3015 B(  3-C , 10-C ) :   1.1296
B(  4-C ,  5-C ) :   1.2874 B(  4-C ,  6-N ) :   1.2011 B(  5-C , 72-H ) :   0.9926
B(  6-N ,  7-C ) :   1.0843 B(  6-N , 73-H ) :   0.9020 B(  7-C ,  8-O ) :   2.2458
B(  7-C ,  9-C ) :   0.9498 B(  9-C , 10-C ) :   1.6449 B(  9-C , 11-C ) :   1.1105
B( 10-C , 74-H ) :   0.9855 B( 11-C , 12-N ) :   3.0432 B( 13-C , 14-C ) :   1.5998
B( 13-C , 18-S ) :   1.0516 B( 14-C , 15-C ) :   1.2048 B( 14-C , 75-H ) :   0.9637
B( 15-C , 16-C ) :   1.0481 B( 15-C , 24-C ) :   1.4134 B( 16-C , 17-C ) :   1.6115
B( 16-C , 19-C ) :   1.1792 B( 17-C , 18-S ) :   1.1301 B( 17-C , 76-H ) :   0.9418
B( 19-C , 20-C ) :   1.4559 B( 19-C , 23-S ) :   1.0768 B( 20-C , 21-C ) :   1.2144
B( 20-C , 24-C ) :   1.0699 B( 21-C , 22-C ) :   1.5835 B( 21-C , 77-H ) :   1.0011
B( 22-C , 23-S ) :   1.1589 B( 22-C , 78-H ) :   0.9652 B( 24-C , 25-C ) :   1.1691
B( 25-C , 26-C ) :   1.6208 B( 25-C , 79-H ) :   0.9532 B( 26-C , 27-C ) :   1.1423
B( 26-C , 80-H ) :   0.9860 B( 27-C , 28-C ) :   1.5484 B( 27-C , 31-S ) :   1.0498
B( 28-C , 29-C ) :   1.1335 B( 28-C , 81-H ) :   1.0037 B( 29-C , 30-C ) :   1.3216
B( 29-C , 37-C ) :   1.2088 B( 30-C , 31-S ) :   1.0386 B( 30-C , 32-C ) :   1.4249
B( 32-C , 33-O ) :   1.2426 B( 32-C , 35-C ) :   1.2052 B( 33-O , 34-C ) :   0.9611
B( 34-C , 82-H ) :   0.9726 B( 34-C , 83-H ) :   0.9672 B( 34-C , 84-H ) :   0.9670
B( 35-C , 36-C ) :   1.3284 B( 35-C , 42-C ) :   1.1583 B( 36-C , 37-C ) :   1.4168
B( 36-C , 40-S ) :   1.0400 B( 37-C , 38-O ) :   1.2489 B( 38-O , 39-C ) :   0.9538
B( 39-C , 85-H ) :   0.9747 B( 39-C , 86-H ) :   0.9687 B( 39-C , 87-H ) :   0.9695
B( 40-S , 41-C ) :   1.0592 B( 41-C , 42-C ) :   1.6100 B( 41-C , 43-C ) :   1.0883
B( 42-C , 88-H ) :   0.9841 B( 43-C , 44-C ) :   1.5839 B( 43-C , 48-S ) :   1.0455
B( 44-C , 45-C ) :   1.2211 B( 44-C , 89-H ) :   0.9654 B( 45-C , 46-C ) :   1.0475
B( 45-C , 54-C ) :   1.3947 B( 46-C , 47-C ) :   1.6070 B( 46-C , 49-C ) :   1.1799
B( 47-C , 48-S ) :   1.1421 B( 47-C , 90-H ) :   0.9403 B( 49-C , 50-C ) :   1.4516
B( 49-C , 53-S ) :   1.0753 B( 50-C , 51-C ) :   1.2115 B( 50-C , 54-C ) :   1.0794
B( 51-C , 52-C ) :   1.5855 B( 51-C , 91-H ) :   0.9995 B( 52-C , 53-S ) :   1.1561
B( 52-C , 92-H ) :   0.9644 B( 54-C , 55-C ) :   1.1628 B( 55-C , 56-C ) :   1.6499
B( 55-C , 93-H ) :   0.9518 B( 56-C , 57-C ) :   1.0719 B( 56-C , 94-H ) :   0.9912
B( 57-C , 58-C ) :   1.2746 B( 57-C , 62-C ) :   1.3546 B( 58-C , 59-C ) :   1.4492
B( 58-C , 95-H ) :   0.9855 B( 59-C , 60-C ) :   1.2842 B( 59-C , 96-H ) :   0.9895
B( 60-C , 61-C ) :   1.3027 B( 60-C , 67-N ) :   1.1950 B( 61-C , 62-C ) :   1.2622
B( 61-C , 63-C ) :   1.1310 B( 62-C , 97-H ) :   1.0101 B( 63-C , 64-C ) :   1.6394
B( 63-C , 98-H ) :   0.9866 B( 64-C , 65-C ) :   0.9516 B( 64-C , 68-C ) :   1.1097
B( 65-C , 66-O ) :   2.2407 B( 65-C , 67-N ) :   1.0912 B( 67-N , 99-H ) :   0.9027
B( 68-C , 69-N ) :   3.0438

-----------------------------------------------------------------------------
         ABSORPTION SPECTRUM VIA TRANSITION ELECTRIC DIPOLE MOMENTS
-----------------------------------------------------------------------------
State   Energy  Wavelength   fosc         T2         TX        TY        TZ
        (cm-1)    (nm)                  (au**2)     (au)      (au)      (au)
-----------------------------------------------------------------------------
   0   18749.7    533.3   1.267683505  22.25828  -2.76809   0.59106   3.77447
   1   20859.2    479.4   0.481314594   7.59638   0.17381  -2.70957   0.47372
   2   22384.5    446.7   0.124292547   1.82799   0.80147   0.12384  -1.08181
   3   22887.2    436.9   0.020612863   0.29650   0.04559   0.23946  -0.48691
   4   23521.4    425.1   0.056996134   0.79773   0.57502   0.36207  -0.57965
   5   23928.2    417.9   0.459275214   6.31884  -0.11251  -2.37156   0.82577
   6   24471.2    408.6   0.518404039   6.97410  -0.99820   2.29466   0.84395
   7   24788.1    403.4   0.060352404   0.80154  -0.04519   0.87779  -0.17023
   8   28057.8    356.4   0.130698201   1.53353  -0.68840  -0.19327   1.01108
   9   28492.3    351.0   0.041609316   0.48077  -0.27622   0.00826   0.63593
  10   28934.3    345.6   0.086707619   0.98655  -0.34429   0.81553   0.45047
  11   29603.3    337.8   0.011613748   0.12915  -0.21291   0.26776   0.11013
  12   30174.9    331.4   0.267916419   2.92300  -0.84629  -0.72884   1.29444
  13   30452.5    328.4   0.412647912   4.46101  -0.57875   1.97507   0.47449
  14   30652.3    326.2   0.121050422   1.30011   0.71336  -0.55546  -0.69475
  15   31632.0    316.1   0.154849322   1.61160  -0.29754   1.22495  -0.15025
  16   31872.7    313.7   0.262276748   2.70905  -0.34967   1.59622   0.19709
  17   32125.9    311.3   0.253145868   2.59413  -0.41313   1.23408   0.94895
  18   32634.0    306.4   0.189584677   1.91253  -0.64117  -0.46337   1.13434
  19   32919.5    303.8   0.168080436   1.68089   0.75716  -0.43012  -0.96052
  20   34045.3    293.7   0.465431267   4.50064   0.88498   1.24869  -1.46909
  21   34123.6    293.1   0.044293487   0.42733   0.13866   0.17969  -0.61304
  22   34565.4    289.3   0.031558499   0.30057   0.29734   0.34918  -0.30040
  23   34950.2    286.1   0.129051005   1.21559  -0.53838   0.75233   0.59978
  24   35500.1    281.7   0.181252660   1.68086  -0.26780   1.26813   0.03135
  25   36317.6    275.3   0.555745909   5.03773   0.25390   2.07043  -0.82859
  26   36618.7    273.1   0.110500039   0.99342   0.33997  -0.87270  -0.34093
  27   36794.8    271.8   0.033740703   0.30189   0.26607  -0.35647  -0.32253
  28   36912.7    270.9   0.112797216   1.00600  -0.50299  -0.25318   0.83000
  29   37433.4    267.1   0.038300265   0.33684  -0.03294  -0.56632   0.12262
  30   37545.9    266.3   0.141321245   1.23914   0.11208  -0.88376   0.66750
  31   37683.1    265.4   0.014702311   0.12844  -0.17246  -0.29388   0.11107
  32   37763.7    264.8   0.001317002   0.01148   0.07774   0.03554   0.06462
  33   38090.5    262.5   0.047192508   0.40788   0.27369  -0.55838  -0.14556
  34   38268.6    261.3   0.704048246   6.05669  -0.03284   2.32923  -0.79390
  35   38820.4    257.6   0.033352548   0.28284   0.29432   0.05432  -0.43962
  36   39126.3    255.6   0.059120415   0.49744   0.35876  -0.44040  -0.41807
  37   39298.5    254.5   0.562230615   4.70993  -1.02913  -0.68106   1.78521
  38   39583.5    252.6   0.007269841   0.06046   0.12810  -0.15901  -0.13700
  39   39855.6    250.9   0.097508750   0.80543   0.14902  -0.88492   0.01173
  40   40246.9    248.5   0.092508572   0.75670   0.22929   0.76809  -0.33790

FINAL SINGLE POINT ENERGY     -5056.956963681610

DIPOLE MOMENT
-------------
                                X             Y             Z
Electronic contribution:     -4.09760       6.64075       9.12811
Nuclear contribution   :      2.91523     -13.04726      -7.74942
                        -----------------------------------------
Total Dipole Moment    :     -1.18237      -6.40652       1.37869
                        -----------------------------------------
Magnitude (a.u.)       :      6.65900
Magnitude (Debye)      :     16.92582

Rotational constants in cm-1:     0.000752     0.000317     0.000224
Rotational constants in MHz :    22.544851     9.501615     6.707890

                             ****ORCA TERMINATED NORMALLY****
TOTAL RUN TIME: 0 days 0 hours 12 minutes 58 seconds 98 msec
