                         Program Version 4.2.0 -  RELEASE  -
|  1> # ORCA input file
|  2> # SCF done       -202.752315573828          0.000963242622
|  3> ! CAM-B3LYP def2-SVP def2/J RIJCOSX Grid4 TightSCF
|  4> %maxcore 5000
|  5> %tddft
|  6>     Mode sTDDFT
|  7>     Ethresh 5.0
|  8>     maxcore 5000
|  9> end
| 10>
| 11> %pal
| 12>   nprocs 6
| 13>   end
| 14> * xyz 0 1
| 15>    C       -5.73915        -2.62999        -1.44060
| 16>    C       -7.10158        -2.75134        -1.33747
| 17>    C       -7.85047        -3.78231        -1.94340
| 18>    N       -8.51916        -4.58959        -2.41126
| 19>    C       -7.95494        -1.90309        -0.59993
| 20>    N       -8.72799        -1.28430        -0.01797
| 21>    C       -4.85909        -3.55857        -2.13577
| 22>    C       -3.51700        -3.17189        -1.90080
| 23>    C       -2.44753        -3.85661        -2.42577
| 24>    C       -2.71317        -4.97604        -3.21991
| 25>    C       -4.05816        -5.35234        -3.45319
| 26>    C       -5.14007        -4.66052        -2.92285
| 27>    S       -4.15042        -6.75698        -4.46872
| 28>    C       -2.42514        -6.82816        -4.56823
| 29>    C       -1.80127        -5.84945        -3.87681
| 30>    C       -3.48060        -1.95902        -1.05708
| 31>    O       -2.48237        -1.37283        -0.71317
| 32>    C       -4.91402        -1.60749        -0.81827
| 33>    C       -5.39351        -0.45489        -0.26885
| 34>    C       -4.67203         0.54913         0.41743
| 35>    C       -5.12186         1.87479         0.64304
| 36>    C       -4.07852         2.53696         1.32532
| 37>    C       -3.06308         1.54726         1.49569
| 38>    N       -3.44127         0.38536         0.96914
| 39>    O       -1.90059         1.74598         2.07706
| 40>    C       -1.02524         0.62425         2.11104
| 41>    C       -4.50103         3.87539         1.49471
| 42>    N       -5.74858         4.04497         0.96395
| 43>    C       -6.12981         2.87226         0.45245
| 44>    O       -7.28086         2.67150        -0.13999
| 45>    C       -8.16817         3.77790        -0.19340
| 46>    C       -3.79848         4.94555         2.07614
| 47>    C       -4.22002         6.26890         2.15767
| 48>    C       -3.26618         7.07413         2.75963
| 49>    C       -2.10940         6.35659         3.15044
| 50>    S       -2.20334         4.69708         2.76483
| 51>    C       -1.19831         7.25932         3.74118
| 52>    C       -1.76890         8.55566         3.71680
| 53>    C       -3.08636         8.47480         3.10701
| 54>    C       -3.96687         9.49587         2.90408
| 55>    C       -5.22750         9.29640         2.30113
| 56>    N       -6.25325         9.14835         1.81125
| 57>    C       -3.68188        10.82430         3.28668
| 58>    N       -3.46210        11.90729         3.59126
| 59>    C       -0.93455         9.51937         4.26006
| 60>    C        0.26303         8.97020         4.70736
| 61>    S        0.35395         7.23638         4.44886
| 62>    C        1.33170         9.66346         5.30111
| 63>    C        2.53963         9.14749         5.81559
| 64>    C        3.27418        10.25420         6.29840
| 65>    C        2.44225        11.39118         6.02881
| 66>    N        1.30189        11.02497         5.44859
| 67>    O        2.75408        12.63212         6.31149
| 68>    C        1.80288        13.61991         5.94439
| 69>    C        4.48498         9.74060         6.80625
| 70>    N        4.49505         8.37591         6.67190
| 71>    C        3.36033         8.01286         6.08201
| 72>    O        3.03691         6.76968         5.78909
| 73>    C        4.00768         5.77890         6.08603
| 74>    C        5.51843        10.47668         7.42749
| 75>    C        6.70489        10.00936         7.90362
| 76>    C        7.33632         8.71259         7.77970
| 77>    C        7.24815         7.87236         6.70481
| 78>    C        7.85967         6.60542         6.64397
| 79>    N        8.30032         5.54891         6.54966
| 80>    C        6.62624         8.21322         5.48112
| 81>    N        6.29534         8.45132         4.40704
| 82>    C        8.25437         8.57374         8.90435
| 83>    C        8.36936         9.83039         9.55575
| 84>    C        7.46961        10.80272         8.90813
| 85>    O        7.33179        11.97711         9.16317
| 86>    C        9.20474        10.02810        10.62939
| 87>    C        9.95077         8.93806        11.08715
| 88>    C        9.81893         7.68647        10.43793
| 89>    C        8.98156         7.48605         9.34638
| 90>    S       10.82785         6.48508        11.17913
| 91>    C       11.40879         7.64410        12.32516
| 92>    C       10.87584         8.87502        12.16778
| 93>    H       -1.43634        -3.53600        -2.22825
| 94>    H       -6.14550        -4.98297        -3.13573
| 95>    H       -1.97773        -7.61140        -5.14890
| 96>    H       -0.73360        -5.73557        -3.82474
| 97>    H       -6.44676        -0.22753        -0.38432
| 98>    H       -1.27301        -0.00840         2.96586
| 99>    H       -0.01851         1.02272         2.21891
|100>    H       -1.12999         0.03940         1.19607
|101>    H       -8.39587         4.12986         0.81410
|102>    H       -9.06787         3.41905        -0.68770
|103>    H       -7.71781         4.59793        -0.75576
|104>    H       -5.17668         6.57572         1.77694
|105>    H       -1.13576        10.57092         4.34971
|106>    H        2.21786        14.57309         6.26379
|107>    H        0.84791        13.42861         6.43690
|108>    H        1.64572        13.61011         4.86437
|109>    H        4.88430         5.90567         5.44726
|110>    H        3.53227         4.82070         5.88888
|111>    H        4.31804         5.84812         7.13019
|112>    H        5.29595        11.51886         7.62959
|113>    H        9.28003        10.99567        11.10099
|114>    H        8.90967         6.51526         8.88374
|115>    H       12.12505         7.32523        13.05725
|116>    H       11.11817         9.71995        12.78660
|117> *
|118>
|119>                          ****END OF INPUT****

CARTESIAN COORDINATES (ANGSTROEM)
---------------------------------
  C     -5.739150   -2.629990   -1.440600
  C     -7.101580   -2.751340   -1.337470
  C     -7.850470   -3.782310   -1.943400
  N     -8.519160   -4.589590   -2.411260
  C     -7.954940   -1.903090   -0.599930
  N     -8.727990   -1.284300   -0.017970
  C     -4.859090   -3.558570   -2.135770
  C     -3.517000   -3.171890   -1.900800
  C     -2.447530   -3.856610   -2.425770
  C     -2.713170   -4.976040   -3.219910
  C     -4.058160   -5.352340   -3.453190
  C     -5.140070   -4.660520   -2.922850
  S     -4.150420   -6.756980   -4.468720
  C     -2.425140   -6.828160   -4.568230
  C     -1.801270   -5.849450   -3.876810
  C     -3.480600   -1.959020   -1.057080
  O     -2.482370   -1.372830   -0.713170
  C     -4.914020   -1.607490   -0.818270
  C     -5.393510   -0.454890   -0.268850
  C     -4.672030    0.549130    0.417430
  C     -5.121860    1.874790    0.643040
  C     -4.078520    2.536960    1.325320
  C     -3.063080    1.547260    1.495690
  N     -3.441270    0.385360    0.969140
  O     -1.900590    1.745980    2.077060
  C     -1.025240    0.624250    2.111040
  C     -4.501030    3.875390    1.494710
  N     -5.748580    4.044970    0.963950
  C     -6.129810    2.872260    0.452450
  O     -7.280860    2.671500   -0.139990
  C     -8.168170    3.777900   -0.193400
  C     -3.798480    4.945550    2.076140
  C     -4.220020    6.268900    2.157670
  C     -3.266180    7.074130    2.759630
  C     -2.109400    6.356590    3.150440
  S     -2.203340    4.697080    2.764830
  C     -1.198310    7.259320    3.741180
  C     -1.768900    8.555660    3.716800
  C     -3.086360    8.474800    3.107010
  C     -3.966870    9.495870    2.904080
  C     -5.227500    9.296400    2.301130
  N     -6.253250    9.148350    1.811250
  C     -3.681880   10.824300    3.286680
  N     -3.462100   11.907290    3.591260
  C     -0.934550    9.519370    4.260060
  C      0.263030    8.970200    4.707360
  S      0.353950    7.236380    4.448860
  C      1.331700    9.663460    5.301110
  C      2.539630    9.147490    5.815590
  C      3.274180   10.254200    6.298400
  C      2.442250   11.391180    6.028810
  N      1.301890   11.024970    5.448590
  O      2.754080   12.632120    6.311490
  C      1.802880   13.619910    5.944390
  C      4.484980    9.740600    6.806250
  N      4.495050    8.375910    6.671900
  C      3.360330    8.012860    6.082010
  O      3.036910    6.769680    5.789090
  C      4.007680    5.778900    6.086030
  C      5.518430   10.476680    7.427490
  C      6.704890   10.009360    7.903620
  C      7.336320    8.712590    7.779700
  C      7.248150    7.872360    6.704810
  C      7.859670    6.605420    6.643970
  N      8.300320    5.548910    6.549660
  C      6.626240    8.213220    5.481120
  N      6.295340    8.451320    4.407040
  C      8.254370    8.573740    8.904350
  C      8.369360    9.830390    9.555750
  C      7.469610   10.802720    8.908130
  O      7.331790   11.977110    9.163170
  C      9.204740   10.028100   10.629390
  C      9.950770    8.938060   11.087150
  C      9.818930    7.686470   10.437930
  C      8.981560    7.486050    9.346380
  S     10.827850    6.485080   11.179130
  C     11.408790    7.644100   12.325160
  C     10.875840    8.875020   12.167780
  H     -1.436340   -3.536000   -2.228250
  H     -6.145500   -4.982970   -3.135730
  H     -1.977730   -7.611400   -5.148900
  H     -0.733600   -5.735570   -3.824740
  H     -6.446760   -0.227530   -0.384320
  H     -1.273010   -0.008400    2.965860
  H     -0.018510    1.022720    2.218910
  H     -1.129990    0.039400    1.196070
  H     -8.395870    4.129860    0.814100
  H     -9.067870    3.419050   -0.687700
  H     -7.717810    4.597930   -0.755760
  H     -5.176680    6.575720    1.776940
  H     -1.135760   10.570920    4.349710
  H      2.217860   14.573090    6.263790
  H      0.847910   13.428610    6.436900
  H      1.645720   13.610110    4.864370
  H      4.884300    5.905670    5.447260
  H      3.532270    4.820700    5.888880
  H      4.318040    5.848120    7.130190
  H      5.295950   11.518860    7.629590
  H      9.280030   10.995670   11.100990
  H      8.909670    6.515260    8.883740
  H     12.125050    7.325230   13.057250
  H     11.118170    9.719950   12.786600

 Total Charge           Charge          ....    0
 Multiplicity           Mult            ....    1
 Number of Electrons    NEL             ....  554
 Basis Dimension        Dim             .... 1228

ORBITAL ENERGIES
----------------

  NO   OCC          E(Eh)            E(eV)
   0   2.0000     -89.001002     -2421.8404
   1   2.0000     -89.000733     -2421.8331
   2   2.0000     -88.965101     -2420.8635
   3   2.0000     -88.965005     -2420.8608
   4   2.0000     -19.285679      -524.7900
   5   2.0000     -19.282730      -524.7098
   6   2.0000     -19.278347      -524.5905
   7   2.0000     -19.272989      -524.4447
   8   2.0000     -19.213557      -522.8275
   9   2.0000     -19.207874      -522.6728
  10   2.0000     -14.436268      -392.8308
  11   2.0000     -14.436081      -392.8257
  12   2.0000     -14.415958      -392.2782
  13   2.0000     -14.413807      -392.2196
  14   2.0000     -14.413540      -392.2124
  15   2.0000     -14.400328      -391.8528
  16   2.0000     -14.398355      -391.7992
  17   2.0000     -14.395297      -391.7159
  18   2.0000     -14.390991      -391.5988
  19   2.0000     -14.380742      -391.3199
  20   2.0000     -10.391986      -282.7803
  21   2.0000     -10.389177      -282.7039
  22   2.0000     -10.379953      -282.4529
  23   2.0000     -10.373841      -282.2866
  24   2.0000     -10.373267      -282.2709
  25   2.0000     -10.363970      -282.0180
  26   2.0000     -10.361971      -281.9636
  27   2.0000     -10.360375      -281.9201
  28   2.0000     -10.349990      -281.6375
  29   2.0000     -10.348194      -281.5887
  30   2.0000     -10.348090      -281.5859
  31   2.0000     -10.347540      -281.5709
  32   2.0000     -10.341624      -281.4099
  33   2.0000     -10.338784      -281.3326
  34   2.0000     -10.338466      -281.3240
  35   2.0000     -10.335904      -281.2542
  36   2.0000     -10.335705      -281.2488
  37   2.0000     -10.332782      -281.1693
  38   2.0000     -10.331689      -281.1395
  39   2.0000     -10.331191      -281.1260
  40   2.0000     -10.330403      -281.1046
  41   2.0000     -10.328995      -281.0663
  42   2.0000     -10.327641      -281.0294
  43   2.0000     -10.326955      -281.0107
  44   2.0000     -10.324706      -280.9495
  45   2.0000     -10.319483      -280.8074
  46   2.0000     -10.319221      -280.8003
  47   2.0000     -10.318601      -280.7834
  48   2.0000     -10.317837      -280.7626
  49   2.0000     -10.317365      -280.7498
  50   2.0000     -10.317219      -280.7458
  51   2.0000     -10.316525      -280.7269
  52   2.0000     -10.316112      -280.7157
  53   2.0000     -10.315378      -280.6957
  54   2.0000     -10.314793      -280.6798
  55   2.0000     -10.313077      -280.6331
  56   2.0000     -10.312342      -280.6131
  57   2.0000     -10.309677      -280.5406
  58   2.0000     -10.308275      -280.5024
  59   2.0000     -10.307987      -280.4946
  60   2.0000     -10.304991      -280.4131
  61   2.0000     -10.303856      -280.3822
  62   2.0000     -10.302536      -280.3463
  63   2.0000     -10.301163      -280.3089
  64   2.0000     -10.300476      -280.2902
  65   2.0000     -10.300307      -280.2856
  66   2.0000     -10.300087      -280.2796
  67   2.0000     -10.299546      -280.2649
  68   2.0000     -10.297507      -280.2094
  69   2.0000     -10.295712      -280.1606
  70   2.0000     -10.288803      -279.9726
  71   2.0000     -10.287724      -279.9432
  72   2.0000     -10.287716      -279.9430
  73   2.0000     -10.286865      -279.9198
  74   2.0000     -10.268842      -279.4294
  75   2.0000     -10.264818      -279.3199
  76   2.0000     -10.263957      -279.2965
  77   2.0000     -10.262221      -279.2492
  78   2.0000      -8.095187      -220.2812
  79   2.0000      -8.094843      -220.2719
  80   2.0000      -8.061389      -219.3616
  81   2.0000      -8.061232      -219.3573
  82   2.0000      -6.064317      -165.0185
  83   2.0000      -6.063954      -165.0086
  84   2.0000      -6.060064      -164.9027
  85   2.0000      -6.059741      -164.8939
  86   2.0000      -6.057756      -164.8399
  87   2.0000      -6.057451      -164.8316
  88   2.0000      -6.030927      -164.1099
  89   2.0000      -6.030749      -164.1050
  90   2.0000      -6.026596      -163.9920
  91   2.0000      -6.026459      -163.9883
  92   2.0000      -6.023037      -163.8952
  93   2.0000      -6.022899      -163.8914
  94   2.0000      -1.198515       -32.6132
  95   2.0000      -1.195400       -32.5285
  96   2.0000      -1.189924       -32.3795
  97   2.0000      -1.184658       -32.2362
  98   2.0000      -1.127984       -30.6940
  99   2.0000      -1.124306       -30.5939
 100   2.0000      -1.067289       -29.0424
 101   2.0000      -1.063690       -28.9445
 102   2.0000      -1.054313       -28.6893
 103   2.0000      -1.038174       -28.2502
 104   2.0000      -1.032420       -28.0936
 105   2.0000      -1.027840       -27.9689
 106   2.0000      -1.017934       -27.6994
 107   2.0000      -1.015567       -27.6350
 108   2.0000      -1.013370       -27.5752
 109   2.0000      -1.006438       -27.3866
 110   2.0000      -1.005041       -27.3486
 111   2.0000      -1.004002       -27.3203
 112   2.0000      -0.991988       -26.9934
 113   2.0000      -0.986884       -26.8545
 114   2.0000      -0.982404       -26.7326
 115   2.0000      -0.980207       -26.6728
 116   2.0000      -0.966703       -26.3053
 117   2.0000      -0.928792       -25.2737
 118   2.0000      -0.927439       -25.2369
 119   2.0000      -0.923699       -25.1351
 120   2.0000      -0.900641       -24.5077
 121   2.0000      -0.900011       -24.4905
 122   2.0000      -0.883311       -24.0361
 123   2.0000      -0.879363       -23.9287
 124   2.0000      -0.879142       -23.9227
 125   2.0000      -0.877582       -23.8802
 126   2.0000      -0.873276       -23.7631
 127   2.0000      -0.870524       -23.6882
 128   2.0000      -0.866258       -23.5721
 129   2.0000      -0.861113       -23.4321
 130   2.0000      -0.855618       -23.2826
 131   2.0000      -0.848477       -23.0882
 132   2.0000      -0.831190       -22.6178
 133   2.0000      -0.826494       -22.4900
 134   2.0000      -0.822286       -22.3756
 135   2.0000      -0.820804       -22.3352
 136   2.0000      -0.820714       -22.3328
 137   2.0000      -0.805109       -21.9081
 138   2.0000      -0.797705       -21.7066
 139   2.0000      -0.796628       -21.6773
 140   2.0000      -0.784985       -21.3605
 141   2.0000      -0.761044       -20.7090
 142   2.0000      -0.756343       -20.5811
 143   2.0000      -0.752735       -20.4830
 144   2.0000      -0.745216       -20.2784
 145   2.0000      -0.735840       -20.0232
 146   2.0000      -0.708926       -19.2909
 147   2.0000      -0.706119       -19.2145
 148   2.0000      -0.701907       -19.0999
 149   2.0000      -0.697334       -18.9754
 150   2.0000      -0.693166       -18.8620
 151   2.0000      -0.689505       -18.7624
 152   2.0000      -0.686718       -18.6866
 153   2.0000      -0.685493       -18.6532
 154   2.0000      -0.683083       -18.5876
 155   2.0000      -0.675557       -18.3828
 156   2.0000      -0.673608       -18.3298
 157   2.0000      -0.667779       -18.1712
 158   2.0000      -0.662954       -18.0399
 159   2.0000      -0.659779       -17.9535
 160   2.0000      -0.657965       -17.9041
 161   2.0000      -0.656433       -17.8625
 162   2.0000      -0.638539       -17.3755
 163   2.0000      -0.637655       -17.3515
 164   2.0000      -0.629219       -17.1219
 165   2.0000      -0.627178       -17.0664
 166   2.0000      -0.624781       -17.0012
 167   2.0000      -0.617703       -16.8086
 168   2.0000      -0.616514       -16.7762
 169   2.0000      -0.615868       -16.7586
 170   2.0000      -0.607041       -16.5184
 171   2.0000      -0.605533       -16.4774
 172   2.0000      -0.592364       -16.1190
 173   2.0000      -0.591363       -16.0918
 174   2.0000      -0.585153       -15.9228
 175   2.0000      -0.583826       -15.8867
 176   2.0000      -0.581748       -15.8302
 177   2.0000      -0.579693       -15.7743
 178   2.0000      -0.573667       -15.6103
 179   2.0000      -0.570156       -15.5147
 180   2.0000      -0.567907       -15.4535
 181   2.0000      -0.567265       -15.4361
 182   2.0000      -0.565584       -15.3903
 183   2.0000      -0.561902       -15.2901
 184   2.0000      -0.557556       -15.1719
 185   2.0000      -0.545808       -14.8522
 186   2.0000      -0.544246       -14.8097
 187   2.0000      -0.541171       -14.7260
 188   2.0000      -0.536477       -14.5983
 189   2.0000      -0.534520       -14.5450
 190   2.0000      -0.533209       -14.5093
 191   2.0000      -0.529664       -14.4129
 192   2.0000      -0.529070       -14.3967
 193   2.0000      -0.528008       -14.3678
 194   2.0000      -0.525277       -14.2935
 195   2.0000      -0.523002       -14.2316
 196   2.0000      -0.521055       -14.1786
 197   2.0000      -0.517805       -14.0902
 198   2.0000      -0.516894       -14.0654
 199   2.0000      -0.513667       -13.9776
 200   2.0000      -0.510147       -13.8818
 201   2.0000      -0.508346       -13.8328
 202   2.0000      -0.506922       -13.7941
 203   2.0000      -0.504440       -13.7265
 204   2.0000      -0.499792       -13.6000
 205   2.0000      -0.498775       -13.5724
 206   2.0000      -0.498373       -13.5614
 207   2.0000      -0.495156       -13.4739
 208   2.0000      -0.492367       -13.3980
 209   2.0000      -0.491181       -13.3657
 210   2.0000      -0.488798       -13.3009
 211   2.0000      -0.487902       -13.2765
 212   2.0000      -0.485601       -13.2139
 213   2.0000      -0.483965       -13.1693
 214   2.0000      -0.482605       -13.1323
 215   2.0000      -0.471633       -12.8338
 216   2.0000      -0.470862       -12.8128
 217   2.0000      -0.466969       -12.7069
 218   2.0000      -0.465386       -12.6638
 219   2.0000      -0.463738       -12.6190
 220   2.0000      -0.463428       -12.6105
 221   2.0000      -0.463048       -12.6002
 222   2.0000      -0.457038       -12.4366
 223   2.0000      -0.452370       -12.3096
 224   2.0000      -0.451511       -12.2862
 225   2.0000      -0.450542       -12.2599
 226   2.0000      -0.447572       -12.1791
 227   2.0000      -0.446563       -12.1516
 228   2.0000      -0.446355       -12.1459
 229   2.0000      -0.445691       -12.1279
 230   2.0000      -0.444402       -12.0928
 231   2.0000      -0.442026       -12.0281
 232   2.0000      -0.441434       -12.0120
 233   2.0000      -0.440215       -11.9789
 234   2.0000      -0.436968       -11.8905
 235   2.0000      -0.436349       -11.8737
 236   2.0000      -0.434163       -11.8142
 237   2.0000      -0.432450       -11.7676
 238   2.0000      -0.431793       -11.7497
 239   2.0000      -0.431095       -11.7307
 240   2.0000      -0.430437       -11.7128
 241   2.0000      -0.429161       -11.6781
 242   2.0000      -0.427853       -11.6425
 243   2.0000      -0.426495       -11.6055
 244   2.0000      -0.425508       -11.5787
 245   2.0000      -0.424465       -11.5503
 246   2.0000      -0.420668       -11.4470
 247   2.0000      -0.418481       -11.3874
 248   2.0000      -0.417700       -11.3662
 249   2.0000      -0.415694       -11.3116
 250   2.0000      -0.412261       -11.2182
 251   2.0000      -0.406037       -11.0488
 252   2.0000      -0.403178       -10.9710
 253   2.0000      -0.393203       -10.6996
 254   2.0000      -0.387625       -10.5478
 255   2.0000      -0.379006       -10.3133
 256   2.0000      -0.378645       -10.3034
 257   2.0000      -0.374397       -10.1879
 258   2.0000      -0.372488       -10.1359
 259   2.0000      -0.366308        -9.9677
 260   2.0000      -0.359605        -9.7853
 261   2.0000      -0.346919        -9.4402
 262   2.0000      -0.344628        -9.3778
 263   2.0000      -0.338728        -9.2173
 264   2.0000      -0.336032        -9.1439
 265   2.0000      -0.330971        -9.0062
 266   2.0000      -0.330117        -8.9829
 267   2.0000      -0.315350        -8.5811
 268   2.0000      -0.313306        -8.5255
 269   2.0000      -0.309779        -8.4295
 270   2.0000      -0.309560        -8.4236
 271   2.0000      -0.299048        -8.1375
 272   2.0000      -0.294311        -8.0086
 273   2.0000      -0.292127        -7.9492
 274   2.0000      -0.291313        -7.9270
 275   2.0000      -0.271356        -7.3840
 276   2.0000      -0.250309        -6.8113
 277   0.0000      -0.132476        -3.6049
 278   0.0000      -0.106823        -2.9068
 279   0.0000      -0.105040        -2.8583
 280   0.0000      -0.067954        -1.8491
 281   0.0000      -0.063500        -1.7279

MULLIKEN ATOMIC CHARGES
-----------------------
   0 C :    0.304225
   1 C :   -0.346902
   2 C :   -0.186133
   3 N :    0.149867
   4 C :   -0.195012
   5 N :    0.165138
   6 C :    0.020829
   7 C :   -0.022313
   8 C :   -0.070286
   9 C :    0.117306
  10 C :   -0.094039
  11 C :   -0.023694
  12 S :    0.139531
  13 C :   -0.049596
  14 C :    0.022696
  15 C :    0.144193
  16 O :   -0.106627
  17 C :   -0.051800
  18 C :   -0.057154
  19 C :   -0.009562
  20 C :    0.030117
  21 C :   -0.033378
  22 C :    0.073249
  23 N :   -0.130689
  24 O :   -0.269245
  25 C :    0.176082
  26 C :    0.083885
  27 N :   -0.187489
  28 C :    0.107491
  29 O :   -0.236033
  30 C :    0.195003
  31 C :   -0.101927
  32 C :   -0.057119
  33 C :    0.040365
  34 C :   -0.087231
  35 S :    0.247017
  36 C :   -0.085752
  37 C :    0.037006
  38 C :    0.303445
  39 C :   -0.292982
  40 C :   -0.193996
  41 N :    0.185834
  42 C :   -0.192100
  43 N :    0.185447
  44 C :   -0.056703
  45 C :   -0.104122
  46 S :    0.246985
  47 C :    0.082536
  48 C :   -0.027839
  49 C :    0.055453
  50 C :    0.103132
  51 N :   -0.186547
  52 O :   -0.238245
  53 C :    0.198287
  54 C :    0.018650
  55 N :   -0.214811
  56 C :    0.102531
  57 O :   -0.266834
  58 C :    0.190501
  59 C :    0.002302
  60 C :   -0.087389
  61 C :    0.268413
  62 C :   -0.274204
  63 C :   -0.200208
  64 N :    0.149725
  65 C :   -0.190672
  66 N :    0.146734
  67 C :    0.017355
  68 C :   -0.009100
  69 C :    0.133969
  70 O :   -0.139665
  71 C :   -0.063677
  72 C :    0.107598
  73 C :   -0.089905
  74 C :   -0.029827
  75 S :    0.136491
  76 C :   -0.051824
  77 C :    0.026589
  78 H :   -0.014952
  79 H :   -0.007477
  80 H :    0.038753
  81 H :   -0.006036
  82 H :    0.017243
  83 H :    0.031060
  84 H :    0.029439
  85 H :    0.069470
  86 H :    0.039490
  87 H :    0.046646
  88 H :    0.038275
  89 H :    0.025233
  90 H :    0.025660
  91 H :    0.042360
  92 H :    0.038452
  93 H :    0.040309
  94 H :    0.047917
  95 H :    0.032834
  96 H :    0.038418
  97 H :    0.011398
  98 H :   -0.011281
  99 H :   -0.007960
 100 H :    0.038259
 101 H :   -0.006854
Sum of atomic charges:   -0.0000000

LOEWDIN ATOMIC CHARGES
----------------------
   0 C :    0.072656
   1 C :   -0.134885
   2 C :   -0.017332
   3 N :   -0.052179
   4 C :   -0.024377
   5 N :   -0.047397
   6 C :   -0.024227
   7 C :   -0.051655
   8 C :    0.021094
   9 C :   -0.033818
  10 C :   -0.145688
  11 C :   -0.009625
  12 S :    0.428142
  13 C :   -0.149180
  14 C :   -0.058723
  15 C :    0.079415
  16 O :   -0.115439
  17 C :   -0.059494
  18 C :    0.051892
  19 C :    0.038988
  20 C :   -0.112319
  21 C :   -0.145488
  22 C :    0.086178
  23 N :   -0.149848
  24 O :   -0.064590
  25 C :    0.086518
  26 C :    0.063378
  27 N :   -0.193147
  28 C :    0.115315
  29 O :   -0.035101
  30 C :    0.090485
  31 C :   -0.172307
  32 C :    0.016618
  33 C :   -0.062802
  34 C :   -0.171159
  35 S :    0.524236
  36 C :   -0.169207
  37 C :   -0.063357
  38 C :    0.075253
  39 C :   -0.094024
  40 C :   -0.018497
  41 N :   -0.023610
  42 C :   -0.018167
  43 N :   -0.024580
  44 C :    0.016891
  45 C :   -0.173286
  46 S :    0.524033
  47 C :    0.064221
  48 C :   -0.141352
  49 C :   -0.102930
  50 C :    0.113972
  51 N :   -0.189609
  52 O :   -0.037907
  53 C :    0.090299
  54 C :    0.044167
  55 N :   -0.165012
  56 C :    0.098186
  57 O :   -0.060326
  58 C :    0.088111
  59 C :    0.048135
  60 C :   -0.053289
  61 C :    0.064400
  62 C :   -0.112042
  63 C :   -0.018402
  64 N :   -0.057529
  65 C :   -0.020695
  66 N :   -0.066235
  67 C :   -0.014747
  68 C :   -0.057441
  69 C :    0.082446
  70 O :   -0.139574
  71 C :    0.024445
  72 C :   -0.037749
  73 C :   -0.143234
  74 C :   -0.015848
  75 S :    0.426025
  76 C :   -0.151425
  77 C :   -0.057244
  78 H :    0.038905
  79 H :    0.040131
  80 H :    0.029356
  81 H :    0.035265
  82 H :    0.049351
  83 H :    0.024803
  84 H :    0.022628
  85 H :    0.034369
  86 H :    0.028212
  87 H :    0.030851
  88 H :    0.027422
  89 H :    0.050140
  90 H :    0.050031
  91 H :    0.029189
  92 H :    0.027687
  93 H :    0.028710
  94 H :    0.029160
  95 H :    0.026308
  96 H :    0.025484
  97 H :    0.050306
  98 H :    0.040516
  99 H :    0.039485
 100 H :    0.029038
 101 H :    0.035247

  Mayer bond orders larger than 0.100000
B(  0-C ,  1-C ) :   1.6346 B(  0-C ,  6-C ) :   1.0070 B(  0-C , 17-C ) :   1.0527
B(  1-C ,  2-C ) :   1.1421 B(  1-C ,  4-C ) :   1.1427 B(  2-C ,  3-N ) :   2.9710
B(  4-C ,  5-N ) :   2.9850 B(  6-C ,  7-C ) :   1.2694 B(  6-C , 11-C ) :   1.4046
B(  7-C ,  8-C ) :   1.4245 B(  7-C , 15-C ) :   0.9406 B(  8-C ,  9-C ) :   1.2482
B(  8-C , 78-H ) :   1.0168 B(  9-C , 10-C ) :   1.2995 B(  9-C , 14-C ) :   1.1708
B( 10-C , 11-C ) :   1.3290 B( 10-C , 12-S ) :   1.0965 B( 11-C , 79-H ) :   0.9829
B( 12-S , 13-C ) :   1.1263 B( 13-C , 14-C ) :   1.6280 B( 13-C , 80-H ) :   0.9687
B( 14-C , 81-H ) :   0.9996 B( 15-C , 16-O ) :   2.2564 B( 15-C , 17-C ) :   0.9112
B( 17-C , 18-C ) :   1.5856 B( 18-C , 19-C ) :   1.1805 B( 18-C , 82-H ) :   0.9386
B( 19-C , 20-C ) :   1.1723 B( 19-C , 23-N ) :   1.4241 B( 20-C , 21-C ) :   1.2951
B( 20-C , 28-C ) :   1.0555 B( 21-C , 22-C ) :   1.0874 B( 21-C , 26-C ) :   1.1394
B( 22-C , 23-N ) :   1.4909 B( 22-C , 24-O ) :   1.2969 B( 24-O , 25-C ) :   0.9004
B( 25-C , 83-H ) :   0.9787 B( 25-C , 84-H ) :   0.9797 B( 25-C , 85-H ) :   0.9621
B( 26-C , 27-N ) :   1.4522 B( 26-C , 31-C ) :   1.1933 B( 27-N , 28-C ) :   1.4559
B( 28-C , 29-O ) :   1.3416 B( 29-O , 30-C ) :   0.9042 B( 30-C , 86-H ) :   0.9734
B( 30-C , 87-H ) :   0.9795 B( 30-C , 88-H ) :   0.9735 B( 31-C , 32-C ) :   1.3687
B( 31-C , 35-S ) :   1.1035 B( 32-C , 33-C ) :   1.2853 B( 32-C , 89-H ) :   1.0177
B( 33-C , 34-C ) :   1.3756 B( 33-C , 38-C ) :   0.9864 B( 34-C , 35-S ) :   1.1391
B( 34-C , 36-C ) :   1.2195 B( 36-C , 37-C ) :   1.3780 B( 36-C , 46-S ) :   1.1402
B( 37-C , 38-C ) :   0.9873 B( 37-C , 44-C ) :   1.2836 B( 38-C , 39-C ) :   1.7279
B( 39-C , 40-C ) :   1.1361 B( 39-C , 42-C ) :   1.1337 B( 40-C , 41-N ) :   2.9977
B( 42-C , 43-N ) :   2.9985 B( 44-C , 45-C ) :   1.3653 B( 44-C , 90-H ) :   1.0185
B( 45-C , 46-S ) :   1.1028 B( 45-C , 47-C ) :   1.1988 B( 47-C , 48-C ) :   1.1544
B( 47-C , 51-N ) :   1.4352 B( 48-C , 49-C ) :   1.2841 B( 48-C , 56-C ) :   1.0870
B( 49-C , 50-C ) :   1.0411 B( 49-C , 54-C ) :   1.2281 B( 50-C , 51-N ) :   1.4749
B( 50-C , 52-O ) :   1.3444 B( 52-O , 53-C ) :   0.9040 B( 53-C , 91-H ) :   0.9797
B( 53-C , 92-H ) :   0.9728 B( 53-C , 93-H ) :   0.9733 B( 54-C , 55-N ) :   1.3265
B( 54-C , 59-C ) :   1.1370 B( 55-N , 56-C ) :   1.4735 B( 56-C , 57-O ) :   1.3066
B( 57-O , 58-C ) :   0.9077 B( 58-C , 94-H ) :   0.9754 B( 58-C , 95-H ) :   0.9792
B( 58-C , 96-H ) :   0.9697 B( 59-C , 60-C ) :   1.6158 B( 59-C , 97-H ) :   0.9541
B( 60-C , 61-C ) :   1.0295 B( 60-C , 69-C ) :   0.9276 B( 61-C , 62-C ) :   1.6842
B( 61-C , 67-C ) :   1.0169 B( 62-C , 63-C ) :   1.1526 B( 62-C , 65-C ) :   1.1403
B( 63-C , 64-N ) :   2.9745 B( 65-C , 66-N ) :   2.9634 B( 67-C , 68-C ) :   1.2665
B( 67-C , 74-C ) :   1.4179 B( 68-C , 69-C ) :   0.9247 B( 68-C , 71-C ) :   1.4231
B( 69-C , 70-O ) :   2.2740 B( 71-C , 72-C ) :   1.2571 B( 71-C , 98-H ) :   1.0154
B( 72-C , 73-C ) :   1.3029 B( 72-C , 77-C ) :   1.1686 B( 73-C , 74-C ) :   1.3195
B( 73-C , 75-S ) :   1.0980 B( 74-C , 99-H ) :   0.9862 B( 75-S , 76-C ) :   1.1227
B( 76-C , 77-C ) :   1.6331 B( 76-C ,100-H ) :   0.9687 B( 77-C ,101-H ) :   0.9994

-----------------------------------------------------------------------------
         ABSORPTION SPECTRUM VIA TRANSITION ELECTRIC DIPOLE MOMENTS
-----------------------------------------------------------------------------
State   Energy  Wavelength   fosc         T2         TX        TY        TZ
        (cm-1)    (nm)                  (au**2)     (au)      (au)      (au)
-----------------------------------------------------------------------------
   0   11014.2    907.9   0.944678215  28.23632  -3.34731  -3.26797  -2.52036
   1   14655.8    682.3   0.006476128   0.14547  -0.35158   0.01372  -0.14722
   2   15554.5    642.9   0.056017887   1.18563  -0.85111  -0.45673  -0.50262
   3   15666.5    638.3   0.503667694  10.58393   1.74420   2.25238   1.57113
   4   16471.9    607.1   0.611509300  12.22181   2.40354  -2.51874   0.31738
   5   18087.5    552.9   0.235581787   4.28784  -1.27722   1.62958  -0.03192
   6   18928.2    528.3   0.004362502   0.07588  -0.20924   0.15704   0.08620
   7   21104.6    473.8   0.038524962   0.60095   0.46953   0.13006   0.60298
   8   22958.1    435.6   0.024735698   0.35470  -0.37111   0.26398   0.38379
   9   23258.2    430.0   0.043858786   0.62081   0.49773  -0.60677  -0.07000
  10   23453.7    426.4   0.171038019   2.40080  -0.77741  -1.14966  -0.68899
  11   23826.9    419.7   0.054579091   0.75411  -0.70950  -0.34189  -0.36584
  12   24263.0    412.2   0.033600220   0.45590  -0.34542  -0.56780  -0.11914
  13   24430.6    409.3   0.004043577   0.05449   0.03289   0.08255  -0.21585
  14   25267.0    395.8   0.010202593   0.13293   0.24616   0.08282   0.25589
  15   25509.4    392.0   0.002440356   0.03149  -0.13914  -0.11014  -0.00175
  16   25744.7    388.4   0.015573811   0.19915   0.36860  -0.04256   0.24793
  17   26028.5    384.2   0.001999394   0.02529   0.11515   0.05916  -0.09235
  18   26224.2    381.3   0.052030299   0.65318  -0.41771   0.01529  -0.69171
  19   26590.2    376.1   0.126219492   1.56272  -1.19977   0.33068  -0.11797
  20   26955.8    371.0   0.026484440   0.32345  -0.39059   0.03896  -0.41155
  21   28542.3    350.4   0.297706907   3.43380  -1.22946   1.37118  -0.20516
  22   28885.4    346.2   0.011654136   0.13282   0.30370  -0.12021  -0.16168
  23   29030.2    344.5   0.300127264   3.40354  -1.32642  -0.56318  -1.15195
  24   29275.8    341.6   0.182324993   2.05028   0.09003   1.38974   0.33287
  25   29429.7    339.8   0.060787794   0.68000  -0.27239  -0.77617  -0.05796
  26   29928.0    334.1   0.120345430   1.32381  -1.04200   0.46736   0.14010
  27   30207.8    331.0   0.097203316   1.05934   0.49832  -0.71172  -0.55180
  28   30274.7    330.3   0.013729917   0.14930  -0.07918  -0.36586   0.09580
  29   30443.5    328.5   0.009827400   0.10627   0.19398   0.26098   0.02314
  30   30824.6    324.4   0.067724876   0.72331   0.66699  -0.49216  -0.19031
  31   31309.1    319.4   0.290052070   3.04987  -0.87091  -0.80589  -1.28138
  32   31647.3    316.0   0.040873443   0.42519   0.06818   0.37282   0.53061
  33   31900.3    313.5   0.178072671   1.83771   0.75822  -0.21875   1.10226
  34   32090.4    311.6   0.002304465   0.02364   0.11756   0.00671  -0.09888
  35   32195.0    310.6   0.104848008   1.07213  -0.80691  -0.30989  -0.57008
  36   32398.6    308.7   0.173844053   1.76648  -0.75558   0.95020   0.54101
  37   32431.1    308.3   0.011005632   0.11172  -0.05732  -0.26210   0.19934
  38   32576.9    307.0   0.013886316   0.14033  -0.36827  -0.00994   0.06789
  39   32948.5    303.5   0.102195464   1.02111   0.69319  -0.17010   0.71531
  40   33187.9    301.3   0.024004010   0.23811   0.03396  -0.30819  -0.37680
  41   33434.4    299.1   0.010765901   0.10601   0.04374   0.31749  -0.05738
  42   33649.7    297.2   0.075007580   0.73384  -0.17270  -0.31084  -0.77935
  43   33804.3    295.8   0.151404053   1.47449   0.75294  -0.93874   0.16230
  44   33989.5    294.2   0.028183988   0.27298  -0.26018   0.39235  -0.22660
  45   34173.7    292.6   0.340450735   3.27973   1.49217  -0.76193  -0.68747
  46   34274.8    291.8   0.113695740   1.09205   0.81802  -0.14978   0.63282
  47   34347.5    291.1   0.020054143   0.19221   0.40801   0.02565  -0.15838
  48   34417.2    290.6   0.011938551   0.11420  -0.02745  -0.26543   0.20734
  49   34483.1    290.0   0.020824169   0.19881  -0.24713   0.36982  -0.03112
  50   34580.1    289.2   0.085762583   0.81648  -0.48742   0.15315  -0.74529
  51   35084.5    285.0   0.185064984   1.73654  -0.82118  -0.74420  -0.71300
  52   35620.4    280.7   0.095333002   0.88109  -0.69271   0.61599   0.14766
  53   35912.2    278.5   0.006887581   0.06314   0.14127  -0.20545  -0.03117
  54   36162.5    276.5   0.029026980   0.26425   0.06019  -0.46655  -0.20727
  55   36254.0    275.8   0.016787776   0.15244   0.28110   0.26954  -0.02787
  56   36934.9    270.7   0.048157795   0.42925  -0.51313  -0.03801  -0.40559
  57   37452.6    267.0   0.118551713   1.04208  -0.97870  -0.27925  -0.07903
  58   37565.1    266.2   0.003206109   0.02810   0.14085   0.07323   0.05382
  59   37835.0    264.3   0.038543839   0.33538   0.31907   0.31738   0.36448
  60   37895.6    263.9   0.103934029   0.90291   0.66084   0.60034   0.32526
  61   38168.0    262.0   0.030831263   0.26593  -0.11095  -0.40574  -0.29833
  62   38210.6    261.7   0.018488747   0.15929  -0.13800  -0.28106  -0.24749
  63   38246.3    261.5   0.137972283   1.18762   0.54771   0.86414   0.37536
  64   38359.0    260.7   0.040536510   0.34790   0.56033  -0.17719   0.05031
  65   38624.0    258.9   0.044834266   0.38215  -0.39780  -0.04432  -0.47110
  66   39101.6    255.7   0.118484759   0.99757  -0.32579  -0.63704  -0.69686
  67   39159.9    255.4   0.024470036   0.20572  -0.30903   0.32621   0.06166
  68   39298.8    254.5   0.156906503   1.31443   0.08476   1.02344   0.50973
  69   39546.5    252.9   0.191268867   1.59225  -0.68954  -0.67266  -0.81506
  70   39662.7    252.1   0.180315402   1.49667   1.16794   0.35559   0.07832
  71   40090.9    249.4   0.020391813   0.16745  -0.08981   0.17720   0.35775
  72   40203.4    248.7   0.051097889   0.41842  -0.26279   0.50110   0.31347
  73   40294.6    248.2   0.045452839   0.37136   0.39608  -0.44596  -0.12489

FINAL SINGLE POINT ENERGY     -4811.515485765997

DIPOLE MOMENT
-------------
                                X             Y             Z
Electronic contribution:     -8.20289      -1.95860      -4.01520
Nuclear contribution   :     10.65544       1.47564       5.35500
                        -----------------------------------------
Total Dipole Moment    :      2.45255      -0.48296       1.33980
                        -----------------------------------------
Magnitude (a.u.)       :      2.83607
Magnitude (Debye)      :      7.20872

Rotational constants in cm-1:     0.001093     0.000224     0.000191
Rotational constants in MHz :    32.775017     6.727311     5.720328

                             ****ORCA TERMINATED NORMALLY****
TOTAL RUN TIME: 0 days 0 hours 11 minutes 17 seconds 285 msec
