                         Program Version 4.2.0 -  RELEASE  -
|  1> # ORCA input file
|  2> # SCF done       -217.955177809104          0.000417280017
|  3> ! CAM-B3LYP def2-SVP def2/J RIJCOSX Grid4 TightSCF
|  4> %maxcore 5000
|  5> %tddft
|  6>     Mode sTDDFT
|  7>     Ethresh 5.0
|  8>     maxcore 5000
|  9> end
| 10>
| 11> %pal
| 12>   nprocs 6
| 13>   end
| 14> * xyz 0 1
| 15>    C       -1.18275         5.68568         5.58421
| 16>    C       -0.96213         6.86283         6.24951
| 17>    C        0.01818         7.03365         7.24902
| 18>    N        0.80178         7.23570         8.06337
| 19>    C       -1.68384         8.05702         6.03982
| 20>    N       -2.21950         9.06610         5.92514
| 21>    C       -0.48898         4.42609         5.81535
| 22>    C       -1.08458         3.42193         5.01127
| 23>    C       -0.64823         2.11927         5.01063
| 24>    C        0.42499         1.78961         5.84345
| 25>    C        1.01584         2.79944         6.64031
| 26>    C        0.57572         4.11772         6.64073
| 27>    S        2.32834         2.16750         7.58343
| 28>    C        2.07874         0.58989         6.91946
| 29>    C        1.06226         0.53076         6.03175
| 30>    C       -2.18615         4.00364         4.22843
| 31>    O       -2.87658         3.43495         3.40795
| 32>    C       -2.20386         5.44766         4.58283
| 33>    C       -2.93683         6.38883         3.92420
| 34>    C       -3.99041         6.11285         3.01515
| 35>    S       -4.02208         7.02123         1.54290
| 36>    C       -5.26361         6.04560         0.84479
| 37>    C       -5.65692         5.03631         1.74142
| 38>    C       -4.99371         5.13236         3.00810
| 39>    C       -5.44492         4.31478         4.07713
| 40>    C       -5.12705         4.57111         5.52080
| 41>    F       -4.84401         5.85354         5.79658
| 42>    F       -6.18307         4.26529         6.30032
| 43>    F       -4.10852         3.84420         6.02557
| 44>    C       -6.31836         3.29165         3.80379
| 45>    C       -6.78779         3.04876         2.51102
| 46>    C       -6.49917         3.91421         1.47865
| 47>    O       -6.93826         3.76550         0.21669
| 48>    C       -7.71929         2.63850        -0.11632
| 49>    C       -5.69707         6.42682        -0.45420
| 50>    C       -6.92348         6.25170        -0.99926
| 51>    C       -7.26748         6.69124        -2.29957
| 52>    N       -8.47073         6.59626        -2.79364
| 53>    C       -8.51984         7.07192        -4.03289
| 54>    C       -7.30880         7.56093        -4.56581
| 55>    S       -6.05816         7.41085        -3.40729
| 56>    N       -7.35390         8.03029        -5.80673
| 57>    C       -8.55021         7.93223        -6.30293
| 58>    S       -9.77148         7.23963        -5.19611
| 59>    C       -8.91710         8.39106        -7.59184
| 60>    S      -10.49964         9.03232        -7.81107
| 61>    C      -10.12774         9.65342        -9.38266
| 62>    C       -8.79993         9.34026        -9.73590
| 63>    C       -8.12277         8.56650        -8.73923
| 64>    C       -6.83573         8.04619        -9.03237
| 65>    C       -6.14531         6.97558        -8.23289
| 66>    F       -6.98779         6.12166        -7.62948
| 67>    F       -5.39193         6.19649        -9.04045
| 68>    F       -5.29469         7.43074        -7.30318
| 69>    C       -6.20832         8.45024       -10.18618
| 70>    C       -6.81758         9.30905       -11.10337
| 71>    C       -8.11922         9.72485       -10.92719
| 72>    O       -8.80179        10.47521       -11.81581
| 73>    C       -8.15866        10.88840       -13.00328
| 74>    C      -11.08767        10.38043       -10.11226
| 75>    C      -12.36588        10.60522        -9.69297
| 76>    C      -13.27461        11.36578       -10.45252
| 77>    C      -14.53080        11.77439       -10.10645
| 78>    C      -15.25259        11.74673        -8.85447
| 79>    C      -14.71592        11.81048        -7.59312
| 80>    C      -15.48794        11.83203        -6.41337
| 81>    N      -16.06610        11.83712        -5.42146
| 82>    C      -13.34397        11.98009        -7.31463
| 83>    N      -12.24981        12.16803        -7.02133
| 84>    C      -16.67221        11.87594        -9.17200
| 85>    C      -16.80316        12.20320       -10.54692
| 86>    C      -15.46760        12.22506       -11.16978
| 87>    O      -15.18210        12.50191       -12.31393
| 88>    C      -18.02244        12.43279       -11.13694
| 89>    C      -19.16573        12.32447       -10.33921
| 90>    C      -19.02539        11.98251        -8.97284
| 91>    C      -17.79177        11.75773        -8.37219
| 92>    S      -20.56928        11.89348        -8.18576
| 93>    C      -21.37236        12.31123        -9.65978
| 94>    C      -20.53104        12.50757       -10.69813
| 95>    H       -1.12476         1.37793         4.38833
| 96>    H        1.06111         4.85174         7.26214
| 97>    H        2.71967        -0.20820         7.24030
| 98>    H        0.76187        -0.36498         5.51888
| 99>    H       -2.64617         7.42937         4.00204
|100>    H       -6.65412         2.65062         4.60439
|101>    H       -7.41216         2.18639         2.34997
|102>    H       -7.92682         2.73741        -1.18037
|103>    H       -8.66243         2.62666         0.43755
|104>    H       -7.17422         1.70813         0.06483
|105>    H       -4.97186         7.00161        -1.01994
|106>    H       -7.72363         5.77781        -0.45475
|107>    H       -5.22222         8.07612       -10.41357
|108>    H       -6.25803         9.59610       -11.97731
|109>    H       -8.89992        11.47146       -13.54709
|110>    H       -7.85411        10.03179       -13.61075
|111>    H       -7.29028        11.51686       -12.78851
|112>    H      -10.76195        10.80476       -11.04938
|113>    H      -12.69477        10.17184        -8.75883
|114>    H      -12.98147        11.61141       -11.46846
|115>    H      -18.09141        12.68872       -12.18284
|116>    H      -17.73527        11.49411        -7.32901
|117>    H      -22.44254        12.38452        -9.65683
|118>    H      -20.84984        12.77289       -11.68987
|119> *
|120>
|121>                          ****END OF INPUT****

CARTESIAN COORDINATES (ANGSTROEM)
---------------------------------
  C     -1.182750    5.685680    5.584210
  C     -0.962130    6.862830    6.249510
  C      0.018180    7.033650    7.249020
  N      0.801780    7.235700    8.063370
  C     -1.683840    8.057020    6.039820
  N     -2.219500    9.066100    5.925140
  C     -0.488980    4.426090    5.815350
  C     -1.084580    3.421930    5.011270
  C     -0.648230    2.119270    5.010630
  C      0.424990    1.789610    5.843450
  C      1.015840    2.799440    6.640310
  C      0.575720    4.117720    6.640730
  S      2.328340    2.167500    7.583430
  C      2.078740    0.589890    6.919460
  C      1.062260    0.530760    6.031750
  C     -2.186150    4.003640    4.228430
  O     -2.876580    3.434950    3.407950
  C     -2.203860    5.447660    4.582830
  C     -2.936830    6.388830    3.924200
  C     -3.990410    6.112850    3.015150
  S     -4.022080    7.021230    1.542900
  C     -5.263610    6.045600    0.844790
  C     -5.656920    5.036310    1.741420
  C     -4.993710    5.132360    3.008100
  C     -5.444920    4.314780    4.077130
  C     -5.127050    4.571110    5.520800
  F     -4.844010    5.853540    5.796580
  F     -6.183070    4.265290    6.300320
  F     -4.108520    3.844200    6.025570
  C     -6.318360    3.291650    3.803790
  C     -6.787790    3.048760    2.511020
  C     -6.499170    3.914210    1.478650
  O     -6.938260    3.765500    0.216690
  C     -7.719290    2.638500   -0.116320
  C     -5.697070    6.426820   -0.454200
  C     -6.923480    6.251700   -0.999260
  C     -7.267480    6.691240   -2.299570
  N     -8.470730    6.596260   -2.793640
  C     -8.519840    7.071920   -4.032890
  C     -7.308800    7.560930   -4.565810
  S     -6.058160    7.410850   -3.407290
  N     -7.353900    8.030290   -5.806730
  C     -8.550210    7.932230   -6.302930
  S     -9.771480    7.239630   -5.196110
  C     -8.917100    8.391060   -7.591840
  S    -10.499640    9.032320   -7.811070
  C    -10.127740    9.653420   -9.382660
  C     -8.799930    9.340260   -9.735900
  C     -8.122770    8.566500   -8.739230
  C     -6.835730    8.046190   -9.032370
  C     -6.145310    6.975580   -8.232890
  F     -6.987790    6.121660   -7.629480
  F     -5.391930    6.196490   -9.040450
  F     -5.294690    7.430740   -7.303180
  C     -6.208320    8.450240  -10.186180
  C     -6.817580    9.309050  -11.103370
  C     -8.119220    9.724850  -10.927190
  O     -8.801790   10.475210  -11.815810
  C     -8.158660   10.888400  -13.003280
  C    -11.087670   10.380430  -10.112260
  C    -12.365880   10.605220   -9.692970
  C    -13.274610   11.365780  -10.452520
  C    -14.530800   11.774390  -10.106450
  C    -15.252590   11.746730   -8.854470
  C    -14.715920   11.810480   -7.593120
  C    -15.487940   11.832030   -6.413370
  N    -16.066100   11.837120   -5.421460
  C    -13.343970   11.980090   -7.314630
  N    -12.249810   12.168030   -7.021330
  C    -16.672210   11.875940   -9.172000
  C    -16.803160   12.203200  -10.546920
  C    -15.467600   12.225060  -11.169780
  O    -15.182100   12.501910  -12.313930
  C    -18.022440   12.432790  -11.136940
  C    -19.165730   12.324470  -10.339210
  C    -19.025390   11.982510   -8.972840
  C    -17.791770   11.757730   -8.372190
  S    -20.569280   11.893480   -8.185760
  C    -21.372360   12.311230   -9.659780
  C    -20.531040   12.507570  -10.698130
  H     -1.124760    1.377930    4.388330
  H      1.061110    4.851740    7.262140
  H      2.719670   -0.208200    7.240300
  H      0.761870   -0.364980    5.518880
  H     -2.646170    7.429370    4.002040
  H     -6.654120    2.650620    4.604390
  H     -7.412160    2.186390    2.349970
  H     -7.926820    2.737410   -1.180370
  H     -8.662430    2.626660    0.437550
  H     -7.174220    1.708130    0.064830
  H     -4.971860    7.001610   -1.019940
  H     -7.723630    5.777810   -0.454750
  H     -5.222220    8.076120  -10.413570
  H     -6.258030    9.596100  -11.977310
  H     -8.899920   11.471460  -13.547090
  H     -7.854110   10.031790  -13.610750
  H     -7.290280   11.516860  -12.788510
  H    -10.761950   10.804760  -11.049380
  H    -12.694770   10.171840   -8.758830
  H    -12.981470   11.611410  -11.468460
  H    -18.091410   12.688720  -12.182840
  H    -17.735270   11.494110   -7.329010
  H    -22.442540   12.384520   -9.656830
  H    -20.849840   12.772890  -11.689870

 Total Charge           Charge          ....    0
 Multiplicity           Mult            ....    1
 Number of Electrons    NEL             ....  596
 Basis Dimension        Dim             .... 1264

ORBITAL ENERGIES
----------------

  NO   OCC          E(Eh)            E(eV)
   0   2.0000     -88.986632     -2421.4494
   1   2.0000     -88.977974     -2421.2138
   2   2.0000     -88.972344     -2421.0606
   3   2.0000     -88.968563     -2420.9577
   4   2.0000     -88.963677     -2420.8247
   5   2.0000     -88.960115     -2420.7278
   6   2.0000     -24.792140      -674.6284
   7   2.0000     -24.791877      -674.6213
   8   2.0000     -24.791195      -674.6027
   9   2.0000     -24.787245      -674.4952
  10   2.0000     -24.785906      -674.4588
  11   2.0000     -24.782260      -674.3596
  12   2.0000     -19.277761      -524.5745
  13   2.0000     -19.268621      -524.3258
  14   2.0000     -19.208427      -522.6879
  15   2.0000     -19.204578      -522.5831
  16   2.0000     -14.424528      -392.5114
  17   2.0000     -14.423348      -392.4793
  18   2.0000     -14.411099      -392.1459
  19   2.0000     -14.409591      -392.1049
  20   2.0000     -14.406278      -392.0147
  21   2.0000     -14.405913      -392.0048
  22   2.0000     -10.510749      -286.0120
  23   2.0000     -10.510125      -285.9950
  24   2.0000     -10.365490      -282.0593
  25   2.0000     -10.359097      -281.8854
  26   2.0000     -10.358961      -281.8817
  27   2.0000     -10.356671      -281.8194
  28   2.0000     -10.354755      -281.7672
  29   2.0000     -10.346843      -281.5519
  30   2.0000     -10.344948      -281.5004
  31   2.0000     -10.338231      -281.3176
  32   2.0000     -10.337104      -281.2869
  33   2.0000     -10.337018      -281.2846
  34   2.0000     -10.332796      -281.1697
  35   2.0000     -10.332603      -281.1644
  36   2.0000     -10.332282      -281.1557
  37   2.0000     -10.330925      -281.1188
  38   2.0000     -10.330761      -281.1143
  39   2.0000     -10.329158      -281.0707
  40   2.0000     -10.325994      -280.9846
  41   2.0000     -10.317286      -280.7476
  42   2.0000     -10.314107      -280.6611
  43   2.0000     -10.313980      -280.6577
  44   2.0000     -10.313534      -280.6455
  45   2.0000     -10.313262      -280.6381
  46   2.0000     -10.312694      -280.6227
  47   2.0000     -10.312341      -280.6131
  48   2.0000     -10.311252      -280.5834
  49   2.0000     -10.309847      -280.5452
  50   2.0000     -10.309473      -280.5350
  51   2.0000     -10.309257      -280.5292
  52   2.0000     -10.308837      -280.5177
  53   2.0000     -10.308124      -280.4983
  54   2.0000     -10.306078      -280.4426
  55   2.0000     -10.306074      -280.4425
  56   2.0000     -10.302974      -280.3582
  57   2.0000     -10.300463      -280.2899
  58   2.0000     -10.300096      -280.2799
  59   2.0000     -10.299514      -280.2640
  60   2.0000     -10.299454      -280.2624
  61   2.0000     -10.299259      -280.2571
  62   2.0000     -10.298136      -280.2265
  63   2.0000     -10.297784      -280.2169
  64   2.0000     -10.295424      -280.1527
  65   2.0000     -10.295389      -280.1518
  66   2.0000     -10.294866      -280.1376
  67   2.0000     -10.294627      -280.1310
  68   2.0000     -10.293314      -280.0953
  69   2.0000     -10.291374      -280.0425
  70   2.0000     -10.290877      -280.0290
  71   2.0000     -10.290045      -280.0064
  72   2.0000     -10.289036      -279.9789
  73   2.0000     -10.288943      -279.9764
  74   2.0000     -10.288414      -279.9620
  75   2.0000     -10.286556      -279.9114
  76   2.0000     -10.286423      -279.9078
  77   2.0000     -10.283232      -279.8210
  78   2.0000     -10.281788      -279.7817
  79   2.0000     -10.279252      -279.7127
  80   2.0000      -8.081799      -219.9169
  81   2.0000      -8.073735      -219.6975
  82   2.0000      -8.068266      -219.5487
  83   2.0000      -8.064427      -219.4442
  84   2.0000      -8.059981      -219.3232
  85   2.0000      -8.056406      -219.2260
  86   2.0000      -6.050651      -164.6466
  87   2.0000      -6.046542      -164.5348
  88   2.0000      -6.044723      -164.4853
  89   2.0000      -6.042617      -164.4280
  90   2.0000      -6.038481      -164.3154
  91   2.0000      -6.037387      -164.2857
  92   2.0000      -6.036583      -164.2638
  93   2.0000      -6.033733      -164.1862
  94   2.0000      -6.033473      -164.1792
  95   2.0000      -6.030048      -164.0859
  96   2.0000      -6.029936      -164.0829
  97   2.0000      -6.029472      -164.0703
  98   2.0000      -6.026257      -163.9828
  99   2.0000      -6.025921      -163.9737
 100   2.0000      -6.025207      -163.9542
 101   2.0000      -6.021647      -163.8574
 102   2.0000      -6.021629      -163.8568
 103   2.0000      -6.018056      -163.7596
 104   2.0000      -1.380946       -37.5774
 105   2.0000      -1.378255       -37.5042
 106   2.0000      -1.283652       -34.9300
 107   2.0000      -1.282219       -34.8910
 108   2.0000      -1.279075       -34.8054
 109   2.0000      -1.275006       -34.6947
 110   2.0000      -1.182529       -32.1782
 111   2.0000      -1.175602       -31.9898
 112   2.0000      -1.122969       -30.5575
 113   2.0000      -1.120107       -30.4797
 114   2.0000      -1.097138       -29.8546
 115   2.0000      -1.056889       -28.7594
 116   2.0000      -1.017288       -27.6818
 117   2.0000      -1.015393       -27.6303
 118   2.0000      -1.012481       -27.5510
 119   2.0000      -1.009972       -27.4827
 120   2.0000      -1.004218       -27.3262
 121   2.0000      -1.000301       -27.2196
 122   2.0000      -0.989173       -26.9168
 123   2.0000      -0.984801       -26.7978
 124   2.0000      -0.980412       -26.6784
 125   2.0000      -0.976372       -26.5684
 126   2.0000      -0.957833       -26.0640
 127   2.0000      -0.950191       -25.8560
 128   2.0000      -0.933744       -25.4085
 129   2.0000      -0.929555       -25.2945
 130   2.0000      -0.923568       -25.1316
 131   2.0000      -0.919831       -25.0299
 132   2.0000      -0.910648       -24.7800
 133   2.0000      -0.902044       -24.5459
 134   2.0000      -0.890889       -24.2423
 135   2.0000      -0.885810       -24.1041
 136   2.0000      -0.883979       -24.0543
 137   2.0000      -0.882049       -24.0018
 138   2.0000      -0.877704       -23.8835
 139   2.0000      -0.873719       -23.7751
 140   2.0000      -0.863573       -23.4990
 141   2.0000      -0.859127       -23.3780
 142   2.0000      -0.856690       -23.3117
 143   2.0000      -0.849689       -23.1212
 144   2.0000      -0.836492       -22.7621
 145   2.0000      -0.823072       -22.3969
 146   2.0000      -0.820205       -22.3189
 147   2.0000      -0.819222       -22.2922
 148   2.0000      -0.815868       -22.2009
 149   2.0000      -0.814957       -22.1761
 150   2.0000      -0.794882       -21.6298
 151   2.0000      -0.779998       -21.2248
 152   2.0000      -0.768514       -20.9123
 153   2.0000      -0.764915       -20.8144
 154   2.0000      -0.761483       -20.7210
 155   2.0000      -0.753122       -20.4935
 156   2.0000      -0.748379       -20.3644
 157   2.0000      -0.745669       -20.2907
 158   2.0000      -0.723966       -19.7001
 159   2.0000      -0.716791       -19.5049
 160   2.0000      -0.715687       -19.4748
 161   2.0000      -0.710646       -19.3377
 162   2.0000      -0.705566       -19.1994
 163   2.0000      -0.697653       -18.9841
 164   2.0000      -0.693426       -18.8691
 165   2.0000      -0.685680       -18.6583
 166   2.0000      -0.682853       -18.5814
 167   2.0000      -0.680602       -18.5201
 168   2.0000      -0.678943       -18.4750
 169   2.0000      -0.674883       -18.3645
 170   2.0000      -0.665587       -18.1115
 171   2.0000      -0.664502       -18.0820
 172   2.0000      -0.662966       -18.0402
 173   2.0000      -0.660932       -17.9849
 174   2.0000      -0.659973       -17.9588
 175   2.0000      -0.658825       -17.9275
 176   2.0000      -0.654684       -17.8148
 177   2.0000      -0.651741       -17.7348
 178   2.0000      -0.649264       -17.6674
 179   2.0000      -0.642942       -17.4953
 180   2.0000      -0.639212       -17.3939
 181   2.0000      -0.629300       -17.1241
 182   2.0000      -0.621148       -16.9023
 183   2.0000      -0.615487       -16.7482
 184   2.0000      -0.614411       -16.7190
 185   2.0000      -0.611435       -16.6380
 186   2.0000      -0.604438       -16.4476
 187   2.0000      -0.599133       -16.3032
 188   2.0000      -0.597562       -16.2605
 189   2.0000      -0.592513       -16.1231
 190   2.0000      -0.590094       -16.0573
 191   2.0000      -0.584440       -15.9034
 192   2.0000      -0.580583       -15.7985
 193   2.0000      -0.580151       -15.7867
 194   2.0000      -0.575407       -15.6576
 195   2.0000      -0.572243       -15.5715
 196   2.0000      -0.568580       -15.4718
 197   2.0000      -0.556214       -15.1354
 198   2.0000      -0.555762       -15.1231
 199   2.0000      -0.552593       -15.0368
 200   2.0000      -0.547462       -14.8972
 201   2.0000      -0.547378       -14.8949
 202   2.0000      -0.545547       -14.8451
 203   2.0000      -0.543105       -14.7786
 204   2.0000      -0.540917       -14.7191
 205   2.0000      -0.539752       -14.6874
 206   2.0000      -0.538388       -14.6503
 207   2.0000      -0.535669       -14.5763
 208   2.0000      -0.532073       -14.4784
 209   2.0000      -0.530591       -14.4381
 210   2.0000      -0.529355       -14.4045
 211   2.0000      -0.528369       -14.3777
 212   2.0000      -0.527842       -14.3633
 213   2.0000      -0.526244       -14.3198
 214   2.0000      -0.523416       -14.2429
 215   2.0000      -0.522374       -14.2145
 216   2.0000      -0.520832       -14.1726
 217   2.0000      -0.517974       -14.0948
 218   2.0000      -0.517610       -14.0849
 219   2.0000      -0.515010       -14.0141
 220   2.0000      -0.512138       -13.9360
 221   2.0000      -0.505877       -13.7656
 222   2.0000      -0.504602       -13.7309
 223   2.0000      -0.500961       -13.6318
 224   2.0000      -0.499835       -13.6012
 225   2.0000      -0.497556       -13.5392
 226   2.0000      -0.497258       -13.5311
 227   2.0000      -0.496640       -13.5143
 228   2.0000      -0.495122       -13.4730
 229   2.0000      -0.492505       -13.4017
 230   2.0000      -0.490713       -13.3530
 231   2.0000      -0.489363       -13.3163
 232   2.0000      -0.488817       -13.3014
 233   2.0000      -0.488338       -13.2884
 234   2.0000      -0.484617       -13.1871
 235   2.0000      -0.483078       -13.1452
 236   2.0000      -0.481398       -13.0995
 237   2.0000      -0.478620       -13.0239
 238   2.0000      -0.476138       -12.9564
 239   2.0000      -0.475534       -12.9399
 240   2.0000      -0.472889       -12.8680
 241   2.0000      -0.471860       -12.8400
 242   2.0000      -0.469761       -12.7828
 243   2.0000      -0.463971       -12.6253
 244   2.0000      -0.462415       -12.5829
 245   2.0000      -0.459838       -12.5128
 246   2.0000      -0.458401       -12.4737
 247   2.0000      -0.451216       -12.2782
 248   2.0000      -0.450555       -12.2602
 249   2.0000      -0.449355       -12.2276
 250   2.0000      -0.447064       -12.1652
 251   2.0000      -0.445571       -12.1246
 252   2.0000      -0.445112       -12.1121
 253   2.0000      -0.439956       -11.9718
 254   2.0000      -0.439722       -11.9654
 255   2.0000      -0.439509       -11.9597
 256   2.0000      -0.437552       -11.9064
 257   2.0000      -0.436086       -11.8665
 258   2.0000      -0.434119       -11.8130
 259   2.0000      -0.429044       -11.6749
 260   2.0000      -0.428687       -11.6652
 261   2.0000      -0.428033       -11.6474
 262   2.0000      -0.426210       -11.5978
 263   2.0000      -0.425300       -11.5730
 264   2.0000      -0.423981       -11.5371
 265   2.0000      -0.421391       -11.4666
 266   2.0000      -0.419464       -11.4142
 267   2.0000      -0.417921       -11.3722
 268   2.0000      -0.415834       -11.3154
 269   2.0000      -0.414780       -11.2867
 270   2.0000      -0.413637       -11.2556
 271   2.0000      -0.410608       -11.1732
 272   2.0000      -0.401815       -10.9339
 273   2.0000      -0.400939       -10.9101
 274   2.0000      -0.399495       -10.8708
 275   2.0000      -0.396058       -10.7773
 276   2.0000      -0.390060       -10.6141
 277   2.0000      -0.380510       -10.3542
 278   2.0000      -0.376759       -10.2521
 279   2.0000      -0.372454       -10.1350
 280   2.0000      -0.367518       -10.0007
 281   2.0000      -0.356779        -9.7084
 282   2.0000      -0.347415        -9.4537
 283   2.0000      -0.342711        -9.3256
 284   2.0000      -0.338338        -9.2067
 285   2.0000      -0.337627        -9.1873
 286   2.0000      -0.331824        -9.0294
 287   2.0000      -0.328827        -8.9478
 288   2.0000      -0.323086        -8.7916
 289   2.0000      -0.313728        -8.5370
 290   2.0000      -0.311908        -8.4874
 291   2.0000      -0.309207        -8.4140
 292   2.0000      -0.303466        -8.2577
 293   2.0000      -0.296377        -8.0648
 294   2.0000      -0.291043        -7.9197
 295   2.0000      -0.287134        -7.8133
 296   2.0000      -0.259147        -7.0517
 297   2.0000      -0.238261        -6.4834
 298   0.0000      -0.106191        -2.8896
 299   0.0000      -0.089200        -2.4273
 300   0.0000      -0.065566        -1.7841
 301   0.0000      -0.058554        -1.5933
 302   0.0000      -0.043381        -1.1804

MULLIKEN ATOMIC CHARGES
-----------------------
   0 C :    0.306321
   1 C :   -0.339480
   2 C :   -0.188340
   3 N :    0.147190
   4 C :   -0.203016
   5 N :    0.160825
   6 C :    0.024103
   7 C :   -0.019735
   8 C :   -0.069625
   9 C :    0.114087
  10 C :   -0.092625
  11 C :   -0.028233
  12 S :    0.136882
  13 C :   -0.050819
  14 C :    0.025046
  15 C :    0.152179
  16 O :   -0.151634
  17 C :   -0.091721
  18 C :   -0.003792
  19 C :   -0.194723
  20 S :    0.193977
  21 C :   -0.135268
  22 C :    0.076250
  23 C :    0.192079
  24 C :   -0.132591
  25 C :    0.521144
  26 F :   -0.154932
  27 F :   -0.167426
  28 F :   -0.166607
  29 C :    0.019434
  30 C :   -0.105906
  31 C :    0.196686
  32 O :   -0.300223
  33 C :    0.174222
  34 C :    0.008652
  35 C :    0.087320
  36 C :   -0.099591
  37 N :   -0.029459
  38 C :   -0.058631
  39 C :   -0.053958
  40 S :    0.118604
  41 N :   -0.025873
  42 C :   -0.122108
  43 S :    0.131468
  44 C :   -0.120474
  45 S :    0.207711
  46 C :   -0.125775
  47 C :    0.096374
  48 C :    0.156003
  49 C :   -0.138289
  50 C :    0.528347
  51 F :   -0.164969
  52 F :   -0.176334
  53 F :   -0.154177
  54 C :    0.008521
  55 C :   -0.104589
  56 C :    0.201905
  57 O :   -0.310682
  58 C :    0.174170
  59 C :    0.019987
  60 C :    0.005939
  61 C :    0.017855
  62 C :   -0.108355
  63 C :    0.278924
  64 C :   -0.334911
  65 C :   -0.183552
  66 N :    0.148415
  67 C :   -0.221233
  68 N :    0.167458
  69 C :    0.004572
  70 C :   -0.004178
  71 C :    0.136974
  72 O :   -0.151059
  73 C :   -0.067652
  74 C :    0.108294
  75 C :   -0.093268
  76 C :   -0.022301
  77 S :    0.137832
  78 C :   -0.053373
  79 C :    0.027918
  80 H :   -0.017254
  81 H :   -0.008138
  82 H :    0.036752
  83 H :   -0.009863
  84 H :    0.026920
  85 H :    0.002977
  86 H :   -0.023635
  87 H :    0.049562
  88 H :    0.033061
  89 H :    0.034745
  90 H :    0.007511
  91 H :    0.007759
  92 H :    0.005545
  93 H :   -0.020771
  94 H :    0.048205
  95 H :    0.034828
  96 H :    0.037929
  97 H :    0.016856
  98 H :    0.022227
  99 H :    0.010692
 100 H :   -0.012874
 101 H :   -0.005928
 102 H :    0.038788
 103 H :   -0.008080
Sum of atomic charges:   -0.0000000

LOEWDIN ATOMIC CHARGES
----------------------
   0 C :    0.077183
   1 C :   -0.139389
   2 C :   -0.017736
   3 N :   -0.056569
   4 C :   -0.022316
   5 N :   -0.052424
   6 C :   -0.020208
   7 C :   -0.049132
   8 C :    0.021348
   9 C :   -0.035661
  10 C :   -0.146357
  11 C :   -0.009369
  12 S :    0.426773
  13 C :   -0.151675
  14 C :   -0.058716
  15 C :    0.073553
  16 O :   -0.145091
  17 C :   -0.096435
  18 C :    0.036955
  19 C :   -0.194944
  20 S :    0.513563
  21 C :   -0.141378
  22 C :   -0.059715
  23 C :    0.000890
  24 C :   -0.100972
  25 C :    0.176222
  26 F :   -0.050185
  27 F :   -0.064251
  28 F :   -0.060866
  29 C :    0.032525
  30 C :   -0.092997
  31 C :    0.082756
  32 O :   -0.072466
  33 C :    0.082619
  34 C :   -0.048343
  35 C :   -0.017528
  36 C :   -0.113707
  37 N :   -0.095381
  38 C :   -0.209880
  39 C :   -0.205900
  40 S :    0.412808
  41 N :   -0.085892
  42 C :   -0.142061
  43 S :    0.406309
  44 C :   -0.194307
  45 S :    0.528627
  46 C :   -0.168233
  47 C :   -0.043317
  48 C :   -0.018455
  49 C :   -0.093045
  50 C :    0.170116
  51 F :   -0.057764
  52 F :   -0.072021
  53 F :   -0.055197
  54 C :    0.018971
  55 C :   -0.084658
  56 C :    0.078000
  57 O :   -0.081980
  58 C :    0.083216
  59 C :    0.013509
  60 C :   -0.041556
  61 C :    0.063634
  62 C :   -0.098929
  63 C :    0.071369
  64 C :   -0.144915
  65 C :   -0.019891
  66 N :   -0.055274
  67 C :   -0.025041
  68 N :   -0.055050
  69 C :   -0.019233
  70 C :   -0.054546
  71 C :    0.081332
  72 O :   -0.151385
  73 C :    0.022235
  74 C :   -0.036859
  75 C :   -0.145634
  76 C :   -0.012233
  77 S :    0.427610
  78 C :   -0.151454
  79 C :   -0.057968
  80 H :    0.038586
  81 H :    0.040210
  82 H :    0.028496
  83 H :    0.034068
  84 H :    0.043899
  85 H :    0.038432
  86 H :    0.031260
  87 H :    0.034217
  88 H :    0.020041
  89 H :    0.021508
  90 H :    0.024433
  91 H :    0.040961
  92 H :    0.038783
  93 H :    0.032732
  94 H :    0.033409
  95 H :    0.021207
  96 H :    0.022247
  97 H :    0.039506
  98 H :    0.023106
  99 H :    0.043492
 100 H :    0.039939
 101 H :    0.040056
 102 H :    0.029055
 103 H :    0.034725

  Mayer bond orders larger than 0.100000
B(  0-C ,  1-C ) :   1.6442 B(  0-C ,  6-C ) :   1.0078 B(  0-C , 17-C ) :   1.0728
B(  1-C ,  2-C ) :   1.1366 B(  1-C ,  4-C ) :   1.1454 B(  2-C ,  3-N ) :   2.9732
B(  4-C ,  5-N ) :   2.9879 B(  6-C ,  7-C ) :   1.2703 B(  6-C , 11-C ) :   1.4057
B(  7-C ,  8-C ) :   1.4305 B(  7-C , 15-C ) :   0.9447 B(  8-C ,  9-C ) :   1.2395
B(  8-C , 80-H ) :   1.0179 B(  9-C , 10-C ) :   1.3039 B(  9-C , 14-C ) :   1.1722
B( 10-C , 11-C ) :   1.3236 B( 10-C , 12-S ) :   1.0965 B( 11-C , 81-H ) :   0.9831
B( 12-S , 13-C ) :   1.1263 B( 13-C , 14-C ) :   1.6270 B( 13-C , 82-H ) :   0.9688
B( 14-C , 83-H ) :   0.9994 B( 15-C , 16-O ) :   2.2088 B( 15-C , 17-C ) :   0.9406
B( 17-C , 18-C ) :   1.6137 B( 18-C , 19-C ) :   1.1467 B( 18-C , 84-H ) :   0.9341
B( 19-C , 20-S ) :   1.1288 B( 19-C , 21-C ) :   0.1079 B( 19-C , 23-C ) :   1.3547
B( 20-S , 21-C ) :   1.2064 B( 21-C , 22-C ) :   1.3194 B( 21-C , 34-C ) :   1.1368
B( 22-C , 23-C ) :   1.2571 B( 22-C , 31-C ) :   1.1864 B( 23-C , 24-C ) :   1.2155
B( 24-C , 25-C ) :   0.9687 B( 24-C , 29-C ) :   1.5256 B( 25-C , 26-F ) :   1.1439
B( 25-C , 27-F ) :   1.1528 B( 25-C , 28-F ) :   1.1349 B( 29-C , 30-C ) :   1.2157
B( 29-C , 85-H ) :   0.9867 B( 30-C , 31-C ) :   1.4230 B( 30-C , 86-H ) :   0.9932
B( 31-C , 32-O ) :   1.2094 B( 32-O , 33-C ) :   0.9417 B( 33-C , 87-H ) :   0.9775
B( 33-C , 88-H ) :   0.9696 B( 33-C , 89-H ) :   0.9709 B( 34-C , 35-C ) :   1.6678
B( 34-C , 90-H ) :   0.9382 B( 35-C , 36-C ) :   1.1586 B( 35-C , 91-H ) :   0.9659
B( 36-C , 37-N ) :   1.6522 B( 36-C , 40-S ) :   1.0689 B( 37-N , 38-C ) :   1.4160
B( 38-C , 39-C ) :   1.2791 B( 38-C , 43-S ) :   1.1018 B( 39-C , 40-S ) :   1.1062
B( 39-C , 41-N ) :   1.3953 B( 41-N , 42-C ) :   1.7002 B( 41-N , 43-S ) :   0.1069
B( 42-C , 43-S ) :   1.0720 B( 42-C , 44-C ) :   1.1038 B( 44-C , 45-S ) :   1.2034
B( 44-C , 46-C ) :   0.1178 B( 44-C , 48-C ) :   1.3580 B( 45-S , 46-C ) :   1.1456
B( 46-C , 47-C ) :   1.3123 B( 46-C , 59-C ) :   1.1924 B( 47-C , 48-C ) :   1.2429
B( 47-C , 56-C ) :   1.1815 B( 48-C , 49-C ) :   1.2305 B( 49-C , 50-C ) :   0.9575
B( 49-C , 54-C ) :   1.5393 B( 50-C , 51-F ) :   1.1342 B( 50-C , 52-F ) :   1.1367
B( 50-C , 53-F ) :   1.1764 B( 54-C , 55-C ) :   1.2108 B( 54-C , 92-H ) :   0.9864
B( 55-C , 56-C ) :   1.4279 B( 55-C , 93-H ) :   0.9946 B( 56-C , 57-O ) :   1.1819
B( 57-O , 58-C ) :   0.9405 B( 58-C , 94-H ) :   0.9782 B( 58-C , 95-H ) :   0.9702
B( 58-C , 96-H ) :   0.9702 B( 59-C , 60-C ) :   1.5615 B( 59-C , 97-H ) :   0.9743
B( 60-C , 61-C ) :   1.1696 B( 60-C , 98-H ) :   0.9581 B( 61-C , 62-C ) :   1.5749
B( 61-C , 99-H ) :   0.9562 B( 62-C , 63-C ) :   1.0484 B( 62-C , 71-C ) :   0.9472
B( 63-C , 64-C ) :   1.6308 B( 63-C , 69-C ) :   1.0144 B( 64-C , 65-C ) :   1.1295
B( 64-C , 67-C ) :   1.1623 B( 65-C , 66-N ) :   2.9851 B( 67-C , 68-N ) :   3.0127
B( 69-C , 70-C ) :   1.2669 B( 69-C , 76-C ) :   1.4187 B( 70-C , 71-C ) :   0.9264
B( 70-C , 73-C ) :   1.4297 B( 71-C , 72-O ) :   2.2557 B( 73-C , 74-C ) :   1.2504
B( 73-C ,100-H ) :   1.0155 B( 74-C , 75-C ) :   1.3043 B( 74-C , 79-C ) :   1.1728
B( 75-C , 76-C ) :   1.3193 B( 75-C , 77-S ) :   1.0971 B( 76-C ,101-H ) :   0.9840
B( 77-S , 78-C ) :   1.1264 B( 78-C , 79-C ) :   1.6287 B( 78-C ,102-H ) :   0.9686
B( 79-C ,103-H ) :   0.9992

-----------------------------------------------------------------------------
         ABSORPTION SPECTRUM VIA TRANSITION ELECTRIC DIPOLE MOMENTS
-----------------------------------------------------------------------------
State   Energy  Wavelength   fosc         T2         TX        TY        TZ
        (cm-1)    (nm)                  (au**2)     (au)      (au)      (au)
-----------------------------------------------------------------------------
   0   14429.7    693.0   1.797485349  41.00940  -4.53555   2.25155  -3.92030
   1   18009.8    555.3   0.454868975   8.31481  -0.71312  -0.57565  -2.73402
   2   21729.2    460.2   0.047557361   0.72053  -0.66242   0.23624   0.47531
   3   23077.8    433.3   0.395696686   5.64475  -1.05115  -0.68076   2.01901
   4   24705.9    404.8   0.021529091   0.28688   0.45634  -0.08452  -0.26737
   5   25029.2    399.5   0.032338519   0.42535  -0.46582   0.08189   0.44906
   6   25833.3    387.1   0.029152224   0.37151  -0.33678   0.32100  -0.39375
   7   26147.9    382.4   0.129200496   1.62669   1.04147   0.03857   0.73522
   8   27028.9    370.0   0.005418410   0.06600   0.15042  -0.05738  -0.20020
   9   27385.6    365.2   0.146591051   1.76223   0.71682  -1.09738   0.21012
  10   27858.1    359.0   0.064437023   0.76148   0.67971  -0.11852  -0.53426
  11   28403.7    352.1   0.093802725   1.08722  -0.09748   0.18585  -1.02136
  12   28719.1    348.2   0.006711764   0.07694  -0.16862   0.04995  -0.21450
  13   29517.3    338.8   0.042284500   0.47161   0.67928  -0.05409   0.08523
  14   29586.5    338.0   0.050391354   0.56071  -0.68866  -0.29310   0.02335
  15   29906.5    334.4   0.352981862   3.88564   1.77427  -0.40396  -0.75791
  16   30811.3    324.6   0.074578632   0.79686  -0.64074   0.61798  -0.06645
  17   31251.2    320.0   0.088284335   0.93002  -0.88028   0.07147  -0.38732
  18   32108.1    311.4   0.034831919   0.35714   0.04944   0.01309  -0.59542
  19   32176.9    310.8   0.022687943   0.23213  -0.08554   0.47249  -0.03955
  20   32848.1    304.4   0.334463895   3.35208  -1.58156   0.02557  -0.92201
  21   32890.8    304.0   0.174762063   1.74924   1.17444  -0.53717  -0.28527
  22   33026.3    302.8   0.114310771   1.13947  -0.83458  -0.15972  -0.64608
  23   33126.5    301.9   0.471544482   4.68622   1.12338  -1.82635   0.29782
  24   33226.0    301.0   0.053114413   0.52627   0.22428  -0.68765   0.05576
  25   33415.9    299.3   0.040728682   0.40126   0.13634  -0.32292   0.52763
  26   33648.6    297.2   0.260372507   2.54744   1.56331  -0.05595   0.31679
  27   34464.4    290.2   0.161004530   1.53795  -0.06236   1.17081  -0.40405
  28   34611.3    288.9   0.141784840   1.34861  -0.83429  -0.18733   0.78579
  29   34744.8    287.8   0.026192084   0.24817  -0.47936   0.13008   0.03834
  30   35292.5    283.3   0.043233997   0.40329   0.48521  -0.29889  -0.28022
  31   36082.1    277.1   0.012003776   0.10952   0.27316   0.09982   0.15793
  32   36225.2    276.1   0.054464279   0.49497   0.03654  -0.40234  -0.57598
  33   36855.1    271.3   0.172568685   1.54149  -0.54831  -1.02887  -0.42692
  34   37172.3    269.0   0.014338484   0.12699  -0.18819   0.05724  -0.29714
  35   37305.5    268.1   0.010106249   0.08919   0.26102  -0.11671   0.08619
  36   37787.0    264.6   0.058578303   0.51035  -0.59173   0.19138  -0.35154
  37   37948.9    263.5   0.017818713   0.15458  -0.33020   0.13656   0.16401
  38   37965.3    263.4   0.050810652   0.44060   0.37688   0.15165   0.52494
  39   38139.7    262.2   0.035630019   0.30755   0.09268  -0.53218  -0.12546
  40   38347.7    260.8   0.104830231   0.89996   0.73395  -0.14358   0.58366
  41   38636.8    258.8   0.189237069   1.61243  -0.24262   0.14637   1.23780
  42   39056.2    256.0   0.014463640   0.12192  -0.11473   0.10186   0.31365
  43   39120.6    255.6   0.036905949   0.31057   0.17612   0.42817  -0.31020
  44   39284.6    254.6   0.060445211   0.50654   0.29916   0.42544   0.48585
  45   39512.9    253.1   0.078149254   0.65112  -0.40750  -0.27242  -0.64098
  46   39789.5    251.3   0.036687169   0.30354   0.20203   0.22503  -0.46053
  47   39887.0    250.7   0.019472369   0.16072   0.10570  -0.36883   0.11624
  48   40068.3    249.6   0.055578961   0.45665  -0.18870  -0.10817   0.63980
  49   40224.0    248.6   0.007701499   0.06303   0.13663   0.21062  -0.00139
  50   40257.0    248.4   0.052779057   0.43161  -0.40306  -0.39174   0.34014

FINAL SINGLE POINT ENERGY     -5837.231152288668

DIPOLE MOMENT
-------------
                                X             Y             Z
Electronic contribution:     24.93032      -5.02108      39.72260
Nuclear contribution   :    -26.27809       1.97590     -44.60577
                        -----------------------------------------
Total Dipole Moment    :     -1.34776      -3.04518      -4.88317
                        -----------------------------------------
Magnitude (a.u.)       :      5.91058
Magnitude (Debye)      :     15.02351

Rotational constants in cm-1:     0.001326     0.000173     0.000161
Rotational constants in MHz :    39.742691     5.189134     4.817435

                             ****ORCA TERMINATED NORMALLY****
TOTAL RUN TIME: 0 days 0 hours 16 minutes 48 seconds 765 msec
