                         Program Version 4.2.0 -  RELEASE  -
|  1> # ORCA input file
|  2> # SCF done       -148.615637784188          0.000824366817
|  3> ! CAM-B3LYP def2-SVP def2/J RIJCOSX Grid4 TightSCF
|  4> %maxcore 5000
|  5> %tddft
|  6>     Mode sTDDFT
|  7>     Ethresh 5.0
|  8>     maxcore 5000
|  9> end
| 10>
| 11> %pal
| 12>   nprocs 6
| 13>   end
| 14> * xyz 0 1
| 15>    C       -0.46597         3.74377        -1.10690
| 16>    S        0.83090         4.40412        -0.20521
| 17>    C        1.95551         3.22433        -0.83434
| 18>    C        1.30976         2.36228        -1.71318
| 19>    C       -0.07913         2.67051        -1.86049
| 20>    C       -0.95412         1.94516        -2.69212
| 21>    N       -1.67006         1.36129        -3.36962
| 22>    C        1.89647         1.29452        -2.40606
| 23>    N        2.33740         0.41238        -2.99426
| 24>    C        3.30402         3.28145        -0.40117
| 25>    C        4.29062         2.43635        -0.80151
| 26>    C        5.63592         2.47219        -0.38353
| 27>    S        6.71245         1.26399        -1.05721
| 28>    C        8.09402         1.85765        -0.17410
| 29>    C        7.70455         2.94573         0.59486
| 30>    C        6.33648         3.30411         0.49460
| 31>    C        6.04325         4.42359         1.32062
| 32>    C        7.12333         4.88529         1.99912
| 33>    C        7.20039         6.03886         2.92613
| 34>    S        8.58160         3.96963         1.67480
| 35>    C        9.37157         1.28388        -0.25912
| 36>    S       10.67158         1.94545         0.70660
| 37>    C       11.83563         0.78218         0.12155
| 38>    C       11.20517        -0.05292        -0.79430
| 39>    C        9.83095         0.20342        -1.01027
| 40>    C        9.26048        -0.70873        -1.93898
| 41>    C       10.15764        -1.61029        -2.40373
| 42>    C        9.92793        -2.70795        -3.37487
| 43>    S       11.76940        -1.38765        -1.72828
| 44>    C       13.20840         0.69520         0.46417
| 45>    C       13.89756         1.41327         1.43369
| 46>    O       15.25530         1.25142         1.62879
| 47>    C       15.87402         0.32936         0.84618
| 48>    C       15.16104        -0.43042        -0.12285
| 49>    C       15.94745        -1.30251        -0.80081
| 50>    S       17.58073        -1.20692        -0.26199
| 51>    C       17.19407         0.02017         0.88626
| 52>    O       13.82308        -0.25587        -0.32112
| 53>    C       13.30332         2.33554         2.31805
| 54>    C       13.98001         3.03905         3.27865
| 55>    C       13.29087         3.91401         4.13218
| 56>    C       13.85278         4.64092         5.15286
| 57>    C       13.16480         5.54051         6.04668
| 58>    C       11.83689         5.89511         6.01439
| 59>    C       10.87478         5.44743         5.09075
| 60>    N       10.00717         5.15827         4.39317
| 61>    C       11.23057         6.79253         6.91671
| 62>    N       10.66102         7.51424         7.60585
| 63>    C       14.14292         6.03971         7.01338
| 64>    C       15.40026         5.48990         6.71092
| 65>    C       15.28446         4.60222         5.53765
| 66>    O       16.18285         3.97584         5.01342
| 67>    C       16.51487         5.79383         7.46766
| 68>    C       16.36700         6.65709         8.54168
| 69>    C       15.12835         7.21006         8.86029
| 70>    C       14.00891         6.89915         8.09008
| 71>    C       14.99516         8.11947        10.04090
| 72>    H       -1.44676         4.17184        -1.04170
| 73>    H        3.52503         4.07066         0.30043
| 74>    H        4.05157         1.65252        -1.50695
| 75>    H        5.07411         4.87626         1.41659
| 76>    H        7.89706         5.82342         3.73405
| 77>    H        6.21979         6.26916         3.33584
| 78>    H        7.57157         6.91946         2.39968
| 79>    H        8.22882        -0.68717        -2.23870
| 80>    H       10.56210        -2.58040        -4.25172
| 81>    H        8.88758        -2.71904        -3.68945
| 82>    H       10.17328        -3.67041        -2.92687
| 83>    H       15.66047        -1.98387        -1.57382
| 84>    H       17.94947         0.43899         1.51709
| 85>    H       12.23803         2.48084         2.24833
| 86>    H       15.04684         2.92388         3.39159
| 87>    H       12.22425         4.00577         3.96446
| 88>    H       17.47222         5.36261         7.21812
| 89>    H       17.22508         6.90911         9.14784
| 90>    H       13.05557         7.33228         8.34681
| 91>    H       15.84462         8.79602        10.10602
| 92>    H       14.96683         7.53112        10.95856
| 93>    H       14.07932         8.70167         9.98296
| 94> *
| 95>
| 96>                          ****END OF INPUT****

CARTESIAN COORDINATES (ANGSTROEM)
---------------------------------
  C     -0.465970    3.743770   -1.106900
  S      0.830900    4.404120   -0.205210
  C      1.955510    3.224330   -0.834340
  C      1.309760    2.362280   -1.713180
  C     -0.079130    2.670510   -1.860490
  C     -0.954120    1.945160   -2.692120
  N     -1.670060    1.361290   -3.369620
  C      1.896470    1.294520   -2.406060
  N      2.337400    0.412380   -2.994260
  C      3.304020    3.281450   -0.401170
  C      4.290620    2.436350   -0.801510
  C      5.635920    2.472190   -0.383530
  S      6.712450    1.263990   -1.057210
  C      8.094020    1.857650   -0.174100
  C      7.704550    2.945730    0.594860
  C      6.336480    3.304110    0.494600
  C      6.043250    4.423590    1.320620
  C      7.123330    4.885290    1.999120
  C      7.200390    6.038860    2.926130
  S      8.581600    3.969630    1.674800
  C      9.371570    1.283880   -0.259120
  S     10.671580    1.945450    0.706600
  C     11.835630    0.782180    0.121550
  C     11.205170   -0.052920   -0.794300
  C      9.830950    0.203420   -1.010270
  C      9.260480   -0.708730   -1.938980
  C     10.157640   -1.610290   -2.403730
  C      9.927930   -2.707950   -3.374870
  S     11.769400   -1.387650   -1.728280
  C     13.208400    0.695200    0.464170
  C     13.897560    1.413270    1.433690
  O     15.255300    1.251420    1.628790
  C     15.874020    0.329360    0.846180
  C     15.161040   -0.430420   -0.122850
  C     15.947450   -1.302510   -0.800810
  S     17.580730   -1.206920   -0.261990
  C     17.194070    0.020170    0.886260
  O     13.823080   -0.255870   -0.321120
  C     13.303320    2.335540    2.318050
  C     13.980010    3.039050    3.278650
  C     13.290870    3.914010    4.132180
  C     13.852780    4.640920    5.152860
  C     13.164800    5.540510    6.046680
  C     11.836890    5.895110    6.014390
  C     10.874780    5.447430    5.090750
  N     10.007170    5.158270    4.393170
  C     11.230570    6.792530    6.916710
  N     10.661020    7.514240    7.605850
  C     14.142920    6.039710    7.013380
  C     15.400260    5.489900    6.710920
  C     15.284460    4.602220    5.537650
  O     16.182850    3.975840    5.013420
  C     16.514870    5.793830    7.467660
  C     16.367000    6.657090    8.541680
  C     15.128350    7.210060    8.860290
  C     14.008910    6.899150    8.090080
  C     14.995160    8.119470   10.040900
  H     -1.446760    4.171840   -1.041700
  H      3.525030    4.070660    0.300430
  H      4.051570    1.652520   -1.506950
  H      5.074110    4.876260    1.416590
  H      7.897060    5.823420    3.734050
  H      6.219790    6.269160    3.335840
  H      7.571570    6.919460    2.399680
  H      8.228820   -0.687170   -2.238700
  H     10.562100   -2.580400   -4.251720
  H      8.887580   -2.719040   -3.689450
  H     10.173280   -3.670410   -2.926870
  H     15.660470   -1.983870   -1.573820
  H     17.949470    0.438990    1.517090
  H     12.238030    2.480840    2.248330
  H     15.046840    2.923880    3.391590
  H     12.224250    4.005770    3.964460
  H     17.472220    5.362610    7.218120
  H     17.225080    6.909110    9.147840
  H     13.055570    7.332280    8.346810
  H     15.844620    8.796020   10.106020
  H     14.966830    7.531120   10.958560
  H     14.079320    8.701670    9.982960

 Total Charge           Charge          ....    0
 Multiplicity           Mult            ....    1
 Number of Electrons    NEL             ....  434
 Basis Dimension        Dim             ....  932

ORBITAL ENERGIES
----------------

  NO   OCC          E(Eh)            E(eV)
   0   2.0000     -88.986901     -2421.4567
   1   2.0000     -88.978773     -2421.2355
   2   2.0000     -88.970255     -2421.0037
   3   2.0000     -88.963292     -2420.8143
   4   2.0000     -88.956674     -2420.6342
   5   2.0000     -88.954895     -2420.5858
   6   2.0000     -19.296370      -525.0809
   7   2.0000     -19.277607      -524.5703
   8   2.0000     -19.206570      -522.6373
   9   2.0000     -14.419165      -392.3654
  10   2.0000     -14.411573      -392.1588
  11   2.0000     -14.408958      -392.0877
  12   2.0000     -14.408448      -392.0738
  13   2.0000     -10.379371      -282.4370
  14   2.0000     -10.357041      -281.8294
  15   2.0000     -10.353921      -281.7445
  16   2.0000     -10.348811      -281.6055
  17   2.0000     -10.346043      -281.5301
  18   2.0000     -10.339587      -281.3545
  19   2.0000     -10.334869      -281.2261
  20   2.0000     -10.333943      -281.2009
  21   2.0000     -10.330356      -281.1033
  22   2.0000     -10.329052      -281.0678
  23   2.0000     -10.327739      -281.0321
  24   2.0000     -10.325319      -280.9662
  25   2.0000     -10.324776      -280.9514
  26   2.0000     -10.323858      -280.9265
  27   2.0000     -10.323220      -280.9091
  28   2.0000     -10.315638      -280.7028
  29   2.0000     -10.314842      -280.6811
  30   2.0000     -10.312817      -280.6260
  31   2.0000     -10.312371      -280.6139
  32   2.0000     -10.311391      -280.5872
  33   2.0000     -10.310648      -280.5670
  34   2.0000     -10.308772      -280.5159
  35   2.0000     -10.307080      -280.4699
  36   2.0000     -10.305591      -280.4294
  37   2.0000     -10.303099      -280.3616
  38   2.0000     -10.302328      -280.3406
  39   2.0000     -10.301979      -280.3311
  40   2.0000     -10.297852      -280.2188
  41   2.0000     -10.297304      -280.2039
  42   2.0000     -10.295946      -280.1669
  43   2.0000     -10.294106      -280.1169
  44   2.0000     -10.294010      -280.1143
  45   2.0000     -10.293778      -280.1079
  46   2.0000     -10.287238      -279.9300
  47   2.0000     -10.284768      -279.8628
  48   2.0000     -10.284269      -279.8492
  49   2.0000     -10.283832      -279.8373
  50   2.0000     -10.281419      -279.7716
  51   2.0000     -10.280710      -279.7523
  52   2.0000     -10.278817      -279.7008
  53   2.0000     -10.276912      -279.6490
  54   2.0000     -10.276117      -279.6274
  55   2.0000     -10.270664      -279.4790
  56   2.0000     -10.267225      -279.3854
  57   2.0000      -8.082904      -219.9470
  58   2.0000      -8.072615      -219.6670
  59   2.0000      -8.064970      -219.4590
  60   2.0000      -8.059074      -219.2986
  61   2.0000      -8.052100      -219.1088
  62   2.0000      -8.050382      -219.0620
  63   2.0000      -6.052119      -164.6865
  64   2.0000      -6.047788      -164.5687
  65   2.0000      -6.045230      -164.4991
  66   2.0000      -6.042381      -164.4215
  67   2.0000      -6.037983      -164.3019
  68   2.0000      -6.034458      -164.2059
  69   2.0000      -6.034207      -164.1991
  70   2.0000      -6.030240      -164.0912
  71   2.0000      -6.028602      -164.0466
  72   2.0000      -6.026852      -163.9990
  73   2.0000      -6.024357      -163.9311
  74   2.0000      -6.021882      -163.8637
  75   2.0000      -6.020768      -163.8334
  76   2.0000      -6.020087      -163.8149
  77   2.0000      -6.017485      -163.7441
  78   2.0000      -6.015688      -163.6952
  79   2.0000      -6.013364      -163.6320
  80   2.0000      -6.011749      -163.5880
  81   2.0000      -1.215970       -33.0882
  82   2.0000      -1.175681       -31.9919
  83   2.0000      -1.120170       -30.4814
  84   2.0000      -1.025259       -27.8987
  85   2.0000      -1.024130       -27.8680
  86   2.0000      -1.015669       -27.6378
  87   2.0000      -1.009052       -27.4577
  88   2.0000      -0.994239       -27.0546
  89   2.0000      -0.992827       -27.0162
  90   2.0000      -0.991792       -26.9880
  91   2.0000      -0.987923       -26.8827
  92   2.0000      -0.987825       -26.8801
  93   2.0000      -0.959078       -26.0979
  94   2.0000      -0.953991       -25.9594
  95   2.0000      -0.946672       -25.7603
  96   2.0000      -0.931625       -25.3508
  97   2.0000      -0.919534       -25.0218
  98   2.0000      -0.904742       -24.6193
  99   2.0000      -0.896587       -24.3974
 100   2.0000      -0.884940       -24.0805
 101   2.0000      -0.880837       -23.9688
 102   2.0000      -0.868099       -23.6222
 103   2.0000      -0.857927       -23.3454
 104   2.0000      -0.856250       -23.2997
 105   2.0000      -0.851824       -23.1793
 106   2.0000      -0.841259       -22.8918
 107   2.0000      -0.837524       -22.7902
 108   2.0000      -0.834216       -22.7002
 109   2.0000      -0.821909       -22.3653
 110   2.0000      -0.811822       -22.0908
 111   2.0000      -0.801552       -21.8113
 112   2.0000      -0.788965       -21.4688
 113   2.0000      -0.778823       -21.1929
 114   2.0000      -0.773837       -21.0572
 115   2.0000      -0.771173       -20.9847
 116   2.0000      -0.756599       -20.5881
 117   2.0000      -0.738803       -20.1038
 118   2.0000      -0.727697       -19.8016
 119   2.0000      -0.714440       -19.4409
 120   2.0000      -0.708219       -19.2716
 121   2.0000      -0.701848       -19.0982
 122   2.0000      -0.694265       -18.8919
 123   2.0000      -0.689699       -18.7677
 124   2.0000      -0.679449       -18.4888
 125   2.0000      -0.673164       -18.3177
 126   2.0000      -0.663450       -18.0534
 127   2.0000      -0.654640       -17.8137
 128   2.0000      -0.651484       -17.7278
 129   2.0000      -0.649501       -17.6738
 130   2.0000      -0.642031       -17.4706
 131   2.0000      -0.635279       -17.2868
 132   2.0000      -0.630176       -17.1480
 133   2.0000      -0.623524       -16.9669
 134   2.0000      -0.610542       -16.6137
 135   2.0000      -0.605714       -16.4823
 136   2.0000      -0.595473       -16.2036
 137   2.0000      -0.588421       -16.0117
 138   2.0000      -0.581775       -15.8309
 139   2.0000      -0.580590       -15.7987
 140   2.0000      -0.570635       -15.5278
 141   2.0000      -0.563530       -15.3344
 142   2.0000      -0.560025       -15.2390
 143   2.0000      -0.554207       -15.0808
 144   2.0000      -0.547135       -14.8883
 145   2.0000      -0.546203       -14.8629
 146   2.0000      -0.538094       -14.6423
 147   2.0000      -0.536082       -14.5875
 148   2.0000      -0.531329       -14.4582
 149   2.0000      -0.530410       -14.4332
 150   2.0000      -0.526326       -14.3220
 151   2.0000      -0.525330       -14.2950
 152   2.0000      -0.520552       -14.1649
 153   2.0000      -0.519346       -14.1321
 154   2.0000      -0.518901       -14.1200
 155   2.0000      -0.512923       -13.9573
 156   2.0000      -0.510806       -13.8998
 157   2.0000      -0.509246       -13.8573
 158   2.0000      -0.506805       -13.7909
 159   2.0000      -0.506415       -13.7803
 160   2.0000      -0.505202       -13.7472
 161   2.0000      -0.503017       -13.6878
 162   2.0000      -0.497026       -13.5248
 163   2.0000      -0.492003       -13.3881
 164   2.0000      -0.489944       -13.3321
 165   2.0000      -0.488945       -13.3049
 166   2.0000      -0.486641       -13.2422
 167   2.0000      -0.482664       -13.1339
 168   2.0000      -0.481639       -13.1061
 169   2.0000      -0.478005       -13.0072
 170   2.0000      -0.472238       -12.8503
 171   2.0000      -0.469581       -12.7779
 172   2.0000      -0.469230       -12.7684
 173   2.0000      -0.466966       -12.7068
 174   2.0000      -0.462232       -12.5780
 175   2.0000      -0.458433       -12.4746
 176   2.0000      -0.450714       -12.2645
 177   2.0000      -0.450186       -12.2502
 178   2.0000      -0.446415       -12.1476
 179   2.0000      -0.444757       -12.1025
 180   2.0000      -0.443651       -12.0724
 181   2.0000      -0.442443       -12.0395
 182   2.0000      -0.439996       -11.9729
 183   2.0000      -0.439661       -11.9638
 184   2.0000      -0.439398       -11.9566
 185   2.0000      -0.437368       -11.9014
 186   2.0000      -0.435810       -11.8590
 187   2.0000      -0.435124       -11.8403
 188   2.0000      -0.430538       -11.7155
 189   2.0000      -0.425799       -11.5866
 190   2.0000      -0.425430       -11.5765
 191   2.0000      -0.423301       -11.5186
 192   2.0000      -0.421137       -11.4597
 193   2.0000      -0.417214       -11.3530
 194   2.0000      -0.414471       -11.2783
 195   2.0000      -0.414044       -11.2667
 196   2.0000      -0.410431       -11.1684
 197   2.0000      -0.407628       -11.0921
 198   2.0000      -0.405810       -11.0427
 199   2.0000      -0.402444       -10.9511
 200   2.0000      -0.398589       -10.8462
 201   2.0000      -0.393412       -10.7053
 202   2.0000      -0.379902       -10.3377
 203   2.0000      -0.355953        -9.6860
 204   2.0000      -0.345974        -9.4144
 205   2.0000      -0.337352        -9.1798
 206   2.0000      -0.330464        -8.9924
 207   2.0000      -0.325842        -8.8666
 208   2.0000      -0.320908        -8.7323
 209   2.0000      -0.316467        -8.6115
 210   2.0000      -0.310354        -8.4452
 211   2.0000      -0.308226        -8.3872
 212   2.0000      -0.307062        -8.3556
 213   2.0000      -0.295247        -8.0341
 214   2.0000      -0.291625        -7.9355
 215   2.0000      -0.260685        -7.0936
 216   2.0000      -0.224605        -6.1118
 217   0.0000      -0.101789        -2.7698
 218   0.0000      -0.072760        -1.9799
 219   0.0000      -0.054201        -1.4749
 220   0.0000      -0.025879        -0.7042
 221   0.0000      -0.007742        -0.2107

MULLIKEN ATOMIC CHARGES
-----------------------
   0 C :   -0.088778
   1 S :    0.160294
   2 C :   -0.106450
   3 C :   -0.019203
   4 C :   -0.045701
   5 C :   -0.198326
   6 N :    0.187716
   7 C :   -0.238416
   8 N :    0.177259
   9 C :    0.038749
  10 C :    0.063264
  11 C :   -0.127172
  12 S :    0.146398
  13 C :   -0.110865
  14 C :   -0.088791
  15 C :    0.146393
  16 C :   -0.022872
  17 C :   -0.187372
  18 C :    0.120376
  19 S :    0.138801
  20 C :   -0.069190
  21 S :    0.099163
  22 C :   -0.193649
  23 C :   -0.016934
  24 C :    0.083738
  25 C :   -0.004004
  26 C :   -0.205735
  27 C :    0.116422
  28 S :    0.143777
  29 C :    0.234785
  30 C :    0.135879
  31 O :   -0.249111
  32 C :    0.225360
  33 C :    0.219001
  34 C :   -0.167916
  35 S :    0.116711
  36 C :   -0.170506
  37 O :   -0.267650
  38 C :   -0.056691
  39 C :    0.008660
  40 C :   -0.045525
  41 C :   -0.072891
  42 C :    0.338503
  43 C :   -0.365233
  44 C :   -0.169594
  45 N :    0.126878
  46 C :   -0.191163
  47 N :    0.141571
  48 C :    0.035259
  49 C :   -0.022765
  50 C :    0.142829
  51 O :   -0.151630
  52 C :   -0.021635
  53 C :    0.006254
  54 C :   -0.037564
  55 C :   -0.065750
  56 C :    0.084545
  57 H :    0.041226
  58 H :   -0.044253
  59 H :   -0.005021
  60 H :   -0.023978
  61 H :    0.043626
  62 H :    0.018906
  63 H :    0.041042
  64 H :   -0.010959
  65 H :    0.037783
  66 H :    0.028871
  67 H :    0.038032
  68 H :    0.028171
  69 H :    0.033293
  70 H :    0.023214
  71 H :    0.033350
  72 H :    0.004585
  73 H :   -0.009289
  74 H :   -0.018524
  75 H :   -0.014105
  76 H :    0.025933
  77 H :    0.040785
  78 H :    0.027809
Sum of atomic charges:    0.0000000

LOEWDIN ATOMIC CHARGES
----------------------
   0 C :   -0.150210
   1 S :    0.477400
   2 C :   -0.123008
   3 C :   -0.104963
   4 C :   -0.081500
   5 C :   -0.031727
   6 N :   -0.035670
   7 C :   -0.029860
   8 N :   -0.049379
   9 C :   -0.070111
  10 C :   -0.007652
  11 C :   -0.175665
  12 S :    0.462546
  13 C :   -0.202825
  14 C :   -0.196132
  15 C :   -0.054098
  16 C :   -0.083712
  17 C :   -0.121133
  18 C :   -0.063047
  19 S :    0.418853
  20 C :   -0.167913
  21 S :    0.465181
  22 C :   -0.220124
  23 C :   -0.166306
  24 C :   -0.075201
  25 C :   -0.078902
  26 C :   -0.140676
  27 C :   -0.058501
  28 S :    0.410988
  29 C :    0.051362
  30 C :   -0.000933
  31 O :   -0.049656
  32 C :   -0.006417
  33 C :   -0.011842
  34 C :   -0.204717
  35 S :    0.444250
  36 C :   -0.205951
  37 O :   -0.046387
  38 C :    0.003281
  39 C :   -0.032158
  40 C :    0.062775
  41 C :   -0.107218
  42 C :    0.081947
  43 C :   -0.156057
  44 C :    0.000350
  45 N :   -0.075802
  46 C :   -0.019265
  47 N :   -0.064853
  48 C :   -0.011719
  49 C :   -0.048740
  50 C :    0.082802
  51 O :   -0.147253
  52 C :    0.014118
  53 C :   -0.008987
  54 C :   -0.002170
  55 C :   -0.008649
  56 C :   -0.043660
  57 H :    0.037590
  58 H :    0.026100
  59 H :    0.037871
  60 H :    0.025556
  61 H :    0.037829
  62 H :    0.036655
  63 H :    0.044156
  64 H :    0.023302
  65 H :    0.040312
  66 H :    0.041620
  67 H :    0.040319
  68 H :    0.030889
  69 H :    0.032999
  70 H :    0.016926
  71 H :    0.036452
  72 H :    0.038795
  73 H :    0.037999
  74 H :    0.030222
  75 H :    0.035625
  76 H :    0.035325
  77 H :    0.042648
  78 H :    0.035705

  Mayer bond orders larger than 0.100000
B(  0-C ,  1-S ) :   1.1619 B(  0-C ,  4-C ) :   1.5598 B(  0-C , 57-H ) :   0.9755
B(  1-S ,  2-C ) :   1.1477 B(  2-C ,  3-C ) :   1.4542 B(  2-C ,  9-C ) :   1.1799
B(  3-C ,  4-C ) :   1.3092 B(  3-C ,  7-C ) :   1.1714 B(  4-C ,  5-C ) :   1.1232
B(  5-C ,  6-N ) :   3.0417 B(  7-C ,  8-N ) :   2.9349 B(  9-C , 10-C ) :   1.6374
B(  9-C , 58-H ) :   0.9412 B( 10-C , 11-C ) :   1.1959 B( 10-C , 59-H ) :   0.9354
B( 11-C , 12-S ) :   1.0999 B( 11-C , 15-C ) :   1.3547 B( 12-S , 13-C ) :   1.1303
B( 13-C , 14-C ) :   1.4383 B( 13-C , 20-C ) :   1.2368 B( 14-C , 15-C ) :   1.2715
B( 14-C , 19-S ) :   1.0517 B( 15-C , 16-C ) :   1.1386 B( 16-C , 17-C ) :   1.6637
B( 16-C , 60-H ) :   0.9963 B( 17-C , 18-C ) :   1.0762 B( 17-C , 19-S ) :   1.0898
B( 18-C , 61-H ) :   0.9284 B( 18-C , 62-H ) :   0.9511 B( 18-C , 63-H ) :   0.9432
B( 20-C , 21-S ) :   1.1148 B( 20-C , 24-C ) :   1.3633 B( 21-S , 22-C ) :   1.0976
B( 22-C , 23-C ) :   1.4615 B( 22-C , 29-C ) :   1.1877 B( 23-C , 24-C ) :   1.2684
B( 23-C , 28-S ) :   1.0690 B( 24-C , 25-C ) :   1.1412 B( 25-C , 26-C ) :   1.6837
B( 25-C , 64-H ) :   0.9879 B( 26-C , 27-C ) :   1.0708 B( 26-C , 28-S ) :   1.0585
B( 27-C , 65-H ) :   0.9476 B( 27-C , 66-H ) :   0.9573 B( 27-C , 67-H ) :   0.9481
B( 29-C , 30-C ) :   1.3767 B( 29-C , 37-O ) :   1.0969 B( 30-C , 31-O ) :   1.0646
B( 30-C , 38-C ) :   1.1980 B( 31-O , 32-C ) :   1.0578 B( 32-C , 33-C ) :   1.2117
B( 32-C , 36-C ) :   1.5716 B( 33-C , 34-C ) :   1.5681 B( 33-C , 37-O ) :   1.0113
B( 34-C , 35-S ) :   1.1496 B( 34-C , 68-H ) :   0.9736 B( 35-S , 36-C ) :   1.1414
B( 36-C , 69-H ) :   0.9717 B( 38-C , 39-C ) :   1.4994 B( 38-C , 70-H ) :   0.9519
B( 39-C , 40-C ) :   1.1910 B( 39-C , 71-H ) :   0.9972 B( 40-C , 41-C ) :   1.4717
B( 40-C , 72-H ) :   0.9636 B( 41-C , 42-C ) :   1.1040 B( 41-C , 50-C ) :   0.9466
B( 42-C , 43-C ) :   1.5828 B( 42-C , 48-C ) :   0.9759 B( 43-C , 44-C ) :   1.1617
B( 43-C , 46-C ) :   1.1463 B( 44-C , 45-N ) :   2.9105 B( 46-C , 47-N ) :   2.9648
B( 48-C , 49-C ) :   1.3364 B( 48-C , 55-C ) :   1.3662 B( 49-C , 50-C ) :   0.9445
B( 49-C , 52-C ) :   1.3814 B( 50-C , 51-O ) :   2.2084 B( 52-C , 53-C ) :   1.3468
B( 52-C , 73-H ) :   1.0063 B( 53-C , 54-C ) :   1.3854 B( 53-C , 74-H ) :   0.9929
B( 54-C , 55-C ) :   1.3594 B( 54-C , 56-C ) :   1.0500 B( 55-C , 75-H ) :   0.9824
B( 56-C , 76-H ) :   0.9579 B( 56-C , 77-H ) :   0.9522 B( 56-C , 78-H ) :   0.9599

-----------------------------------------------------------------------------
         ABSORPTION SPECTRUM VIA TRANSITION ELECTRIC DIPOLE MOMENTS
-----------------------------------------------------------------------------
State   Energy  Wavelength   fosc         T2         TX        TY        TZ
        (cm-1)    (nm)                  (au**2)     (au)      (au)      (au)
-----------------------------------------------------------------------------
   0   11943.8    837.3   0.893439014  24.62632   3.83880   1.24686   2.88709
   1   19144.0    522.4   0.638751253  10.98438   2.99780  -1.33644  -0.45993
   2   20138.3    496.6   0.584859734   9.56102  -2.27800   1.73638   1.16478
   3   22883.4    437.0   0.009279001   0.13349  -0.01790   0.25098   0.26492
   4   25644.8    389.9   0.005037694   0.06467   0.01653   0.20608   0.14808
   5   26449.8    378.1   0.123313931   1.53485   0.44752  -0.82364  -0.81006
   6   27067.0    369.5   0.283612822   3.44954  -0.21845   1.29725   1.31109
   7   28055.6    356.4   0.000617247   0.00724   0.08478   0.00567   0.00486
   8   28470.5    351.2   0.203881601   2.35754  -0.68259   1.06795   0.86666
   9   29005.0    344.8   0.238351767   2.70533  -0.80956  -0.94180  -1.07840
  10   29801.3    335.6   0.035163877   0.38845  -0.29196   0.48171   0.26677
  11   29923.9    334.2   0.152860256   1.68171  -0.63182  -0.63705  -0.93632
  12   30763.0    325.1   0.002066449   0.02211   0.10437   0.03869   0.09861
  13   31068.4    321.9   0.038023978   0.40292   0.61883  -0.03169   0.13771
  14   31590.0    316.6   0.036192642   0.37718   0.12243  -0.45207  -0.39727
  15   32365.6    309.0   0.306644056   3.11908  -1.25383  -0.66030  -1.05404
  16   33221.9    301.0   0.144718080   1.43408   0.60842   0.71806   0.74047
  17   34000.8    294.1   0.039790000   0.38527  -0.21895  -0.25927  -0.51972
  18   34286.8    291.7   0.065971034   0.63344  -0.68833  -0.06788  -0.39374
  19   34726.2    288.0   0.057122516   0.54153   0.41201  -0.55231  -0.25832
  20   35091.2    285.0   0.118804993   1.11458  -0.76068  -0.45265  -0.57538
  21   35458.5    282.0   0.101704557   0.94427  -0.68526  -0.36040  -0.58720
  22   36125.4    276.8   0.056059803   0.51087   0.24197   0.50047   0.44929
  23   36271.8    275.7   0.030135835   0.27352  -0.34404   0.29754   0.25812
  24   36396.1    274.8   0.005316640   0.04809   0.20761  -0.07060   0.00182
  25   37003.3    270.2   0.039983045   0.35572  -0.44846   0.33929   0.19873
  26   37185.0    268.9   0.007768432   0.06878  -0.24292  -0.07005  -0.06970
  27   37417.1    267.3   0.406374948   3.57546   1.78100   0.06260   0.63212
  28   37907.4    263.8   0.212471960   1.84524   0.74518  -0.95434  -0.61578
  29   38073.3    262.7   0.105712610   0.91408   0.06669   0.63372   0.71276
  30   38655.4    258.7   0.039274908   0.33449   0.25342  -0.42894  -0.29373
  31   39512.9    253.1   0.045082144   0.37561   0.48301  -0.29594  -0.23396
  32   39661.5    252.1   0.007949822   0.06599   0.22637   0.10016   0.06865
  33   39816.7    251.2   0.073187593   0.60513   0.22531  -0.61384  -0.42139

FINAL SINGLE POINT ENERGY     -4520.207451408098

DIPOLE MOMENT
-------------
                                X             Y             Z
Electronic contribution:    -14.85156     -16.69778     -25.10933
Nuclear contribution   :     17.08773      17.30364      26.07655
                        -----------------------------------------
Total Dipole Moment    :      2.23617       0.60586       0.96722
                        -----------------------------------------
Magnitude (a.u.)       :      2.51059
Magnitude (Debye)      :      6.38140

Rotational constants in cm-1:     0.001423     0.000605     0.000426
Rotational constants in MHz :    42.663183    18.145912    12.779213

                             ****ORCA TERMINATED NORMALLY****
TOTAL RUN TIME: 0 days 0 hours 7 minutes 21 seconds 515 msec
