                         Program Version 4.2.0 -  RELEASE  -
|  1> # ORCA input file
|  2> # SCF done       -164.723235129728          0.000876471604
|  3> ! CAM-B3LYP def2-SVP def2/J RIJCOSX Grid4 TightSCF
|  4> %maxcore 5000
|  5> %tddft
|  6>     Mode sTDDFT
|  7>     Ethresh 5.0
|  8>     maxcore 5000
|  9> end
| 10>
| 11> %pal
| 12>   nprocs 6
| 13>   end
| 14> * xyz 0 1
| 15>    C       -3.84674         1.48915        -0.08289
| 16>    S       -2.50281         0.46206         0.11293
| 17>    C       -1.46912         1.80566         0.49365
| 18>    C       -2.15751         2.99752         0.45694
| 19>    C       -3.53201         2.80338         0.12743
| 20>    N       -4.47791         3.87362         0.05547
| 21>    O       -5.55251         3.62913        -0.44266
| 22>    O       -4.12668         4.94485         0.50135
| 23>    C       -1.56307         4.21600         0.84048
| 24>    N       -1.02735         5.14886         1.23502
| 25>    C       -0.04004         1.63261         0.74024
| 26>    C        0.46357         0.95664         1.79546
| 27>    O        1.80697         0.69690         1.95073
| 28>    C        2.60381         1.22365         0.96949
| 29>    C        2.07305         1.97853        -0.11743
| 30>    C        3.02949         2.41994        -0.96894
| 31>    S        4.59848         1.92153        -0.45808
| 32>    C        3.95272         1.10891         0.91850
| 33>    O        0.72971         2.19396        -0.26498
| 34>    C       -0.35266         0.45097         2.88688
| 35>    C       -1.41349         1.10583         3.35779
| 36>    C       -2.37745         0.55635         4.35188
| 37>    C       -3.59290         0.17672         3.48595
| 38>    O       -3.64866        -0.72158         2.69816
| 39>    O       -4.57849         1.05412         3.66754
| 40>    C       -4.21033         2.09344         4.57279
| 41>    C       -3.00728         1.53460         5.35270
| 42>    C       -2.12450         2.59765         6.00167
| 43>    C       -1.80203         3.79850         5.11866
| 44>    C       -3.02543         4.39631         4.43696
| 45>    C       -3.95308         3.38058         3.75753
| 46>    O       -5.18222         4.07606         3.59544
| 47>    C       -5.30192         5.06015         4.50364
| 48>    O       -6.26698         5.74995         4.60569
| 49>    C       -4.02597         5.10733         5.35917
| 50>    C       -3.65643         6.47501         5.79737
| 51>    C       -3.46761         6.78261         7.09548
| 52>    C       -3.16680         8.05047         7.69022
| 53>    C       -3.06789         8.02480         9.04086
| 54>    C       -3.26366         6.73891         9.61246
| 55>    S       -3.58321         5.55762         8.36612
| 56>    C       -3.23745         6.32927        10.92553
| 57>    C       -3.03765         7.05358        12.12411
| 58>    C       -3.09265         6.28146        13.24211
| 59>    C       -3.32989         4.89899        12.99487
| 60>    S       -3.48948         4.63188        11.27376
| 61>    C       -3.42621         3.91780        13.94567
| 62>    C       -3.63373         2.53712        13.73428
| 63>    S       -3.78993         1.46810        15.12285
| 64>    C       -3.98620         0.04378        14.18265
| 65>    C       -3.93704         0.35036        12.84390
| 66>    C       -3.74286         1.74920        12.60069
| 67>    O       -3.69276         1.98879        11.27262
| 68>    C       -3.84876         0.78280        10.67089
| 69>    N       -3.83257         0.76062         9.26506
| 70>    O       -3.90077        -0.32981         8.72229
| 71>    O       -3.75460         1.81971         8.66953
| 72>    C       -4.00118        -0.25202        11.55853
| 73>    H       -4.81727         1.10065        -0.32374
| 74>    H        2.90187         3.00418        -1.85583
| 75>    H        4.59622         0.59830         1.60369
| 76>    H       -0.01101        -0.47001         3.33569
| 77>    H       -1.67678         2.05863         2.92751
| 78>    H       -1.96489        -0.33272         4.82931
| 79>    H       -5.07240         2.26942         5.22321
| 80>    H       -3.41253         0.91977         6.16381
| 81>    H       -1.19224         2.12755         6.31761
| 82>    H       -2.63565         2.93732         6.90444
| 83>    H       -1.07187         3.52439         4.35623
| 84>    H       -1.34283         4.57306         5.73565
| 85>    H       -2.69307         5.11128         3.67451
| 86>    H       -3.61624         3.10202         2.75611
| 87>    H       -4.21743         4.48455         6.24152
| 88>    H       -3.56558         7.23871         5.03976
| 89>    H       -3.05165         8.93020         7.08276
| 90>    H       -2.85947         8.88389         9.65400
| 91>    H       -2.86539         8.11528        12.12593
| 92>    H       -2.96877         6.65177        14.24461
| 93>    H       -3.33551         4.22121        14.97977
| 94>    H       -4.12021        -0.90379        14.65992
| 95>    H       -4.13864        -1.28367        11.30929
| 96> *
| 97>
| 98>                          ****END OF INPUT****

CARTESIAN COORDINATES (ANGSTROEM)
---------------------------------
  C     -3.846740    1.489150   -0.082890
  S     -2.502810    0.462060    0.112930
  C     -1.469120    1.805660    0.493650
  C     -2.157510    2.997520    0.456940
  C     -3.532010    2.803380    0.127430
  N     -4.477910    3.873620    0.055470
  O     -5.552510    3.629130   -0.442660
  O     -4.126680    4.944850    0.501350
  C     -1.563070    4.216000    0.840480
  N     -1.027350    5.148860    1.235020
  C     -0.040040    1.632610    0.740240
  C      0.463570    0.956640    1.795460
  O      1.806970    0.696900    1.950730
  C      2.603810    1.223650    0.969490
  C      2.073050    1.978530   -0.117430
  C      3.029490    2.419940   -0.968940
  S      4.598480    1.921530   -0.458080
  C      3.952720    1.108910    0.918500
  O      0.729710    2.193960   -0.264980
  C     -0.352660    0.450970    2.886880
  C     -1.413490    1.105830    3.357790
  C     -2.377450    0.556350    4.351880
  C     -3.592900    0.176720    3.485950
  O     -3.648660   -0.721580    2.698160
  O     -4.578490    1.054120    3.667540
  C     -4.210330    2.093440    4.572790
  C     -3.007280    1.534600    5.352700
  C     -2.124500    2.597650    6.001670
  C     -1.802030    3.798500    5.118660
  C     -3.025430    4.396310    4.436960
  C     -3.953080    3.380580    3.757530
  O     -5.182220    4.076060    3.595440
  C     -5.301920    5.060150    4.503640
  O     -6.266980    5.749950    4.605690
  C     -4.025970    5.107330    5.359170
  C     -3.656430    6.475010    5.797370
  C     -3.467610    6.782610    7.095480
  C     -3.166800    8.050470    7.690220
  C     -3.067890    8.024800    9.040860
  C     -3.263660    6.738910    9.612460
  S     -3.583210    5.557620    8.366120
  C     -3.237450    6.329270   10.925530
  C     -3.037650    7.053580   12.124110
  C     -3.092650    6.281460   13.242110
  C     -3.329890    4.898990   12.994870
  S     -3.489480    4.631880   11.273760
  C     -3.426210    3.917800   13.945670
  C     -3.633730    2.537120   13.734280
  S     -3.789930    1.468100   15.122850
  C     -3.986200    0.043780   14.182650
  C     -3.937040    0.350360   12.843900
  C     -3.742860    1.749200   12.600690
  O     -3.692760    1.988790   11.272620
  C     -3.848760    0.782800   10.670890
  N     -3.832570    0.760620    9.265060
  O     -3.900770   -0.329810    8.722290
  O     -3.754600    1.819710    8.669530
  C     -4.001180   -0.252020   11.558530
  H     -4.817270    1.100650   -0.323740
  H      2.901870    3.004180   -1.855830
  H      4.596220    0.598300    1.603690
  H     -0.011010   -0.470010    3.335690
  H     -1.676780    2.058630    2.927510
  H     -1.964890   -0.332720    4.829310
  H     -5.072400    2.269420    5.223210
  H     -3.412530    0.919770    6.163810
  H     -1.192240    2.127550    6.317610
  H     -2.635650    2.937320    6.904440
  H     -1.071870    3.524390    4.356230
  H     -1.342830    4.573060    5.735650
  H     -2.693070    5.111280    3.674510
  H     -3.616240    3.102020    2.756110
  H     -4.217430    4.484550    6.241520
  H     -3.565580    7.238710    5.039760
  H     -3.051650    8.930200    7.082760
  H     -2.859470    8.883890    9.654000
  H     -2.865390    8.115280   12.125930
  H     -2.968770    6.651770   14.244610
  H     -3.335510    4.221210   14.979770
  H     -4.120210   -0.903790   14.659920
  H     -4.138640   -1.283670   11.309290

 Total Charge           Charge          ....    0
 Multiplicity           Mult            ....    1
 Number of Electrons    NEL             ....  446
 Basis Dimension        Dim             ....  947

ORBITAL ENERGIES
----------------

  NO   OCC          E(Eh)            E(eV)
   0   2.0000     -88.995187     -2421.6822
   1   2.0000     -88.980059     -2421.2705
   2   2.0000     -88.959342     -2420.7067
   3   2.0000     -88.940371     -2420.1905
   4   2.0000     -88.938171     -2420.1307
   5   2.0000     -19.314118      -525.5639
   6   2.0000     -19.279450      -524.6205
   7   2.0000     -19.277216      -524.5597
   8   2.0000     -19.263564      -524.1882
   9   2.0000     -19.261509      -524.1323
  10   2.0000     -19.259789      -524.0855
  11   2.0000     -19.251437      -523.8582
  12   2.0000     -19.244967      -523.6822
  13   2.0000     -19.243376      -523.6389
  14   2.0000     -19.202198      -522.5184
  15   2.0000     -19.190441      -522.1984
  16   2.0000     -14.671136      -399.2219
  17   2.0000     -14.653673      -398.7467
  18   2.0000     -14.409841      -392.1117
  19   2.0000     -10.399035      -282.9721
  20   2.0000     -10.397745      -282.9370
  21   2.0000     -10.386921      -282.6425
  22   2.0000     -10.356415      -281.8124
  23   2.0000     -10.355490      -281.7872
  24   2.0000     -10.352880      -281.7162
  25   2.0000     -10.344692      -281.4934
  26   2.0000     -10.343641      -281.4648
  27   2.0000     -10.342797      -281.4418
  28   2.0000     -10.341853      -281.4161
  29   2.0000     -10.336879      -281.2808
  30   2.0000     -10.334892      -281.2267
  31   2.0000     -10.334797      -281.2241
  32   2.0000     -10.333500      -281.1888
  33   2.0000     -10.324606      -280.9468
  34   2.0000     -10.322968      -280.9022
  35   2.0000     -10.316683      -280.7312
  36   2.0000     -10.312958      -280.6299
  37   2.0000     -10.312396      -280.6146
  38   2.0000     -10.311271      -280.5840
  39   2.0000     -10.305511      -280.4272
  40   2.0000     -10.304821      -280.4084
  41   2.0000     -10.304081      -280.3883
  42   2.0000     -10.296546      -280.1833
  43   2.0000     -10.295732      -280.1611
  44   2.0000     -10.295386      -280.1517
  45   2.0000     -10.295069      -280.1431
  46   2.0000     -10.292258      -280.0666
  47   2.0000     -10.290012      -280.0055
  48   2.0000     -10.289945      -280.0036
  49   2.0000     -10.289753      -279.9984
  50   2.0000     -10.288484      -279.9639
  51   2.0000     -10.287018      -279.9240
  52   2.0000     -10.285183      -279.8741
  53   2.0000     -10.284081      -279.8441
  54   2.0000     -10.283068      -279.8165
  55   2.0000     -10.280694      -279.7519
  56   2.0000     -10.266209      -279.3577
  57   2.0000     -10.265123      -279.3282
  58   2.0000      -8.089989      -220.1398
  59   2.0000      -8.074986      -219.7315
  60   2.0000      -8.055086      -219.1900
  61   2.0000      -8.036480      -218.6837
  62   2.0000      -8.034690      -218.6350
  63   2.0000      -6.059171      -164.8784
  64   2.0000      -6.054669      -164.7559
  65   2.0000      -6.052597      -164.6995
  66   2.0000      -6.044308      -164.4740
  67   2.0000      -6.039988      -164.3564
  68   2.0000      -6.037340      -164.2844
  69   2.0000      -6.024596      -163.9376
  70   2.0000      -6.020411      -163.8237
  71   2.0000      -6.016787      -163.7251
  72   2.0000      -6.006315      -163.4401
  73   2.0000      -6.004490      -163.3905
  74   2.0000      -6.002270      -163.3301
  75   2.0000      -6.000312      -163.2768
  76   2.0000      -5.997181      -163.1916
  77   2.0000      -5.995313      -163.1408
  78   2.0000      -1.341360       -36.5003
  79   2.0000      -1.326781       -36.1036
  80   2.0000      -1.237686       -33.6792
  81   2.0000      -1.203834       -32.7580
  82   2.0000      -1.201841       -32.7038
  83   2.0000      -1.186793       -32.2943
  84   2.0000      -1.166712       -31.7479
  85   2.0000      -1.155627       -31.4462
  86   2.0000      -1.147101       -31.2142
  87   2.0000      -1.109739       -30.1975
  88   2.0000      -1.098736       -29.8981
  89   2.0000      -1.031207       -28.0606
  90   2.0000      -1.001941       -27.2642
  91   2.0000      -0.993758       -27.0415
  92   2.0000      -0.990466       -26.9519
  93   2.0000      -0.988037       -26.8859
  94   2.0000      -0.972008       -26.4497
  95   2.0000      -0.948909       -25.8211
  96   2.0000      -0.946608       -25.7585
  97   2.0000      -0.933760       -25.4089
  98   2.0000      -0.917797       -24.9745
  99   2.0000      -0.907618       -24.6975
 100   2.0000      -0.902903       -24.5692
 101   2.0000      -0.890449       -24.2303
 102   2.0000      -0.883140       -24.0315
 103   2.0000      -0.873187       -23.7606
 104   2.0000      -0.857070       -23.3220
 105   2.0000      -0.847612       -23.0647
 106   2.0000      -0.843266       -22.9464
 107   2.0000      -0.837702       -22.7950
 108   2.0000      -0.829565       -22.5736
 109   2.0000      -0.823342       -22.4043
 110   2.0000      -0.816466       -22.2172
 111   2.0000      -0.811967       -22.0947
 112   2.0000      -0.800575       -21.7848
 113   2.0000      -0.792812       -21.5735
 114   2.0000      -0.776858       -21.1394
 115   2.0000      -0.768109       -20.9013
 116   2.0000      -0.748041       -20.3552
 117   2.0000      -0.734420       -19.9846
 118   2.0000      -0.728889       -19.8341
 119   2.0000      -0.717568       -19.5260
 120   2.0000      -0.715802       -19.4780
 121   2.0000      -0.707606       -19.2549
 122   2.0000      -0.698362       -19.0034
 123   2.0000      -0.687080       -18.6964
 124   2.0000      -0.680663       -18.5218
 125   2.0000      -0.673553       -18.3283
 126   2.0000      -0.670117       -18.2348
 127   2.0000      -0.663907       -18.0658
 128   2.0000      -0.661837       -18.0095
 129   2.0000      -0.660017       -17.9600
 130   2.0000      -0.654587       -17.8122
 131   2.0000      -0.645857       -17.5747
 132   2.0000      -0.641543       -17.4573
 133   2.0000      -0.635987       -17.3061
 134   2.0000      -0.635402       -17.2902
 135   2.0000      -0.634682       -17.2706
 136   2.0000      -0.627154       -17.0657
 137   2.0000      -0.620982       -16.8978
 138   2.0000      -0.617812       -16.8115
 139   2.0000      -0.613117       -16.6838
 140   2.0000      -0.605709       -16.4822
 141   2.0000      -0.601879       -16.3780
 142   2.0000      -0.596868       -16.2416
 143   2.0000      -0.595628       -16.2079
 144   2.0000      -0.591880       -16.1059
 145   2.0000      -0.584506       -15.9052
 146   2.0000      -0.579791       -15.7769
 147   2.0000      -0.574013       -15.6197
 148   2.0000      -0.573466       -15.6048
 149   2.0000      -0.564178       -15.3521
 150   2.0000      -0.559163       -15.2156
 151   2.0000      -0.556397       -15.1403
 152   2.0000      -0.549769       -14.9600
 153   2.0000      -0.545553       -14.8453
 154   2.0000      -0.541471       -14.7342
 155   2.0000      -0.537767       -14.6334
 156   2.0000      -0.535888       -14.5822
 157   2.0000      -0.531762       -14.4700
 158   2.0000      -0.528197       -14.3730
 159   2.0000      -0.525127       -14.2894
 160   2.0000      -0.524331       -14.2678
 161   2.0000      -0.520874       -14.1737
 162   2.0000      -0.519396       -14.1335
 163   2.0000      -0.515314       -14.0224
 164   2.0000      -0.511823       -13.9274
 165   2.0000      -0.507055       -13.7977
 166   2.0000      -0.505264       -13.7489
 167   2.0000      -0.500320       -13.6144
 168   2.0000      -0.497770       -13.5450
 169   2.0000      -0.495855       -13.4929
 170   2.0000      -0.491123       -13.3641
 171   2.0000      -0.487561       -13.2672
 172   2.0000      -0.483069       -13.1450
 173   2.0000      -0.481101       -13.0914
 174   2.0000      -0.478669       -13.0253
 175   2.0000      -0.476407       -12.9637
 176   2.0000      -0.472142       -12.8476
 177   2.0000      -0.470836       -12.8121
 178   2.0000      -0.464457       -12.6385
 179   2.0000      -0.459242       -12.4966
 180   2.0000      -0.457380       -12.4459
 181   2.0000      -0.455727       -12.4010
 182   2.0000      -0.451481       -12.2854
 183   2.0000      -0.447672       -12.1818
 184   2.0000      -0.443067       -12.0565
 185   2.0000      -0.441590       -12.0163
 186   2.0000      -0.439257       -11.9528
 187   2.0000      -0.438705       -11.9378
 188   2.0000      -0.436639       -11.8816
 189   2.0000      -0.433984       -11.8093
 190   2.0000      -0.432522       -11.7695
 191   2.0000      -0.426918       -11.6170
 192   2.0000      -0.423888       -11.5346
 193   2.0000      -0.417363       -11.3570
 194   2.0000      -0.416696       -11.3389
 195   2.0000      -0.415936       -11.3182
 196   2.0000      -0.413319       -11.2470
 197   2.0000      -0.404723       -11.0131
 198   2.0000      -0.397458       -10.8154
 199   2.0000      -0.395090       -10.7510
 200   2.0000      -0.392688       -10.6856
 201   2.0000      -0.389547       -10.6001
 202   2.0000      -0.386485       -10.5168
 203   2.0000      -0.384438       -10.4611
 204   2.0000      -0.383341       -10.4312
 205   2.0000      -0.381503       -10.3812
 206   2.0000      -0.381010       -10.3678
 207   2.0000      -0.377849       -10.2818
 208   2.0000      -0.370857       -10.0915
 209   2.0000      -0.358485        -9.7549
 210   2.0000      -0.352553        -9.5934
 211   2.0000      -0.346691        -9.4340
 212   2.0000      -0.345062        -9.3896
 213   2.0000      -0.339090        -9.2271
 214   2.0000      -0.338923        -9.2226
 215   2.0000      -0.330687        -8.9984
 216   2.0000      -0.326598        -8.8872
 217   2.0000      -0.321094        -8.7374
 218   2.0000      -0.314879        -8.5683
 219   2.0000      -0.306531        -8.3411
 220   2.0000      -0.286515        -7.7965
 221   2.0000      -0.265363        -7.2209
 222   2.0000      -0.217820        -5.9272
 223   0.0000      -0.082427        -2.2429
 224   0.0000      -0.065289        -1.7766
 225   0.0000      -0.047736        -1.2990
 226   0.0000      -0.033558        -0.9132
 227   0.0000      -0.011312        -0.3078

MULLIKEN ATOMIC CHARGES
-----------------------
   0 C :   -0.104148
   1 S :    0.279395
   2 C :   -0.253908
   3 C :   -0.015684
   4 C :    0.163637
   5 N :    0.261419
   6 O :   -0.226231
   7 O :   -0.219920
   8 C :   -0.210598
   9 N :    0.181531
  10 C :    0.087889
  11 C :    0.169597
  12 O :   -0.250663
  13 C :    0.211433
  14 C :    0.228882
  15 C :   -0.171489
  16 S :    0.113372
  17 C :   -0.168455
  18 O :   -0.251871
  19 C :   -0.000839
  20 C :    0.000877
  21 C :   -0.055961
  22 C :    0.180669
  23 O :   -0.174373
  24 O :   -0.248311
  25 C :    0.138410
  26 C :   -0.041580
  27 C :    0.080276
  28 C :    0.104503
  29 C :   -0.074608
  30 C :    0.173006
  31 O :   -0.258985
  32 C :    0.201532
  33 O :   -0.142354
  34 C :   -0.153664
  35 C :    0.018346
  36 C :   -0.015270
  37 C :    0.053377
  38 C :    0.035043
  39 C :   -0.044801
  40 S :    0.051565
  41 C :   -0.041236
  42 C :    0.042657
  43 C :    0.027453
  44 C :   -0.022805
  45 S :    0.072428
  46 C :    0.042645
  47 C :   -0.228141
  48 S :    0.151387
  49 C :   -0.138690
  50 C :    0.124008
  51 C :    0.192889
  52 O :   -0.194602
  53 C :    0.248887
  54 N :    0.288866
  55 O :   -0.244043
  56 O :   -0.230996
  57 C :   -0.078310
  58 H :    0.054536
  59 H :    0.030491
  60 H :    0.026872
  61 H :    0.008521
  62 H :    0.027315
  63 H :    0.027497
  64 H :    0.026190
  65 H :    0.009499
  66 H :    0.001713
  67 H :    0.029113
  68 H :    0.016595
  69 H :    0.010243
  70 H :    0.029834
  71 H :    0.002465
  72 H :    0.051203
  73 H :    0.005003
  74 H :   -0.005083
  75 H :   -0.012018
  76 H :   -0.011786
  77 H :   -0.014526
  78 H :   -0.023709
  79 H :    0.032216
  80 H :    0.014370
Sum of atomic charges:    0.0000000

LOEWDIN ATOMIC CHARGES
----------------------
   0 C :   -0.136520
   1 S :    0.559388
   2 C :   -0.149312
   3 C :   -0.100589
   4 C :   -0.066610
   5 N :    0.284586
   6 O :   -0.189902
   7 O :   -0.182811
   8 C :   -0.035946
   9 N :   -0.042911
  10 C :   -0.018425
  11 C :    0.030595
  12 O :   -0.057458
  13 C :   -0.006798
  14 C :   -0.005140
  15 C :   -0.204325
  16 S :    0.440438
  17 C :   -0.206216
  18 O :   -0.059869
  19 C :   -0.031663
  20 C :    0.000913
  21 C :   -0.051559
  22 C :    0.077651
  23 O :   -0.163618
  24 O :   -0.061111
  25 C :    0.072015
  26 C :   -0.032953
  27 C :   -0.029713
  28 C :   -0.029063
  29 C :   -0.027255
  30 C :    0.060428
  31 O :   -0.068932
  32 C :    0.082677
  33 O :   -0.137147
  34 C :   -0.071737
  35 C :   -0.027977
  36 C :   -0.140087
  37 C :   -0.020160
  38 C :   -0.029606
  39 C :   -0.170389
  40 S :    0.367592
  41 C :   -0.189884
  42 C :   -0.025249
  43 C :   -0.039225
  44 C :   -0.137763
  45 S :    0.393157
  46 C :   -0.098812
  47 C :   -0.194594
  48 S :    0.477983
  49 C :   -0.192747
  50 C :   -0.081465
  51 C :    0.007563
  52 O :   -0.001822
  53 C :    0.021849
  54 N :    0.280451
  55 O :   -0.210001
  56 O :   -0.191786
  57 C :   -0.001404
  58 H :    0.047180
  59 H :    0.031810
  60 H :    0.030110
  61 H :    0.037157
  62 H :    0.022961
  63 H :    0.045542
  64 H :    0.032876
  65 H :    0.032941
  66 H :    0.031390
  67 H :    0.022873
  68 H :    0.025758
  69 H :    0.034328
  70 H :    0.038974
  71 H :    0.018103
  72 H :    0.031654
  73 H :    0.036459
  74 H :    0.036503
  75 H :    0.033035
  76 H :    0.032620
  77 H :    0.031841
  78 H :    0.032532
  79 H :    0.028814
  80 H :    0.047806

  Mayer bond orders larger than 0.100000
B(  0-C ,  1-S ) :   1.2222 B(  0-C ,  4-C ) :   1.5248 B(  0-C , 58-H ) :   0.9543
B(  1-S ,  2-C ) :   1.2120 B(  2-C ,  3-C ) :   1.5288 B(  2-C , 10-C ) :   1.0431
B(  3-C ,  4-C ) :   1.2348 B(  3-C ,  8-C ) :   1.1600 B(  4-C ,  5-N ) :   0.9025
B(  5-N ,  6-O ) :   1.5498 B(  5-N ,  7-O ) :   1.5326 B(  6-O ,  7-O ) :   0.2760
B(  8-C ,  9-N ) :   2.9737 B( 10-C , 11-C ) :   1.6337 B( 10-C , 18-O ) :   1.0652
B( 11-C , 12-O ) :   1.0572 B( 11-C , 19-C ) :   1.0477 B( 12-O , 13-C ) :   1.0423
B( 13-C , 14-C ) :   1.1990 B( 13-C , 17-C ) :   1.5815 B( 14-C , 15-C ) :   1.5806
B( 14-C , 18-O ) :   1.0466 B( 15-C , 16-S ) :   1.1423 B( 15-C , 59-H ) :   0.9700
B( 16-S , 17-C ) :   1.1444 B( 17-C , 60-H ) :   0.9706 B( 19-C , 20-C ) :   1.8553
B( 19-C , 61-H ) :   0.9569 B( 20-C , 21-C ) :   0.9958 B( 20-C , 62-H ) :   0.9294
B( 21-C , 22-C ) :   0.8838 B( 21-C , 26-C ) :   0.9904 B( 21-C , 63-H ) :   0.9154
B( 22-C , 23-O ) :   2.1983 B( 22-C , 24-O ) :   1.1579 B( 24-O , 25-C ) :   0.9513
B( 25-C , 26-C ) :   1.0144 B( 25-C , 30-C ) :   0.9666 B( 25-C , 64-H ) :   0.9164
B( 26-C , 27-C ) :   1.0706 B( 26-C , 65-H ) :   0.8887 B( 27-C , 28-C ) :   1.0604
B( 27-C , 66-H ) :   0.9226 B( 27-C , 67-H ) :   0.9295 B( 28-C , 29-C ) :   1.0691
B( 28-C , 68-H ) :   0.9322 B( 28-C , 69-H ) :   0.9200 B( 29-C , 30-C ) :   1.0091
B( 29-C , 34-C ) :   0.9646 B( 29-C , 70-H ) :   0.9119 B( 30-C , 31-O ) :   0.9551
B( 30-C , 71-H ) :   0.9029 B( 31-O , 32-C ) :   1.1292 B( 32-C , 33-O ) :   2.2678
B( 32-C , 34-C ) :   0.8717 B( 34-C , 35-C ) :   1.0120 B( 34-C , 72-H ) :   0.8972
B( 35-C , 36-C ) :   1.7592 B( 35-C , 73-H ) :   0.9678 B( 36-C , 37-C ) :   1.0886
B( 36-C , 40-S ) :   1.0048 B( 37-C , 38-C ) :   1.6442 B( 37-C , 74-H ) :   0.9975
B( 38-C , 39-C ) :   1.1554 B( 38-C , 75-H ) :   0.9936 B( 39-C , 40-S ) :   1.0520
B( 39-C , 41-C ) :   1.5414 B( 41-C , 42-C ) :   1.1705 B( 41-C , 45-S ) :   1.0244
B( 42-C , 43-C ) :   1.6096 B( 42-C , 76-H ) :   0.9930 B( 43-C , 44-C ) :   1.1319
B( 43-C , 77-H ) :   0.9996 B( 44-C , 45-S ) :   1.0517 B( 44-C , 46-C ) :   1.6071
B( 46-C , 47-C ) :   1.1449 B( 46-C , 78-H ) :   0.9461 B( 47-C , 48-S ) :   1.1369
B( 47-C , 49-C ) :   0.1092 B( 47-C , 51-C ) :   1.4302 B( 48-S , 49-C ) :   1.1822
B( 49-C , 50-C ) :   1.4276 B( 49-C , 79-H ) :   0.9773 B( 50-C , 51-C ) :   1.2304
B( 50-C , 57-C ) :   1.0745 B( 51-C , 52-O ) :   1.0806 B( 52-O , 53-C ) :   1.1225
B( 53-C , 54-N ) :   0.9270 B( 53-C , 57-C ) :   1.5571 B( 54-N , 55-O ) :   1.5215
B( 54-N , 56-O ) :   1.4758 B( 55-O , 56-O ) :   0.2655 B( 57-C , 80-H ) :   1.0263

-----------------------------------------------------------------------------
         ABSORPTION SPECTRUM VIA TRANSITION ELECTRIC DIPOLE MOMENTS
-----------------------------------------------------------------------------
State   Energy  Wavelength   fosc         T2         TX        TY        TZ
        (cm-1)    (nm)                  (au**2)     (au)      (au)      (au)
-----------------------------------------------------------------------------
   0   12673.6    789.0   0.086515079   2.24733  -0.10971  -1.15287   0.95194
   1   18608.9    537.4   0.905112384  16.01243  -0.11144  -2.35062   3.23645
   2   26618.2    375.7   0.000105783   0.00131  -0.00889   0.01643   0.03097
   3   26991.3    370.5   0.039000588   0.47569   0.08629   0.44701  -0.51810
   4   27979.9    357.4   0.059048849   0.69477  -0.50815   0.28885  -0.59424
   5   28753.2    347.8   0.000078788   0.00090   0.02809   0.00904   0.00560
   6   29780.5    335.8   0.000123919   0.00137   0.00460   0.02061   0.03039
   7   29913.1    334.3   0.001271989   0.01400  -0.01664  -0.09220   0.07225
   8   30002.2    333.3   0.012100579   0.13278  -0.01824  -0.34046   0.12858
   9   31802.9    314.4   0.354360425   3.66820  -0.23679  -1.15944  -1.50593
  10   32538.5    307.3   0.006808245   0.06888  -0.02086  -0.07079   0.25187
  11   33522.7    298.3   0.000462516   0.00454   0.00076  -0.01122  -0.06645
  12   33879.8    295.2   0.000083770   0.00081  -0.01411  -0.02274   0.00988
  13   34149.0    292.8   0.007671180   0.07395   0.03848   0.22643   0.14561
  14   34186.4    292.5   0.224638475   2.16325   0.07960  -0.74885  -1.26338
  15   34221.2    292.2   0.116610769   1.12181   0.41976   0.88303  -0.40726
  16   34391.2    290.8   0.004521786   0.04329  -0.17713   0.10913  -0.00023
  17   34800.8    287.3   0.507608180   4.80192   0.09855   0.55865   2.11663
  18   35743.9    279.8   0.061841422   0.56958   0.12994   0.67754  -0.30600
  19   36610.6    273.1   0.102621978   0.92280   0.09962   0.26695  -0.91740
  20   37436.4    267.1   0.005430676   0.04776  -0.01909  -0.15634   0.15150
  21   38320.2    261.0   0.117668375   1.01090   0.02324  -0.15073   0.99380
  22   39138.7    255.5   0.009646830   0.08114   0.03323   0.02051   0.28217
  23   39816.7    251.2   0.060481417   0.50007  -0.00359   0.07854   0.70277

FINAL SINGLE POINT ENERGY     -4478.728460458625

DIPOLE MOMENT
-------------
                                X             Y             Z
Electronic contribution:     -1.56758     -10.42928     -10.96189
Nuclear contribution   :      3.84946       9.03743      14.43256
                        -----------------------------------------
Total Dipole Moment    :      2.28188      -1.39184       3.47067
                        -----------------------------------------
Magnitude (a.u.)       :      4.38061
Magnitude (Debye)      :     11.13462

Rotational constants in cm-1:     0.002072     0.000637     0.000605
Rotational constants in MHz :    62.103961    19.088388    18.124780

                             ****ORCA TERMINATED NORMALLY****
TOTAL RUN TIME: 0 days 0 hours 8 minutes 1 seconds 875 msec
