                         Program Version 4.2.0 -  RELEASE  -
|  1> # ORCA input file
|  2> # SCF done       -145.795295654688          0.000287824998
|  3> ! CAM-B3LYP def2-SVP def2/J RIJCOSX Grid4 TightSCF
|  4> %maxcore 5000
|  5> %tddft
|  6>     Mode sTDDFT
|  7>     Ethresh 5.0
|  8>     maxcore 5000
|  9> end
| 10>
| 11> %pal
| 12>   nprocs 6
| 13>   end
| 14> * xyz 0 1
| 15>    C       13.25220         4.46403       -11.35806
| 16>    O       13.08981         3.67796       -12.43000
| 17>    C       11.80475         3.27838       -12.43361
| 18>    C       11.13283         3.79694       -11.37620
| 19>    C       12.07888         4.58726       -10.65104
| 20>    C       11.89079         5.34899        -9.45037
| 21>    C       10.72827         5.45544        -8.77358
| 22>    C       10.58616         6.21167        -7.57762
| 23>    C        9.41917         6.30686        -6.89428
| 24>    C        9.22878         7.02821        -5.68888
| 25>    S        7.63951         7.01316        -4.93246
| 26>    C        8.20752         7.99101        -3.64788
| 27>    C        9.55888         8.31491        -3.80397
| 28>    C       10.13408         7.77748        -4.94777
| 29>    C        9.95173         9.14415        -2.65028
| 30>    O       11.03497         9.63083        -2.42024
| 31>    C        8.69206         9.24848        -1.81652
| 32>    C        7.68690         8.55250        -2.45755
| 33>    C        8.58104         9.92505        -0.58872
| 34>    C        9.61336        10.58751         0.01666
| 35>    C        9.49821        11.23413         1.26677
| 36>    C       10.54170        11.90305         1.89600
| 37>    O       10.39353        12.49074         3.13722
| 38>    C        9.16233        12.39002         3.70499
| 39>    C        8.08874        11.71754         3.05424
| 40>    C        6.94296        11.72948         3.77993
| 41>    S        7.15949        12.56396         5.27320
| 42>    C        8.81139        12.89887         4.91243
| 43>    O        8.24201        11.13580         1.83572
| 44>    C       11.83740        12.05364         1.34627
| 45>    C       12.84917        12.69292         2.00380
| 46>    C       14.14867        12.88253         1.49636
| 47>    S       15.34250        13.69565         2.50434
| 48>    C       16.52532        13.54302         1.27851
| 49>    C       16.01654        12.89673         0.14449
| 50>    C       14.68955        12.52317         0.26081
| 51>    C       17.11429        12.83042        -0.84416
| 52>    O       17.10736        12.36313        -1.95625
| 53>    C       18.28364        13.49309        -0.15449
| 54>    C       17.88571        13.89787         1.09978
| 55>    C       19.52570        13.61084        -0.81323
| 56>    C       20.65445        14.16067        -0.29238
| 57>    C       21.88268        14.26563        -0.98113
| 58>    S       22.10953        13.72091        -2.63305
| 59>    C       23.75602        14.19284        -2.66023
| 60>    C       24.14560        14.74792        -1.46481
| 61>    C       23.07593        14.78598        -0.51918
| 62>    S       23.56302        15.47821         0.98960
| 63>    C       25.18977        15.71866         0.35448
| 64>    C       26.14777        16.32208         1.27956
| 65>    O       25.83260        16.57168         2.42309
| 66>    C       27.51999        16.64311         0.72573
| 67>    C       27.45573        17.91860        -0.11696
| 68>    C       25.34322        15.29006        -0.93006
| 69>    H       14.22609         4.87997       -11.19046
| 70>    H       11.49501         2.63371       -13.23222
| 71>    H       10.10169         3.64226       -11.13651
| 72>    H       12.76908         5.86400        -9.08284
| 73>    H        9.84698         4.94422        -9.13607
| 74>    H       11.46695         6.72094        -7.21239
| 75>    H        8.54751         5.79076        -7.27664
| 76>    H       11.15998         7.91660        -5.23405
| 77>    H        6.67536         8.44622        -2.11009
| 78>    H        7.61347         9.89962        -0.10376
| 79>    H       10.56745        10.60647        -0.47892
| 80>    H        5.99603        11.30134         3.52673
| 81>    H        9.42076        13.44432         5.60185
| 82>    H       12.01495        11.64394         0.36776
| 83>    H       12.65587        13.08805         2.99129
| 84>    H       14.12919        12.01778        -0.50387
| 85>    H       18.48921        14.40104         1.83260
| 86>    H       19.55049        13.21533        -1.82217
| 87>    H       20.65866        14.55342         0.71573
| 88>    H       24.34039        14.03694        -3.54448
| 89>    H       27.88811        15.81075         0.12523
| 90>    H       28.19437        16.79875         1.56898
| 91>    H       26.78028        17.79568        -0.96049
| 92>    H       28.44496        18.16480        -0.49524
| 93>    H       27.10138        18.74909         0.48900
| 94>    H       26.26216        15.34368        -1.48469
| 95> *
| 96>
| 97>                          ****END OF INPUT****

CARTESIAN COORDINATES (ANGSTROEM)
---------------------------------
  C     13.252200    4.464030  -11.358060
  O     13.089810    3.677960  -12.430000
  C     11.804750    3.278380  -12.433610
  C     11.132830    3.796940  -11.376200
  C     12.078880    4.587260  -10.651040
  C     11.890790    5.348990   -9.450370
  C     10.728270    5.455440   -8.773580
  C     10.586160    6.211670   -7.577620
  C      9.419170    6.306860   -6.894280
  C      9.228780    7.028210   -5.688880
  S      7.639510    7.013160   -4.932460
  C      8.207520    7.991010   -3.647880
  C      9.558880    8.314910   -3.803970
  C     10.134080    7.777480   -4.947770
  C      9.951730    9.144150   -2.650280
  O     11.034970    9.630830   -2.420240
  C      8.692060    9.248480   -1.816520
  C      7.686900    8.552500   -2.457550
  C      8.581040    9.925050   -0.588720
  C      9.613360   10.587510    0.016660
  C      9.498210   11.234130    1.266770
  C     10.541700   11.903050    1.896000
  O     10.393530   12.490740    3.137220
  C      9.162330   12.390020    3.704990
  C      8.088740   11.717540    3.054240
  C      6.942960   11.729480    3.779930
  S      7.159490   12.563960    5.273200
  C      8.811390   12.898870    4.912430
  O      8.242010   11.135800    1.835720
  C     11.837400   12.053640    1.346270
  C     12.849170   12.692920    2.003800
  C     14.148670   12.882530    1.496360
  S     15.342500   13.695650    2.504340
  C     16.525320   13.543020    1.278510
  C     16.016540   12.896730    0.144490
  C     14.689550   12.523170    0.260810
  C     17.114290   12.830420   -0.844160
  O     17.107360   12.363130   -1.956250
  C     18.283640   13.493090   -0.154490
  C     17.885710   13.897870    1.099780
  C     19.525700   13.610840   -0.813230
  C     20.654450   14.160670   -0.292380
  C     21.882680   14.265630   -0.981130
  S     22.109530   13.720910   -2.633050
  C     23.756020   14.192840   -2.660230
  C     24.145600   14.747920   -1.464810
  C     23.075930   14.785980   -0.519180
  S     23.563020   15.478210    0.989600
  C     25.189770   15.718660    0.354480
  C     26.147770   16.322080    1.279560
  O     25.832600   16.571680    2.423090
  C     27.519990   16.643110    0.725730
  C     27.455730   17.918600   -0.116960
  C     25.343220   15.290060   -0.930060
  H     14.226090    4.879970  -11.190460
  H     11.495010    2.633710  -13.232220
  H     10.101690    3.642260  -11.136510
  H     12.769080    5.864000   -9.082840
  H      9.846980    4.944220   -9.136070
  H     11.466950    6.720940   -7.212390
  H      8.547510    5.790760   -7.276640
  H     11.159980    7.916600   -5.234050
  H      6.675360    8.446220   -2.110090
  H      7.613470    9.899620   -0.103760
  H     10.567450   10.606470   -0.478920
  H      5.996030   11.301340    3.526730
  H      9.420760   13.444320    5.601850
  H     12.014950   11.643940    0.367760
  H     12.655870   13.088050    2.991290
  H     14.129190   12.017780   -0.503870
  H     18.489210   14.401040    1.832600
  H     19.550490   13.215330   -1.822170
  H     20.658660   14.553420    0.715730
  H     24.340390   14.036940   -3.544480
  H     27.888110   15.810750    0.125230
  H     28.194370   16.798750    1.568980
  H     26.780280   17.795680   -0.960490
  H     28.444960   18.164800   -0.495240
  H     27.101380   18.749090    0.489000
  H     26.262160   15.343680   -1.484690

 Total Charge           Charge          ....    0
 Multiplicity           Mult            ....    1
 Number of Electrons    NEL             ....  412
 Basis Dimension        Dim             ....  906

ORBITAL ENERGIES
----------------

  NO   OCC          E(Eh)            E(eV)
   0   2.0000     -88.966745     -2420.9082
   1   2.0000     -88.965524     -2420.8750
   2   2.0000     -88.963629     -2420.8234
   3   2.0000     -88.952673     -2420.5253
   4   2.0000     -88.948075     -2420.4002
   5   2.0000     -19.282383      -524.7003
   6   2.0000     -19.270355      -524.3730
   7   2.0000     -19.267403      -524.2927
   8   2.0000     -19.221534      -523.0445
   9   2.0000     -19.219226      -522.9817
  10   2.0000     -19.203820      -522.5625
  11   2.0000     -10.364297      -282.0269
  12   2.0000     -10.360292      -281.9179
  13   2.0000     -10.357366      -281.8382
  14   2.0000     -10.342566      -281.4355
  15   2.0000     -10.338098      -281.3139
  16   2.0000     -10.335729      -281.2495
  17   2.0000     -10.335225      -281.2358
  18   2.0000     -10.313852      -280.6542
  19   2.0000     -10.313482      -280.6441
  20   2.0000     -10.304110      -280.3891
  21   2.0000     -10.303621      -280.3758
  22   2.0000     -10.303555      -280.3740
  23   2.0000     -10.303293      -280.3669
  24   2.0000     -10.301645      -280.3220
  25   2.0000     -10.301493      -280.3179
  26   2.0000     -10.300754      -280.2978
  27   2.0000     -10.299355      -280.2597
  28   2.0000     -10.294621      -280.1309
  29   2.0000     -10.292735      -280.0796
  30   2.0000     -10.289954      -280.0039
  31   2.0000     -10.289409      -279.9891
  32   2.0000     -10.288754      -279.9712
  33   2.0000     -10.286318      -279.9049
  34   2.0000     -10.284624      -279.8589
  35   2.0000     -10.280884      -279.7571
  36   2.0000     -10.280051      -279.7344
  37   2.0000     -10.279141      -279.7097
  38   2.0000     -10.278949      -279.7044
  39   2.0000     -10.278710      -279.6979
  40   2.0000     -10.276315      -279.6327
  41   2.0000     -10.276092      -279.6267
  42   2.0000     -10.273460      -279.5550
  43   2.0000     -10.271848      -279.5112
  44   2.0000     -10.271657      -279.5060
  45   2.0000     -10.271136      -279.4918
  46   2.0000     -10.270552      -279.4759
  47   2.0000     -10.270437      -279.4728
  48   2.0000     -10.267549      -279.3942
  49   2.0000     -10.267410      -279.3904
  50   2.0000     -10.266470      -279.3649
  51   2.0000     -10.266264      -279.3593
  52   2.0000     -10.266147      -279.3561
  53   2.0000     -10.260982      -279.2155
  54   2.0000      -8.061598      -219.3672
  55   2.0000      -8.060600      -219.3401
  56   2.0000      -8.058723      -219.2890
  57   2.0000      -8.048478      -219.0102
  58   2.0000      -8.043285      -218.8689
  59   2.0000      -6.030646      -164.1022
  60   2.0000      -6.029657      -164.0753
  61   2.0000      -6.027929      -164.0283
  62   2.0000      -6.026697      -163.9948
  63   2.0000      -6.025731      -163.9685
  64   2.0000      -6.024204      -163.9269
  65   2.0000      -6.023650      -163.9118
  66   2.0000      -6.023099      -163.8969
  67   2.0000      -6.021236      -163.8462
  68   2.0000      -6.018010      -163.7584
  69   2.0000      -6.013828      -163.6446
  70   2.0000      -6.013109      -163.6250
  71   2.0000      -6.010125      -163.5438
  72   2.0000      -6.008889      -163.5102
  73   2.0000      -6.004349      -163.3867
  74   2.0000      -1.201463       -32.6935
  75   2.0000      -1.195494       -32.5311
  76   2.0000      -1.158747       -31.5311
  77   2.0000      -1.131276       -30.7836
  78   2.0000      -1.129334       -30.7308
  79   2.0000      -1.121842       -30.5269
  80   2.0000      -1.005332       -27.3565
  81   2.0000      -0.997499       -27.1433
  82   2.0000      -0.996686       -27.1212
  83   2.0000      -0.981400       -26.7053
  84   2.0000      -0.946446       -25.7541
  85   2.0000      -0.936888       -25.4940
  86   2.0000      -0.935907       -25.4673
  87   2.0000      -0.915380       -24.9087
  88   2.0000      -0.911876       -24.8134
  89   2.0000      -0.893746       -24.3201
  90   2.0000      -0.886529       -24.1237
  91   2.0000      -0.877910       -23.8891
  92   2.0000      -0.876055       -23.8387
  93   2.0000      -0.851868       -23.1805
  94   2.0000      -0.845008       -22.9938
  95   2.0000      -0.841571       -22.9003
  96   2.0000      -0.839371       -22.8404
  97   2.0000      -0.833504       -22.6808
  98   2.0000      -0.827963       -22.5300
  99   2.0000      -0.818582       -22.2747
 100   2.0000      -0.817941       -22.2573
 101   2.0000      -0.808307       -21.9952
 102   2.0000      -0.797611       -21.7041
 103   2.0000      -0.777463       -21.1559
 104   2.0000      -0.761220       -20.7138
 105   2.0000      -0.746575       -20.3153
 106   2.0000      -0.743661       -20.2360
 107   2.0000      -0.741003       -20.1637
 108   2.0000      -0.738017       -20.0825
 109   2.0000      -0.723256       -19.6808
 110   2.0000      -0.704310       -19.1652
 111   2.0000      -0.700245       -19.0546
 112   2.0000      -0.688626       -18.7385
 113   2.0000      -0.681925       -18.5561
 114   2.0000      -0.676509       -18.4087
 115   2.0000      -0.668119       -18.1804
 116   2.0000      -0.655924       -17.8486
 117   2.0000      -0.647131       -17.6093
 118   2.0000      -0.643128       -17.5004
 119   2.0000      -0.639804       -17.4100
 120   2.0000      -0.634988       -17.2789
 121   2.0000      -0.633479       -17.2378
 122   2.0000      -0.621334       -16.9074
 123   2.0000      -0.619767       -16.8647
 124   2.0000      -0.611596       -16.6424
 125   2.0000      -0.605699       -16.4819
 126   2.0000      -0.598159       -16.2767
 127   2.0000      -0.593092       -16.1389
 128   2.0000      -0.591747       -16.1023
 129   2.0000      -0.586561       -15.9611
 130   2.0000      -0.574507       -15.6331
 131   2.0000      -0.571645       -15.5552
 132   2.0000      -0.562193       -15.2980
 133   2.0000      -0.561709       -15.2849
 134   2.0000      -0.560936       -15.2638
 135   2.0000      -0.551780       -15.0147
 136   2.0000      -0.550357       -14.9760
 137   2.0000      -0.544990       -14.8299
 138   2.0000      -0.542253       -14.7555
 139   2.0000      -0.540234       -14.7005
 140   2.0000      -0.533621       -14.5206
 141   2.0000      -0.532218       -14.4824
 142   2.0000      -0.524430       -14.2705
 143   2.0000      -0.520056       -14.1514
 144   2.0000      -0.518312       -14.1040
 145   2.0000      -0.517580       -14.0841
 146   2.0000      -0.517133       -14.0719
 147   2.0000      -0.512907       -13.9569
 148   2.0000      -0.508685       -13.8420
 149   2.0000      -0.508489       -13.8367
 150   2.0000      -0.501861       -13.6563
 151   2.0000      -0.497743       -13.5443
 152   2.0000      -0.495423       -13.4811
 153   2.0000      -0.492601       -13.4043
 154   2.0000      -0.490163       -13.3380
 155   2.0000      -0.486951       -13.2506
 156   2.0000      -0.486010       -13.2250
 157   2.0000      -0.485292       -13.2055
 158   2.0000      -0.478272       -13.0144
 159   2.0000      -0.475537       -12.9400
 160   2.0000      -0.472465       -12.8564
 161   2.0000      -0.469121       -12.7654
 162   2.0000      -0.466708       -12.6998
 163   2.0000      -0.466018       -12.6810
 164   2.0000      -0.463954       -12.6248
 165   2.0000      -0.463149       -12.6029
 166   2.0000      -0.460322       -12.5260
 167   2.0000      -0.457215       -12.4415
 168   2.0000      -0.456809       -12.4304
 169   2.0000      -0.450826       -12.2676
 170   2.0000      -0.449092       -12.2204
 171   2.0000      -0.446428       -12.1479
 172   2.0000      -0.439942       -11.9714
 173   2.0000      -0.438217       -11.9245
 174   2.0000      -0.435022       -11.8375
 175   2.0000      -0.430178       -11.7057
 176   2.0000      -0.427970       -11.6457
 177   2.0000      -0.425483       -11.5780
 178   2.0000      -0.424667       -11.5558
 179   2.0000      -0.423175       -11.5152
 180   2.0000      -0.422009       -11.4835
 181   2.0000      -0.421026       -11.4567
 182   2.0000      -0.418283       -11.3820
 183   2.0000      -0.408302       -11.1105
 184   2.0000      -0.407745       -11.0953
 185   2.0000      -0.405825       -11.0431
 186   2.0000      -0.404764       -11.0142
 187   2.0000      -0.393002       -10.6941
 188   2.0000      -0.382809       -10.4168
 189   2.0000      -0.369720       -10.0606
 190   2.0000      -0.353752        -9.6261
 191   2.0000      -0.335888        -9.1400
 192   2.0000      -0.331135        -9.0107
 193   2.0000      -0.329974        -8.9791
 194   2.0000      -0.329300        -8.9607
 195   2.0000      -0.329213        -8.9583
 196   2.0000      -0.325649        -8.8614
 197   2.0000      -0.318850        -8.6764
 198   2.0000      -0.306956        -8.3527
 199   2.0000      -0.305156        -8.3037
 200   2.0000      -0.300239        -8.1699
 201   2.0000      -0.281149        -7.6505
 202   2.0000      -0.278730        -7.5846
 203   2.0000      -0.251909        -6.8548
 204   2.0000      -0.231422        -6.2973
 205   2.0000      -0.205832        -5.6010
 206   0.0000      -0.086074        -2.3422
 207   0.0000      -0.071677        -1.9504
 208   0.0000      -0.039826        -1.0837
 209   0.0000      -0.025467        -0.6930
 210   0.0000      -0.022416        -0.6100

MULLIKEN ATOMIC CHARGES
-----------------------
   0 C :    0.073361
   1 O :   -0.180845
   2 C :    0.136307
   3 C :   -0.048157
   4 C :    0.047478
   5 C :    0.018863
   6 C :    0.016735
   7 C :    0.015209
   8 C :    0.041407
   9 C :   -0.093340
  10 S :    0.157148
  11 C :   -0.037498
  12 C :   -0.009973
  13 C :   -0.003274
  14 C :    0.173338
  15 O :   -0.130310
  16 C :    0.003906
  17 C :   -0.047196
  18 C :   -0.023763
  19 C :   -0.076709
  20 C :    0.187454
  21 C :    0.182360
  22 O :   -0.257444
  23 C :    0.220205
  24 C :    0.222842
  25 C :   -0.174042
  26 S :    0.106074
  27 C :   -0.176056
  28 O :   -0.257909
  29 C :   -0.078156
  30 C :    0.068084
  31 C :   -0.098030
  32 S :    0.164801
  33 C :   -0.052154
  34 C :   -0.003269
  35 C :   -0.012010
  36 C :    0.158919
  37 O :   -0.113738
  38 C :   -0.038113
  39 C :   -0.036052
  40 C :   -0.001871
  41 C :    0.014979
  42 C :   -0.149260
  43 S :    0.144432
  44 C :   -0.120525
  45 C :    0.115606
  46 C :   -0.008793
  47 S :    0.149563
  48 C :   -0.134626
  49 C :    0.044324
  50 O :   -0.175110
  51 C :    0.028518
  52 C :   -0.010663
  53 C :    0.021645
  54 H :    0.002569
  55 H :    0.008430
  56 H :   -0.012751
  57 H :   -0.023891
  58 H :   -0.021567
  59 H :   -0.012833
  60 H :   -0.023445
  61 H :   -0.009405
  62 H :   -0.012874
  63 H :   -0.014978
  64 H :    0.013010
  65 H :    0.021182
  66 H :    0.023008
  67 H :    0.001786
  68 H :   -0.005276
  69 H :    0.002230
  70 H :   -0.008910
  71 H :   -0.001974
  72 H :   -0.013944
  73 H :    0.021423
  74 H :    0.018956
  75 H :    0.020421
  76 H :    0.019592
  77 H :    0.026233
  78 H :    0.029034
  79 H :   -0.010696
Sum of atomic charges:   -0.0000000

LOEWDIN ATOMIC CHARGES
----------------------
   0 C :    0.030702
   1 O :    0.022181
   2 C :    0.033417
   3 C :   -0.070101
   4 C :   -0.077395
   5 C :   -0.016997
   6 C :   -0.030623
   7 C :   -0.016724
   8 C :   -0.054051
   9 C :   -0.169384
  10 S :    0.456254
  11 C :   -0.176646
  12 C :   -0.106160
  13 C :   -0.021481
  14 C :    0.108244
  15 O :   -0.113548
  16 C :   -0.057426
  17 C :   -0.011562
  18 C :   -0.022679
  19 C :   -0.030386
  20 C :    0.022707
  21 C :    0.034805
  22 O :   -0.051670
  23 C :   -0.008127
  24 C :   -0.007270
  25 C :   -0.213098
  26 S :    0.433109
  27 C :   -0.212501
  28 O :   -0.053829
  29 C :   -0.040288
  30 C :   -0.035653
  31 C :   -0.170415
  32 S :    0.461231
  33 C :   -0.174871
  34 C :   -0.105363
  35 C :   -0.015742
  36 C :    0.100124
  37 O :   -0.105133
  38 C :   -0.061679
  39 C :   -0.005364
  40 C :   -0.032645
  41 C :   -0.024271
  42 C :   -0.198960
  43 S :    0.469035
  44 C :   -0.180576
  45 C :   -0.086856
  46 C :   -0.185689
  47 S :    0.414686
  48 C :   -0.189291
  49 C :    0.060695
  50 O :   -0.149048
  51 C :   -0.055502
  52 C :   -0.047007
  53 C :   -0.024348
  54 H :    0.020984
  55 H :    0.021827
  56 H :    0.027774
  57 H :    0.028019
  58 H :    0.024885
  59 H :    0.026783
  60 H :    0.025481
  61 H :    0.036039
  62 H :    0.030215
  63 H :    0.030308
  64 H :    0.032574
  65 H :    0.027828
  66 H :    0.028260
  67 H :    0.036407
  68 H :    0.029749
  69 H :    0.039664
  70 H :    0.029657
  71 H :    0.027156
  72 H :    0.030971
  73 H :    0.026170
  74 H :    0.028881
  75 H :    0.037549
  76 H :    0.022304
  77 H :    0.029096
  78 H :    0.031344
  79 H :    0.033243

  Mayer bond orders larger than 0.100000
B(  0-C ,  1-O ) :   1.1649 B(  0-C ,  4-C ) :   1.5001 B(  0-C , 54-H ) :   1.0070
B(  1-O ,  2-C ) :   1.1435 B(  2-C ,  3-C ) :   1.5911 B(  2-C , 55-H ) :   0.9999
B(  3-C ,  4-C ) :   1.2122 B(  3-C , 56-H ) :   1.0029 B(  4-C ,  5-C ) :   1.0745
B(  5-C ,  6-C ) :   1.6854 B(  5-C , 57-H ) :   0.9799 B(  6-C ,  7-C ) :   1.1359
B(  6-C , 58-H ) :   0.9836 B(  7-C ,  8-C ) :   1.6750 B(  7-C , 59-H ) :   0.9833
B(  8-C ,  9-C ) :   1.1098 B(  8-C , 60-H ) :   0.9655 B(  9-C , 10-S ) :   1.1074
B(  9-C , 13-C ) :   1.4494 B( 10-S , 11-C ) :   1.1282 B( 11-C , 12-C ) :   1.4456
B( 11-C , 17-C ) :   1.0637 B( 12-C , 13-C ) :   1.3180 B( 12-C , 14-C ) :   0.9456
B( 13-C , 61-H ) :   1.0002 B( 14-C , 15-O ) :   2.2030 B( 14-C , 16-C ) :   0.9124
B( 16-C , 17-C ) :   1.5671 B( 16-C , 18-C ) :   1.1498 B( 17-C , 62-H ) :   1.0252
B( 18-C , 19-C ) :   1.5836 B( 18-C , 63-H ) :   0.9899 B( 19-C , 20-C ) :   1.1892
B( 19-C , 64-H ) :   0.9446 B( 20-C , 21-C ) :   1.4029 B( 20-C , 28-O ) :   1.0562
B( 21-C , 22-O ) :   1.0619 B( 21-C , 29-C ) :   1.2154 B( 22-O , 23-C ) :   1.0524
B( 23-C , 24-C ) :   1.2018 B( 23-C , 27-C ) :   1.5703 B( 24-C , 25-C ) :   1.5700
B( 24-C , 28-O ) :   1.0582 B( 25-C , 26-S ) :   1.1397 B( 25-C , 65-H ) :   0.9725
B( 26-S , 27-C ) :   1.1417 B( 27-C , 66-H ) :   0.9726 B( 29-C , 30-C ) :   1.6399
B( 29-C , 67-H ) :   0.9556 B( 30-C , 31-C ) :   1.1253 B( 30-C , 68-H ) :   0.9656
B( 31-C , 32-S ) :   1.1062 B( 31-C , 35-C ) :   1.4280 B( 32-S , 33-C ) :   1.1342
B( 33-C , 34-C ) :   1.4337 B( 33-C , 39-C ) :   1.0780 B( 34-C , 35-C ) :   1.3330
B( 34-C , 36-C ) :   0.9164 B( 35-C , 69-H ) :   0.9991 B( 36-C , 37-O ) :   2.2729
B( 36-C , 38-C ) :   0.9167 B( 38-C , 39-C ) :   1.6008 B( 38-C , 40-C ) :   1.1631
B( 39-C , 70-H ) :   1.0136 B( 40-C , 41-C ) :   1.6032 B( 40-C , 71-H ) :   0.9683
B( 41-C , 42-C ) :   1.1828 B( 41-C , 72-H ) :   0.9733 B( 42-C , 43-S ) :   1.1238
B( 42-C , 46-C ) :   1.4739 B( 43-S , 44-C ) :   1.1894 B( 44-C , 45-C ) :   1.4489
B( 44-C , 73-H ) :   0.9696 B( 45-C , 46-C ) :   1.2382 B( 45-C , 53-C ) :   1.1224
B( 46-C , 47-S ) :   1.0405 B( 47-S , 48-C ) :   1.0571 B( 48-C , 49-C ) :   0.9465
B( 48-C , 53-C ) :   1.6179 B( 49-C , 50-O ) :   2.2116 B( 49-C , 51-C ) :   1.0453
B( 51-C , 52-C ) :   1.0889 B( 51-C , 74-H ) :   0.9267 B( 51-C , 75-H ) :   0.9209
B( 52-C , 76-H ) :   0.9745 B( 52-C , 77-H ) :   0.9692 B( 52-C , 78-H ) :   0.9673
B( 53-C , 79-H ) :   0.9879

-----------------------------------------------------------------------------
         ABSORPTION SPECTRUM VIA TRANSITION ELECTRIC DIPOLE MOMENTS
-----------------------------------------------------------------------------
State   Energy  Wavelength   fosc         T2         TX        TY        TZ
        (cm-1)    (nm)                  (au**2)     (au)      (au)      (au)
-----------------------------------------------------------------------------
   0   11075.9    902.9   0.669016490  19.88527  -3.04821  -2.39093  -2.20842
   1   13594.7    735.6   0.359895273   8.71531   2.36614  -0.22433  -1.75110
   2   18029.8    554.6   0.226402726   4.13396  -1.84226  -0.09274   0.85524
   3   20337.0    491.7   0.082714552   1.33897   0.70007   0.60054   0.69873
   4   22599.7    442.5   0.505966066   7.37046  -2.15560  -1.36754  -0.92396
   5   24210.7    413.0   0.139461812   1.89637  -1.12150  -0.01286   0.79902
   6   24483.9    408.4   0.278179503   3.74042   0.11383   1.00035   1.65129
   7   26042.3    384.0   0.147252651   1.86148  -0.57955   0.51859   1.12101
   8   26309.7    380.1   0.001440554   0.01803  -0.09474   0.04666   0.08290
   9   26496.7    377.4   0.001774879   0.02205   0.08953  -0.02043  -0.11670
  10   26685.7    374.7   0.940844424  11.60687   2.27174  -0.80560  -2.40771
  11   28122.8    355.6   0.213734724   2.50203   1.38111  -0.05554  -0.76908
  12   28633.5    349.2   0.081174824   0.93330  -0.94304  -0.11337   0.17641
  13   30343.9    329.6   0.106123127   1.15137   1.01188   0.12897  -0.33292
  14   30818.2    324.5   0.237092825   2.53272   1.19296  -0.17074  -1.03943
  15   31391.4    318.6   0.111500910   1.16935  -0.66673  -0.63642  -0.56549
  16   32086.1    311.7   0.015893404   0.16307  -0.16347  -0.24712  -0.27437
  17   32818.7    304.7   0.139481555   1.39917  -0.34439   0.51696   1.00664
  18   32949.6    303.5   0.002059406   0.02058   0.05838   0.11707   0.05884
  19   33653.1    297.1   0.188258910   1.84165  -0.90533   0.34845   0.94900
  20   33777.1    296.1   0.058494910   0.57013   0.62723   0.26047   0.32995
  21   34065.3    293.6   0.041098400   0.39718  -0.19247  -0.29662  -0.52168
  22   34746.2    287.8   0.056420879   0.53457   0.62502   0.04112  -0.37714
  23   35191.5    284.2   0.077554456   0.72551  -0.26419   0.28866   0.75657
  24   35429.7    282.2   0.014033523   0.13040   0.13074   0.22897   0.24674
  25   35764.7    279.6   0.019615150   0.18056  -0.35822  -0.21882  -0.06596
  26   36262.2    275.8   0.017122162   0.15545  -0.28803   0.11982   0.24109
  27   36491.1    274.0   0.183553233   1.65596   0.32338   0.71724   1.01831
  28   37285.9    268.2   0.194081410   1.71362   0.56013  -0.32126  -1.13871
  29   38170.6    262.0   0.115163284   0.99325   0.34806  -0.37326  -0.85603
  30   38387.8    260.5   0.005546269   0.04756  -0.18873  -0.09835   0.04768
  31   38948.0    256.8   0.005047449   0.04266  -0.19671   0.01230   0.06178
  32   39302.6    254.4   0.094449211   0.79114  -0.84213  -0.25996  -0.11988
  33   39801.1    251.2   0.097969702   0.81035   0.52300   0.43115   0.59240
  34   40166.9    249.0   0.022987118   0.18840   0.23487   0.20760   0.30023

FINAL SINGLE POINT ENERGY     -4093.118095974216

DIPOLE MOMENT
-------------
                                X             Y             Z
Electronic contribution:    -30.76586       2.47565      26.52332
Nuclear contribution   :     30.78679      -2.76835     -27.44402
                        -----------------------------------------
Total Dipole Moment    :      0.02092      -0.29270      -0.92070
                        -----------------------------------------
Magnitude (a.u.)       :      0.96633
Magnitude (Debye)      :      2.45622

Rotational constants in cm-1:     0.000905     0.000409     0.000282
Rotational constants in MHz :    27.142599    12.247668     8.459291

                             ****ORCA TERMINATED NORMALLY****
TOTAL RUN TIME: 0 days 0 hours 5 minutes 21 seconds 711 msec
