                         Program Version 4.2.0 -  RELEASE  -
|  1> # ORCA input file
|  2> # SCF done       -144.913901120342          0.000381271974
|  3> ! CAM-B3LYP def2-SVP def2/J RIJCOSX Grid4 TightSCF
|  4> %maxcore 5000
|  5> %tddft
|  6>     Mode sTDDFT
|  7>     Ethresh 5.0
|  8>     maxcore 5000
|  9> end
| 10>
| 11> %pal
| 12>   nprocs 6
| 13>   end
| 14> * xyz 0 1
| 15>    C       10.84930         7.44721        -4.27970
| 16>    O       11.21280         7.56402        -5.55781
| 17>    C       10.68128         6.51843        -6.22382
| 18>    C        9.96706         5.72648        -5.38792
| 19>    C       10.06717         6.32717        -4.09257
| 20>    C        9.46086         5.83271        -2.89354
| 21>    C        9.71941         6.28773        -1.64655
| 22>    C        9.13295         5.78752        -0.44698
| 23>    C        8.01988         5.01413        -0.37772
| 24>    C        7.47325         4.49253         0.82021
| 25>    S        8.03054         5.06196         2.36586
| 26>    C        6.83221         4.10361         3.16767
| 27>    N        6.76593         4.13886         4.56524
| 28>    O        5.90139         3.47107         5.10566
| 29>    O        7.57973         4.83934         5.14251
| 30>    C        6.05197         3.38463         2.30204
| 31>    C        6.41732         3.56942         0.95496
| 32>    C        5.75102         2.84490        -0.08962
| 33>    C        6.23224         2.56636        -1.31995
| 34>    C        5.51680         1.87751        -2.33046
| 35>    S        3.96078         1.10168        -2.11783
| 36>    C        3.83650         0.55867        -3.78201
| 37>    C        4.98179         0.98863        -4.47114
| 38>    C        5.88863         1.70917        -3.64697
| 39>    O        6.95155         2.14182        -4.35336
| 40>    C        6.73620         1.69904        -5.62390
| 41>    N        7.68670         2.05528        -6.59980
| 42>    O        7.51798         1.61873        -7.72272
| 43>    O        8.59856         2.78506        -6.25502
| 44>    C        5.56692         0.99115        -5.75990
| 45>    C        2.74313        -0.14187        -4.31337
| 46>    S        2.76918        -0.51220        -6.02147
| 47>    C        1.19692        -1.22056        -5.89807
| 48>    N        0.62142        -1.76013        -7.06046
| 49>    O       -0.48501        -2.25544        -6.96452
| 50>    O        1.28039        -1.68826        -8.08179
| 51>    C        0.67716        -1.18235        -4.63629
| 52>    C        1.54397        -0.57929        -3.69760
| 53>    C        1.24581        -0.45946        -2.31443
| 54>    C        0.01484        -0.65886        -1.75916
| 55>    C       -0.23433        -0.53764        -0.38541
| 56>    C       -1.47377        -0.68063         0.19048
| 57>    C       -1.79022        -0.55610         1.56706
| 58>    C       -3.10743        -0.72872         1.85689
| 59>    C       -3.91323        -1.00161         0.72477
| 60>    S       -2.92741        -1.03764        -0.72354
| 61>    C       -5.27328        -1.20984         0.68379
| 62>    C       -6.18133        -1.18889         1.78132
| 63>    C       -7.46828        -1.41701         1.44065
| 64>    C       -7.67905        -1.63939         0.03821
| 65>    S       -6.12549        -1.53698        -0.80649
| 66>    C       -8.83632        -1.88781        -0.58903
| 67>    H       11.18138         8.20970        -3.60316
| 68>    H       10.88278         6.45440        -7.27428
| 69>    H        9.45395         4.81992        -5.63580
| 70>    H        8.78105         5.00477        -3.04049
| 71>    H       10.46578         7.05996        -1.52267
| 72>    H        9.63289         6.04966         0.47784
| 73>    H        7.47681         4.79654        -1.28394
| 74>    H        5.26462         2.73282         2.63595
| 75>    H        4.77413         2.45706         0.17346
| 76>    H        7.23316         2.84880        -1.61047
| 77>    H        5.20894         0.55863        -6.67113
| 78>    H       -0.28514        -1.59897        -4.40266
| 79>    H        2.05504        -0.19149        -1.65240
| 80>    H       -0.83294        -0.89643        -2.38721
| 81>    H        0.59513        -0.30755         0.27012
| 82>    H       -1.02961        -0.33997         2.29631
| 83>    H       -3.52138        -0.66718         2.84714
| 84>    H       -5.84306        -1.00227         2.78489
| 85>    H       -8.29399        -1.43776         2.12932
| 86>    H       -9.75900        -1.94158        -0.03854
| 87>    H       -8.88219        -2.04108        -1.65170
| 88> *
| 89>
| 90>                          ****END OF INPUT****

CARTESIAN COORDINATES (ANGSTROEM)
---------------------------------
  C     10.849300    7.447210   -4.279700
  O     11.212800    7.564020   -5.557810
  C     10.681280    6.518430   -6.223820
  C      9.967060    5.726480   -5.387920
  C     10.067170    6.327170   -4.092570
  C      9.460860    5.832710   -2.893540
  C      9.719410    6.287730   -1.646550
  C      9.132950    5.787520   -0.446980
  C      8.019880    5.014130   -0.377720
  C      7.473250    4.492530    0.820210
  S      8.030540    5.061960    2.365860
  C      6.832210    4.103610    3.167670
  N      6.765930    4.138860    4.565240
  O      5.901390    3.471070    5.105660
  O      7.579730    4.839340    5.142510
  C      6.051970    3.384630    2.302040
  C      6.417320    3.569420    0.954960
  C      5.751020    2.844900   -0.089620
  C      6.232240    2.566360   -1.319950
  C      5.516800    1.877510   -2.330460
  S      3.960780    1.101680   -2.117830
  C      3.836500    0.558670   -3.782010
  C      4.981790    0.988630   -4.471140
  C      5.888630    1.709170   -3.646970
  O      6.951550    2.141820   -4.353360
  C      6.736200    1.699040   -5.623900
  N      7.686700    2.055280   -6.599800
  O      7.517980    1.618730   -7.722720
  O      8.598560    2.785060   -6.255020
  C      5.566920    0.991150   -5.759900
  C      2.743130   -0.141870   -4.313370
  S      2.769180   -0.512200   -6.021470
  C      1.196920   -1.220560   -5.898070
  N      0.621420   -1.760130   -7.060460
  O     -0.485010   -2.255440   -6.964520
  O      1.280390   -1.688260   -8.081790
  C      0.677160   -1.182350   -4.636290
  C      1.543970   -0.579290   -3.697600
  C      1.245810   -0.459460   -2.314430
  C      0.014840   -0.658860   -1.759160
  C     -0.234330   -0.537640   -0.385410
  C     -1.473770   -0.680630    0.190480
  C     -1.790220   -0.556100    1.567060
  C     -3.107430   -0.728720    1.856890
  C     -3.913230   -1.001610    0.724770
  S     -2.927410   -1.037640   -0.723540
  C     -5.273280   -1.209840    0.683790
  C     -6.181330   -1.188890    1.781320
  C     -7.468280   -1.417010    1.440650
  C     -7.679050   -1.639390    0.038210
  S     -6.125490   -1.536980   -0.806490
  C     -8.836320   -1.887810   -0.589030
  H     11.181380    8.209700   -3.603160
  H     10.882780    6.454400   -7.274280
  H      9.453950    4.819920   -5.635800
  H      8.781050    5.004770   -3.040490
  H     10.465780    7.059960   -1.522670
  H      9.632890    6.049660    0.477840
  H      7.476810    4.796540   -1.283940
  H      5.264620    2.732820    2.635950
  H      4.774130    2.457060    0.173460
  H      7.233160    2.848800   -1.610470
  H      5.208940    0.558630   -6.671130
  H     -0.285140   -1.598970   -4.402660
  H      2.055040   -0.191490   -1.652400
  H     -0.832940   -0.896430   -2.387210
  H      0.595130   -0.307550    0.270120
  H     -1.029610   -0.339970    2.296310
  H     -3.521380   -0.667180    2.847140
  H     -5.843060   -1.002270    2.784890
  H     -8.293990   -1.437760    2.129320
  H     -9.759000   -1.941580   -0.038540
  H     -8.882190   -2.041080   -1.651700

 Total Charge           Charge          ....    0
 Multiplicity           Mult            ....    1
 Number of Electrons    NEL             ....  402
 Basis Dimension        Dim             ....  853

ORBITAL ENERGIES
----------------

  NO   OCC          E(Eh)            E(eV)
   0   2.0000     -88.991823     -2421.5906
   1   2.0000     -88.984835     -2421.4005
   2   2.0000     -88.976361     -2421.1699
   3   2.0000     -88.952999     -2420.5342
   4   2.0000     -88.949166     -2420.4299
   5   2.0000     -19.324914      -525.8577
   6   2.0000     -19.287028      -524.8267
   7   2.0000     -19.257164      -524.0141
   8   2.0000     -19.256630      -523.9995
   9   2.0000     -19.243678      -523.6471
  10   2.0000     -19.242903      -523.6260
  11   2.0000     -19.235371      -523.4210
  12   2.0000     -19.234235      -523.3901
  13   2.0000     -14.669348      -399.1732
  14   2.0000     -14.654323      -398.7644
  15   2.0000     -14.646062      -398.5396
  16   2.0000     -10.401418      -283.0370
  17   2.0000     -10.362912      -281.9892
  18   2.0000     -10.351264      -281.6722
  19   2.0000     -10.345555      -281.5169
  20   2.0000     -10.340735      -281.3857
  21   2.0000     -10.338709      -281.3306
  22   2.0000     -10.330432      -281.1053
  23   2.0000     -10.328372      -281.0493
  24   2.0000     -10.327889      -281.0361
  25   2.0000     -10.323051      -280.9045
  26   2.0000     -10.320190      -280.8267
  27   2.0000     -10.319462      -280.8068
  28   2.0000     -10.317664      -280.7579
  29   2.0000     -10.316198      -280.7180
  30   2.0000     -10.315549      -280.7004
  31   2.0000     -10.311797      -280.5983
  32   2.0000     -10.311528      -280.5909
  33   2.0000     -10.310370      -280.5594
  34   2.0000     -10.304130      -280.3896
  35   2.0000     -10.302394      -280.3424
  36   2.0000     -10.301107      -280.3074
  37   2.0000     -10.300216      -280.2831
  38   2.0000     -10.299387      -280.2606
  39   2.0000     -10.299150      -280.2541
  40   2.0000     -10.295912      -280.1660
  41   2.0000     -10.294321      -280.1227
  42   2.0000     -10.293656      -280.1046
  43   2.0000     -10.292334      -280.0686
  44   2.0000     -10.289659      -279.9959
  45   2.0000     -10.287913      -279.9484
  46   2.0000     -10.287852      -279.9467
  47   2.0000     -10.285381      -279.8795
  48   2.0000     -10.281596      -279.7764
  49   2.0000     -10.277264      -279.6586
  50   2.0000     -10.271184      -279.4931
  51   2.0000     -10.257854      -279.1304
  52   2.0000      -8.085592      -220.0202
  53   2.0000      -8.079910      -219.8655
  54   2.0000      -8.071637      -219.6404
  55   2.0000      -8.049338      -219.0336
  56   2.0000      -8.045970      -218.9420
  57   2.0000      -6.055060      -164.7666
  58   2.0000      -6.050916      -164.6538
  59   2.0000      -6.049579      -164.6174
  60   2.0000      -6.047569      -164.5627
  61   2.0000      -6.045160      -164.4972
  62   2.0000      -6.041454      -164.3963
  63   2.0000      -6.041078      -164.3861
  64   2.0000      -6.036705      -164.2671
  65   2.0000      -6.033591      -164.1824
  66   2.0000      -6.019086      -163.7877
  67   2.0000      -6.015757      -163.6971
  68   2.0000      -6.015122      -163.6798
  69   2.0000      -6.011844      -163.5906
  70   2.0000      -6.010149      -163.5445
  71   2.0000      -6.006524      -163.4458
  72   2.0000      -1.339208       -36.4417
  73   2.0000      -1.324633       -36.0451
  74   2.0000      -1.315220       -35.7890
  75   2.0000      -1.245046       -33.8794
  76   2.0000      -1.205491       -32.8031
  77   2.0000      -1.155437       -31.4410
  78   2.0000      -1.143820       -31.1249
  79   2.0000      -1.133928       -30.8558
  80   2.0000      -1.026597       -27.9351
  81   2.0000      -1.011082       -27.5129
  82   2.0000      -1.004948       -27.3460
  83   2.0000      -1.002989       -27.2927
  84   2.0000      -0.980144       -26.6711
  85   2.0000      -0.953535       -25.9470
  86   2.0000      -0.932530       -25.3754
  87   2.0000      -0.930349       -25.3161
  88   2.0000      -0.925386       -25.1810
  89   2.0000      -0.911281       -24.7972
  90   2.0000      -0.908780       -24.7292
  91   2.0000      -0.898557       -24.4510
  92   2.0000      -0.890934       -24.2436
  93   2.0000      -0.879008       -23.9190
  94   2.0000      -0.870738       -23.6940
  95   2.0000      -0.862419       -23.4676
  96   2.0000      -0.854922       -23.2636
  97   2.0000      -0.843458       -22.9517
  98   2.0000      -0.837697       -22.7949
  99   2.0000      -0.831739       -22.6328
 100   2.0000      -0.825274       -22.4568
 101   2.0000      -0.818697       -22.2779
 102   2.0000      -0.806591       -21.9484
 103   2.0000      -0.793680       -21.5971
 104   2.0000      -0.779992       -21.2247
 105   2.0000      -0.769613       -20.9422
 106   2.0000      -0.750276       -20.4161
 107   2.0000      -0.735133       -20.0040
 108   2.0000      -0.718255       -19.5447
 109   2.0000      -0.715990       -19.4831
 110   2.0000      -0.698110       -18.9965
 111   2.0000      -0.686839       -18.6898
 112   2.0000      -0.675814       -18.3898
 113   2.0000      -0.675625       -18.3847
 114   2.0000      -0.665239       -18.1021
 115   2.0000      -0.660707       -17.9788
 116   2.0000      -0.654290       -17.8041
 117   2.0000      -0.653455       -17.7814
 118   2.0000      -0.651034       -17.7155
 119   2.0000      -0.648099       -17.6357
 120   2.0000      -0.639328       -17.3970
 121   2.0000      -0.637482       -17.3468
 122   2.0000      -0.636506       -17.3202
 123   2.0000      -0.635546       -17.2941
 124   2.0000      -0.629784       -17.1373
 125   2.0000      -0.628432       -17.1005
 126   2.0000      -0.627164       -17.0660
 127   2.0000      -0.624977       -17.0065
 128   2.0000      -0.614309       -16.7162
 129   2.0000      -0.611306       -16.6345
 130   2.0000      -0.607357       -16.5270
 131   2.0000      -0.605324       -16.4717
 132   2.0000      -0.598701       -16.2915
 133   2.0000      -0.592426       -16.1207
 134   2.0000      -0.583213       -15.8700
 135   2.0000      -0.582077       -15.8391
 136   2.0000      -0.576480       -15.6868
 137   2.0000      -0.571791       -15.5592
 138   2.0000      -0.564710       -15.3665
 139   2.0000      -0.558490       -15.1973
 140   2.0000      -0.552959       -15.0468
 141   2.0000      -0.547197       -14.8900
 142   2.0000      -0.543618       -14.7926
 143   2.0000      -0.540809       -14.7162
 144   2.0000      -0.533336       -14.5128
 145   2.0000      -0.528416       -14.3789
 146   2.0000      -0.523081       -14.2338
 147   2.0000      -0.518858       -14.1188
 148   2.0000      -0.516810       -14.0631
 149   2.0000      -0.514279       -13.9942
 150   2.0000      -0.509335       -13.8597
 151   2.0000      -0.507398       -13.8070
 152   2.0000      -0.504995       -13.7416
 153   2.0000      -0.499934       -13.6039
 154   2.0000      -0.496645       -13.5144
 155   2.0000      -0.491832       -13.3834
 156   2.0000      -0.489797       -13.3280
 157   2.0000      -0.483407       -13.1542
 158   2.0000      -0.480044       -13.0627
 159   2.0000      -0.478192       -13.0123
 160   2.0000      -0.477389       -12.9904
 161   2.0000      -0.474567       -12.9136
 162   2.0000      -0.472004       -12.8439
 163   2.0000      -0.467328       -12.7166
 164   2.0000      -0.466100       -12.6832
 165   2.0000      -0.464724       -12.6458
 166   2.0000      -0.451953       -12.2983
 167   2.0000      -0.446453       -12.1486
 168   2.0000      -0.438438       -11.9305
 169   2.0000      -0.437676       -11.9098
 170   2.0000      -0.435159       -11.8413
 171   2.0000      -0.433712       -11.8019
 172   2.0000      -0.428827       -11.6690
 173   2.0000      -0.423787       -11.5318
 174   2.0000      -0.423217       -11.5163
 175   2.0000      -0.420655       -11.4466
 176   2.0000      -0.406662       -11.0658
 177   2.0000      -0.403895       -10.9905
 178   2.0000      -0.395969       -10.7749
 179   2.0000      -0.391422       -10.6511
 180   2.0000      -0.389771       -10.6062
 181   2.0000      -0.387711       -10.5501
 182   2.0000      -0.386026       -10.5043
 183   2.0000      -0.385484       -10.4896
 184   2.0000      -0.382472       -10.4076
 185   2.0000      -0.381817       -10.3898
 186   2.0000      -0.374912       -10.2019
 187   2.0000      -0.370688       -10.0869
 188   2.0000      -0.366193        -9.9646
 189   2.0000      -0.362160        -9.8549
 190   2.0000      -0.351870        -9.5749
 191   2.0000      -0.347195        -9.4477
 192   2.0000      -0.339025        -9.2253
 193   2.0000      -0.337481        -9.1833
 194   2.0000      -0.332814        -9.0563
 195   2.0000      -0.326677        -8.8893
 196   2.0000      -0.306554        -8.3417
 197   2.0000      -0.300090        -8.1659
 198   2.0000      -0.271073        -7.3763
 199   2.0000      -0.249971        -6.8021
 200   2.0000      -0.222527        -6.0553
 201   0.0000      -0.108182        -2.9438
 202   0.0000      -0.075180        -2.0458
 203   0.0000      -0.074087        -2.0160
 204   0.0000      -0.055874        -1.5204
 205   0.0000      -0.036904        -1.0042

MULLIKEN ATOMIC CHARGES
-----------------------
   0 C :    0.073292
   1 O :   -0.174958
   2 C :    0.130094
   3 C :   -0.032579
   4 C :    0.026814
   5 C :    0.051357
   6 C :    0.001160
   7 C :    0.018280
   8 C :   -0.023715
   9 C :   -0.080454
  10 S :    0.173490
  11 C :   -0.002921
  12 N :    0.274124
  13 O :   -0.254686
  14 O :   -0.260476
  15 C :    0.006437
  16 C :    0.111988
  17 C :   -0.024808
  18 C :    0.006113
  19 C :   -0.159423
  20 S :    0.129055
  21 C :   -0.101421
  22 C :    0.075061
  23 C :    0.201409
  24 O :   -0.185098
  25 C :    0.237744
  26 N :    0.288586
  27 O :   -0.236276
  28 O :   -0.234516
  29 C :   -0.087921
  30 C :   -0.094714
  31 S :    0.146992
  32 C :    0.032381
  33 N :    0.272286
  34 O :   -0.241663
  35 O :   -0.253664
  36 C :   -0.010460
  37 C :    0.127394
  38 C :   -0.070182
  39 C :    0.023259
  40 C :   -0.023209
  41 C :   -0.008941
  42 C :    0.030645
  43 C :    0.036985
  44 C :   -0.052839
  45 S :    0.073933
  46 C :   -0.061024
  47 C :    0.028833
  48 C :    0.057830
  49 C :   -0.068668
  50 S :    0.091928
  51 C :   -0.020725
  52 H :    0.006879
  53 H :    0.013186
  54 H :   -0.019435
  55 H :   -0.013898
  56 H :   -0.013276
  57 H :    0.003977
  58 H :    0.004222
  59 H :    0.004070
  60 H :   -0.007736
  61 H :    0.014492
  62 H :    0.031688
  63 H :    0.011556
  64 H :   -0.004767
  65 H :    0.003370
  66 H :   -0.017676
  67 H :   -0.009454
  68 H :   -0.009663
  69 H :   -0.008190
  70 H :   -0.005354
  71 H :    0.025571
  72 H :    0.028312
Sum of atomic charges:   -0.0000000

LOEWDIN ATOMIC CHARGES
----------------------
   0 C :    0.040773
   1 O :    0.029752
   2 C :    0.031185
   3 C :   -0.061738
   4 C :   -0.086596
   5 C :    0.019692
   6 C :   -0.047362
   7 C :   -0.000101
   8 C :   -0.060767
   9 C :   -0.130620
  10 S :    0.478151
  11 C :   -0.203481
  12 N :    0.273480
  13 O :   -0.220293
  14 O :   -0.226502
  15 C :   -0.007914
  16 C :   -0.072081
  17 C :   -0.018194
  18 C :   -0.042259
  19 C :   -0.195454
  20 S :    0.481297
  21 C :   -0.178011
  22 C :   -0.083363
  23 C :    0.023135
  24 O :    0.002275
  25 C :    0.027565
  26 N :    0.277599
  27 O :   -0.197478
  28 O :   -0.200406
  29 C :   -0.011794
  30 C :   -0.168347
  31 S :    0.473284
  32 C :   -0.190076
  33 N :    0.272755
  34 O :   -0.208471
  35 O :   -0.220345
  36 C :   -0.003943
  37 C :   -0.052400
  38 C :   -0.052250
  39 C :   -0.005446
  40 C :   -0.070578
  41 C :   -0.130640
  42 C :   -0.039040
  43 C :   -0.019941
  44 C :   -0.185998
  45 S :    0.370615
  46 C :   -0.167338
  47 C :   -0.027386
  48 C :   -0.022457
  49 C :   -0.140858
  50 S :    0.362322
  51 C :   -0.062453
  52 H :    0.020333
  53 H :    0.023556
  54 H :    0.028149
  55 H :    0.030262
  56 H :    0.028156
  57 H :    0.025518
  58 H :    0.033163
  59 H :    0.042207
  60 H :    0.025953
  61 H :    0.040296
  62 H :    0.042763
  63 H :    0.044592
  64 H :    0.009865
  65 H :    0.023028
  66 H :    0.032307
  67 H :    0.034789
  68 H :    0.033494
  69 H :    0.033629
  70 H :    0.035854
  71 H :    0.031315
  72 H :    0.029272

  Mayer bond orders larger than 0.100000
B(  0-C ,  1-O ) :   1.1920 B(  0-C ,  4-C ) :   1.4849 B(  0-C , 52-H ) :   1.0028
B(  1-O ,  2-C ) :   1.1320 B(  2-C ,  3-C ) :   1.5826 B(  2-C , 53-H ) :   1.0013
B(  3-C ,  4-C ) :   1.2043 B(  3-C , 54-H ) :   0.9982 B(  4-C ,  5-C ) :   1.1032
B(  5-C ,  6-C ) :   1.7084 B(  5-C , 55-H ) :   0.9673 B(  6-C ,  7-C ) :   1.1397
B(  6-C , 56-H ) :   0.9705 B(  7-C ,  8-C ) :   1.6680 B(  7-C , 57-H ) :   0.9690
B(  8-C ,  9-C ) :   1.1773 B(  8-C , 58-H ) :   0.9596 B(  9-C , 10-S ) :   1.1319
B(  9-C , 16-C ) :   1.3930 B( 10-S , 11-C ) :   1.1081 B( 11-C , 12-N ) :   0.9645
B( 11-C , 15-C ) :   1.4830 B( 12-N , 13-O ) :   1.5315 B( 12-N , 14-O ) :   1.5165
B( 13-O , 14-O ) :   0.2619 B( 15-C , 16-C ) :   1.2135 B( 15-C , 59-H ) :   1.0057
B( 16-C , 17-C ) :   1.1033 B( 17-C , 18-C ) :   1.6570 B( 17-C , 60-H ) :   0.9687
B( 18-C , 19-C ) :   1.1611 B( 18-C , 61-H ) :   0.9724 B( 19-C , 20-S ) :   1.0836
B( 19-C , 21-C ) :   0.1035 B( 19-C , 23-C ) :   1.4450 B( 20-S , 21-C ) :   1.1338
B( 21-C , 22-C ) :   1.3423 B( 21-C , 30-C ) :   1.2649 B( 22-C , 23-C ) :   1.2291
B( 22-C , 29-C ) :   1.0989 B( 23-C , 24-O ) :   1.1262 B( 24-O , 25-C ) :   1.1201
B( 25-C , 26-N ) :   0.9281 B( 25-C , 29-C ) :   1.5532 B( 26-N , 27-O ) :   1.5358
B( 26-N , 28-O ) :   1.4599 B( 27-O , 28-O ) :   0.2750 B( 29-C , 62-H ) :   1.0128
B( 30-C , 31-S ) :   1.1066 B( 30-C , 37-C ) :   1.3632 B( 31-S , 32-C ) :   1.1060
B( 32-C , 33-N ) :   0.9520 B( 32-C , 36-C ) :   1.5124 B( 33-N , 34-O ) :   1.5375
B( 33-N , 35-O ) :   1.5192 B( 34-O , 35-O ) :   0.2674 B( 36-C , 37-C ) :   1.2044
B( 36-C , 63-H ) :   0.9956 B( 37-C , 38-C ) :   1.1001 B( 38-C , 39-C ) :   1.6316
B( 38-C , 64-H ) :   0.9632 B( 39-C , 40-C ) :   1.1698 B( 39-C , 65-H ) :   0.9717
B( 40-C , 41-C ) :   1.5410 B( 40-C , 66-H ) :   0.9855 B( 41-C , 42-C ) :   1.1410
B( 41-C , 45-S ) :   1.0444 B( 42-C , 43-C ) :   1.5968 B( 42-C , 67-H ) :   0.9994
B( 43-C , 44-C ) :   1.1791 B( 43-C , 68-H ) :   0.9935 B( 44-C , 45-S ) :   1.0342
B( 44-C , 46-C ) :   1.5457 B( 46-C , 47-C ) :   1.1493 B( 46-C , 50-S ) :   1.0579
B( 47-C , 48-C ) :   1.6639 B( 47-C , 69-H ) :   0.9926 B( 48-C , 49-C ) :   1.0773
B( 48-C , 70-H ) :   0.9938 B( 49-C , 50-S ) :   1.0054 B( 49-C , 51-C ) :   1.8659
B( 51-C , 71-H ) :   0.9512 B( 51-C , 72-H ) :   0.9419

-----------------------------------------------------------------------------
         ABSORPTION SPECTRUM VIA TRANSITION ELECTRIC DIPOLE MOMENTS
-----------------------------------------------------------------------------
State   Energy  Wavelength   fosc         T2         TX        TY        TZ
        (cm-1)    (nm)                  (au**2)     (au)      (au)      (au)
-----------------------------------------------------------------------------
   0   11864.5    842.8   1.137591493  31.56538  -5.21219  -1.90337   0.88067
   1   17086.4    585.3   0.169893453   3.27342   0.83263   1.28281   0.96672
   2   19300.2    518.1   0.669565855  11.42109  -3.12316  -0.15418   1.28187
   3   20407.6    490.0   0.138423147   2.23302  -0.79713  -1.05658   0.69371
   4   21526.1    464.6   0.095666036   1.46308  -0.48866  -0.66022  -0.88792
   5   22923.5    436.2   0.145333442   2.08718  -0.81156  -0.51730  -1.07747
   6   24130.1    414.4   0.476453738   6.50034  -0.94232  -0.75388   2.24589
   7   26383.6    379.0   0.103789064   1.29507  -0.87601   0.21479   0.69393
   8   26474.7    377.7   0.292205475   3.63357   0.41745   0.61664   1.75473
   9   27713.4    360.8   0.028801003   0.34213   0.45170   0.32065   0.18783
  10   28256.6    353.9   0.062672174   0.73018   0.40890   0.02704  -0.74983
  11   28812.3    347.1   0.211270604   2.41400  -0.25911  -0.13393  -1.52608
  12   29482.3    339.2   0.032917530   0.36757   0.52402   0.17673  -0.24849
  13   30754.5    325.2   0.210538425   2.25371  -0.33849  -0.44552  -1.39307
  14   31155.3    321.0   0.038079016   0.40237   0.23042   0.14161   0.57378
  15   32102.3    311.5   0.103913724   1.06564   0.93199   0.23011  -0.37958
  16   32309.6    309.5   0.165255186   1.68383   0.41569  -0.00943  -1.22920
  17   32799.8    304.9   0.044984846   0.45151   0.17363   0.23128   0.60653
  18   33429.6    299.1   0.037042929   0.36480   0.34905   0.38065   0.31315
  19   34379.3    290.9   0.045070607   0.43159   0.06868  -0.05238  -0.65125
  20   34452.9    290.3   0.018098918   0.17294  -0.31122  -0.21445  -0.17349
  21   34523.4    289.7   0.006408715   0.06111  -0.11611  -0.04421   0.21372
  22   34816.5    287.2   0.450176715   4.25671  -0.47035   0.09888   2.00641
  23   36037.4    277.5   0.394479927   3.60369  -0.43120   0.05584   1.84787
  24   36461.8    274.3   0.003722476   0.03361  -0.08353  -0.02148   0.16178
  25   36738.8    272.2   0.010248572   0.09184  -0.13139  -0.13181   0.23917
  26   37384.0    267.5   0.218927600   1.92793   0.23246   0.10312  -1.36501
  27   37993.0    263.2   0.046034601   0.39889   0.42575   0.38670   0.26095
  28   38149.5    262.1   0.144614205   1.24795   0.68104   0.27280   0.84245
  29   38208.0    261.7   0.118097551   1.01757  -0.19748   0.23874   0.95998
  30   38964.6    256.6   0.032042578   0.27073  -0.21793  -0.13108  -0.45393
  31   39307.6    254.4   0.027754298   0.23245   0.17624   0.24275   0.37744
  32   39561.6    252.8   0.011392393   0.09480   0.28575  -0.00202  -0.11465
  33   39929.3    250.4   0.079347404   0.65421   0.49498   0.16467  -0.61813
  34   40071.4    249.6   0.016711489   0.13730  -0.33961  -0.08881  -0.11863

FINAL SINGLE POINT ENERGY     -4137.777684614592

DIPOLE MOMENT
-------------
                                X             Y             Z
Electronic contribution:     10.27417      -6.94446     -12.35765
Nuclear contribution   :    -12.36239       6.87784      13.79236
                        -----------------------------------------
Total Dipole Moment    :     -2.08822      -0.06663       1.43471
                        -----------------------------------------
Magnitude (a.u.)       :      2.53447
Magnitude (Debye)      :      6.44210

Rotational constants in cm-1:     0.001597     0.000581     0.000441
Rotational constants in MHz :    47.864886    17.419762    13.233179

                             ****ORCA TERMINATED NORMALLY****
TOTAL RUN TIME: 0 days 0 hours 4 minutes 41 seconds 524 msec
