                         Program Version 4.2.0 -  RELEASE  -
|  1> # ORCA input file
|  2> # SCF done       -166.387674943200          0.000550129058
|  3> ! CAM-B3LYP def2-SVP def2/J RIJCOSX Grid4 TightSCF
|  4> %maxcore 5000
|  5> %tddft
|  6>     Mode sTDDFT
|  7>     Ethresh 5.0
|  8>     maxcore 5000
|  9> end
| 10>
| 11> %pal
| 12>   nprocs 6
| 13>   end
| 14> * xyz 0 1
| 15>    C        9.13073        13.23317       -19.61571
| 16>    O        9.08555        13.40345       -20.94402
| 17>    C       10.11302        14.20554       -21.27754
| 18>    C       10.82338        14.55787       -20.17771
| 19>    C       10.18705        13.92200       -19.06639
| 20>    C       10.60367        14.01689       -17.69628
| 21>    C       10.01817        13.38725       -16.65632
| 22>    C       10.47116        13.50907       -15.31366
| 23>    C        9.89593        12.85812       -14.27300
| 24>    C       10.31452        12.93797       -12.92075
| 25>    S        9.47418        11.97181       -11.71165
| 26>    C       10.49921        12.56757       -10.47788
| 27>    C       11.43851        13.47256       -10.97953
| 28>    C       11.33759        13.68245       -12.34890
| 29>    C       12.26958        13.92240        -9.84845
| 30>    O       13.18607        14.71048        -9.87061
| 31>    C       11.71509        13.17270        -8.65370
| 32>    C       10.66492        12.38783        -9.08236
| 33>    C       12.20504        13.25278        -7.33637
| 34>    C       13.25598        14.03625        -6.94975
| 35>    C       13.77897        14.10225        -5.64609
| 36>    S       15.15232        15.16297        -5.33847
| 37>    C       15.19389        14.68254        -3.69577
| 38>    C       14.18665        13.74884        -3.40145
| 39>    C       13.39467        13.42432        -4.48667
| 40>    C       14.32203        13.40047        -1.97349
| 41>    O       13.65561        12.63996        -1.31255
| 42>    C       15.49966        14.21538        -1.49562
| 43>    C       15.97778        14.96284        -2.55765
| 44>    C       15.94415        14.12292        -0.16738
| 45>    C       17.01188        14.80313         0.35260
| 46>    C       17.44639        14.66643         1.69017
| 47>    C       18.53538        15.33321         2.23496
| 48>    O       18.93191        15.14467         3.54335
| 49>    C       18.19080        14.27007         4.27448
| 50>    C       17.06849        13.59155         3.71885
| 51>    C       16.46106        12.76510         4.60589
| 52>    S       17.25293        12.80390         6.13738
| 53>    C       18.41422        13.94582         5.57267
| 54>    O       16.68391        13.78115         2.43023
| 55>    C       19.34463        16.26061         1.52451
| 56>    C       20.42544        16.87678         2.07030
| 57>    C       21.28683        17.82208         1.42679
| 58>    C       22.37704        18.30586         2.12511
| 59>    C       23.25151        19.23605         1.53701
| 60>    C       24.39244        19.85856         2.02673
| 61>    C       24.99813        19.64207         3.37461
| 62>    C       26.45989        19.17901         3.27627
| 63>    N       26.57215        18.11423         2.29474
| 64>    C       24.86406        20.89558         4.25589
| 65>    N       23.46585        21.07897         4.60339
| 66>    C       24.85827        20.74891         0.99092
| 67>    C       25.88885        21.61495         0.93611
| 68>    C       26.13694        22.47347        -0.25552
| 69>    C       25.21807        22.22367        -1.40790
| 70>    C       24.18858        21.36145        -1.34212
| 71>    C       23.95367        20.61285        -0.16278
| 72>    C       22.98373        19.69756         0.18085
| 73>    C       21.86177        19.18754        -0.51548
| 74>    C       21.05117        18.28406         0.08572
| 75>    C       25.99632        23.92042         0.17314
| 76>    C       26.97392        24.80497         0.15140
| 77>    H        8.37307        12.61520       -19.17722
| 78>    H       10.22776        14.44736       -22.31558
| 79>    H       11.69035        15.18509       -20.14064
| 80>    H       11.46287        14.64960       -17.51450
| 81>    H        9.16242        12.74927       -16.83031
| 82>    H       11.32102        14.15436       -15.14018
| 83>    H        9.04952        12.21136       -14.46688
| 84>    H       11.97267        14.34263       -12.90986
| 85>    H       10.06960        11.74018        -8.46468
| 86>    H       11.70104        12.63377        -6.60409
| 87>    H       13.73958        14.65212        -7.69443
| 88>    H       12.57731        12.72765        -4.45726
| 89>    H       16.80833        15.64402        -2.53880
| 90>    H       15.38703        13.44801         0.46800
| 91>    H       17.56165        15.47255        -0.28624
| 92>    H       15.60453        12.14401         4.44897
| 93>    H       19.18359        14.30845         6.22134
| 94>    H       19.06376        16.46309         0.50621
| 95>    H       20.67821        16.63553         3.09416
| 96>    H       22.55168        17.96982         3.13733
| 97>    H       24.42924        18.85078         3.87299
| 98>    H       26.79866        18.88531         4.28601
| 99>    H       27.09842        19.99963         2.94055
|100>    H       25.95745        17.34478         2.53847
|101>    H       27.52099        17.75856         2.26209
|102>    H       25.30297        21.76117         3.73290
|103>    H       25.41933        20.74577         5.18727
|104>    H       22.91149        21.18154         3.75897
|105>    H       23.34221        21.91393         5.16503
|106>    H       26.56774        21.76173         1.76399
|107>    H       27.17599        22.32441        -0.58030
|108>    H       25.41066        22.80493        -2.29713
|109>    H       23.53347        21.21922        -2.18978
|110>    H       21.66223        19.52717        -1.52163
|111>    H       20.19582        17.90188        -0.44859
|112>    H       25.00220        24.19231         0.50075
|113>    H       27.96931        24.55120        -0.17539
|114>    H       26.81926        25.82597         0.45692
|115> *
|116>
|117>                          ****END OF INPUT****

CARTESIAN COORDINATES (ANGSTROEM)
---------------------------------
  C      9.130730   13.233170  -19.615710
  O      9.085550   13.403450  -20.944020
  C     10.113020   14.205540  -21.277540
  C     10.823380   14.557870  -20.177710
  C     10.187050   13.922000  -19.066390
  C     10.603670   14.016890  -17.696280
  C     10.018170   13.387250  -16.656320
  C     10.471160   13.509070  -15.313660
  C      9.895930   12.858120  -14.273000
  C     10.314520   12.937970  -12.920750
  S      9.474180   11.971810  -11.711650
  C     10.499210   12.567570  -10.477880
  C     11.438510   13.472560  -10.979530
  C     11.337590   13.682450  -12.348900
  C     12.269580   13.922400   -9.848450
  O     13.186070   14.710480   -9.870610
  C     11.715090   13.172700   -8.653700
  C     10.664920   12.387830   -9.082360
  C     12.205040   13.252780   -7.336370
  C     13.255980   14.036250   -6.949750
  C     13.778970   14.102250   -5.646090
  S     15.152320   15.162970   -5.338470
  C     15.193890   14.682540   -3.695770
  C     14.186650   13.748840   -3.401450
  C     13.394670   13.424320   -4.486670
  C     14.322030   13.400470   -1.973490
  O     13.655610   12.639960   -1.312550
  C     15.499660   14.215380   -1.495620
  C     15.977780   14.962840   -2.557650
  C     15.944150   14.122920   -0.167380
  C     17.011880   14.803130    0.352600
  C     17.446390   14.666430    1.690170
  C     18.535380   15.333210    2.234960
  O     18.931910   15.144670    3.543350
  C     18.190800   14.270070    4.274480
  C     17.068490   13.591550    3.718850
  C     16.461060   12.765100    4.605890
  S     17.252930   12.803900    6.137380
  C     18.414220   13.945820    5.572670
  O     16.683910   13.781150    2.430230
  C     19.344630   16.260610    1.524510
  C     20.425440   16.876780    2.070300
  C     21.286830   17.822080    1.426790
  C     22.377040   18.305860    2.125110
  C     23.251510   19.236050    1.537010
  C     24.392440   19.858560    2.026730
  C     24.998130   19.642070    3.374610
  C     26.459890   19.179010    3.276270
  N     26.572150   18.114230    2.294740
  C     24.864060   20.895580    4.255890
  N     23.465850   21.078970    4.603390
  C     24.858270   20.748910    0.990920
  C     25.888850   21.614950    0.936110
  C     26.136940   22.473470   -0.255520
  C     25.218070   22.223670   -1.407900
  C     24.188580   21.361450   -1.342120
  C     23.953670   20.612850   -0.162780
  C     22.983730   19.697560    0.180850
  C     21.861770   19.187540   -0.515480
  C     21.051170   18.284060    0.085720
  C     25.996320   23.920420    0.173140
  C     26.973920   24.804970    0.151400
  H      8.373070   12.615200  -19.177220
  H     10.227760   14.447360  -22.315580
  H     11.690350   15.185090  -20.140640
  H     11.462870   14.649600  -17.514500
  H      9.162420   12.749270  -16.830310
  H     11.321020   14.154360  -15.140180
  H      9.049520   12.211360  -14.466880
  H     11.972670   14.342630  -12.909860
  H     10.069600   11.740180   -8.464680
  H     11.701040   12.633770   -6.604090
  H     13.739580   14.652120   -7.694430
  H     12.577310   12.727650   -4.457260
  H     16.808330   15.644020   -2.538800
  H     15.387030   13.448010    0.468000
  H     17.561650   15.472550   -0.286240
  H     15.604530   12.144010    4.448970
  H     19.183590   14.308450    6.221340
  H     19.063760   16.463090    0.506210
  H     20.678210   16.635530    3.094160
  H     22.551680   17.969820    3.137330
  H     24.429240   18.850780    3.872990
  H     26.798660   18.885310    4.286010
  H     27.098420   19.999630    2.940550
  H     25.957450   17.344780    2.538470
  H     27.520990   17.758560    2.262090
  H     25.302970   21.761170    3.732900
  H     25.419330   20.745770    5.187270
  H     22.911490   21.181540    3.758970
  H     23.342210   21.913930    5.165030
  H     26.567740   21.761730    1.763990
  H     27.175990   22.324410   -0.580300
  H     25.410660   22.804930   -2.297130
  H     23.533470   21.219220   -2.189780
  H     21.662230   19.527170   -1.521630
  H     20.195820   17.901880   -0.448590
  H     25.002200   24.192310    0.500750
  H     27.969310   24.551200   -0.175390
  H     26.819260   25.825970    0.456920

 Total Charge           Charge          ....    0
 Multiplicity           Mult            ....    1
 Number of Electrons    NEL             ....  452
 Basis Dimension        Dim             .... 1070

ORBITAL ENERGIES
----------------

  NO   OCC          E(Eh)            E(eV)
   0   2.0000     -88.964472     -2420.8464
   1   2.0000     -88.964209     -2420.8392
   2   2.0000     -88.949654     -2420.4431
   3   2.0000     -19.282134      -524.6936
   4   2.0000     -19.268992      -524.3359
   5   2.0000     -19.264407      -524.2112
   6   2.0000     -19.219655      -522.9934
   7   2.0000     -19.216585      -522.9099
   8   2.0000     -14.372931      -391.1073
   9   2.0000     -14.369297      -391.0084
  10   2.0000     -10.362936      -281.9898
  11   2.0000     -10.357680      -281.8468
  12   2.0000     -10.342194      -281.4254
  13   2.0000     -10.337548      -281.2990
  14   2.0000     -10.332959      -281.1741
  15   2.0000     -10.332164      -281.1525
  16   2.0000     -10.311732      -280.5965
  17   2.0000     -10.311521      -280.5907
  18   2.0000     -10.302430      -280.3434
  19   2.0000     -10.300817      -280.2995
  20   2.0000     -10.299472      -280.2629
  21   2.0000     -10.298917      -280.2478
  22   2.0000     -10.292533      -280.0741
  23   2.0000     -10.289477      -279.9909
  24   2.0000     -10.287708      -279.9428
  25   2.0000     -10.286667      -279.9144
  26   2.0000     -10.286022      -279.8969
  27   2.0000     -10.285264      -279.8763
  28   2.0000     -10.280657      -279.7509
  29   2.0000     -10.280056      -279.7345
  30   2.0000     -10.279262      -279.7130
  31   2.0000     -10.278650      -279.6963
  32   2.0000     -10.278272      -279.6860
  33   2.0000     -10.278014      -279.6790
  34   2.0000     -10.277471      -279.6642
  35   2.0000     -10.276688      -279.6429
  36   2.0000     -10.275972      -279.6234
  37   2.0000     -10.274513      -279.5837
  38   2.0000     -10.271882      -279.5121
  39   2.0000     -10.271843      -279.5111
  40   2.0000     -10.270608      -279.4774
  41   2.0000     -10.269843      -279.4566
  42   2.0000     -10.269730      -279.4535
  43   2.0000     -10.269321      -279.4424
  44   2.0000     -10.267325      -279.3881
  45   2.0000     -10.266499      -279.3656
  46   2.0000     -10.266428      -279.3637
  47   2.0000     -10.266042      -279.3532
  48   2.0000     -10.265824      -279.3473
  49   2.0000     -10.265710      -279.3442
  50   2.0000     -10.264574      -279.3133
  51   2.0000     -10.264221      -279.3036
  52   2.0000     -10.263756      -279.2910
  53   2.0000     -10.263566      -279.2858
  54   2.0000     -10.261763      -279.2368
  55   2.0000     -10.260685      -279.2074
  56   2.0000     -10.259975      -279.1881
  57   2.0000     -10.259448      -279.1738
  58   2.0000     -10.255958      -279.0788
  59   2.0000     -10.255358      -279.0625
  60   2.0000     -10.253720      -279.0179
  61   2.0000     -10.253182      -279.0033
  62   2.0000      -8.059465      -219.3092
  63   2.0000      -8.059178      -219.3014
  64   2.0000      -8.045520      -218.9297
  65   2.0000      -6.028514      -164.0442
  66   2.0000      -6.028213      -164.0360
  67   2.0000      -6.024614      -163.9381
  68   2.0000      -6.024267      -163.9286
  69   2.0000      -6.021981      -163.8664
  70   2.0000      -6.021737      -163.8598
  71   2.0000      -6.015034      -163.6774
  72   2.0000      -6.010866      -163.5640
  73   2.0000      -6.007168      -163.4633
  74   2.0000      -1.200164       -32.6581
  75   2.0000      -1.193722       -32.4828
  76   2.0000      -1.156656       -31.4742
  77   2.0000      -1.129722       -30.7413
  78   2.0000      -1.125709       -30.6321
  79   2.0000      -0.995806       -27.0973
  80   2.0000      -0.995053       -27.0768
  81   2.0000      -0.978686       -26.6314
  82   2.0000      -0.977346       -26.5949
  83   2.0000      -0.958238       -26.0750
  84   2.0000      -0.946422       -25.7535
  85   2.0000      -0.938170       -25.5289
  86   2.0000      -0.937660       -25.5150
  87   2.0000      -0.931526       -25.3481
  88   2.0000      -0.915943       -24.9241
  89   2.0000      -0.912470       -24.8296
  90   2.0000      -0.903034       -24.5728
  91   2.0000      -0.887993       -24.1635
  92   2.0000      -0.879584       -23.9347
  93   2.0000      -0.868894       -23.6438
  94   2.0000      -0.866597       -23.5813
  95   2.0000      -0.850056       -23.1312
  96   2.0000      -0.842718       -22.9315
  97   2.0000      -0.839313       -22.8389
  98   2.0000      -0.837397       -22.7867
  99   2.0000      -0.829841       -22.5811
 100   2.0000      -0.829378       -22.5685
 101   2.0000      -0.825956       -22.4754
 102   2.0000      -0.818997       -22.2861
 103   2.0000      -0.816299       -22.2126
 104   2.0000      -0.805337       -21.9143
 105   2.0000      -0.792233       -21.5578
 106   2.0000      -0.780914       -21.2497
 107   2.0000      -0.761081       -20.7101
 108   2.0000      -0.753187       -20.4953
 109   2.0000      -0.748225       -20.3602
 110   2.0000      -0.740912       -20.1612
 111   2.0000      -0.738999       -20.1092
 112   2.0000      -0.726653       -19.7732
 113   2.0000      -0.709856       -19.3162
 114   2.0000      -0.706452       -19.2235
 115   2.0000      -0.695516       -18.9260
 116   2.0000      -0.686980       -18.6937
 117   2.0000      -0.682018       -18.5587
 118   2.0000      -0.675500       -18.3813
 119   2.0000      -0.672537       -18.3007
 120   2.0000      -0.669217       -18.2103
 121   2.0000      -0.662941       -18.0395
 122   2.0000      -0.653172       -17.7737
 123   2.0000      -0.651197       -17.7200
 124   2.0000      -0.647103       -17.6086
 125   2.0000      -0.641434       -17.4543
 126   2.0000      -0.634635       -17.2693
 127   2.0000      -0.634531       -17.2665
 128   2.0000      -0.629273       -17.1234
 129   2.0000      -0.625011       -17.0074
 130   2.0000      -0.620137       -16.8748
 131   2.0000      -0.610955       -16.6249
 132   2.0000      -0.610800       -16.6207
 133   2.0000      -0.589775       -16.0486
 134   2.0000      -0.589318       -16.0362
 135   2.0000      -0.588496       -16.0138
 136   2.0000      -0.581184       -15.8148
 137   2.0000      -0.572658       -15.5828
 138   2.0000      -0.570936       -15.5359
 139   2.0000      -0.568429       -15.4677
 140   2.0000      -0.560412       -15.2496
 141   2.0000      -0.559714       -15.2306
 142   2.0000      -0.559591       -15.2273
 143   2.0000      -0.556458       -15.1420
 144   2.0000      -0.551767       -15.0143
 145   2.0000      -0.548692       -14.9307
 146   2.0000      -0.546510       -14.8713
 147   2.0000      -0.539073       -14.6689
 148   2.0000      -0.538115       -14.6429
 149   2.0000      -0.533470       -14.5165
 150   2.0000      -0.528199       -14.3730
 151   2.0000      -0.527567       -14.3558
 152   2.0000      -0.526543       -14.3280
 153   2.0000      -0.523720       -14.2511
 154   2.0000      -0.518070       -14.0974
 155   2.0000      -0.516837       -14.0638
 156   2.0000      -0.516060       -14.0427
 157   2.0000      -0.514316       -13.9952
 158   2.0000      -0.513378       -13.9697
 159   2.0000      -0.512581       -13.9480
 160   2.0000      -0.506797       -13.7907
 161   2.0000      -0.505919       -13.7668
 162   2.0000      -0.502679       -13.6786
 163   2.0000      -0.495817       -13.4919
 164   2.0000      -0.494224       -13.4485
 165   2.0000      -0.493175       -13.4200
 166   2.0000      -0.490053       -13.3350
 167   2.0000      -0.488080       -13.2813
 168   2.0000      -0.486734       -13.2447
 169   2.0000      -0.480711       -13.0808
 170   2.0000      -0.478521       -13.0212
 171   2.0000      -0.472525       -12.8581
 172   2.0000      -0.471016       -12.8170
 173   2.0000      -0.470110       -12.7923
 174   2.0000      -0.467387       -12.7182
 175   2.0000      -0.466944       -12.7062
 176   2.0000      -0.466681       -12.6990
 177   2.0000      -0.464910       -12.6508
 178   2.0000      -0.464286       -12.6339
 179   2.0000      -0.460481       -12.5303
 180   2.0000      -0.459808       -12.5120
 181   2.0000      -0.457749       -12.4560
 182   2.0000      -0.454469       -12.3667
 183   2.0000      -0.449157       -12.2222
 184   2.0000      -0.443220       -12.0606
 185   2.0000      -0.440304       -11.9813
 186   2.0000      -0.437744       -11.9116
 187   2.0000      -0.435552       -11.8520
 188   2.0000      -0.428396       -11.6572
 189   2.0000      -0.426625       -11.6091
 190   2.0000      -0.424968       -11.5640
 191   2.0000      -0.424781       -11.5589
 192   2.0000      -0.423406       -11.5215
 193   2.0000      -0.422637       -11.5005
 194   2.0000      -0.421326       -11.4649
 195   2.0000      -0.420621       -11.4457
 196   2.0000      -0.420073       -11.4308
 197   2.0000      -0.414596       -11.2817
 198   2.0000      -0.410534       -11.1712
 199   2.0000      -0.406334       -11.0569
 200   2.0000      -0.403297       -10.9743
 201   2.0000      -0.402923       -10.9641
 202   2.0000      -0.385494       -10.4898
 203   2.0000      -0.385073       -10.4784
 204   2.0000      -0.382331       -10.4037
 205   2.0000      -0.373628       -10.1669
 206   2.0000      -0.362788        -9.8720
 207   2.0000      -0.360011        -9.7964
 208   2.0000      -0.342094        -9.3089
 209   2.0000      -0.340138        -9.2556
 210   2.0000      -0.329733        -8.9725
 211   2.0000      -0.328424        -8.9369
 212   2.0000      -0.328132        -8.9289
 213   2.0000      -0.326533        -8.8854
 214   2.0000      -0.324229        -8.8227
 215   2.0000      -0.315957        -8.5976
 216   2.0000      -0.307090        -8.3563
 217   2.0000      -0.298443        -8.1211
 218   2.0000      -0.296821        -8.0769
 219   2.0000      -0.293636        -7.9902
 220   2.0000      -0.283709        -7.7201
 221   2.0000      -0.281300        -7.6546
 222   2.0000      -0.258520        -7.0347
 223   2.0000      -0.234490        -6.3808
 224   2.0000      -0.216799        -5.8994
 225   2.0000      -0.202053        -5.4981
 226   0.0000      -0.088052        -2.3960
 227   0.0000      -0.066879        -1.8199
 228   0.0000      -0.057571        -1.5666
 229   0.0000      -0.024265        -0.6603
 230   0.0000      -0.012908        -0.3512

MULLIKEN ATOMIC CHARGES
-----------------------
   0 C :    0.064695
   1 O :   -0.179853
   2 C :    0.132519
   3 C :   -0.044191
   4 C :    0.047180
   5 C :    0.021550
   6 C :    0.021766
   7 C :    0.010848
   8 C :    0.042951
   9 C :   -0.096662
  10 S :    0.156950
  11 C :   -0.035083
  12 C :   -0.017444
  13 C :   -0.000777
  14 C :    0.168113
  15 O :   -0.127378
  16 C :    0.005091
  17 C :   -0.055969
  18 C :   -0.044992
  19 C :    0.052008
  20 C :   -0.091391
  21 S :    0.169704
  22 C :   -0.040935
  23 C :   -0.004519
  24 C :   -0.014097
  25 C :    0.160347
  26 O :   -0.115861
  27 C :   -0.030773
  28 C :   -0.043309
  29 C :    0.011164
  30 C :   -0.052266
  31 C :    0.177068
  32 C :    0.183400
  33 O :   -0.252352
  34 C :    0.219250
  35 C :    0.222220
  36 C :   -0.173514
  37 S :    0.104564
  38 C :   -0.176832
  39 O :   -0.254017
  40 C :   -0.055252
  41 C :    0.008616
  42 C :    0.125937
  43 C :   -0.105207
  44 C :    0.049859
  45 C :   -0.015772
  46 C :   -0.084310
  47 C :    0.155827
  48 N :   -0.209238
  49 C :    0.165051
  50 N :   -0.225214
  51 C :    0.121160
  52 C :   -0.143625
  53 C :    0.117145
  54 C :   -0.040904
  55 C :    0.019525
  56 C :    0.005636
  57 C :    0.033077
  58 C :    0.002228
  59 C :   -0.002856
  60 C :   -0.040720
  61 C :   -0.019443
  62 H :    0.002092
  63 H :    0.007903
  64 H :   -0.015362
  65 H :   -0.024009
  66 H :   -0.021222
  67 H :   -0.011828
  68 H :   -0.023043
  69 H :   -0.011611
  70 H :   -0.012960
  71 H :   -0.028634
  72 H :    0.005553
  73 H :   -0.007622
  74 H :   -0.012783
  75 H :    0.008146
  76 H :   -0.021194
  77 H :    0.026286
  78 H :    0.022974
  79 H :   -0.020750
  80 H :   -0.008752
  81 H :   -0.037776
  82 H :   -0.015818
  83 H :   -0.014776
  84 H :   -0.021407
  85 H :    0.090413
  86 H :    0.087996
  87 H :   -0.028579
  88 H :   -0.013668
  89 H :    0.097804
  90 H :    0.088039
  91 H :   -0.002930
  92 H :    0.021311
  93 H :   -0.012182
  94 H :   -0.037147
  95 H :   -0.042081
  96 H :   -0.043419
  97 H :    0.010513
  98 H :    0.014831
  99 H :    0.024998
Sum of atomic charges:   -0.0000000

LOEWDIN ATOMIC CHARGES
----------------------
   0 C :    0.031335
   1 O :    0.024998
   2 C :    0.028885
   3 C :   -0.070520
   4 C :   -0.079896
   5 C :   -0.019606
   6 C :   -0.025644
   7 C :   -0.019148
   8 C :   -0.053062
   9 C :   -0.171220
  10 S :    0.455154
  11 C :   -0.174270
  12 C :   -0.108344
  13 C :   -0.021642
  14 C :    0.106698
  15 O :   -0.110721
  16 C :   -0.054278
  17 C :   -0.019011
  18 C :   -0.031578
  19 C :   -0.030950
  20 C :   -0.172621
  21 S :    0.463131
  22 C :   -0.170309
  23 C :   -0.107401
  24 C :   -0.014844
  25 C :    0.099882
  26 O :   -0.107069
  27 C :   -0.057734
  28 C :   -0.013802
  29 C :   -0.021014
  30 C :   -0.025109
  31 C :    0.020912
  32 C :    0.038399
  33 O :   -0.047783
  34 C :   -0.008963
  35 C :   -0.007338
  36 C :   -0.211197
  37 S :    0.432473
  38 C :   -0.212616
  39 O :   -0.051329
  40 C :   -0.054381
  41 C :    0.002076
  42 C :   -0.030737
  43 C :   -0.007911
  44 C :   -0.023253
  45 C :   -0.028960
  46 C :   -0.040473
  47 C :    0.024874
  48 N :   -0.115364
  49 C :    0.028492
  50 N :   -0.121071
  51 C :   -0.011375
  52 C :    0.061837
  53 C :   -0.029723
  54 C :   -0.030946
  55 C :   -0.018377
  56 C :   -0.030437
  57 C :   -0.033268
  58 C :   -0.007607
  59 C :   -0.028974
  60 C :   -0.002686
  61 C :   -0.057684
  62 H :    0.018607
  63 H :    0.021206
  64 H :    0.028650
  65 H :    0.027581
  66 H :    0.024697
  67 H :    0.026779
  68 H :    0.025507
  69 H :    0.035296
  70 H :    0.029438
  71 H :    0.026877
  72 H :    0.031259
  73 H :    0.036154
  74 H :    0.027019
  75 H :    0.036025
  76 H :    0.028310
  77 H :    0.029709
  78 H :    0.028279
  79 H :    0.026683
  80 H :    0.030815
  81 H :    0.024544
  82 H :    0.025982
  83 H :   -0.000924
  84 H :    0.009609
  85 H :    0.053160
  86 H :    0.053444
  87 H :   -0.004007
  88 H :    0.013041
  89 H :    0.052514
  90 H :    0.053136
  91 H :    0.025443
  92 H :    0.051769
  93 H :    0.024596
  94 H :    0.028841
  95 H :    0.025682
  96 H :    0.021000
  97 H :    0.029021
  98 H :    0.021124
  99 H :    0.026236

  Mayer bond orders larger than 0.100000
B(  0-C ,  1-O ) :   1.1715 B(  0-C ,  4-C ) :   1.5060 B(  0-C , 62-H ) :   1.0035
B(  1-O ,  2-C ) :   1.1465 B(  2-C ,  3-C ) :   1.5743 B(  2-C , 63-H ) :   1.0019
B(  3-C ,  4-C ) :   1.2073 B(  3-C , 64-H ) :   1.0095 B(  4-C ,  5-C ) :   1.0724
B(  5-C ,  6-C ) :   1.6869 B(  5-C , 65-H ) :   0.9803 B(  6-C ,  7-C ) :   1.1430
B(  6-C , 66-H ) :   0.9828 B(  7-C ,  8-C ) :   1.6698 B(  7-C , 67-H ) :   0.9828
B(  8-C ,  9-C ) :   1.1112 B(  8-C , 68-H ) :   0.9657 B(  9-C , 10-S ) :   1.1046
B(  9-C , 13-C ) :   1.4541 B( 10-S , 11-C ) :   1.1298 B( 11-C , 12-C ) :   1.4477
B( 11-C , 17-C ) :   1.0622 B( 12-C , 13-C ) :   1.3161 B( 12-C , 14-C ) :   0.9427
B( 13-C , 69-H ) :   0.9998 B( 14-C , 15-O ) :   2.2175 B( 14-C , 16-C ) :   0.9085
B( 16-C , 17-C ) :   1.5661 B( 16-C , 18-C ) :   1.1901 B( 17-C , 70-H ) :   1.0250
B( 18-C , 19-C ) :   1.6104 B( 18-C , 71-H ) :   0.9780 B( 19-C , 20-C ) :   1.1374
B( 19-C , 72-H ) :   0.9538 B( 20-C , 21-S ) :   1.1051 B( 20-C , 24-C ) :   1.4116
B( 21-S , 22-C ) :   1.1360 B( 22-C , 23-C ) :   1.4168 B( 22-C , 28-C ) :   1.0916
B( 23-C , 24-C ) :   1.3398 B( 23-C , 25-C ) :   0.9184 B( 24-C , 73-H ) :   1.0015
B( 25-C , 26-O ) :   2.2767 B( 25-C , 27-C ) :   0.9140 B( 27-C , 28-C ) :   1.5779
B( 27-C , 29-C ) :   1.1404 B( 28-C , 74-H ) :   1.0131 B( 29-C , 30-C ) :   1.5644
B( 29-C , 75-H ) :   0.9859 B( 30-C , 31-C ) :   1.2129 B( 30-C , 76-H ) :   0.9573
B( 31-C , 32-C ) :   1.4042 B( 31-C , 39-O ) :   1.0602 B( 32-C , 33-O ) :   1.0665
B( 32-C , 40-C ) :   1.1926 B( 33-O , 34-C ) :   1.0516 B( 34-C , 35-C ) :   1.2024
B( 34-C , 38-C ) :   1.5677 B( 35-C , 36-C ) :   1.5705 B( 35-C , 39-O ) :   1.0582
B( 36-C , 37-S ) :   1.1391 B( 36-C , 77-H ) :   0.9726 B( 37-S , 38-C ) :   1.1413
B( 38-C , 78-H ) :   0.9735 B( 40-C , 41-C ) :   1.6311 B( 40-C , 79-H ) :   0.9481
B( 41-C , 42-C ) :   1.0723 B( 41-C , 80-H ) :   0.9911 B( 42-C , 43-C ) :   1.4950
B( 42-C , 59-C ) :   1.1119 B( 43-C , 44-C ) :   1.1213 B( 43-C , 81-H ) :   1.0024
B( 44-C , 45-C ) :   1.4880 B( 44-C , 57-C ) :   1.1154 B( 45-C , 46-C ) :   1.0303
B( 45-C , 51-C ) :   1.0845 B( 46-C , 47-C ) :   1.0438 B( 46-C , 49-C ) :   1.0446
B( 46-C , 82-H ) :   0.8845 B( 47-C , 48-N ) :   1.0970 B( 47-C , 83-H ) :   0.9375
B( 47-C , 84-H ) :   0.9297 B( 48-N , 85-H ) :   0.9695 B( 48-N , 86-H ) :   0.9683
B( 49-C , 50-N ) :   1.0931 B( 49-C , 87-H ) :   0.9319 B( 49-C , 88-H ) :   0.9336
B( 50-N , 89-H ) :   0.9694 B( 50-N , 90-H ) :   0.9667 B( 51-C , 52-C ) :   1.6437
B( 51-C , 56-C ) :   1.0570 B( 52-C , 53-C ) :   0.9798 B( 52-C , 91-H ) :   0.9677
B( 53-C , 54-C ) :   0.9908 B( 53-C , 60-C ) :   0.9614 B( 53-C , 92-H ) :   0.8750
B( 54-C , 55-C ) :   1.7195 B( 54-C , 93-H ) :   0.9734 B( 55-C , 56-C ) :   1.1275
B( 55-C , 94-H ) :   0.9884 B( 56-C , 57-C ) :   1.4506 B( 57-C , 58-C ) :   1.1336
B( 58-C , 59-C ) :   1.6306 B( 58-C , 95-H ) :   0.9864 B( 59-C , 96-H ) :   0.9801
B( 60-C , 61-C ) :   2.0037 B( 60-C , 97-H ) :   0.9644 B( 61-C , 98-H ) :   0.9608
B( 61-C , 99-H ) :   0.9533

-----------------------------------------------------------------------------
         ABSORPTION SPECTRUM VIA TRANSITION ELECTRIC DIPOLE MOMENTS
-----------------------------------------------------------------------------
State   Energy  Wavelength   fosc         T2         TX        TY        TZ
        (cm-1)    (nm)                  (au**2)     (au)      (au)      (au)
-----------------------------------------------------------------------------
   0   10553.9    947.5   1.234406506  38.50521  -3.43881  -1.36764  -4.98090
   1   14003.8    714.1   0.065598882   1.54215  -0.53032  -0.46553   1.02185
   2   14823.3    674.6   0.024775457   0.55024  -0.30348   0.05501  -0.67462
   3   16905.3    591.5   0.032788801   0.63852  -0.46480  -0.49545   0.42074
   4   19227.4    520.1   0.162027279   2.77424  -1.29484  -0.72476  -0.75653
   5   21126.4    473.3   0.347450578   5.41432  -1.78458  -1.49305  -0.01916
   6   21690.3    461.0   0.055671048   0.84497   0.34021   0.07607   0.85055
   7   24035.3    416.1   0.177230547   2.42753  -0.08672   0.29546  -1.52732
   8   24867.1    402.1   0.809495569  10.71681   1.58218   0.63278   2.79519
   9   26279.0    380.5   0.473554729   5.93249   0.12455   0.54512  -2.37062
  10   26304.9    380.2   0.005398184   0.06756   0.02430   0.04941  -0.25402
  11   26416.0    378.6   0.000281754   0.00351   0.01898  -0.03084   0.04691
  12   26812.3    373.0   0.187794010   2.30581  -0.56220  -0.13179  -1.40441
  13   27592.3    362.4   0.037608237   0.44872   0.43007   0.44954  -0.24832
  14   27973.2    357.5   0.405297260   4.76987   1.68407   1.36996  -0.23876
  15   28808.0    347.1   0.180244352   2.05980   1.12283   0.89159  -0.06415
  16   29658.2    337.2   0.058369578   0.64791   0.46035   0.56941  -0.33432
  17   30189.7    331.2   0.015148802   0.16519   0.38954   0.01673  -0.11478
  18   30290.7    330.1   0.126558739   1.37549  -0.10474   0.33645  -1.11863
  19   30814.6    324.5   0.102118819   1.09100  -0.50760  -0.69584   0.59089
  20   31543.2    317.0   0.095718418   0.99900  -0.02497   0.21551  -0.97567
  21   32151.8    311.0   0.005096636   0.05219  -0.11728  -0.19596  -0.00553
  22   32708.8    305.7   0.024453930   0.24613   0.46494   0.16959   0.03454
  23   33211.8    301.1   0.314584396   3.11832  -0.32698   0.15404  -1.72849
  24   33982.2    294.3   0.047192000   0.45719  -0.15239  -0.40725   0.51780
  25   34415.4    290.6   0.033790322   0.32323   0.42683   0.33651   0.16676
  26   35242.6    283.7   0.104828889   0.97924   0.74195   0.64920   0.08539
  27   35562.9    281.2   0.200224762   1.85351   0.58689   0.88556  -0.85139
  28   35944.7    278.2   0.144258276   1.32124  -0.56119  -0.73900   0.67836
  29   36003.6    277.7   0.060649559   0.55457  -0.23579  -0.37789   0.59680
  30   36275.6    275.7   0.139010056   1.26156   0.84047   0.66946   0.32710
  31   36521.3    273.8   0.166664310   1.50235  -0.37568  -0.11382  -1.16115
  32   36722.3    272.3   0.413034425   3.70282   1.03746   1.27495  -1.00049
  33   37040.2    270.0   0.011159182   0.09918  -0.07538  -0.15110   0.26584
  34   37207.6    268.8   0.041117691   0.36381  -0.38559  -0.26157  -0.38303
  35   37677.2    265.4   0.022958164   0.20060   0.27863   0.32374  -0.13475
  36   37861.5    264.1   0.001129397   0.00982  -0.04096  -0.06455  -0.06305
  37   38290.0    261.2   0.166259445   1.42947   0.85466   0.77065  -0.32424
  38   38678.2    258.5   0.009521752   0.08104  -0.03811   0.08738  -0.26825
  39   38995.2    256.4   0.026371031   0.22263   0.34461   0.22023   0.23533
  40   39285.2    254.5   0.080683609   0.67613   0.60199   0.55444  -0.07958
  41   39418.9    253.7   0.058411145   0.48783   0.08794   0.32340  -0.61279
  42   39964.1    250.2   0.015493637   0.12763   0.27420   0.12736   0.19032
  43   40134.2    249.2   0.000068415   0.00056  -0.01032  -0.00367  -0.02100
  44   40244.7    248.5   0.008965666   0.07334  -0.11083  -0.09012  -0.23008

FINAL SINGLE POINT ENERGY     -3680.843503100258

DIPOLE MOMENT
-------------
                                X             Y             Z
Electronic contribution:    -77.27515     -55.27795     -24.07937
Nuclear contribution   :     78.96171      56.47660      23.99072
                        -----------------------------------------
Total Dipole Moment    :      1.68657       1.19865      -0.08865
                        -----------------------------------------
Magnitude (a.u.)       :      2.07102
Magnitude (Debye)      :      5.26413

Rotational constants in cm-1:     0.001237     0.000223     0.000191
Rotational constants in MHz :    37.085825     6.691551     5.715234

                             ****ORCA TERMINATED NORMALLY****
TOTAL RUN TIME: 0 days 0 hours 8 minutes 49 seconds 855 msec
