                         Program Version 4.2.0 -  RELEASE  -
|  1> # ORCA input file
|  2> # SCF done       -163.603840751850          0.000485740437
|  3> ! CAM-B3LYP def2-SVP def2/J RIJCOSX Grid4 TightSCF
|  4> %maxcore 5000
|  5> %tddft
|  6>     Mode sTDDFT
|  7>     Ethresh 5.0
|  8>     maxcore 5000
|  9> end
| 10>
| 11> %pal
| 12>   nprocs 6
| 13>   end
| 14> * xyz 0 1
| 15>    C        3.57417        -4.18636       -10.80216
| 16>    O        4.14857        -4.08909       -12.00532
| 17>    C        4.18281        -2.78140       -12.32262
| 18>    C        3.63506        -2.02914       -11.33656
| 19>    C        3.22530        -2.94575       -10.31752
| 20>    C        2.58962        -2.67935        -9.06181
| 21>    C        2.25722        -1.45326        -8.60113
| 22>    C        1.62085        -1.24657        -7.34956
| 23>    C        1.28214        -0.02037        -6.87265
| 24>    C        0.62317         0.17474        -5.62660
| 25>    C        0.31008         1.41356        -5.09046
| 26>    O       -0.36336         1.52871        -3.89102
| 27>    C       -0.48963         0.39049        -3.16236
| 28>    C       -0.12932        -0.87793        -3.69858
| 29>    C       -0.31590        -1.89324        -2.81812
| 30>    S       -0.93151        -1.31194        -1.31871
| 31>    C       -0.93352         0.31618        -1.88112
| 32>    O        0.34293        -0.99941        -4.96642
| 33>    C        0.60536         2.65455        -5.71539
| 34>    C        0.62214         3.89555        -5.14423
| 35>    C        0.64788         4.27400        -3.77756
| 36>    C        1.14470         3.48314        -2.71262
| 37>    C        1.02204         3.88283        -1.33482
| 38>    N        1.34281         3.01860        -0.36794
| 39>    C        1.84026         1.84107        -0.68248
| 40>    C        2.13545         1.52551        -2.04314
| 41>    N        1.77922         2.34173        -3.00813
| 42>    C        2.76620         0.30680        -2.38810
| 43>    N        3.23269        -0.70518        -2.65776
| 44>    C        2.08154         0.89076         0.33567
| 45>    N        2.28649         0.08849         1.12878
| 46>    C        0.51485         5.16542        -0.95090
| 47>    C        0.15942         6.01292        -2.03441
| 48>    C        0.22890         5.57667        -3.40791
| 49>    N       -0.16807         6.52574        -4.25166
| 50>    S       -0.57447         7.84231        -3.41798
| 51>    N       -0.27517         7.26177        -1.94181
| 52>    C        0.40179         5.45597         0.41257
| 53>    C       -0.15829         6.52437         1.08583
| 54>    C       -0.20212         6.59438         2.50002
| 55>    C       -0.86503         7.67856         2.99725
| 56>    C       -1.38208         8.51536         1.99038
| 57>    S       -0.96525         7.91398         0.40284
| 58>    C       -2.14249         9.66795         2.12481
| 59>    C       -2.56443        10.31689         3.30357
| 60>    C       -3.32774        11.42447         3.07760
| 61>    C       -3.54992        11.70093         1.70596
| 62>    S       -2.74055        10.50663         0.71388
| 63>    C       -4.29072        12.72857         1.17607
| 64>    C       -4.47473        12.90939        -0.20773
| 65>    O       -3.90925        12.06325        -1.09000
| 66>    C       -4.24578        12.44936        -2.34387
| 67>    C       -5.04761        13.57167        -2.28050
| 68>    C       -5.19830        13.87224        -0.91774
| 69>    C       -5.97187        14.98858        -0.32567
| 70>    F       -5.20402        15.82547         0.40398
| 71>    F       -6.57994        15.74100        -1.25048
| 72>    F       -6.93676        14.56414         0.51748
| 73>    C       -3.74252        11.67060        -3.43964
| 74>    C       -3.98802        11.91456        -4.72568
| 75>    H        3.46127        -5.16634       -10.38205
| 76>    H        4.61655        -2.51838       -13.26698
| 77>    H        3.53233        -0.96426       -11.32684
| 78>    H        2.37038        -3.54896        -8.45590
| 79>    H        2.47420        -0.57697        -9.19627
| 80>    H        1.40155        -2.12012        -6.75229
| 81>    H        1.51722         0.85633        -7.45362
| 82>    H       -0.12309        -2.93528        -2.96128
| 83>    H       -1.27652         1.11170        -1.25206
| 84>    H        0.76125         2.61377        -6.78256
| 85>    H        0.61722         4.74201        -5.82058
| 86>    H        0.79648         4.67463         1.05265
| 87>    H        0.25197         5.83160         3.10815
| 88>    H       -0.99776         7.88031         4.04507
| 89>    H       -2.29746         9.95552         4.28050
| 90>    H       -3.74288        12.04984         3.84762
| 91>    H       -4.76728        13.43285         1.83939
| 92>    H       -5.47507        14.11233        -3.09901
| 93>    H       -3.12491        10.83483        -3.13927
| 94>    H       -4.60052        12.74038        -5.04229
| 95>    H       -3.57949        11.28937        -5.49906
| 96> *
| 97>
| 98>                          ****END OF INPUT****

CARTESIAN COORDINATES (ANGSTROEM)
---------------------------------
  C      3.574170   -4.186360  -10.802160
  O      4.148570   -4.089090  -12.005320
  C      4.182810   -2.781400  -12.322620
  C      3.635060   -2.029140  -11.336560
  C      3.225300   -2.945750  -10.317520
  C      2.589620   -2.679350   -9.061810
  C      2.257220   -1.453260   -8.601130
  C      1.620850   -1.246570   -7.349560
  C      1.282140   -0.020370   -6.872650
  C      0.623170    0.174740   -5.626600
  C      0.310080    1.413560   -5.090460
  O     -0.363360    1.528710   -3.891020
  C     -0.489630    0.390490   -3.162360
  C     -0.129320   -0.877930   -3.698580
  C     -0.315900   -1.893240   -2.818120
  S     -0.931510   -1.311940   -1.318710
  C     -0.933520    0.316180   -1.881120
  O      0.342930   -0.999410   -4.966420
  C      0.605360    2.654550   -5.715390
  C      0.622140    3.895550   -5.144230
  C      0.647880    4.274000   -3.777560
  C      1.144700    3.483140   -2.712620
  C      1.022040    3.882830   -1.334820
  N      1.342810    3.018600   -0.367940
  C      1.840260    1.841070   -0.682480
  C      2.135450    1.525510   -2.043140
  N      1.779220    2.341730   -3.008130
  C      2.766200    0.306800   -2.388100
  N      3.232690   -0.705180   -2.657760
  C      2.081540    0.890760    0.335670
  N      2.286490    0.088490    1.128780
  C      0.514850    5.165420   -0.950900
  C      0.159420    6.012920   -2.034410
  C      0.228900    5.576670   -3.407910
  N     -0.168070    6.525740   -4.251660
  S     -0.574470    7.842310   -3.417980
  N     -0.275170    7.261770   -1.941810
  C      0.401790    5.455970    0.412570
  C     -0.158290    6.524370    1.085830
  C     -0.202120    6.594380    2.500020
  C     -0.865030    7.678560    2.997250
  C     -1.382080    8.515360    1.990380
  S     -0.965250    7.913980    0.402840
  C     -2.142490    9.667950    2.124810
  C     -2.564430   10.316890    3.303570
  C     -3.327740   11.424470    3.077600
  C     -3.549920   11.700930    1.705960
  S     -2.740550   10.506630    0.713880
  C     -4.290720   12.728570    1.176070
  C     -4.474730   12.909390   -0.207730
  O     -3.909250   12.063250   -1.090000
  C     -4.245780   12.449360   -2.343870
  C     -5.047610   13.571670   -2.280500
  C     -5.198300   13.872240   -0.917740
  C     -5.971870   14.988580   -0.325670
  F     -5.204020   15.825470    0.403980
  F     -6.579940   15.741000   -1.250480
  F     -6.936760   14.564140    0.517480
  C     -3.742520   11.670600   -3.439640
  C     -3.988020   11.914560   -4.725680
  H      3.461270   -5.166340  -10.382050
  H      4.616550   -2.518380  -13.266980
  H      3.532330   -0.964260  -11.326840
  H      2.370380   -3.548960   -8.455900
  H      2.474200   -0.576970   -9.196270
  H      1.401550   -2.120120   -6.752290
  H      1.517220    0.856330   -7.453620
  H     -0.123090   -2.935280   -2.961280
  H     -1.276520    1.111700   -1.252060
  H      0.761250    2.613770   -6.782560
  H      0.617220    4.742010   -5.820580
  H      0.796480    4.674630    1.052650
  H      0.251970    5.831600    3.108150
  H     -0.997760    7.880310    4.045070
  H     -2.297460    9.955520    4.280500
  H     -3.742880   12.049840    3.847620
  H     -4.767280   13.432850    1.839390
  H     -5.475070   14.112330   -3.099010
  H     -3.124910   10.834830   -3.139270
  H     -4.600520   12.740380   -5.042290
  H     -3.579490   11.289370   -5.499060

 Total Charge           Charge          ....    0
 Multiplicity           Mult            ....    1
 Number of Electrons    NEL             ....  444
 Basis Dimension        Dim             ....  961

ORBITAL ENERGIES
----------------

  NO   OCC          E(Eh)            E(eV)
   0   2.0000     -89.029433     -2422.6140
   1   2.0000     -88.954873     -2420.5851
   2   2.0000     -88.953154     -2420.5384
   3   2.0000     -88.950803     -2420.4744
   4   2.0000     -24.801344      -674.8789
   5   2.0000     -24.794291      -674.6870
   6   2.0000     -24.793538      -674.6665
   7   2.0000     -19.309075      -525.4266
   8   2.0000     -19.285770      -524.7925
   9   2.0000     -19.272659      -524.4357
  10   2.0000     -19.270344      -524.3727
  11   2.0000     -14.445152      -393.0726
  12   2.0000     -14.444462      -393.0538
  13   2.0000     -14.439012      -392.9055
  14   2.0000     -14.438276      -392.8855
  15   2.0000     -14.413863      -392.2211
  16   2.0000     -14.413617      -392.2145
  17   2.0000     -10.519566      -286.2519
  18   2.0000     -10.360102      -281.9127
  19   2.0000     -10.359830      -281.9053
  20   2.0000     -10.352864      -281.7157
  21   2.0000     -10.345524      -281.5160
  22   2.0000     -10.344506      -281.4883
  23   2.0000     -10.339479      -281.3515
  24   2.0000     -10.337481      -281.2972
  25   2.0000     -10.335641      -281.2471
  26   2.0000     -10.333042      -281.1764
  27   2.0000     -10.330975      -281.1201
  28   2.0000     -10.328262      -281.0463
  29   2.0000     -10.327521      -281.0261
  30   2.0000     -10.320800      -280.8433
  31   2.0000     -10.318582      -280.7829
  32   2.0000     -10.318521      -280.7812
  33   2.0000     -10.317533      -280.7543
  34   2.0000     -10.316548      -280.7276
  35   2.0000     -10.309324      -280.5310
  36   2.0000     -10.308436      -280.5068
  37   2.0000     -10.308218      -280.5009
  38   2.0000     -10.304711      -280.4054
  39   2.0000     -10.297799      -280.2174
  40   2.0000     -10.297296      -280.2037
  41   2.0000     -10.296783      -280.1897
  42   2.0000     -10.295520      -280.1553
  43   2.0000     -10.292732      -280.0795
  44   2.0000     -10.292288      -280.0674
  45   2.0000     -10.292126      -280.0630
  46   2.0000     -10.290867      -280.0287
  47   2.0000     -10.289809      -279.9999
  48   2.0000     -10.289606      -279.9944
  49   2.0000     -10.289029      -279.9787
  50   2.0000     -10.286087      -279.8987
  51   2.0000     -10.281732      -279.7801
  52   2.0000     -10.280382      -279.7434
  53   2.0000     -10.277041      -279.6525
  54   2.0000     -10.274995      -279.5968
  55   2.0000     -10.274226      -279.5759
  56   2.0000     -10.273315      -279.5511
  57   2.0000     -10.270386      -279.4714
  58   2.0000     -10.268060      -279.4081
  59   2.0000     -10.263898      -279.2949
  60   2.0000      -8.120895      -220.9808
  61   2.0000      -8.050459      -219.0641
  62   2.0000      -8.049062      -219.0261
  63   2.0000      -8.045377      -218.9258
  64   2.0000      -6.092154      -165.7759
  65   2.0000      -6.084524      -165.5683
  66   2.0000      -6.083154      -165.5310
  67   2.0000      -6.019963      -163.8115
  68   2.0000      -6.018856      -163.7814
  69   2.0000      -6.015744      -163.6967
  70   2.0000      -6.015129      -163.6800
  71   2.0000      -6.014522      -163.6635
  72   2.0000      -6.012207      -163.6005
  73   2.0000      -6.010743      -163.5606
  74   2.0000      -6.010052      -163.5418
  75   2.0000      -6.006587      -163.4475
  76   2.0000      -1.385724       -37.7075
  77   2.0000      -1.291174       -35.1346
  78   2.0000      -1.283440       -34.9242
  79   2.0000      -1.229466       -33.4555
  80   2.0000      -1.205279       -32.7973
  81   2.0000      -1.200051       -32.6551
  82   2.0000      -1.162758       -31.6403
  83   2.0000      -1.128705       -30.7136
  84   2.0000      -1.101115       -29.9629
  85   2.0000      -1.027190       -27.9512
  86   2.0000      -1.003512       -27.3070
  87   2.0000      -0.998155       -27.1612
  88   2.0000      -0.989675       -26.9304
  89   2.0000      -0.986289       -26.8383
  90   2.0000      -0.983284       -26.7565
  91   2.0000      -0.978501       -26.6264
  92   2.0000      -0.960621       -26.1398
  93   2.0000      -0.930518       -25.3207
  94   2.0000      -0.923940       -25.1417
  95   2.0000      -0.922638       -25.1063
  96   2.0000      -0.912343       -24.8261
  97   2.0000      -0.900816       -24.5124
  98   2.0000      -0.892535       -24.2871
  99   2.0000      -0.888903       -24.1883
 100   2.0000      -0.879746       -23.9391
 101   2.0000      -0.864267       -23.5179
 102   2.0000      -0.855250       -23.2725
 103   2.0000      -0.846291       -23.0287
 104   2.0000      -0.836317       -22.7573
 105   2.0000      -0.831683       -22.6312
 106   2.0000      -0.829518       -22.5723
 107   2.0000      -0.820267       -22.3206
 108   2.0000      -0.815123       -22.1806
 109   2.0000      -0.811053       -22.0699
 110   2.0000      -0.803444       -21.8628
 111   2.0000      -0.797162       -21.6919
 112   2.0000      -0.787431       -21.4271
 113   2.0000      -0.775217       -21.0947
 114   2.0000      -0.754759       -20.5380
 115   2.0000      -0.738534       -20.0965
 116   2.0000      -0.727300       -19.7908
 117   2.0000      -0.721313       -19.6279
 118   2.0000      -0.713963       -19.4279
 119   2.0000      -0.706259       -19.2183
 120   2.0000      -0.696963       -18.9653
 121   2.0000      -0.690744       -18.7961
 122   2.0000      -0.686061       -18.6687
 123   2.0000      -0.682363       -18.5680
 124   2.0000      -0.679819       -18.4988
 125   2.0000      -0.674807       -18.3624
 126   2.0000      -0.670819       -18.2539
 127   2.0000      -0.668070       -18.1791
 128   2.0000      -0.665308       -18.1039
 129   2.0000      -0.661318       -17.9954
 130   2.0000      -0.650899       -17.7119
 131   2.0000      -0.649724       -17.6799
 132   2.0000      -0.642041       -17.4708
 133   2.0000      -0.636206       -17.3120
 134   2.0000      -0.626015       -17.0347
 135   2.0000      -0.623173       -16.9574
 136   2.0000      -0.619597       -16.8601
 137   2.0000      -0.613303       -16.6888
 138   2.0000      -0.611122       -16.6295
 139   2.0000      -0.610569       -16.6144
 140   2.0000      -0.606910       -16.5149
 141   2.0000      -0.586282       -15.9535
 142   2.0000      -0.582239       -15.8435
 143   2.0000      -0.575522       -15.6607
 144   2.0000      -0.575435       -15.6584
 145   2.0000      -0.574189       -15.6245
 146   2.0000      -0.570559       -15.5257
 147   2.0000      -0.560389       -15.2490
 148   2.0000      -0.557762       -15.1775
 149   2.0000      -0.549003       -14.9391
 150   2.0000      -0.548571       -14.9274
 151   2.0000      -0.544617       -14.8198
 152   2.0000      -0.544318       -14.8116
 153   2.0000      -0.543625       -14.7928
 154   2.0000      -0.541290       -14.7292
 155   2.0000      -0.537149       -14.6166
 156   2.0000      -0.533790       -14.5252
 157   2.0000      -0.529626       -14.4119
 158   2.0000      -0.528449       -14.3798
 159   2.0000      -0.520032       -14.1508
 160   2.0000      -0.514553       -14.0017
 161   2.0000      -0.514038       -13.9877
 162   2.0000      -0.510791       -13.8993
 163   2.0000      -0.506233       -13.7753
 164   2.0000      -0.504295       -13.7226
 165   2.0000      -0.503182       -13.6923
 166   2.0000      -0.502874       -13.6839
 167   2.0000      -0.500909       -13.6304
 168   2.0000      -0.497241       -13.5306
 169   2.0000      -0.493650       -13.4329
 170   2.0000      -0.491924       -13.3859
 171   2.0000      -0.484842       -13.1932
 172   2.0000      -0.481944       -13.1144
 173   2.0000      -0.479690       -13.0530
 174   2.0000      -0.478500       -13.0206
 175   2.0000      -0.476751       -12.9731
 176   2.0000      -0.475068       -12.9272
 177   2.0000      -0.473739       -12.8911
 178   2.0000      -0.471282       -12.8242
 179   2.0000      -0.467480       -12.7208
 180   2.0000      -0.466324       -12.6893
 181   2.0000      -0.465253       -12.6602
 182   2.0000      -0.459434       -12.5018
 183   2.0000      -0.457489       -12.4489
 184   2.0000      -0.452703       -12.3187
 185   2.0000      -0.448443       -12.2028
 186   2.0000      -0.446907       -12.1609
 187   2.0000      -0.441500       -12.0138
 188   2.0000      -0.439806       -11.9677
 189   2.0000      -0.437045       -11.8926
 190   2.0000      -0.436300       -11.8723
 191   2.0000      -0.432513       -11.7693
 192   2.0000      -0.427960       -11.6454
 193   2.0000      -0.427464       -11.6319
 194   2.0000      -0.427003       -11.6193
 195   2.0000      -0.421485       -11.4692
 196   2.0000      -0.420083       -11.4310
 197   2.0000      -0.415504       -11.3064
 198   2.0000      -0.411989       -11.2108
 199   2.0000      -0.409522       -11.1436
 200   2.0000      -0.405290       -11.0285
 201   2.0000      -0.399477       -10.8703
 202   2.0000      -0.393746       -10.7144
 203   2.0000      -0.390907       -10.6371
 204   2.0000      -0.388227       -10.5642
 205   2.0000      -0.381907       -10.3922
 206   2.0000      -0.377605       -10.2751
 207   2.0000      -0.365672        -9.9504
 208   2.0000      -0.351502        -9.5649
 209   2.0000      -0.348811        -9.4916
 210   2.0000      -0.341832        -9.3017
 211   2.0000      -0.339997        -9.2518
 212   2.0000      -0.336056        -9.1445
 213   2.0000      -0.330863        -9.0032
 214   2.0000      -0.325435        -8.8555
 215   2.0000      -0.311409        -8.4739
 216   2.0000      -0.303285        -8.2528
 217   2.0000      -0.294882        -8.0242
 218   2.0000      -0.276135        -7.5140
 219   2.0000      -0.267426        -7.2770
 220   2.0000      -0.238450        -6.4886
 221   2.0000      -0.204016        -5.5516
 222   0.0000      -0.119370        -3.2482
 223   0.0000      -0.069703        -1.8967
 224   0.0000      -0.044020        -1.1978
 225   0.0000      -0.030245        -0.8230
 226   0.0000      -0.020793        -0.5658

MULLIKEN ATOMIC CHARGES
-----------------------
   0 C :    0.078604
   1 O :   -0.178832
   2 C :    0.137014
   3 C :   -0.045724
   4 C :    0.043886
   5 C :    0.029712
   6 C :    0.012113
   7 C :    0.050831
   8 C :   -0.072925
   9 C :    0.204155
  10 C :    0.160398
  11 O :   -0.262017
  12 C :    0.196355
  13 C :    0.234880
  14 C :   -0.164542
  15 S :    0.126294
  16 C :   -0.177282
  17 O :   -0.249126
  18 C :   -0.017491
  19 C :   -0.055625
  20 C :    0.101106
  21 C :   -0.067689
  22 C :   -0.034610
  23 N :    0.039853
  24 C :   -0.142256
  25 C :   -0.139630
  26 N :    0.026286
  27 C :   -0.207968
  28 N :    0.227312
  29 C :   -0.218199
  30 N :    0.225310
  31 C :    0.110123
  32 C :    0.027523
  33 C :    0.000510
  34 N :   -0.279641
  35 S :    0.512180
  36 N :   -0.321421
  37 C :   -0.130008
  38 C :    0.019124
  39 C :    0.021868
  40 C :    0.037232
  41 C :   -0.031277
  42 S :    0.125401
  43 C :   -0.045715
  44 C :    0.031919
  45 C :    0.034371
  46 C :   -0.013357
  47 S :    0.109879
  48 C :   -0.037328
  49 C :    0.121387
  50 O :   -0.210712
  51 C :    0.175976
  52 C :   -0.067958
  53 C :   -0.109597
  54 C :    0.523362
  55 F :   -0.171449
  56 F :   -0.154239
  57 F :   -0.171145
  58 C :    0.001863
  59 C :   -0.014866
  60 H :    0.005543
  61 H :    0.009064
  62 H :   -0.010589
  63 H :   -0.018378
  64 H :   -0.020385
  65 H :    0.005522
  66 H :   -0.013930
  67 H :    0.027706
  68 H :    0.026561
  69 H :    0.000091
  70 H :    0.001398
  71 H :    0.003511
  72 H :   -0.003278
  73 H :   -0.012278
  74 H :   -0.009613
  75 H :   -0.005236
  76 H :    0.007437
  77 H :   -0.004683
  78 H :    0.000644
  79 H :    0.022897
  80 H :    0.033794
Sum of atomic charges:   -0.0000000

LOEWDIN ATOMIC CHARGES
----------------------
   0 C :    0.035528
   1 O :    0.024785
   2 C :    0.034588
   3 C :   -0.068100
   4 C :   -0.078903
   5 C :   -0.003316
   6 C :   -0.033582
   7 C :    0.004370
   8 C :   -0.051758
   9 C :    0.049258
  10 C :    0.014395
  11 O :   -0.039601
  12 C :   -0.016422
  13 C :   -0.006844
  14 C :   -0.201791
  15 S :    0.452347
  16 C :   -0.219900
  17 O :   -0.039045
  18 C :   -0.024219
  19 C :   -0.016840
  20 C :   -0.047477
  21 C :   -0.005182
  22 C :   -0.011076
  23 N :   -0.009560
  24 C :   -0.041399
  25 C :   -0.037234
  26 N :    0.004819
  27 C :   -0.036041
  28 N :   -0.021192
  29 C :   -0.038510
  30 N :   -0.022124
  31 C :   -0.036415
  32 C :   -0.041585
  33 C :   -0.037247
  34 N :   -0.289459
  35 S :    0.636158
  36 N :   -0.291137
  37 C :   -0.039922
  38 C :   -0.133825
  39 C :   -0.029063
  40 C :   -0.028339
  41 C :   -0.188574
  42 S :    0.439968
  43 C :   -0.170642
  44 C :   -0.029077
  45 C :   -0.026967
  46 C :   -0.137437
  47 S :    0.400352
  48 C :   -0.069123
  49 C :    0.043101
  50 O :    0.019114
  51 C :    0.033617
  52 C :   -0.036703
  53 C :   -0.123291
  54 C :    0.170323
  55 F :   -0.071291
  56 F :   -0.053826
  57 F :   -0.070681
  58 C :   -0.036788
  59 C :   -0.027276
  60 H :    0.022237
  61 H :    0.022325
  62 H :    0.028685
  63 H :    0.030600
  64 H :    0.024405
  65 H :    0.032674
  66 H :    0.030906
  67 H :    0.031272
  68 H :    0.028020
  69 H :    0.036364
  70 H :    0.037617
  71 H :    0.040550
  72 H :    0.036209
  73 H :    0.031508
  74 H :    0.033570
  75 H :    0.036163
  76 H :    0.043871
  77 H :    0.036746
  78 H :    0.036935
  79 H :    0.024910
  80 H :    0.030496

  Mayer bond orders larger than 0.100000
B(  0-C ,  1-O ) :   1.1696 B(  0-C ,  4-C ) :   1.4929 B(  0-C , 60-H ) :   1.0070
B(  1-O ,  2-C ) :   1.1418 B(  2-C ,  3-C ) :   1.5932 B(  2-C , 61-H ) :   0.9997
B(  3-C ,  4-C ) :   1.2119 B(  3-C , 62-H ) :   1.0034 B(  4-C ,  5-C ) :   1.0789
B(  5-C ,  6-C ) :   1.6808 B(  5-C , 63-H ) :   0.9789 B(  6-C ,  7-C ) :   1.1172
B(  6-C , 64-H ) :   0.9832 B(  7-C ,  8-C ) :   1.6320 B(  7-C , 65-H ) :   0.9893
B(  8-C ,  9-C ) :   1.1655 B(  8-C , 66-H ) :   0.9581 B(  9-C , 10-C ) :   1.4460
B(  9-C , 17-O ) :   1.0739 B( 10-C , 11-O ) :   1.0288 B( 10-C , 18-C ) :   1.1794
B( 11-O , 12-C ) :   1.0482 B( 12-C , 13-C ) :   1.2215 B( 12-C , 16-C ) :   1.5500
B( 13-C , 14-C ) :   1.5645 B( 13-C , 17-O ) :   1.0520 B( 14-C , 15-S ) :   1.1508
B( 14-C , 67-H ) :   0.9722 B( 15-S , 16-C ) :   1.1484 B( 16-C , 68-H ) :   0.9658
B( 18-C , 19-C ) :   1.6352 B( 18-C , 69-H ) :   0.9467 B( 19-C , 20-C ) :   1.1907
B( 19-C , 70-H ) :   0.9402 B( 20-C , 21-C ) :   1.2464 B( 20-C , 31-C ) :   0.1043
B( 20-C , 33-C ) :   1.1820 B( 21-C , 22-C ) :   1.1074 B( 21-C , 26-N ) :   1.4296
B( 22-C , 23-N ) :   1.4689 B( 22-C , 31-C ) :   1.1890 B( 23-N , 24-C ) :   1.7058
B( 24-C , 25-C ) :   1.2124 B( 24-C , 29-C ) :   1.1633 B( 25-C , 26-N ) :   1.7056
B( 25-C , 27-C ) :   1.1612 B( 27-C , 28-N ) :   3.0315 B( 29-C , 30-N ) :   3.0444
B( 31-C , 32-C ) :   1.1335 B( 31-C , 37-C ) :   1.2997 B( 32-C , 33-C ) :   1.1109
B( 32-C , 36-N ) :   1.5040 B( 33-C , 34-N ) :   1.5639 B( 34-N , 35-S ) :   1.2510
B( 34-N , 36-N ) :   0.1405 B( 35-S , 36-N ) :   1.2398 B( 37-C , 38-C ) :   1.4283
B( 37-C , 71-H ) :   0.9434 B( 38-C , 39-C ) :   1.1782 B( 38-C , 42-S ) :   1.0745
B( 39-C , 40-C ) :   1.5438 B( 39-C , 72-H ) :   1.0030 B( 40-C , 41-C ) :   1.2096
B( 40-C , 73-H ) :   0.9950 B( 41-C , 42-S ) :   1.0282 B( 41-C , 43-C ) :   1.4568
B( 43-C , 44-C ) :   1.2077 B( 43-C , 47-S ) :   1.0451 B( 44-C , 45-C ) :   1.5672
B( 44-C , 74-H ) :   0.9966 B( 45-C , 46-C ) :   1.1516 B( 45-C , 75-H ) :   1.0003
B( 46-C , 47-S ) :   1.0537 B( 46-C , 48-C ) :   1.5430 B( 48-C , 49-C ) :   1.2145
B( 48-C , 76-H ) :   0.9542 B( 49-C , 50-O ) :   1.1454 B( 49-C , 53-C ) :   1.3954
B( 50-O , 51-C ) :   1.1021 B( 51-C , 52-C ) :   1.4635 B( 51-C , 58-C ) :   1.1105
B( 52-C , 53-C ) :   1.2820 B( 52-C , 77-H ) :   1.0141 B( 53-C , 54-C ) :   0.9548
B( 54-C , 55-F ) :   1.1614 B( 54-C , 56-F ) :   1.1820 B( 54-C , 57-F ) :   1.1595
B( 58-C , 59-C ) :   1.9239 B( 58-C , 78-H ) :   0.9525 B( 59-C , 79-H ) :   0.9563
B( 59-C , 80-H ) :   0.9505

-----------------------------------------------------------------------------
         ABSORPTION SPECTRUM VIA TRANSITION ELECTRIC DIPOLE MOMENTS
-----------------------------------------------------------------------------
State   Energy  Wavelength   fosc         T2         TX        TY        TZ
        (cm-1)    (nm)                  (au**2)     (au)      (au)      (au)
-----------------------------------------------------------------------------
   0    5059.4   1976.5   0.431885577  28.10257  -1.82935   4.32256   2.46404
   1   12286.8    813.9   0.070532799   1.88985  -0.93608   0.09714  -1.00208
   2   15083.9    663.0   0.421659753   9.20291  -1.70813   2.50017  -0.18527
   3   18092.3    552.7   0.239237965   4.35323  -0.78128   1.77346  -0.77310
   4   20214.6    494.7   0.256720392   4.18092   0.23844   0.79809   1.86738
   5   21007.4    476.0   0.138453113   2.16973   0.38097  -0.23045  -1.40410
   6   22033.1    453.9   0.108821543   1.62598  -0.25236   0.08703  -1.24688
   7   22349.6    447.4   0.013590639   0.20019  -0.21140   0.37302  -0.12790
   8   23413.0    427.1   0.448288590   6.30343   0.20841  -1.26252  -2.16010
   9   24227.1    412.8   0.044742855   0.60799   0.22621  -0.74561   0.02971
  10   25681.5    389.4   0.008887714   0.11393  -0.28769   0.03966   0.17203
  11   26631.2    375.5   0.195034098   2.41099  -0.33236   1.20176   0.92536
  12   26772.0    373.5   0.023589662   0.29008   0.02619  -0.00755  -0.53790
  13   27259.3    366.8   0.014618384   0.17655   0.16079  -0.38786   0.01601
  14   27485.1    363.8   0.020361526   0.24389  -0.07749   0.43473   0.22111
  15   28557.1    350.2   0.276507094   3.18763   0.39926  -0.25850   1.72087
  16   28998.6    344.8   0.039735840   0.45111  -0.25088   0.00240  -0.62303
  17   30154.4    331.6   0.020555102   0.22441   0.21593  -0.35305  -0.23052
  18   30525.3    327.6   0.236324458   2.54873  -0.80100   1.35925   0.24406
  19   30785.2    324.8   0.121317083   1.29735   0.61018  -0.52916  -0.80313
  20   31437.2    318.1   0.135964622   1.42383  -0.54979   1.01834   0.29077
  21   31827.9    314.2   0.064261258   0.66469   0.09466   0.10700  -0.80267
  22   32035.8    312.2   0.275593099   2.83210  -0.59526   1.47704  -0.54416
  23   32714.9    305.7   0.077213417   0.77700  -0.28492   0.23966   0.79899
  24   33439.6    299.0   0.137327600   1.35198   0.34835  -0.90102  -0.64715
  25   33795.1    295.9   0.062023156   0.60419   0.24942  -0.22578  -0.70072
  26   34042.0    293.8   0.113348399   1.09616  -0.56942   0.87822  -0.02562
  27   34218.0    292.2   0.020049069   0.19289   0.17150  -0.37984   0.13858
  28   34744.4    287.8   0.131321198   1.24430  -0.26004  -0.39149   1.01164
  29   35395.4    282.5   0.101249260   0.94172   0.23494   0.08627  -0.93759
  30   35648.3    280.5   0.133088681   1.22907  -0.94689   0.40602   0.40941
  31   36426.8    274.5   0.021411551   0.19351   0.25417  -0.32273  -0.15732
  32   36803.3    271.7   0.022284707   0.19934  -0.07946   0.16839  -0.40580
  33   37209.6    268.7   0.047799752   0.42291  -0.20540   0.55825  -0.26283
  34   37359.7    267.7   0.001150096   0.01013  -0.01845  -0.09834  -0.01107
  35   37570.0    266.2   0.006850556   0.06003   0.01802   0.05959  -0.23697
  36   37707.5    265.2   0.012252953   0.10698  -0.08240   0.20315  -0.24272
  37   37909.3    263.8   0.246413773   2.13991   0.34843  -1.41636   0.11148
  38   38029.9    263.0   0.164791111   1.42654   0.46392  -1.09324  -0.12705
  39   38395.9    260.4   0.124431287   1.06689   0.23887  -0.16775  -0.99081
  40   38655.1    258.7   0.078009090   0.66438  -0.31211   0.71476   0.23682
  41   39068.3    256.0   0.005009487   0.04221  -0.00422   0.11771  -0.16834
  42   39221.4    255.0   0.000486031   0.00408  -0.02631  -0.02152   0.05408
  43   40000.7    250.0   0.000912857   0.00751   0.08620   0.00906  -0.00066
  44   40127.4    249.2   0.038458674   0.31552  -0.32759  -0.32932   0.31584

FINAL SINGLE POINT ENERGY     -4169.067911052011

DIPOLE MOMENT
-------------
                                X             Y             Z
Electronic contribution:    -22.41525      46.01341      34.01579
Nuclear contribution   :     21.49684     -44.28370     -34.74720
                        -----------------------------------------
Total Dipole Moment    :     -0.91842       1.72970      -0.73141
                        -----------------------------------------
Magnitude (a.u.)       :      2.09053
Magnitude (Debye)      :      5.31371

Rotational constants in cm-1:     0.002291     0.000397     0.000354
Rotational constants in MHz :    68.676574    11.910022    10.612854

                             ****ORCA TERMINATED NORMALLY****
TOTAL RUN TIME: 0 days 0 hours 7 minutes 26 seconds 938 msec
