                         Program Version 4.2.0 -  RELEASE  -
|  1> # ORCA input file
|  2> # SCF done       -171.675654805094          0.000680023898
|  3> ! CAM-B3LYP def2-SVP def2/J RIJCOSX Grid4 TightSCF
|  4> %maxcore 5000
|  5> %tddft
|  6>     Mode sTDDFT
|  7>     Ethresh 5.0
|  8>     maxcore 5000
|  9> end
| 10>
| 11> %pal
| 12>   nprocs 6
| 13>   end
| 14> * xyz 0 1
| 15>    C       -3.26059        -2.35322        -2.42374
| 16>    C       -3.69646        -3.14860        -1.33597
| 17>    C       -3.11166        -2.99251        -0.09483
| 18>    C       -2.07662        -2.06283         0.08862
| 19>    C       -1.63543        -1.27518        -1.01334
| 20>    C       -2.25627        -1.44283        -2.26806
| 21>    N       -0.64571        -0.37318        -0.85860
| 22>    C       -0.11612        -0.25957         0.32846
| 23>    C       -0.55011        -1.04329         1.42046
| 24>    N       -1.50597        -1.92178         1.30475
| 25>    C       -4.77466        -4.11163        -1.47573
| 26>    O       -5.45406        -4.43832        -0.36591
| 27>    C       -6.40445        -5.34657        -0.68684
| 28>    C       -6.33741        -5.62796        -2.03550
| 29>    C       -5.28773        -4.83454        -2.54392
| 30>    C       -4.81935        -4.86024        -3.95498
| 31>    F       -3.47604        -4.89590        -4.05731
| 32>    F       -5.27730        -5.92527        -4.61791
| 33>    F       -5.21148        -3.77837        -4.66225
| 34>    C       -7.27450        -5.85485         0.32166
| 35>    C       -7.19884        -5.48036         1.61731
| 36>    C       -8.06638        -5.99030         2.62642
| 37>    O       -9.02230        -6.88016         2.32810
| 38>    C       -9.69366        -7.19735         3.45879
| 39>    C       -9.16113        -6.49415         4.52341
| 40>    C       -8.11725        -5.71810         3.99138
| 41>    C       -7.22730        -4.79385         4.73781
| 42>    F       -5.93838        -5.18821         4.72207
| 43>    F       -7.23064        -3.54491         4.23374
| 44>    F       -7.57331        -4.68439         6.02766
| 45>    C      -10.75322        -8.14029         3.33432
| 46>    C      -11.54442        -8.60228         4.32366
| 47>    C      -12.57046        -9.55420         4.03486
| 48>    N      -13.42819       -10.10039         4.96183
| 49>    C      -14.28831       -10.97263         4.37286
| 50>    C      -13.99335       -11.00463         3.02279
| 51>    C      -12.91361       -10.11106         2.82328
| 52>    S      -12.49579       -10.10651         1.10131
| 53>    O      -11.18582       -10.65956         0.88690
| 54>    O      -12.77465        -8.82651         0.50816
| 55>    C      -13.80276       -11.31762         0.71095
| 56>    C      -14.46673       -11.66019         1.83902
| 57>    C      -13.98045       -11.73040        -0.62808
| 58>    C      -13.18273       -11.23674        -1.60808
| 59>    C      -13.25842       -11.54416        -2.99610
| 60>    C      -12.34724       -10.91818        -3.88654
| 61>    C      -12.37499       -11.16771        -5.30766
| 62>    N      -11.49317       -10.54181        -6.12043
| 63>    C      -10.62668        -9.72052        -5.59528
| 64>    C      -10.59437        -9.47685        -4.17543
| 65>    N      -11.44096       -10.07115        -3.37522
| 66>    C       -9.63742        -8.58485        -3.63021
| 67>    N       -8.84892        -7.85615        -3.22911
| 68>    C       -9.70206        -9.05619        -6.44336
| 69>    N       -8.94556        -8.50338        -7.10114
| 70>    C      -13.29647       -12.04210        -5.87219
| 71>    C      -14.19411       -12.67010        -5.01766
| 72>    C      -14.18471       -12.42963        -3.58659
| 73>    N      -15.13497       -13.13769        -2.96850
| 74>    S      -15.93912       -13.99923        -4.05674
| 75>    N      -15.15096       -13.54096        -5.36730
| 76>    H       -3.74440        -2.44684        -3.38109
| 77>    H       -3.42875        -3.58168         0.75090
| 78>    H       -1.91983        -0.82880        -3.08831
| 79>    H        0.67628         0.46815         0.44096
| 80>    H       -0.09981        -0.93913         2.39855
| 81>    H       -6.95309        -6.31151        -2.58511
| 82>    H       -8.01322        -6.57095        -0.00514
| 83>    H       -6.45862        -4.76247         1.93729
| 84>    H       -9.47161        -6.52403         5.54694
| 85>    H      -10.90665        -8.50058         2.32634
| 86>    H      -11.42779        -8.27242         5.34570
| 87>    H      -13.41549        -9.87953         5.94527
| 88>    H      -15.03214       -11.49685         4.93879
| 89>    H      -15.28540       -12.36277         1.86421
| 90>    H      -14.76512       -12.43953        -0.85983
| 91>    H      -12.40627       -10.53225        -1.34511
| 92>    H      -13.30713       -12.21832        -6.93414
| 93> *
| 94>
| 95>                          ****END OF INPUT****

CARTESIAN COORDINATES (ANGSTROEM)
---------------------------------
  C     -3.260590   -2.353220   -2.423740
  C     -3.696460   -3.148600   -1.335970
  C     -3.111660   -2.992510   -0.094830
  C     -2.076620   -2.062830    0.088620
  C     -1.635430   -1.275180   -1.013340
  C     -2.256270   -1.442830   -2.268060
  N     -0.645710   -0.373180   -0.858600
  C     -0.116120   -0.259570    0.328460
  C     -0.550110   -1.043290    1.420460
  N     -1.505970   -1.921780    1.304750
  C     -4.774660   -4.111630   -1.475730
  O     -5.454060   -4.438320   -0.365910
  C     -6.404450   -5.346570   -0.686840
  C     -6.337410   -5.627960   -2.035500
  C     -5.287730   -4.834540   -2.543920
  C     -4.819350   -4.860240   -3.954980
  F     -3.476040   -4.895900   -4.057310
  F     -5.277300   -5.925270   -4.617910
  F     -5.211480   -3.778370   -4.662250
  C     -7.274500   -5.854850    0.321660
  C     -7.198840   -5.480360    1.617310
  C     -8.066380   -5.990300    2.626420
  O     -9.022300   -6.880160    2.328100
  C     -9.693660   -7.197350    3.458790
  C     -9.161130   -6.494150    4.523410
  C     -8.117250   -5.718100    3.991380
  C     -7.227300   -4.793850    4.737810
  F     -5.938380   -5.188210    4.722070
  F     -7.230640   -3.544910    4.233740
  F     -7.573310   -4.684390    6.027660
  C    -10.753220   -8.140290    3.334320
  C    -11.544420   -8.602280    4.323660
  C    -12.570460   -9.554200    4.034860
  N    -13.428190  -10.100390    4.961830
  C    -14.288310  -10.972630    4.372860
  C    -13.993350  -11.004630    3.022790
  C    -12.913610  -10.111060    2.823280
  S    -12.495790  -10.106510    1.101310
  O    -11.185820  -10.659560    0.886900
  O    -12.774650   -8.826510    0.508160
  C    -13.802760  -11.317620    0.710950
  C    -14.466730  -11.660190    1.839020
  C    -13.980450  -11.730400   -0.628080
  C    -13.182730  -11.236740   -1.608080
  C    -13.258420  -11.544160   -2.996100
  C    -12.347240  -10.918180   -3.886540
  C    -12.374990  -11.167710   -5.307660
  N    -11.493170  -10.541810   -6.120430
  C    -10.626680   -9.720520   -5.595280
  C    -10.594370   -9.476850   -4.175430
  N    -11.440960  -10.071150   -3.375220
  C     -9.637420   -8.584850   -3.630210
  N     -8.848920   -7.856150   -3.229110
  C     -9.702060   -9.056190   -6.443360
  N     -8.945560   -8.503380   -7.101140
  C    -13.296470  -12.042100   -5.872190
  C    -14.194110  -12.670100   -5.017660
  C    -14.184710  -12.429630   -3.586590
  N    -15.134970  -13.137690   -2.968500
  S    -15.939120  -13.999230   -4.056740
  N    -15.150960  -13.540960   -5.367300
  H     -3.744400   -2.446840   -3.381090
  H     -3.428750   -3.581680    0.750900
  H     -1.919830   -0.828800   -3.088310
  H      0.676280    0.468150    0.440960
  H     -0.099810   -0.939130    2.398550
  H     -6.953090   -6.311510   -2.585110
  H     -8.013220   -6.570950   -0.005140
  H     -6.458620   -4.762470    1.937290
  H     -9.471610   -6.524030    5.546940
  H    -10.906650   -8.500580    2.326340
  H    -11.427790   -8.272420    5.345700
  H    -13.415490   -9.879530    5.945270
  H    -15.032140  -11.496850    4.938790
  H    -15.285400  -12.362770    1.864210
  H    -14.765120  -12.439530   -0.859830
  H    -12.406270  -10.532250   -1.345110
  H    -13.307130  -12.218320   -6.934140

 Total Charge           Charge          ....    0
 Multiplicity           Mult            ....    1
 Number of Electrons    NEL             ....  438
 Basis Dimension        Dim             ....  947

ORBITAL ENERGIES
----------------

  NO   OCC          E(Eh)            E(eV)
   0   2.0000     -89.144920     -2425.7566
   1   2.0000     -89.052264     -2423.2353
   2   2.0000     -24.794111      -674.6821
   3   2.0000     -24.787300      -674.4967
   4   2.0000     -24.786542      -674.4761
   5   2.0000     -24.785453      -674.4465
   6   2.0000     -24.783832      -674.4024
   7   2.0000     -24.783429      -674.3914
   8   2.0000     -19.297770      -525.1190
   9   2.0000     -19.294181      -525.0214
  10   2.0000     -19.194396      -522.3061
  11   2.0000     -19.194176      -522.3001
  12   2.0000     -14.492422      -394.3589
  13   2.0000     -14.462987      -393.5579
  14   2.0000     -14.460274      -393.4841
  15   2.0000     -14.460176      -393.4814
  16   2.0000     -14.456863      -393.3912
  17   2.0000     -14.433771      -392.7629
  18   2.0000     -14.428376      -392.6161
  19   2.0000     -14.411502      -392.1569
  20   2.0000     -14.411265      -392.1505
  21   2.0000     -10.511945      -286.0446
  22   2.0000     -10.507571      -285.9255
  23   2.0000     -10.382753      -282.5291
  24   2.0000     -10.380705      -282.4734
  25   2.0000     -10.347915      -281.5811
  26   2.0000     -10.347667      -281.5743
  27   2.0000     -10.346894      -281.5533
  28   2.0000     -10.345447      -281.5139
  29   2.0000     -10.344435      -281.4864
  30   2.0000     -10.343267      -281.4546
  31   2.0000     -10.336783      -281.2782
  32   2.0000     -10.335572      -281.2452
  33   2.0000     -10.328147      -281.0432
  34   2.0000     -10.327818      -281.0342
  35   2.0000     -10.327651      -281.0297
  36   2.0000     -10.323200      -280.9086
  37   2.0000     -10.321197      -280.8541
  38   2.0000     -10.314845      -280.6812
  39   2.0000     -10.309405      -280.5332
  40   2.0000     -10.306728      -280.4603
  41   2.0000     -10.306245      -280.4472
  42   2.0000     -10.305369      -280.4233
  43   2.0000     -10.304156      -280.3903
  44   2.0000     -10.303764      -280.3797
  45   2.0000     -10.298732      -280.2428
  46   2.0000     -10.294528      -280.1284
  47   2.0000     -10.292765      -280.0804
  48   2.0000     -10.291774      -280.0534
  49   2.0000     -10.291698      -280.0513
  50   2.0000     -10.288180      -279.9556
  51   2.0000     -10.287970      -279.9499
  52   2.0000     -10.286168      -279.9009
  53   2.0000     -10.285052      -279.8705
  54   2.0000     -10.284439      -279.8538
  55   2.0000     -10.282827      -279.8099
  56   2.0000     -10.280668      -279.7512
  57   2.0000     -10.276017      -279.6246
  58   2.0000     -10.272581      -279.5311
  59   2.0000     -10.272534      -279.5299
  60   2.0000     -10.269701      -279.4528
  61   2.0000      -8.208631      -223.3682
  62   2.0000      -8.143587      -221.5983
  63   2.0000      -6.177620      -168.1016
  64   2.0000      -6.177450      -168.0970
  65   2.0000      -6.177009      -168.0850
  66   2.0000      -6.114503      -166.3841
  67   2.0000      -6.106761      -166.1734
  68   2.0000      -6.106665      -166.1708
  69   2.0000      -1.378752       -37.5177
  70   2.0000      -1.374627       -37.4055
  71   2.0000      -1.283881       -34.9362
  72   2.0000      -1.278337       -34.7853
  73   2.0000      -1.276751       -34.7422
  74   2.0000      -1.273621       -34.6570
  75   2.0000      -1.220480       -33.2109
  76   2.0000      -1.216199       -33.0944
  77   2.0000      -1.199927       -32.6517
  78   2.0000      -1.146860       -31.2077
  79   2.0000      -1.119558       -30.4647
  80   2.0000      -1.104833       -30.0640
  81   2.0000      -1.076871       -29.3031
  82   2.0000      -1.067037       -29.0356
  83   2.0000      -1.046507       -28.4769
  84   2.0000      -1.015063       -27.6213
  85   2.0000      -1.004250       -27.3270
  86   2.0000      -0.999408       -27.1953
  87   2.0000      -0.989819       -26.9344
  88   2.0000      -0.978351       -26.6223
  89   2.0000      -0.967582       -26.3292
  90   2.0000      -0.950557       -25.8660
  91   2.0000      -0.929138       -25.2831
  92   2.0000      -0.922409       -25.1000
  93   2.0000      -0.916881       -24.9496
  94   2.0000      -0.912881       -24.8408
  95   2.0000      -0.907960       -24.7068
  96   2.0000      -0.906449       -24.6657
  97   2.0000      -0.883418       -24.0390
  98   2.0000      -0.879310       -23.9272
  99   2.0000      -0.856273       -23.3004
 100   2.0000      -0.842352       -22.9216
 101   2.0000      -0.839578       -22.8461
 102   2.0000      -0.833128       -22.6706
 103   2.0000      -0.828203       -22.5365
 104   2.0000      -0.807079       -21.9617
 105   2.0000      -0.796629       -21.6774
 106   2.0000      -0.792320       -21.5601
 107   2.0000      -0.785180       -21.3658
 108   2.0000      -0.777260       -21.1503
 109   2.0000      -0.763543       -20.7771
 110   2.0000      -0.752183       -20.4680
 111   2.0000      -0.738910       -20.1068
 112   2.0000      -0.737028       -20.0555
 113   2.0000      -0.726095       -19.7581
 114   2.0000      -0.711589       -19.3633
 115   2.0000      -0.708558       -19.2808
 116   2.0000      -0.704692       -19.1756
 117   2.0000      -0.702435       -19.1142
 118   2.0000      -0.694714       -18.9041
 119   2.0000      -0.690281       -18.7835
 120   2.0000      -0.683756       -18.6059
 121   2.0000      -0.679410       -18.4877
 122   2.0000      -0.678185       -18.4543
 123   2.0000      -0.672483       -18.2992
 124   2.0000      -0.661853       -18.0099
 125   2.0000      -0.660822       -17.9819
 126   2.0000      -0.657872       -17.9016
 127   2.0000      -0.657628       -17.8950
 128   2.0000      -0.651222       -17.7207
 129   2.0000      -0.646375       -17.5888
 130   2.0000      -0.631675       -17.1888
 131   2.0000      -0.630583       -17.1590
 132   2.0000      -0.626859       -17.0577
 133   2.0000      -0.621163       -16.9027
 134   2.0000      -0.617640       -16.8068
 135   2.0000      -0.609887       -16.5959
 136   2.0000      -0.600715       -16.3463
 137   2.0000      -0.592457       -16.1216
 138   2.0000      -0.589373       -16.0376
 139   2.0000      -0.584425       -15.9030
 140   2.0000      -0.578689       -15.7469
 141   2.0000      -0.575103       -15.6493
 142   2.0000      -0.568212       -15.4618
 143   2.0000      -0.566139       -15.4054
 144   2.0000      -0.562729       -15.3126
 145   2.0000      -0.560378       -15.2487
 146   2.0000      -0.559213       -15.2170
 147   2.0000      -0.554345       -15.0845
 148   2.0000      -0.548556       -14.9270
 149   2.0000      -0.545646       -14.8478
 150   2.0000      -0.543244       -14.7824
 151   2.0000      -0.539725       -14.6867
 152   2.0000      -0.537961       -14.6387
 153   2.0000      -0.537669       -14.6307
 154   2.0000      -0.535612       -14.5747
 155   2.0000      -0.534508       -14.5447
 156   2.0000      -0.532881       -14.5004
 157   2.0000      -0.527856       -14.3637
 158   2.0000      -0.521689       -14.1959
 159   2.0000      -0.518173       -14.1002
 160   2.0000      -0.515554       -14.0289
 161   2.0000      -0.515488       -14.0271
 162   2.0000      -0.515071       -14.0158
 163   2.0000      -0.504788       -13.7360
 164   2.0000      -0.501860       -13.6563
 165   2.0000      -0.499137       -13.5822
 166   2.0000      -0.497446       -13.5362
 167   2.0000      -0.495715       -13.4891
 168   2.0000      -0.495224       -13.4757
 169   2.0000      -0.493741       -13.4354
 170   2.0000      -0.491777       -13.3819
 171   2.0000      -0.491406       -13.3718
 172   2.0000      -0.489080       -13.3085
 173   2.0000      -0.486455       -13.2371
 174   2.0000      -0.481724       -13.1084
 175   2.0000      -0.480669       -13.0797
 176   2.0000      -0.474720       -12.9178
 177   2.0000      -0.470989       -12.8163
 178   2.0000      -0.468336       -12.7441
 179   2.0000      -0.467374       -12.7179
 180   2.0000      -0.460555       -12.5323
 181   2.0000      -0.459151       -12.4941
 182   2.0000      -0.459057       -12.4916
 183   2.0000      -0.453062       -12.3284
 184   2.0000      -0.452912       -12.3244
 185   2.0000      -0.451537       -12.2869
 186   2.0000      -0.449255       -12.2249
 187   2.0000      -0.445202       -12.1146
 188   2.0000      -0.444176       -12.0866
 189   2.0000      -0.441959       -12.0263
 190   2.0000      -0.438114       -11.9217
 191   2.0000      -0.435300       -11.8451
 192   2.0000      -0.431922       -11.7532
 193   2.0000      -0.422022       -11.4838
 194   2.0000      -0.420365       -11.4387
 195   2.0000      -0.419381       -11.4119
 196   2.0000      -0.414692       -11.2844
 197   2.0000      -0.410645       -11.1742
 198   2.0000      -0.408583       -11.1181
 199   2.0000      -0.405663       -11.0386
 200   2.0000      -0.400378       -10.8948
 201   2.0000      -0.395208       -10.7542
 202   2.0000      -0.388840       -10.5809
 203   2.0000      -0.374366       -10.1870
 204   2.0000      -0.373996       -10.1770
 205   2.0000      -0.372402       -10.1336
 206   2.0000      -0.366222        -9.9654
 207   2.0000      -0.363739        -9.8978
 208   2.0000      -0.360955        -9.8221
 209   2.0000      -0.354014        -9.6332
 210   2.0000      -0.349521        -9.5109
 211   2.0000      -0.343023        -9.3341
 212   2.0000      -0.326633        -8.8881
 213   2.0000      -0.317049        -8.6273
 214   2.0000      -0.309229        -8.4145
 215   2.0000      -0.307846        -8.3769
 216   2.0000      -0.282025        -7.6743
 217   2.0000      -0.265837        -7.2338
 218   2.0000      -0.237371        -6.4592
 219   0.0000      -0.122176        -3.3246
 220   0.0000      -0.057129        -1.5546
 221   0.0000      -0.051681        -1.4063
 222   0.0000      -0.042034        -1.1438
 223   0.0000      -0.035168        -0.9570

MULLIKEN ATOMIC CHARGES
-----------------------
   0 C :    0.017763
   1 C :    0.057088
   2 C :   -0.053239
   3 C :    0.019275
   4 C :   -0.027217
   5 C :    0.006245
   6 N :   -0.015161
   7 C :    0.018170
   8 C :    0.021034
   9 N :   -0.016596
  10 C :    0.163520
  11 O :   -0.193297
  12 C :    0.173981
  13 C :   -0.040259
  14 C :   -0.140538
  15 C :    0.530435
  16 F :   -0.167210
  17 F :   -0.145874
  18 F :   -0.168826
  19 C :    0.002301
  20 C :   -0.031978
  21 C :    0.136279
  22 O :   -0.177345
  23 C :    0.189141
  24 C :   -0.083911
  25 C :   -0.106184
  26 C :    0.518186
  27 F :   -0.167447
  28 F :   -0.166906
  29 F :   -0.158345
  30 C :    0.031557
  31 C :    0.004232
  32 C :    0.010141
  33 N :   -0.037628
  34 C :   -0.003633
  35 C :    0.076019
  36 C :   -0.077260
  37 S :    0.801239
  38 O :   -0.456615
  39 O :   -0.456730
  40 C :   -0.014002
  41 C :    0.031362
  42 C :    0.042257
  43 C :   -0.082780
  44 C :    0.146783
  45 C :   -0.051801
  46 C :    0.018546
  47 N :    0.052002
  48 C :   -0.143545
  49 C :   -0.140148
  50 N :    0.070947
  51 C :   -0.183337
  52 N :    0.241572
  53 C :   -0.203876
  54 N :    0.239961
  55 C :   -0.075304
  56 C :    0.105912
  57 C :   -0.023227
  58 N :   -0.289870
  59 S :    0.549434
  60 N :   -0.267181
  61 H :   -0.008973
  62 H :   -0.019481
  63 H :   -0.022172
  64 H :    0.010146
  65 H :    0.008959
  66 H :   -0.013808
  67 H :    0.025138
  68 H :    0.019233
  69 H :   -0.010382
  70 H :   -0.001505
  71 H :   -0.037278
  72 H :    0.133051
  73 H :    0.003501
  74 H :   -0.007203
  75 H :    0.004949
  76 H :    0.023822
  77 H :   -0.016105
Sum of atomic charges:   -0.0000000

LOEWDIN ATOMIC CHARGES
----------------------
   0 C :   -0.003516
   1 C :   -0.037648
   2 C :    0.003729
   3 C :   -0.014842
   4 C :   -0.012487
   5 C :   -0.007974
   6 N :   -0.040641
   7 C :    0.000272
   8 C :   -0.000058
   9 N :   -0.039412
  10 C :    0.062651
  11 O :    0.032360
  12 C :    0.025507
  13 C :   -0.023668
  14 C :   -0.128779
  15 C :    0.170715
  16 F :   -0.064874
  17 F :   -0.045746
  18 F :   -0.069191
  19 C :   -0.004710
  20 C :   -0.046135
  21 C :    0.057554
  22 O :    0.037995
  23 C :    0.025317
  24 C :   -0.036730
  25 C :   -0.129448
  26 C :    0.168873
  27 F :   -0.068721
  28 F :   -0.066205
  29 F :   -0.058019
  30 C :   -0.001592
  31 C :   -0.046355
  32 C :    0.005578
  33 N :    0.103178
  34 C :    0.004970
  35 C :   -0.086504
  36 C :   -0.222729
  37 S :    1.173225
  38 O :   -0.495239
  39 O :   -0.495339
  40 C :   -0.155050
  41 C :    0.011170
  42 C :   -0.001901
  43 C :   -0.018631
  44 C :   -0.001100
  45 C :   -0.009708
  46 C :   -0.009065
  47 N :   -0.000862
  48 C :   -0.023352
  49 C :   -0.033590
  50 N :    0.017998
  51 C :   -0.013816
  52 N :   -0.014381
  53 C :   -0.036091
  54 N :   -0.000172
  55 C :   -0.008581
  56 C :   -0.045808
  57 C :   -0.041345
  58 N :   -0.284915
  59 S :    0.687529
  60 N :   -0.282894
  61 H :    0.028117
  62 H :    0.037011
  63 H :    0.037177
  64 H :    0.024745
  65 H :    0.024795
  66 H :    0.036667
  67 H :    0.048510
  68 H :    0.038751
  69 H :    0.033261
  70 H :    0.033028
  71 H :    0.026251
  72 H :    0.096819
  73 H :    0.026248
  74 H :    0.038296
  75 H :    0.035517
  76 H :    0.025281
  77 H :    0.048725

  Mayer bond orders larger than 0.100000
B(  0-C ,  1-C ) :   1.2330 B(  0-C ,  5-C ) :   1.4830 B(  0-C , 61-H ) :   0.9809
B(  1-C ,  2-C ) :   1.3832 B(  1-C , 10-C ) :   1.0375 B(  2-C ,  3-C ) :   1.2107
B(  2-C ,  5-C ) :   0.1011 B(  2-C , 62-H ) :   1.0226 B(  3-C ,  4-C ) :   1.2423
B(  3-C ,  9-N ) :   1.4170 B(  4-C ,  5-C ) :   1.2343 B(  4-C ,  6-N ) :   1.4336
B(  5-C , 63-H ) :   1.0066 B(  6-N ,  7-C ) :   1.6728 B(  7-C ,  8-C ) :   1.2225
B(  7-C , 64-H ) :   0.9742 B(  8-C ,  9-N ) :   1.6802 B(  8-C , 65-H ) :   0.9738
B( 10-C , 11-O ) :   1.1910 B( 10-C , 12-C ) :   0.1075 B( 10-C , 14-C ) :   1.4945
B( 11-O , 12-C ) :   1.1253 B( 12-C , 13-C ) :   1.4402 B( 12-C , 19-C ) :   1.1227
B( 13-C , 14-C ) :   1.2267 B( 13-C , 66-H ) :   1.0114 B( 14-C , 15-C ) :   0.9467
B( 15-C , 16-F ) :   1.1619 B( 15-C , 17-F ) :   1.1883 B( 15-C , 18-F ) :   1.1306
B( 19-C , 20-C ) :   1.6342 B( 19-C , 67-H ) :   0.9773 B( 20-C , 21-C ) :   1.1559
B( 20-C , 68-H ) :   0.9553 B( 21-C , 22-O ) :   1.1929 B( 21-C , 23-C ) :   0.1029
B( 21-C , 25-C ) :   1.4268 B( 22-O , 23-C ) :   1.1246 B( 23-C , 24-C ) :   1.4532
B( 23-C , 30-C ) :   1.1198 B( 24-C , 25-C ) :   1.2602 B( 24-C , 69-H ) :   1.0145
B( 25-C , 26-C ) :   0.9481 B( 26-C , 27-F ) :   1.1722 B( 26-C , 28-F ) :   1.1620
B( 26-C , 29-F ) :   1.1777 B( 30-C , 31-C ) :   1.6755 B( 30-C , 70-H ) :   0.9381
B( 31-C , 32-C ) :   1.1213 B( 31-C , 71-H ) :   0.9666 B( 32-C , 33-N ) :   1.2167
B( 32-C , 36-C ) :   1.4998 B( 33-N , 34-C ) :   1.2253 B( 33-N , 72-H ) :   0.9318
B( 34-C , 35-C ) :   1.4212 B( 34-C , 73-H ) :   0.9869 B( 35-C , 36-C ) :   1.3381
B( 35-C , 41-C ) :   1.0459 B( 36-C , 37-S ) :   0.8142 B( 37-S , 38-O ) :   1.6697
B( 37-S , 39-O ) :   1.6730 B( 37-S , 40-C ) :   0.7908 B( 40-C , 41-C ) :   1.6506
B( 40-C , 42-C ) :   1.1753 B( 41-C , 74-H ) :   0.9996 B( 42-C , 43-C ) :   1.5795
B( 42-C , 75-H ) :   0.9719 B( 43-C , 44-C ) :   1.1991 B( 43-C , 76-H ) :   0.9280
B( 44-C , 45-C ) :   1.2548 B( 44-C , 55-C ) :   0.1380 B( 44-C , 57-C ) :   1.1978
B( 45-C , 46-C ) :   1.1283 B( 45-C , 50-N ) :   1.4359 B( 46-C , 47-N ) :   1.3334
B( 46-C , 55-C ) :   1.3153 B( 47-N , 48-C ) :   1.7911 B( 48-C , 49-C ) :   1.1762
B( 48-C , 53-C ) :   1.1539 B( 49-C , 50-N ) :   1.7649 B( 49-C , 51-C ) :   1.1309
B( 51-C , 52-N ) :   3.0486 B( 53-C , 54-N ) :   3.0549 B( 55-C , 56-C ) :   1.1805
B( 55-C , 77-H ) :   1.0549 B( 56-C , 57-C ) :   1.1236 B( 56-C , 60-N ) :   1.4542
B( 57-C , 58-N ) :   1.4911 B( 58-N , 59-S ) :   1.2842 B( 58-N , 60-N ) :   0.1593
B( 59-S , 60-N ) :   1.3150

-----------------------------------------------------------------------------
         ABSORPTION SPECTRUM VIA TRANSITION ELECTRIC DIPOLE MOMENTS
-----------------------------------------------------------------------------
State   Energy  Wavelength   fosc         T2         TX        TY        TZ
        (cm-1)    (nm)                  (au**2)     (au)      (au)      (au)
-----------------------------------------------------------------------------
   0   13194.5    757.9   0.133602932   3.33349  -0.22421  -0.50907  -1.73898
   1   16058.4    622.7   0.234212724   4.80157  -0.17089   0.24373   2.17094
   2   22608.5    442.3   0.046326631   0.67458   0.63200   0.51618  -0.09339
   3   23502.9    425.5   1.173949231  16.44385  -3.12495  -2.30078   1.17685
   4   26427.8    378.4   0.003782993   0.04712  -0.14116   0.16471  -0.00837
   5   27285.2    366.5   0.124379604   1.50071  -0.70214  -0.33659   0.94573
   6   27729.6    360.6   0.236012696   2.80200  -0.91050  -0.41306   1.34252
   7   28552.3    350.2   0.060532435   0.69795  -0.66597  -0.45967   0.20771
   8   29334.7    340.9   0.065552520   0.73567  -0.00864  -0.26671  -0.81515
   9   30036.5    332.9   0.095191753   1.04334   0.11307   0.16007   1.00246
  10   30741.6    325.3   0.006799951   0.07282  -0.17403  -0.14557   0.14610
  11   30908.2    323.5   0.120434978   1.28279   0.61404   0.31754  -0.89717
  12   30947.2    323.1   0.000562849   0.00599  -0.00252  -0.03764   0.06756
  13   31037.2    322.2   0.183511930   1.94651  -0.58636  -0.26701   1.23750
  14   33121.3    301.9   0.464844226   4.62037  -0.78153  -0.36753   1.96837
  15   33312.9    300.2   0.009560482   0.09448   0.21948   0.20248   0.07288
  16   33497.8    298.5   0.000167765   0.00165   0.01326  -0.03691   0.01052
  17   33714.9    296.6   0.544311795   5.31497   1.73226   1.37363  -0.65373
  18   34031.4    293.8   0.001823515   0.01764  -0.09932  -0.08180   0.03293
  19   34090.1    293.3   0.154622072   1.49320   0.94595   0.73680  -0.23562
  20   34537.0    289.5   0.257931477   2.45864  -1.13918  -0.97962  -0.44860
  21   35182.7    284.2   0.271336248   2.53895   0.85901   1.00534   0.88901
  22   35689.4    280.2   0.026837971   0.24756   0.03659   0.10921   0.48404
  23   36752.7    272.1   0.070725088   0.63352  -0.04977  -0.18418  -0.77274
  24   37178.6    269.0   0.169840461   1.50392  -0.96569  -0.75587  -0.00434
  25   37488.7    266.7   0.000251750   0.00221   0.04032   0.00661  -0.02327
  26   37581.6    266.1   0.083289965   0.72961   0.27144   0.35027   0.73024
  27   38678.5    258.5   0.048416191   0.41209   0.46353   0.44255  -0.03720
  28   39147.0    255.4   0.036293676   0.30522  -0.07144  -0.10628   0.53742
  29   39396.2    253.8   0.147808763   1.23515   0.69443   0.82197  -0.27802
  30   39794.8    251.3   0.178709899   1.47842   0.83277   0.62644   0.62649
  31   40129.2    249.2   0.002847191   0.02336  -0.09602   0.11741  -0.01877

FINAL SINGLE POINT ENERGY     -3719.716934472666

DIPOLE MOMENT
-------------
                                X             Y             Z
Electronic contribution:      6.92494       2.86049     -14.57025
Nuclear contribution   :    -11.13672      -5.80246      17.51149
                        -----------------------------------------
Total Dipole Moment    :     -4.21178      -2.94197       2.94124
                        -----------------------------------------
Magnitude (a.u.)       :      5.91990
Magnitude (Debye)      :     15.04720

Rotational constants in cm-1:     0.001538     0.000578     0.000424
Rotational constants in MHz :    46.112587    17.332308    12.705993

                             ****ORCA TERMINATED NORMALLY****
TOTAL RUN TIME: 0 days 0 hours 11 minutes 55 seconds 947 msec
