                         Program Version 4.2.0 -  RELEASE  -
|  1> # ORCA input file
|  2> # SCF done       -170.204763226283          0.000982448170
|  3> ! CAM-B3LYP def2-SVP def2/J RIJCOSX Grid4 TightSCF
|  4> %maxcore 5000
|  5> %tddft
|  6>     Mode sTDDFT
|  7>     Ethresh 5.0
|  8>     maxcore 5000
|  9> end
| 10>
| 11> %pal
| 12>   nprocs 6
| 13>   end
| 14> * xyz 0 1
| 15>    C        5.91232         0.23456         6.09553
| 16>    C        5.95048        -0.75348         5.15871
| 17>    C        5.16161        -0.43632         4.00898
| 18>    C        4.53032         0.76060         4.09309
| 19>    S        4.90239         1.53469         5.58820
| 20>    C        5.31160        -1.50658         3.02199
| 21>    O        4.74426        -1.59674         1.94922
| 22>    C        6.29356        -2.44706         3.59644
| 23>    C        6.63723        -2.02439         4.93416
| 24>    C        7.36331        -2.63105         5.93476
| 25>    N        7.19935        -2.16317         7.30464
| 26>    O        6.06617        -2.07692         7.72157
| 27>    O        8.19943        -1.87930         7.91760
| 28>    N        8.28621        -3.70491         5.85165
| 29>    O        8.86951        -3.89243         4.79656
| 30>    O        8.44455        -4.37556         6.85220
| 31>    C        6.78232        -3.55087         2.91753
| 32>    C        6.40270        -4.12018         1.70734
| 33>    S        5.05803        -3.63550         0.66814
| 34>    C        5.39517        -4.92665        -0.39135
| 35>    C        6.51129        -5.69752         0.01294
| 36>    C        7.06891        -5.25131         1.18156
| 37>    C        6.70163        -6.76414        -0.99068
| 38>    O        7.52752        -7.63916        -1.02741
| 39>    C        5.59676        -6.52501        -1.99867
| 40>    C        4.86040        -5.42397        -1.59686
| 41>    C        5.44307        -7.35798        -3.11855
| 42>    C        4.45901        -7.19378        -4.05696
| 43>    C        4.27405        -8.01035        -5.17899
| 44>    S        2.95654        -7.69230        -6.30346
| 45>    C        3.34123        -9.03607        -7.35447
| 46>    C        4.46395        -9.70385        -6.84004
| 47>    C        4.96274        -9.12628        -5.64395
| 48>    O        6.03218        -9.80523        -5.19749
| 49>    C        6.22439       -10.81144        -6.09380
| 50>    N        7.29839       -11.70613        -5.88087
| 51>    O        7.43009       -12.59033        -6.70876
| 52>    O        8.00074       -11.53539        -4.90919
| 53>    C        5.30569       -10.80487        -7.11418
| 54>    C        2.58153        -9.31037        -8.49069
| 55>    S        2.96291       -10.66809        -9.55116
| 56>    C        1.63460       -10.27444       -10.56405
| 57>    C        0.93610        -9.13993       -10.09368
| 58>    C        1.46006        -8.60236        -8.94136
| 59>    C       -0.17583        -8.89624       -11.02919
| 60>    O       -1.01623        -8.03072       -11.00151
| 61>    C       -0.04644        -9.99259       -12.06020
| 62>    C        1.05538       -10.78288       -11.73289
| 63>    C       -0.95546       -10.07596       -13.10917
| 64>    C       -0.95498       -11.02049       -14.11826
| 65>    C       -1.90381       -11.03956       -15.12834
| 66>    C       -1.94518       -11.96146       -16.16155
| 67>    C       -2.89627       -12.01362       -17.20168
| 68>    C       -2.69804       -13.02882       -18.09238
| 69>    C       -1.57477       -13.83083       -17.79818
| 70>    S       -0.78063       -13.25273       -16.34886
| 71>    C       -1.10638       -14.92314       -18.50342
| 72>    C       -1.66323       -15.47936       -19.68797
| 73>    C       -0.99050       -16.55043       -20.16733
| 74>    C        0.15606       -16.92248       -19.39065
| 75>    S        0.31054       -15.81618       -18.01552
| 76>    C        1.01121       -17.93000       -19.61628
| 77>    H        6.39794         0.31796         7.04701
| 78>    H        3.88708         1.23668         3.38067
| 79>    H        7.62473        -4.06024         3.37177
| 80>    H        7.91907        -5.68928         1.67376
| 81>    H        4.01211        -5.00240        -2.10383
| 82>    H        6.15424        -8.16733        -3.21779
| 83>    H        3.75337        -6.38188        -3.94907
| 84>    H        5.26530       -11.49987        -7.92703
| 85>    H        1.07919        -7.74142        -8.42181
| 86>    H        1.40561       -11.63973       -12.27756
| 87>    H       -1.72826        -9.31642       -13.11414
| 88>    H       -0.18623       -11.78214       -14.12973
| 89>    H       -2.67810       -10.28306       -15.12211
| 90>    H       -3.69950       -11.30088       -17.26331
| 91>    H       -3.32681       -13.21510       -18.94395
| 92>    H       -2.54427       -15.06387       -20.14319
| 93>    H       -1.25893       -17.10194       -21.05043
| 94>    H        0.88265       -18.57907       -20.46445
| 95>    H        1.84484       -18.12153       -18.96579
| 96> *
| 97>
| 98>                          ****END OF INPUT****

CARTESIAN COORDINATES (ANGSTROEM)
---------------------------------
  C      5.912320    0.234560    6.095530
  C      5.950480   -0.753480    5.158710
  C      5.161610   -0.436320    4.008980
  C      4.530320    0.760600    4.093090
  S      4.902390    1.534690    5.588200
  C      5.311600   -1.506580    3.021990
  O      4.744260   -1.596740    1.949220
  C      6.293560   -2.447060    3.596440
  C      6.637230   -2.024390    4.934160
  C      7.363310   -2.631050    5.934760
  N      7.199350   -2.163170    7.304640
  O      6.066170   -2.076920    7.721570
  O      8.199430   -1.879300    7.917600
  N      8.286210   -3.704910    5.851650
  O      8.869510   -3.892430    4.796560
  O      8.444550   -4.375560    6.852200
  C      6.782320   -3.550870    2.917530
  C      6.402700   -4.120180    1.707340
  S      5.058030   -3.635500    0.668140
  C      5.395170   -4.926650   -0.391350
  C      6.511290   -5.697520    0.012940
  C      7.068910   -5.251310    1.181560
  C      6.701630   -6.764140   -0.990680
  O      7.527520   -7.639160   -1.027410
  C      5.596760   -6.525010   -1.998670
  C      4.860400   -5.423970   -1.596860
  C      5.443070   -7.357980   -3.118550
  C      4.459010   -7.193780   -4.056960
  C      4.274050   -8.010350   -5.178990
  S      2.956540   -7.692300   -6.303460
  C      3.341230   -9.036070   -7.354470
  C      4.463950   -9.703850   -6.840040
  C      4.962740   -9.126280   -5.643950
  O      6.032180   -9.805230   -5.197490
  C      6.224390  -10.811440   -6.093800
  N      7.298390  -11.706130   -5.880870
  O      7.430090  -12.590330   -6.708760
  O      8.000740  -11.535390   -4.909190
  C      5.305690  -10.804870   -7.114180
  C      2.581530   -9.310370   -8.490690
  S      2.962910  -10.668090   -9.551160
  C      1.634600  -10.274440  -10.564050
  C      0.936100   -9.139930  -10.093680
  C      1.460060   -8.602360   -8.941360
  C     -0.175830   -8.896240  -11.029190
  O     -1.016230   -8.030720  -11.001510
  C     -0.046440   -9.992590  -12.060200
  C      1.055380  -10.782880  -11.732890
  C     -0.955460  -10.075960  -13.109170
  C     -0.954980  -11.020490  -14.118260
  C     -1.903810  -11.039560  -15.128340
  C     -1.945180  -11.961460  -16.161550
  C     -2.896270  -12.013620  -17.201680
  C     -2.698040  -13.028820  -18.092380
  C     -1.574770  -13.830830  -17.798180
  S     -0.780630  -13.252730  -16.348860
  C     -1.106380  -14.923140  -18.503420
  C     -1.663230  -15.479360  -19.687970
  C     -0.990500  -16.550430  -20.167330
  C      0.156060  -16.922480  -19.390650
  S      0.310540  -15.816180  -18.015520
  C      1.011210  -17.930000  -19.616280
  H      6.397940    0.317960    7.047010
  H      3.887080    1.236680    3.380670
  H      7.624730   -4.060240    3.371770
  H      7.919070   -5.689280    1.673760
  H      4.012110   -5.002400   -2.103830
  H      6.154240   -8.167330   -3.217790
  H      3.753370   -6.381880   -3.949070
  H      5.265300  -11.499870   -7.927030
  H      1.079190   -7.741420   -8.421810
  H      1.405610  -11.639730  -12.277560
  H     -1.728260   -9.316420  -13.114140
  H     -0.186230  -11.782140  -14.129730
  H     -2.678100  -10.283060  -15.122110
  H     -3.699500  -11.300880  -17.263310
  H     -3.326810  -13.215100  -18.943950
  H     -2.544270  -15.063870  -20.143190
  H     -1.258930  -17.101940  -21.050430
  H      0.882650  -18.579070  -20.464450
  H      1.844840  -18.121530  -18.965790

 Total Charge           Charge          ....    0
 Multiplicity           Mult            ....    1
 Number of Electrons    NEL             ....  474
 Basis Dimension        Dim             ....  987

ORBITAL ENERGIES
----------------

  NO   OCC          E(Eh)            E(eV)
   0   2.0000     -88.989795     -2421.5354
   1   2.0000     -88.983415     -2421.3618
   2   2.0000     -88.972689     -2421.0700
   3   2.0000     -88.972158     -2421.0555
   4   2.0000     -88.962546     -2420.7939
   5   2.0000     -88.959652     -2420.7152
   6   2.0000     -19.321461      -525.7637
   7   2.0000     -19.245228      -523.6893
   8   2.0000     -19.242242      -523.6080
   9   2.0000     -19.239538      -523.5344
  10   2.0000     -19.238739      -523.5127
  11   2.0000     -19.235412      -523.4222
  12   2.0000     -19.234548      -523.3987
  13   2.0000     -19.234482      -523.3969
  14   2.0000     -19.225606      -523.1553
  15   2.0000     -19.210663      -522.7487
  16   2.0000     -14.657194      -398.8425
  17   2.0000     -14.646636      -398.5552
  18   2.0000     -14.645073      -398.5127
  19   2.0000     -10.391974      -282.7800
  20   2.0000     -10.376056      -282.3468
  21   2.0000     -10.368916      -282.1526
  22   2.0000     -10.363139      -281.9953
  23   2.0000     -10.362487      -281.9776
  24   2.0000     -10.349530      -281.6250
  25   2.0000     -10.345189      -281.5069
  26   2.0000     -10.338931      -281.3366
  27   2.0000     -10.333636      -281.1925
  28   2.0000     -10.329798      -281.0881
  29   2.0000     -10.327799      -281.0337
  30   2.0000     -10.326773      -281.0058
  31   2.0000     -10.325974      -280.9840
  32   2.0000     -10.325354      -280.9672
  33   2.0000     -10.323933      -280.9285
  34   2.0000     -10.321233      -280.8550
  35   2.0000     -10.316986      -280.7395
  36   2.0000     -10.312487      -280.6170
  37   2.0000     -10.312020      -280.6043
  38   2.0000     -10.309419      -280.5335
  39   2.0000     -10.308436      -280.5068
  40   2.0000     -10.308230      -280.5012
  41   2.0000     -10.307423      -280.4792
  42   2.0000     -10.307351      -280.4773
  43   2.0000     -10.306922      -280.4656
  44   2.0000     -10.306305      -280.4488
  45   2.0000     -10.304947      -280.4119
  46   2.0000     -10.302384      -280.3421
  47   2.0000     -10.301634      -280.3217
  48   2.0000     -10.299193      -280.2553
  49   2.0000     -10.298799      -280.2446
  50   2.0000     -10.298494      -280.2363
  51   2.0000     -10.297213      -280.2014
  52   2.0000     -10.296960      -280.1945
  53   2.0000     -10.294180      -280.1189
  54   2.0000     -10.291700      -280.0514
  55   2.0000     -10.291187      -280.0374
  56   2.0000     -10.286573      -279.9119
  57   2.0000     -10.286534      -279.9108
  58   2.0000     -10.285540      -279.8838
  59   2.0000     -10.283429      -279.8263
  60   2.0000     -10.280671      -279.7513
  61   2.0000     -10.276042      -279.6253
  62   2.0000      -8.084306      -219.9852
  63   2.0000      -8.078113      -219.8166
  64   2.0000      -8.068659      -219.5594
  65   2.0000      -8.064942      -219.4582
  66   2.0000      -8.058888      -219.2935
  67   2.0000      -8.056357      -219.2246
  68   2.0000      -6.053609      -164.7271
  69   2.0000      -6.049543      -164.6164
  70   2.0000      -6.047656      -164.5651
  71   2.0000      -6.046498      -164.5336
  72   2.0000      -6.043535      -164.4529
  73   2.0000      -6.039805      -164.3515
  74   2.0000      -6.037951      -164.3010
  75   2.0000      -6.034302      -164.2017
  76   2.0000      -6.033212      -164.1720
  77   2.0000      -6.031282      -164.1195
  78   2.0000      -6.029598      -164.0737
  79   2.0000      -6.028516      -164.0443
  80   2.0000      -6.027534      -164.0175
  81   2.0000      -6.026120      -163.9791
  82   2.0000      -6.024591      -163.9374
  83   2.0000      -6.022171      -163.8716
  84   2.0000      -6.019900      -163.8098
  85   2.0000      -6.017022      -163.7315
  86   2.0000      -1.328283       -36.1444
  87   2.0000      -1.328068       -36.1386
  88   2.0000      -1.309844       -35.6427
  89   2.0000      -1.241444       -33.7814
  90   2.0000      -1.144606       -31.1463
  91   2.0000      -1.144584       -31.1457
  92   2.0000      -1.142035       -31.0763
  93   2.0000      -1.137314       -30.9479
  94   2.0000      -1.133089       -30.8329
  95   2.0000      -1.128089       -30.6969
  96   2.0000      -1.023498       -27.8508
  97   2.0000      -1.012020       -27.5385
  98   2.0000      -1.009965       -27.4826
  99   2.0000      -1.006945       -27.4004
 100   2.0000      -1.004225       -27.3264
 101   2.0000      -0.989150       -26.9161
 102   2.0000      -0.967280       -26.3210
 103   2.0000      -0.954745       -25.9799
 104   2.0000      -0.947122       -25.7725
 105   2.0000      -0.941596       -25.6221
 106   2.0000      -0.924724       -25.1630
 107   2.0000      -0.920033       -25.0354
 108   2.0000      -0.908195       -24.7132
 109   2.0000      -0.895828       -24.3767
 110   2.0000      -0.890035       -24.2191
 111   2.0000      -0.873908       -23.7802
 112   2.0000      -0.864740       -23.5308
 113   2.0000      -0.863204       -23.4890
 114   2.0000      -0.860301       -23.4100
 115   2.0000      -0.852112       -23.1871
 116   2.0000      -0.844464       -22.9790
 117   2.0000      -0.840442       -22.8696
 118   2.0000      -0.836188       -22.7538
 119   2.0000      -0.814903       -22.1746
 120   2.0000      -0.805114       -21.9083
 121   2.0000      -0.799942       -21.7675
 122   2.0000      -0.794515       -21.6199
 123   2.0000      -0.784414       -21.3450
 124   2.0000      -0.767823       -20.8935
 125   2.0000      -0.767029       -20.8719
 126   2.0000      -0.763218       -20.7682
 127   2.0000      -0.751512       -20.4497
 128   2.0000      -0.738681       -20.1005
 129   2.0000      -0.719733       -19.5849
 130   2.0000      -0.716726       -19.5031
 131   2.0000      -0.701170       -19.0798
 132   2.0000      -0.686297       -18.6751
 133   2.0000      -0.676335       -18.4040
 134   2.0000      -0.675597       -18.3839
 135   2.0000      -0.672392       -18.2967
 136   2.0000      -0.671229       -18.2651
 137   2.0000      -0.657972       -17.9043
 138   2.0000      -0.654041       -17.7974
 139   2.0000      -0.646790       -17.6000
 140   2.0000      -0.643791       -17.5184
 141   2.0000      -0.643119       -17.5001
 142   2.0000      -0.638337       -17.3700
 143   2.0000      -0.637329       -17.3426
 144   2.0000      -0.632800       -17.2194
 145   2.0000      -0.631864       -17.1939
 146   2.0000      -0.627325       -17.0704
 147   2.0000      -0.625354       -17.0167
 148   2.0000      -0.623334       -16.9618
 149   2.0000      -0.618428       -16.8283
 150   2.0000      -0.615900       -16.7595
 151   2.0000      -0.612233       -16.6597
 152   2.0000      -0.609004       -16.5718
 153   2.0000      -0.605764       -16.4837
 154   2.0000      -0.595379       -16.2011
 155   2.0000      -0.585618       -15.9355
 156   2.0000      -0.583760       -15.8849
 157   2.0000      -0.578322       -15.7369
 158   2.0000      -0.578165       -15.7327
 159   2.0000      -0.576896       -15.6981
 160   2.0000      -0.574621       -15.6362
 161   2.0000      -0.573583       -15.6080
 162   2.0000      -0.569833       -15.5059
 163   2.0000      -0.563466       -15.3327
 164   2.0000      -0.556232       -15.1358
 165   2.0000      -0.554322       -15.0839
 166   2.0000      -0.542174       -14.7533
 167   2.0000      -0.535956       -14.5841
 168   2.0000      -0.534315       -14.5394
 169   2.0000      -0.531916       -14.4742
 170   2.0000      -0.530207       -14.4277
 171   2.0000      -0.526656       -14.3310
 172   2.0000      -0.524432       -14.2705
 173   2.0000      -0.523262       -14.2387
 174   2.0000      -0.521254       -14.1841
 175   2.0000      -0.519215       -14.1286
 176   2.0000      -0.513697       -13.9784
 177   2.0000      -0.513535       -13.9740
 178   2.0000      -0.512401       -13.9431
 179   2.0000      -0.509975       -13.8771
 180   2.0000      -0.502528       -13.6745
 181   2.0000      -0.498119       -13.5545
 182   2.0000      -0.497609       -13.5406
 183   2.0000      -0.491641       -13.3782
 184   2.0000      -0.489275       -13.3138
 185   2.0000      -0.487148       -13.2560
 186   2.0000      -0.484668       -13.1885
 187   2.0000      -0.481089       -13.0911
 188   2.0000      -0.479286       -13.0420
 189   2.0000      -0.475471       -12.9382
 190   2.0000      -0.474455       -12.9106
 191   2.0000      -0.473757       -12.8916
 192   2.0000      -0.472965       -12.8700
 193   2.0000      -0.469940       -12.7877
 194   2.0000      -0.467483       -12.7209
 195   2.0000      -0.459054       -12.4915
 196   2.0000      -0.458721       -12.4824
 197   2.0000      -0.450450       -12.2574
 198   2.0000      -0.447970       -12.1899
 199   2.0000      -0.447003       -12.1636
 200   2.0000      -0.439467       -11.9585
 201   2.0000      -0.437395       -11.9021
 202   2.0000      -0.437282       -11.8990
 203   2.0000      -0.437060       -11.8930
 204   2.0000      -0.433080       -11.7847
 205   2.0000      -0.430383       -11.7113
 206   2.0000      -0.415939       -11.3183
 207   2.0000      -0.413393       -11.2490
 208   2.0000      -0.411475       -11.1968
 209   2.0000      -0.404575       -11.0090
 210   2.0000      -0.396903       -10.8003
 211   2.0000      -0.391164       -10.6441
 212   2.0000      -0.386542       -10.5184
 213   2.0000      -0.384131       -10.4527
 214   2.0000      -0.380903       -10.3649
 215   2.0000      -0.379082       -10.3153
 216   2.0000      -0.375451       -10.2165
 217   2.0000      -0.372815       -10.1448
 218   2.0000      -0.368144       -10.0177
 219   2.0000      -0.363100        -9.8804
 220   2.0000      -0.359191        -9.7741
 221   2.0000      -0.355106        -9.6629
 222   2.0000      -0.354363        -9.6427
 223   2.0000      -0.349553        -9.5118
 224   2.0000      -0.347455        -9.4547
 225   2.0000      -0.342554        -9.3214
 226   2.0000      -0.340807        -9.2738
 227   2.0000      -0.338538        -9.2121
 228   2.0000      -0.331521        -9.0211
 229   2.0000      -0.328060        -8.9270
 230   2.0000      -0.326050        -8.8723
 231   2.0000      -0.322985        -8.7889
 232   2.0000      -0.309318        -8.4170
 233   2.0000      -0.298723        -8.1287
 234   2.0000      -0.271629        -7.3914
 235   2.0000      -0.242077        -6.5873
 236   2.0000      -0.213930        -5.8213
 237   0.0000      -0.120399        -3.2762
 238   0.0000      -0.098715        -2.6862
 239   0.0000      -0.074739        -2.0337
 240   0.0000      -0.067742        -1.8434
 241   0.0000      -0.062261        -1.6942

MULLIKEN ATOMIC CHARGES
-----------------------
   0 C :   -0.127404
   1 C :    0.049735
   2 C :    0.022988
   3 C :   -0.135843
   4 S :    0.145764
   5 C :    0.176399
   6 O :   -0.189873
   7 C :   -0.098939
   8 C :    0.231789
   9 C :    0.024650
  10 N :    0.200628
  11 O :   -0.222405
  12 O :   -0.214449
  13 N :    0.268198
  14 O :   -0.255800
  15 O :   -0.232992
  16 C :   -0.028560
  17 C :   -0.079124
  18 S :    0.229127
  19 C :   -0.005935
  20 C :    0.027932
  21 C :   -0.029622
  22 C :    0.160698
  23 O :   -0.099566
  24 C :   -0.020211
  25 C :   -0.053554
  26 C :   -0.025576
  27 C :    0.085742
  28 C :   -0.191603
  29 S :    0.154490
  30 C :   -0.079701
  31 C :    0.075933
  32 C :    0.205471
  33 O :   -0.172253
  34 C :    0.234005
  35 N :    0.274807
  36 O :   -0.253803
  37 O :   -0.223324
  38 C :   -0.096169
  39 C :   -0.093489
  40 S :    0.160812
  41 C :   -0.015398
  42 C :    0.011999
  43 C :   -0.037912
  44 C :    0.155951
  45 O :   -0.110552
  46 C :   -0.023715
  47 C :   -0.046948
  48 C :   -0.021145
  49 C :    0.033123
  50 C :   -0.015079
  51 C :   -0.012176
  52 C :    0.029541
  53 C :    0.032465
  54 C :   -0.050531
  55 S :    0.086163
  56 C :   -0.059154
  57 C :    0.028484
  58 C :    0.062354
  59 C :   -0.072063
  60 S :    0.098324
  61 C :   -0.016921
  62 H :    0.045694
  63 H :    0.034356
  64 H :    0.017971
  65 H :    0.016487
  66 H :   -0.010443
  67 H :    0.017927
  68 H :   -0.023592
  69 H :    0.018373
  70 H :    0.006401
  71 H :   -0.010359
  72 H :   -0.000342
  73 H :    0.000148
  74 H :   -0.006175
  75 H :   -0.005568
  76 H :   -0.008075
  77 H :   -0.005657
  78 H :   -0.003826
  79 H :    0.029865
  80 H :    0.031031
Sum of atomic charges:   -0.0000000

LOEWDIN ATOMIC CHARGES
----------------------
   0 C :   -0.151480
   1 C :   -0.062389
   2 C :   -0.088868
   3 C :   -0.145908
   4 S :    0.478906
   5 C :    0.085169
   6 O :   -0.176790
   7 C :   -0.125144
   8 C :    0.058516
   9 C :   -0.082999
  10 N :    0.269816
  11 O :   -0.189709
  12 O :   -0.185176
  13 N :    0.280453
  14 O :   -0.215057
  15 O :   -0.197716
  16 C :    0.055987
  17 C :   -0.192754
  18 S :    0.531382
  19 C :   -0.139378
  20 C :   -0.120244
  21 C :    0.032654
  22 C :    0.094166
  23 O :   -0.095016
  24 C :   -0.024991
  25 C :   -0.034104
  26 C :   -0.035670
  27 C :   -0.004944
  28 C :   -0.208394
  29 S :    0.456295
  30 C :   -0.157347
  31 C :   -0.094500
  32 C :    0.039945
  33 O :    0.018286
  34 C :    0.023822
  35 N :    0.270939
  36 O :   -0.214770
  37 O :   -0.186559
  38 C :   -0.012519
  39 C :   -0.203853
  40 S :    0.460143
  41 C :   -0.143721
  42 C :   -0.112157
  43 C :   -0.004908
  44 C :    0.098200
  45 O :   -0.102709
  46 C :   -0.043327
  47 C :   -0.035331
  48 C :   -0.030564
  49 C :    0.002446
  50 C :   -0.062137
  51 C :   -0.131426
  52 C :   -0.038624
  53 C :   -0.019891
  54 C :   -0.186954
  55 S :    0.382512
  56 C :   -0.162891
  57 C :   -0.027403
  58 C :   -0.018802
  59 C :   -0.141610
  60 S :    0.369018
  61 C :   -0.054823
  62 H :    0.029195
  63 H :    0.033877
  64 H :    0.039451
  65 H :    0.046958
  66 H :    0.027996
  67 H :    0.039223
  68 H :    0.029942
  69 H :    0.041710
  70 H :    0.037194
  71 H :    0.029505
  72 H :    0.035167
  73 H :    0.022731
  74 H :    0.036791
  75 H :    0.036227
  76 H :    0.033887
  77 H :    0.034698
  78 H :    0.036892
  79 H :    0.033009
  80 H :    0.030447

  Mayer bond orders larger than 0.100000
B(  0-C ,  1-C ) :   1.5391 B(  0-C ,  4-S ) :   1.1871 B(  0-C , 62-H ) :   0.9590
B(  1-C ,  2-C ) :   1.2436 B(  1-C ,  8-C ) :   1.0111 B(  2-C ,  3-C ) :   1.5499
B(  2-C ,  5-C ) :   0.9695 B(  3-C ,  4-S ) :   1.1791 B(  3-C , 63-H ) :   0.9721
B(  5-C ,  6-O ) :   2.1127 B(  5-C ,  7-C ) :   0.9912 B(  7-C ,  8-C ) :   1.1482
B(  7-C , 16-C ) :   1.4066 B(  8-C ,  9-C ) :   1.5255 B(  9-C , 10-N ) :   0.8816
B(  9-C , 13-N ) :   0.9736 B( 10-N , 11-O ) :   1.5260 B( 10-N , 12-O ) :   1.5325
B( 11-O , 12-O ) :   0.2869 B( 13-N , 14-O ) :   1.4507 B( 13-N , 15-O ) :   1.5219
B( 14-O , 15-O ) :   0.2491 B( 14-O , 64-H ) :   0.1079 B( 16-C , 17-C ) :   1.3501
B( 16-C , 64-H ) :   0.9340 B( 17-C , 18-S ) :   1.0452 B( 17-C , 21-C ) :   1.2747
B( 18-S , 19-C ) :   1.1563 B( 19-C , 20-C ) :   1.3074 B( 19-C , 25-C ) :   1.1241
B( 20-C , 21-C ) :   1.3949 B( 20-C , 22-C ) :   0.9103 B( 21-C , 65-H ) :   1.0162
B( 22-C , 23-O ) :   2.2917 B( 22-C , 24-C ) :   0.9072 B( 24-C , 25-C ) :   1.5338
B( 24-C , 26-C ) :   1.1980 B( 25-C , 66-H ) :   1.0139 B( 26-C , 27-C ) :   1.5356
B( 26-C , 67-H ) :   0.9786 B( 27-C , 28-C ) :   1.2055 B( 27-C , 68-H ) :   0.9520
B( 28-C , 29-S ) :   1.0675 B( 28-C , 32-C ) :   1.3991 B( 29-S , 30-C ) :   1.1548
B( 30-C , 31-C ) :   1.3103 B( 30-C , 39-C ) :   1.2803 B( 31-C , 32-C ) :   1.2536
B( 31-C , 38-C ) :   1.1019 B( 32-C , 33-O ) :   1.1360 B( 33-O , 34-C ) :   1.1152
B( 34-C , 35-N ) :   0.9243 B( 34-C , 38-C ) :   1.5579 B( 35-N , 36-O ) :   1.5229
B( 35-N , 37-O ) :   1.5115 B( 36-O , 37-O ) :   0.2786 B( 38-C , 69-H ) :   1.0146
B( 39-C , 40-S ) :   1.0785 B( 39-C , 43-C ) :   1.3618 B( 40-S , 41-C ) :   1.1352
B( 41-C , 42-C ) :   1.3688 B( 41-C , 47-C ) :   1.1457 B( 42-C , 43-C ) :   1.3726
B( 42-C , 44-C ) :   0.9199 B( 43-C , 70-H ) :   0.9974 B( 44-C , 45-O ) :   2.2776
B( 44-C , 46-C ) :   0.9110 B( 46-C , 47-C ) :   1.4887 B( 46-C , 48-C ) :   1.2345
B( 47-C , 71-H ) :   1.0144 B( 48-C , 49-C ) :   1.4763 B( 48-C , 72-H ) :   0.9784
B( 49-C , 50-C ) :   1.2516 B( 49-C , 73-H ) :   0.9714 B( 50-C , 51-C ) :   1.4653
B( 50-C , 74-H ) :   0.9856 B( 51-C , 52-C ) :   1.1746 B( 51-C , 55-S ) :   1.0582
B( 52-C , 53-C ) :   1.5625 B( 52-C , 75-H ) :   1.0007 B( 53-C , 54-C ) :   1.2007
B( 53-C , 76-H ) :   0.9940 B( 54-C , 55-S ) :   1.0401 B( 54-C , 56-C ) :   1.5114
B( 56-C , 57-C ) :   1.1606 B( 56-C , 60-S ) :   1.0674 B( 57-C , 58-C ) :   1.6532
B( 57-C , 77-H ) :   0.9926 B( 58-C , 59-C ) :   1.0831 B( 58-C , 78-H ) :   0.9934
B( 59-C , 60-S ) :   1.0055 B( 59-C , 61-C ) :   1.8573 B( 61-C , 79-H ) :   0.9519
B( 61-C , 80-H ) :   0.9422

-----------------------------------------------------------------------------
         ABSORPTION SPECTRUM VIA TRANSITION ELECTRIC DIPOLE MOMENTS
-----------------------------------------------------------------------------
State   Energy  Wavelength   fosc         T2         TX        TY        TZ
        (cm-1)    (nm)                  (au**2)     (au)      (au)      (au)
-----------------------------------------------------------------------------
   0    7648.7   1307.4   1.767110101  76.05884  -2.64012  -3.94361  -7.31687
   1   12725.4    785.8   0.502231977  12.99300  -0.93513  -1.58780  -3.09797
   2   14896.8    671.3   0.005160258   0.11404  -0.21675   0.23822  -0.10153
   3   17627.5    567.3   0.111887952   2.08962  -1.18582   0.73737  -0.37382
   4   19130.3    522.7   0.077151083   1.32768   0.14196   0.73702   0.87426
   5   19796.5    505.1   0.073560941   1.22330  -0.74554   0.59387  -0.56106
   6   20013.5    499.7   0.688946549  11.33285  -0.47589   2.30348   2.40839
   7   21907.7    456.5   0.057972567   0.87117  -0.49513   0.74608   0.26340
   8   24254.8    412.3   0.124888344   1.69512  -0.51936   1.14199   0.34819
   9   25013.8    399.8   0.176697510   2.32555   0.19877   0.89503   1.21859
  10   25183.4    397.1   0.012738619   0.16653  -0.25560  -0.01368  -0.31782
  11   25419.8    393.4   0.013491845   0.17473  -0.05655   0.37468   0.17649
  12   25980.3    384.9   0.029747587   0.37695  -0.20566  -0.00756  -0.57844
  13   26340.8    379.6   0.000048289   0.00060  -0.01441  -0.01330   0.01480
  14   27080.8    369.3   0.067828112   0.82456  -0.74766   0.17425  -0.48498
  15   28176.5    354.9   0.047767303   0.55811  -0.39976  -0.20135  -0.59813
  16   28487.0    351.0   0.130768592   1.51123   0.68374  -1.00270   0.19580
  17   28720.4    348.2   0.107843984   1.23618   0.73704  -0.82309   0.12438
  18   28911.6    345.9   0.034371898   0.39139  -0.58494   0.14226  -0.17026
  19   29587.0    338.0   0.048796653   0.54296  -0.36798   0.57121   0.28507
  20   30426.4    328.7   0.029437061   0.31851   0.36271  -0.39868   0.16735
  21   30773.1    325.0   0.076539235   0.81882   0.73530  -0.44225   0.28735
  22   30990.0    322.7   0.008539526   0.09072  -0.04146   0.20490   0.21683
  23   31768.2    314.8   0.008144240   0.08440   0.15631  -0.19858  -0.14329
  24   31920.2    313.3   0.004519738   0.04661   0.02864   0.08567  -0.19610
  25   32170.3    310.8   0.004480890   0.04585  -0.13823   0.15957   0.03582
  26   32197.7    310.6   0.143656911   1.46885   0.16836  -0.89921  -0.79494
  27   32762.3    305.2   0.107715931   1.08238  -0.42479   0.87216   0.37587
  28   32811.9    304.8   0.056303087   0.56491   0.22012  -0.66064  -0.28286
  29   33594.8    297.7   0.047045624   0.46102   0.35997  -0.55720  -0.14482
  30   33909.4    294.9   0.030990846   0.30088  -0.16583   0.40260   0.33360
  31   34071.9    293.5   0.074938250   0.72407   0.56824  -0.63317   0.01660
  32   34109.7    293.2   0.311327561   3.00480   1.34372  -0.28790   1.05656
  33   34148.6    292.8   0.007864261   0.07582  -0.21850   0.02693  -0.16538
  34   34411.0    290.6   0.113420913   1.08510  -0.60467   0.82716  -0.18785
  35   34732.3    287.9   0.005797194   0.05495   0.13327  -0.17752   0.07534
  36   35212.3    284.0   0.024128467   0.22559  -0.29175   0.36127   0.09975
  37   35645.9    280.5   0.141031854   1.30252  -0.63323   0.93360   0.17298
  38   35991.6    277.8   0.015701418   0.14362   0.22762  -0.30244   0.01839
  39   36040.5    277.5   0.000032228   0.00029  -0.00920  -0.00720   0.01256
  40   36096.9    277.0   0.056643726   0.51660   0.51527  -0.50076  -0.01840
  41   36240.3    275.9   0.047195225   0.42873   0.41969  -0.48831  -0.11893
  42   36768.2    272.0   0.039697591   0.35544   0.48112  -0.34066   0.08897
  43   37020.8    270.1   0.022830804   0.20303   0.22816  -0.38738  -0.03015
  44   37183.3    268.9   0.028433273   0.25174   0.32713  -0.18226   0.33393
  45   37244.6    268.5   0.000895442   0.00791   0.04821  -0.05192  -0.05380
  46   37525.4    266.5   0.015191615   0.13328   0.12824  -0.33662   0.05931
  47   37900.2    263.9   0.040044911   0.34784   0.02052   0.37222   0.45702
  48   38020.4    263.0   0.008122030   0.07033  -0.11521   0.20272  -0.12633
  49   38256.6    261.4   0.010026847   0.08628   0.00718  -0.17559  -0.23537
  50   38564.8    259.3   0.020529769   0.17525  -0.00283   0.34589   0.23581
  51   38649.3    258.7   0.189144523   1.61112  -0.90853   0.86211  -0.20605
  52   38848.2    257.4   0.046542064   0.39441  -0.38650   0.49484   0.01281
  53   38867.0    257.3   0.018253845   0.15461  -0.27727   0.27791  -0.02240
  54   38971.9    256.6   0.043960436   0.37135  -0.17380  -0.00561  -0.58405
  55   39197.3    255.1   0.249140152   2.09249  -1.10724   0.88890  -0.27636
  56   39585.1    252.6   0.089397923   0.74348   0.50830   0.11075   0.68764
  57   39888.6    250.7   0.000085371   0.00070  -0.01225  -0.01860   0.01444
  58   40012.2    249.9   0.013738524   0.11304   0.15255  -0.11075   0.27839
  59   40283.8    248.2   0.061794874   0.50501  -0.04194  -0.34735  -0.61854

FINAL SINGLE POINT ENERGY     -4951.291761675568

DIPOLE MOMENT
-------------
                                X             Y             Z
Electronic contribution:     26.98769      30.19838      65.24143
Nuclear contribution   :    -31.86876     -31.88126     -74.00194
                        -----------------------------------------
Total Dipole Moment    :     -4.88107      -1.68287      -8.76052
                        -----------------------------------------
Magnitude (a.u.)       :     10.16876
Magnitude (Debye)      :     25.84692

Rotational constants in cm-1:     0.003161     0.000175     0.000166
Rotational constants in MHz :    94.750747     5.236332     4.979020

                             ****ORCA TERMINATED NORMALLY****
TOTAL RUN TIME: 0 days 0 hours 6 minutes 45 seconds 399 msec
