                         Program Version 4.2.0 -  RELEASE  -
|  1> # ORCA input file
|  2> # SCF done       -146.923252237635          0.000747542462
|  3> ! CAM-B3LYP def2-SVP def2/J RIJCOSX Grid4 TightSCF
|  4> %maxcore 5000
|  5> %tddft
|  6>     Mode sTDDFT
|  7>     Ethresh 5.0
|  8>     maxcore 5000
|  9> end
| 10>
| 11> %pal
| 12>   nprocs 6
| 13>   end
| 14> * xyz 0 1
| 15>    O       -4.96782        -0.08712        -4.51516
| 16>    C       -3.77264         0.54809        -4.50276
| 17>    N       -2.81168        -0.16152        -5.02907
| 18>    C       -3.39735        -1.33406        -5.42302
| 19>    C       -4.73254        -1.26708        -5.10275
| 20>    C       -2.62189        -2.39998        -6.03712
| 21>    O       -3.07071        -3.43600        -6.46488
| 22>    C       -3.61141         1.87359        -3.99010
| 23>    C       -2.42153         2.51850        -4.20583
| 24>    C       -2.15253         3.82583        -3.81344
| 25>    C       -3.15284         4.61460        -3.08754
| 26>    C       -4.37962         4.15539        -2.75232
| 27>    S       -4.96858         2.58851        -3.14805
| 28>    C       -2.53434         5.87499        -2.86767
| 29>    C       -1.24637         5.88449        -3.41642
| 30>    C       -0.60928         7.13103        -3.23134
| 31>    C       -1.40656         8.00729        -2.56440
| 32>    S       -2.95550         7.36814        -2.13761
| 33>    C       -0.99109         4.59927        -4.01346
| 34>    C        0.13942         4.10743        -4.70049
| 35>    C        1.34095         4.70678        -4.91571
| 36>    C        2.40479         4.09530        -5.64162
| 37>    C        2.28349         2.93525        -6.37398
| 38>    C        3.30998         2.29292        -7.05563
| 39>    C        4.67685         2.81857        -7.05058
| 40>    C        5.03470         3.96522        -6.43062
| 41>    S        3.94296         4.94729        -5.54045
| 42>    C        5.43307         1.88785        -7.81423
| 43>    C        4.60913         0.85467        -8.26996
| 44>    C        5.32969        -0.08553        -9.04030
| 45>    C        6.64317         0.24680        -9.14300
| 46>    S        7.06658         1.70783        -8.31884
| 47>    C        3.26601         1.09741        -7.80842
| 48>    C        2.08205         0.36585        -8.02893
| 49>    C        1.92189        -0.82776        -8.66350
| 50>    C        0.65877        -1.45882        -8.85425
| 51>    C       -0.56005        -0.86219        -8.61513
| 52>    C       -1.80166        -1.46610        -8.77625
| 53>    C       -1.93219        -2.84857        -9.23788
| 54>    C       -0.87662        -3.63215        -9.55279
| 55>    S        0.75528        -3.11243        -9.44714
| 56>    C       -3.33007        -3.10613        -9.25114
| 57>    C       -4.03313        -1.97152        -8.83565
| 58>    C       -5.42673        -2.19712        -8.82481
| 59>    C       -5.73489        -3.46005        -9.22241
| 60>    S       -4.35968        -4.42599        -9.62320
| 61>    C       -3.08632        -0.93094        -8.53026
| 62>    C       -3.30675         0.38145        -8.06163
| 63>    C       -4.47605         0.95325        -7.68118
| 64>    C       -4.50664         2.27025        -7.14808
| 65>    N       -5.52469         2.86468        -6.58991
| 66>    C       -5.06179         4.08870        -6.18363
| 67>    C       -3.73511         4.18319        -6.53267
| 68>    O       -3.37733         3.04857        -7.14179
| 69>    C       -5.89030         5.04298        -5.47143
| 70>    O       -5.49781         6.08554        -5.00578
| 71>    H       -5.54259        -1.95511        -5.22841
| 72>    H       -1.53987        -2.17903        -6.05056
| 73>    H       -1.67911         1.93852        -4.73515
| 74>    H       -5.09521         4.75959        -2.21789
| 75>    H        0.37930         7.38199        -3.56915
| 76>    H       -1.17759         9.01845        -2.28929
| 77>    H        0.00471         3.10558        -5.08284
| 78>    H        1.54342         5.68216        -4.49940
| 79>    H        1.30041         2.49181        -6.42027
| 80>    H        6.04244         4.34898        -6.44921
| 81>    H        4.91498        -0.96235        -9.50232
| 82>    H        7.41513        -0.28458        -9.66465
| 83>    H        1.19623         0.83203        -7.62083
| 84>    H        2.78334        -1.36662        -9.02750
| 85>    H       -0.54652         0.16389        -8.28010
| 86>    H       -0.98535        -4.64975        -9.89228
| 87>    H       -6.17227        -1.47524        -8.54592
| 88>    H       -6.70965        -3.89980        -9.30730
| 89>    H       -2.42150         0.99637        -7.96206
| 90>    H       -5.42113         0.43948        -7.70727
| 91>    H       -3.01025         4.96244        -6.41634
| 92>    H       -6.93986         4.71389        -5.37274
| 93> *
| 94>
| 95>                          ****END OF INPUT****

CARTESIAN COORDINATES (ANGSTROEM)
---------------------------------
  O     -4.967820   -0.087120   -4.515160
  C     -3.772640    0.548090   -4.502760
  N     -2.811680   -0.161520   -5.029070
  C     -3.397350   -1.334060   -5.423020
  C     -4.732540   -1.267080   -5.102750
  C     -2.621890   -2.399980   -6.037120
  O     -3.070710   -3.436000   -6.464880
  C     -3.611410    1.873590   -3.990100
  C     -2.421530    2.518500   -4.205830
  C     -2.152530    3.825830   -3.813440
  C     -3.152840    4.614600   -3.087540
  C     -4.379620    4.155390   -2.752320
  S     -4.968580    2.588510   -3.148050
  C     -2.534340    5.874990   -2.867670
  C     -1.246370    5.884490   -3.416420
  C     -0.609280    7.131030   -3.231340
  C     -1.406560    8.007290   -2.564400
  S     -2.955500    7.368140   -2.137610
  C     -0.991090    4.599270   -4.013460
  C      0.139420    4.107430   -4.700490
  C      1.340950    4.706780   -4.915710
  C      2.404790    4.095300   -5.641620
  C      2.283490    2.935250   -6.373980
  C      3.309980    2.292920   -7.055630
  C      4.676850    2.818570   -7.050580
  C      5.034700    3.965220   -6.430620
  S      3.942960    4.947290   -5.540450
  C      5.433070    1.887850   -7.814230
  C      4.609130    0.854670   -8.269960
  C      5.329690   -0.085530   -9.040300
  C      6.643170    0.246800   -9.143000
  S      7.066580    1.707830   -8.318840
  C      3.266010    1.097410   -7.808420
  C      2.082050    0.365850   -8.028930
  C      1.921890   -0.827760   -8.663500
  C      0.658770   -1.458820   -8.854250
  C     -0.560050   -0.862190   -8.615130
  C     -1.801660   -1.466100   -8.776250
  C     -1.932190   -2.848570   -9.237880
  C     -0.876620   -3.632150   -9.552790
  S      0.755280   -3.112430   -9.447140
  C     -3.330070   -3.106130   -9.251140
  C     -4.033130   -1.971520   -8.835650
  C     -5.426730   -2.197120   -8.824810
  C     -5.734890   -3.460050   -9.222410
  S     -4.359680   -4.425990   -9.623200
  C     -3.086320   -0.930940   -8.530260
  C     -3.306750    0.381450   -8.061630
  C     -4.476050    0.953250   -7.681180
  C     -4.506640    2.270250   -7.148080
  N     -5.524690    2.864680   -6.589910
  C     -5.061790    4.088700   -6.183630
  C     -3.735110    4.183190   -6.532670
  O     -3.377330    3.048570   -7.141790
  C     -5.890300    5.042980   -5.471430
  O     -5.497810    6.085540   -5.005780
  H     -5.542590   -1.955110   -5.228410
  H     -1.539870   -2.179030   -6.050560
  H     -1.679110    1.938520   -4.735150
  H     -5.095210    4.759590   -2.217890
  H      0.379300    7.381990   -3.569150
  H     -1.177590    9.018450   -2.289290
  H      0.004710    3.105580   -5.082840
  H      1.543420    5.682160   -4.499400
  H      1.300410    2.491810   -6.420270
  H      6.042440    4.348980   -6.449210
  H      4.914980   -0.962350   -9.502320
  H      7.415130   -0.284580   -9.664650
  H      1.196230    0.832030   -7.620830
  H      2.783340   -1.366620   -9.027500
  H     -0.546520    0.163890   -8.280100
  H     -0.985350   -4.649750   -9.892280
  H     -6.172270   -1.475240   -8.545920
  H     -6.709650   -3.899800   -9.307300
  H     -2.421500    0.996370   -7.962060
  H     -5.421130    0.439480   -7.707270
  H     -3.010250    4.962440   -6.416340
  H     -6.939860    4.713890   -5.372740

 Total Charge           Charge          ....    0
 Multiplicity           Mult            ....    1
 Number of Electrons    NEL             ....  428
 Basis Dimension        Dim             ....  918

ORBITAL ENERGIES
----------------

  NO   OCC          E(Eh)            E(eV)
   0   2.0000     -88.979340     -2421.2509
   1   2.0000     -88.970880     -2421.0207
   2   2.0000     -88.965869     -2420.8844
   3   2.0000     -88.953122     -2420.5375
   4   2.0000     -88.952448     -2420.5192
   5   2.0000     -88.942570     -2420.2504
   6   2.0000     -19.315498      -525.6014
   7   2.0000     -19.298836      -525.1480
   8   2.0000     -19.204157      -522.5717
   9   2.0000     -19.200058      -522.4601
  10   2.0000     -14.412405      -392.1815
  11   2.0000     -14.396397      -391.7459
  12   2.0000     -10.374483      -282.3040
  13   2.0000     -10.353624      -281.7364
  14   2.0000     -10.348390      -281.5940
  15   2.0000     -10.344459      -281.4870
  16   2.0000     -10.341952      -281.4188
  17   2.0000     -10.334946      -281.2282
  18   2.0000     -10.326292      -280.9927
  19   2.0000     -10.325073      -280.9595
  20   2.0000     -10.323286      -280.9109
  21   2.0000     -10.319233      -280.8006
  22   2.0000     -10.316621      -280.7295
  23   2.0000     -10.315725      -280.7051
  24   2.0000     -10.299599      -280.2663
  25   2.0000     -10.297251      -280.2024
  26   2.0000     -10.295258      -280.1482
  27   2.0000     -10.293897      -280.1112
  28   2.0000     -10.293313      -280.0953
  29   2.0000     -10.292588      -280.0756
  30   2.0000     -10.290558      -280.0203
  31   2.0000     -10.286976      -279.9229
  32   2.0000     -10.286491      -279.9096
  33   2.0000     -10.286022      -279.8969
  34   2.0000     -10.285479      -279.8821
  35   2.0000     -10.284199      -279.8473
  36   2.0000     -10.283584      -279.8306
  37   2.0000     -10.283547      -279.8295
  38   2.0000     -10.282127      -279.7909
  39   2.0000     -10.281873      -279.7840
  40   2.0000     -10.280449      -279.7452
  41   2.0000     -10.279545      -279.7206
  42   2.0000     -10.279114      -279.7089
  43   2.0000     -10.276618      -279.6410
  44   2.0000     -10.275649      -279.6146
  45   2.0000     -10.273471      -279.5553
  46   2.0000     -10.273156      -279.5468
  47   2.0000     -10.272739      -279.5354
  48   2.0000     -10.272087      -279.5177
  49   2.0000     -10.271216      -279.4940
  50   2.0000     -10.270668      -279.4791
  51   2.0000     -10.267429      -279.3910
  52   2.0000     -10.262600      -279.2596
  53   2.0000     -10.262447      -279.2554
  54   2.0000     -10.260978      -279.2154
  55   2.0000     -10.260273      -279.1962
  56   2.0000      -8.073523      -219.6917
  57   2.0000      -8.066256      -219.4940
  58   2.0000      -8.061380      -219.3613
  59   2.0000      -8.048534      -219.0118
  60   2.0000      -8.047875      -218.9938
  61   2.0000      -8.038122      -218.7284
  62   2.0000      -6.043099      -164.4411
  63   2.0000      -6.038537      -164.3169
  64   2.0000      -6.035695      -164.2396
  65   2.0000      -6.035582      -164.2365
  66   2.0000      -6.031293      -164.1198
  67   2.0000      -6.030806      -164.1066
  68   2.0000      -6.028302      -164.0384
  69   2.0000      -6.026356      -163.9855
  70   2.0000      -6.023449      -163.9064
  71   2.0000      -6.017924      -163.7560
  72   2.0000      -6.017308      -163.7393
  73   2.0000      -6.013686      -163.6407
  74   2.0000      -6.013076      -163.6241
  75   2.0000      -6.010643      -163.5579
  76   2.0000      -6.009914      -163.5381
  77   2.0000      -6.007550      -163.4738
  78   2.0000      -6.003317      -163.3586
  79   2.0000      -6.000142      -163.2722
  80   2.0000      -1.243650       -33.8414
  81   2.0000      -1.225286       -33.3417
  82   2.0000      -1.116430       -30.3796
  83   2.0000      -1.112494       -30.2725
  84   2.0000      -1.022608       -27.8266
  85   2.0000      -1.006286       -27.3824
  86   2.0000      -1.004325       -27.3291
  87   2.0000      -1.001110       -27.2416
  88   2.0000      -0.994220       -27.0541
  89   2.0000      -0.972146       -26.4534
  90   2.0000      -0.967848       -26.3365
  91   2.0000      -0.961494       -26.1636
  92   2.0000      -0.931078       -25.3359
  93   2.0000      -0.925024       -25.1712
  94   2.0000      -0.919784       -25.0286
  95   2.0000      -0.907893       -24.7050
  96   2.0000      -0.901908       -24.5422
  97   2.0000      -0.896227       -24.3876
  98   2.0000      -0.887564       -24.1518
  99   2.0000      -0.863495       -23.4969
 100   2.0000      -0.856407       -23.3040
 101   2.0000      -0.852921       -23.2092
 102   2.0000      -0.843505       -22.9529
 103   2.0000      -0.834403       -22.7052
 104   2.0000      -0.830030       -22.5863
 105   2.0000      -0.819940       -22.3117
 106   2.0000      -0.806924       -21.9575
 107   2.0000      -0.804441       -21.8900
 108   2.0000      -0.800494       -21.7826
 109   2.0000      -0.784310       -21.3422
 110   2.0000      -0.776282       -21.1237
 111   2.0000      -0.766584       -20.8598
 112   2.0000      -0.759777       -20.6746
 113   2.0000      -0.751515       -20.4498
 114   2.0000      -0.735308       -20.0087
 115   2.0000      -0.727521       -19.7968
 116   2.0000      -0.722807       -19.6686
 117   2.0000      -0.722474       -19.6595
 118   2.0000      -0.702180       -19.1073
 119   2.0000      -0.691633       -18.8203
 120   2.0000      -0.684351       -18.6221
 121   2.0000      -0.680913       -18.5286
 122   2.0000      -0.664421       -18.0798
 123   2.0000      -0.662843       -18.0369
 124   2.0000      -0.656627       -17.8677
 125   2.0000      -0.646850       -17.6017
 126   2.0000      -0.644050       -17.5255
 127   2.0000      -0.641681       -17.4610
 128   2.0000      -0.638901       -17.3854
 129   2.0000      -0.628448       -17.1009
 130   2.0000      -0.618877       -16.8405
 131   2.0000      -0.614207       -16.7134
 132   2.0000      -0.606879       -16.5140
 133   2.0000      -0.604307       -16.4440
 134   2.0000      -0.596272       -16.2254
 135   2.0000      -0.591294       -16.0899
 136   2.0000      -0.589889       -16.0517
 137   2.0000      -0.579889       -15.7796
 138   2.0000      -0.576714       -15.6932
 139   2.0000      -0.571290       -15.5456
 140   2.0000      -0.567533       -15.4434
 141   2.0000      -0.564555       -15.3623
 142   2.0000      -0.562975       -15.3193
 143   2.0000      -0.561765       -15.2864
 144   2.0000      -0.560129       -15.2419
 145   2.0000      -0.553613       -15.0646
 146   2.0000      -0.550286       -14.9740
 147   2.0000      -0.543073       -14.7778
 148   2.0000      -0.540399       -14.7050
 149   2.0000      -0.533860       -14.5271
 150   2.0000      -0.530970       -14.4484
 151   2.0000      -0.526785       -14.3346
 152   2.0000      -0.516790       -14.0626
 153   2.0000      -0.513979       -13.9861
 154   2.0000      -0.510575       -13.8935
 155   2.0000      -0.509087       -13.8529
 156   2.0000      -0.507621       -13.8131
 157   2.0000      -0.506253       -13.7758
 158   2.0000      -0.502313       -13.6686
 159   2.0000      -0.501207       -13.6385
 160   2.0000      -0.498851       -13.5744
 161   2.0000      -0.497192       -13.5293
 162   2.0000      -0.491970       -13.3872
 163   2.0000      -0.489000       -13.3064
 164   2.0000      -0.482152       -13.1200
 165   2.0000      -0.476856       -12.9759
 166   2.0000      -0.475621       -12.9423
 167   2.0000      -0.471105       -12.8194
 168   2.0000      -0.468379       -12.7452
 169   2.0000      -0.466706       -12.6997
 170   2.0000      -0.462780       -12.5929
 171   2.0000      -0.457783       -12.4569
 172   2.0000      -0.452379       -12.3099
 173   2.0000      -0.449321       -12.2266
 174   2.0000      -0.446851       -12.1594
 175   2.0000      -0.443331       -12.0637
 176   2.0000      -0.440282       -11.9807
 177   2.0000      -0.435285       -11.8447
 178   2.0000      -0.432209       -11.7610
 179   2.0000      -0.430849       -11.7240
 180   2.0000      -0.428509       -11.6603
 181   2.0000      -0.424241       -11.5442
 182   2.0000      -0.423385       -11.5209
 183   2.0000      -0.422327       -11.4921
 184   2.0000      -0.419479       -11.4146
 185   2.0000      -0.416487       -11.3332
 186   2.0000      -0.415341       -11.3020
 187   2.0000      -0.412583       -11.2269
 188   2.0000      -0.409153       -11.1336
 189   2.0000      -0.407003       -11.0751
 190   2.0000      -0.405850       -11.0437
 191   2.0000      -0.401305       -10.9201
 192   2.0000      -0.400602       -10.9009
 193   2.0000      -0.392680       -10.6854
 194   2.0000      -0.388523       -10.5722
 195   2.0000      -0.383556       -10.4371
 196   2.0000      -0.376803       -10.2533
 197   2.0000      -0.361990        -9.8503
 198   2.0000      -0.359247        -9.7756
 199   2.0000      -0.350965        -9.5502
 200   2.0000      -0.345295        -9.3959
 201   2.0000      -0.331698        -9.0260
 202   2.0000      -0.325723        -8.8634
 203   2.0000      -0.324093        -8.8190
 204   2.0000      -0.320975        -8.7342
 205   2.0000      -0.316416        -8.6101
 206   2.0000      -0.313673        -8.5355
 207   2.0000      -0.293302        -7.9812
 208   2.0000      -0.282339        -7.6828
 209   2.0000      -0.275642        -7.5006
 210   2.0000      -0.269809        -7.3419
 211   2.0000      -0.250822        -6.8252
 212   2.0000      -0.227056        -6.1785
 213   2.0000      -0.206833        -5.6282
 214   0.0000      -0.074205        -2.0192
 215   0.0000      -0.049517        -1.3474
 216   0.0000      -0.033968        -0.9243
 217   0.0000      -0.026562        -0.7228
 218   0.0000      -0.018460        -0.5023

MULLIKEN ATOMIC CHARGES
-----------------------
   0 O :   -0.170138
   1 C :    0.132412
   2 N :   -0.100727
   3 C :   -0.033257
   4 C :    0.123662
   5 C :    0.208555
   6 O :   -0.185802
   7 C :   -0.136303
   8 C :   -0.044749
   9 C :    0.038776
  10 C :    0.090973
  11 C :   -0.136606
  12 S :    0.182411
  13 C :   -0.098777
  14 C :    0.040742
  15 C :   -0.008009
  16 C :   -0.067290
  17 S :    0.148276
  18 C :    0.093476
  19 C :    0.002385
  20 C :    0.019718
  21 C :   -0.071187
  22 C :   -0.044453
  23 C :    0.064398
  24 C :    0.068213
  25 C :   -0.137642
  26 S :    0.135988
  27 C :   -0.120831
  28 C :    0.054549
  29 C :   -0.008855
  30 C :   -0.066614
  31 S :    0.122883
  32 C :    0.088754
  33 C :    0.011622
  34 C :    0.011834
  35 C :   -0.064389
  36 C :   -0.053236
  37 C :    0.039577
  38 C :    0.075173
  39 C :   -0.130937
  40 S :    0.134276
  41 C :   -0.078829
  42 C :    0.063525
  43 C :   -0.017836
  44 C :   -0.066309
  45 S :    0.127880
  46 C :    0.054727
  47 C :    0.001054
  48 C :   -0.040030
  49 C :    0.078099
  50 N :   -0.082053
  51 C :   -0.069531
  52 C :    0.159173
  53 O :   -0.197665
  54 C :    0.164659
  55 O :   -0.191498
  56 H :    0.030155
  57 H :   -0.020469
  58 H :    0.009269
  59 H :    0.040880
  60 H :   -0.018927
  61 H :    0.024185
  62 H :   -0.039951
  63 H :   -0.038853
  64 H :   -0.030556
  65 H :    0.033550
  66 H :   -0.016255
  67 H :    0.023876
  68 H :   -0.042784
  69 H :   -0.043453
  70 H :   -0.031959
  71 H :    0.031910
  72 H :   -0.022832
  73 H :    0.018834
  74 H :   -0.016864
  75 H :   -0.018841
  76 H :    0.029536
  77 H :   -0.014670
Sum of atomic charges:   -0.0000000

LOEWDIN ATOMIC CHARGES
----------------------
   0 O :    0.030423
   1 C :    0.028636
   2 N :   -0.099220
   3 C :   -0.093178
   4 C :    0.066837
   5 C :    0.098722
   6 O :   -0.136749
   7 C :   -0.203386
   8 C :    0.006063
   9 C :   -0.018760
  10 C :   -0.049265
  11 C :   -0.129692
  12 S :    0.483068
  13 C :   -0.192657
  14 C :   -0.041805
  15 C :   -0.068114
  16 C :   -0.165349
  17 S :    0.439558
  18 C :   -0.055642
  19 C :    0.000048
  20 C :   -0.071438
  21 C :   -0.152670
  22 C :   -0.033882
  23 C :   -0.002185
  24 C :   -0.050646
  25 C :   -0.145108
  26 S :    0.451814
  27 C :   -0.205350
  28 C :   -0.034805
  29 C :   -0.066823
  30 C :   -0.166480
  31 S :    0.419160
  32 C :   -0.068466
  33 C :    0.007179
  34 C :   -0.083697
  35 C :   -0.146862
  36 C :   -0.043490
  37 C :    0.003884
  38 C :   -0.048205
  39 C :   -0.141681
  40 S :    0.454262
  41 C :   -0.194714
  42 C :   -0.037782
  43 C :   -0.071165
  44 C :   -0.168175
  45 S :    0.428406
  46 C :   -0.083164
  47 C :    0.019080
  48 C :   -0.093318
  49 C :    0.048235
  50 N :   -0.117226
  51 C :   -0.122775
  52 C :    0.072415
  53 O :    0.013587
  54 C :    0.097902
  55 O :   -0.147938
  56 H :    0.034339
  57 H :   -0.000383
  58 H :    0.039941
  59 H :    0.038503
  60 H :    0.027500
  61 H :    0.023282
  62 H :    0.027099
  63 H :    0.022059
  64 H :    0.031663
  65 H :    0.035227
  66 H :    0.028191
  67 H :    0.022757
  68 H :    0.025173
  69 H :    0.020344
  70 H :    0.031608
  71 H :    0.035684
  72 H :    0.026302
  73 H :    0.020963
  74 H :    0.026222
  75 H :    0.033376
  76 H :    0.033793
  77 H :   -0.001062

  Mayer bond orders larger than 0.100000
B(  0-O ,  1-C ) :   1.2023 B(  0-O ,  4-C ) :   1.1452 B(  1-C ,  2-N ) :   1.7246
B(  1-C ,  7-C ) :   1.0228 B(  2-N ,  3-C ) :   1.2861 B(  3-C ,  4-C ) :   1.5091
B(  3-C ,  5-C ) :   0.9857 B(  4-C , 56-H ) :   0.9937 B(  5-C ,  6-O ) :   2.1578
B(  5-C , 57-H ) :   0.9327 B(  7-C ,  8-C ) :   1.5831 B(  7-C , 12-S ) :   1.0595
B(  8-C ,  9-C ) :   1.1946 B(  8-C , 58-H ) :   0.9630 B(  9-C , 10-C ) :   1.0661
B(  9-C , 18-C ) :   1.3566 B( 10-C , 11-C ) :   1.5958 B( 10-C , 13-C ) :   1.1816
B( 11-C , 12-S ) :   1.1423 B( 11-C , 59-H ) :   0.9314 B( 13-C , 14-C ) :   1.4478
B( 13-C , 17-S ) :   1.0842 B( 14-C , 15-C ) :   1.2208 B( 14-C , 18-C ) :   1.0650
B( 15-C , 16-C ) :   1.5799 B( 15-C , 60-H ) :   1.0011 B( 16-C , 17-S ) :   1.1645
B( 16-C , 61-H ) :   0.9646 B( 18-C , 19-C ) :   1.2071 B( 19-C , 20-C ) :   1.6203
B( 19-C , 62-H ) :   0.9425 B( 20-C , 21-C ) :   1.1053 B( 20-C , 63-H ) :   0.9733
B( 21-C , 22-C ) :   1.5217 B( 21-C , 26-S ) :   1.0614 B( 22-C , 23-C ) :   1.2647
B( 22-C , 64-H ) :   0.9600 B( 23-C , 24-C ) :   1.0571 B( 23-C , 32-C ) :   1.3408
B( 24-C , 25-C ) :   1.6016 B( 24-C , 27-C ) :   1.1769 B( 25-C , 26-S ) :   1.1412
B( 25-C , 65-H ) :   0.9404 B( 27-C , 28-C ) :   1.4528 B( 27-C , 31-S ) :   1.0727
B( 28-C , 29-C ) :   1.2173 B( 28-C , 32-C ) :   1.0708 B( 29-C , 30-C ) :   1.5826
B( 29-C , 66-H ) :   1.0016 B( 30-C , 31-S ) :   1.1573 B( 30-C , 67-H ) :   0.9650
B( 32-C , 33-C ) :   1.2186 B( 33-C , 34-C ) :   1.6094 B( 33-C , 68-H ) :   0.9449
B( 34-C , 35-C ) :   1.1113 B( 34-C , 69-H ) :   0.9715 B( 35-C , 36-C ) :   1.5036
B( 35-C , 40-S ) :   1.0719 B( 36-C , 37-C ) :   1.2760 B( 36-C , 70-H ) :   0.9613
B( 37-C , 38-C ) :   1.0616 B( 37-C , 46-C ) :   1.3223 B( 38-C , 39-C ) :   1.6011
B( 38-C , 41-C ) :   1.1733 B( 39-C , 40-S ) :   1.1396 B( 39-C , 71-H ) :   0.9373
B( 41-C , 42-C ) :   1.4563 B( 41-C , 45-S ) :   1.0749 B( 42-C , 43-C ) :   1.2234
B( 42-C , 46-C ) :   1.0728 B( 43-C , 44-C ) :   1.5700 B( 43-C , 72-H ) :   1.0027
B( 44-C , 45-S ) :   1.1649 B( 44-C , 73-H ) :   0.9654 B( 46-C , 47-C ) :   1.1806
B( 47-C , 48-C ) :   1.5864 B( 47-C , 74-H ) :   0.9581 B( 48-C , 49-C ) :   1.1165
B( 48-C , 75-H ) :   0.9720 B( 49-C , 50-N ) :   1.7052 B( 49-C , 53-O ) :   1.1224
B( 50-N , 51-C ) :   1.2861 B( 51-C , 52-C ) :   1.5071 B( 51-C , 54-C ) :   0.9840
B( 52-C , 53-O ) :   1.1473 B( 52-C , 76-H ) :   0.9901 B( 54-C , 55-O ) :   2.1730
B( 54-C , 77-H ) :   0.9539

-----------------------------------------------------------------------------
         ABSORPTION SPECTRUM VIA TRANSITION ELECTRIC DIPOLE MOMENTS
-----------------------------------------------------------------------------
State   Energy  Wavelength   fosc         T2         TX        TY        TZ
        (cm-1)    (nm)                  (au**2)     (au)      (au)      (au)
-----------------------------------------------------------------------------
   0   13263.9    753.9   0.141843183   3.52057  -0.23034  -1.02925  -1.55183
   1   16696.3    598.9   0.019440738   0.38332   0.43137  -0.25050  -0.36674
   2   19884.1    502.9   0.738168824  12.22153  -3.39355  -0.59901   0.58870
   3   20288.1    492.9   0.139331821   2.26092  -1.38705   0.35386   0.46021
   4   22359.6    447.2   0.045165382   0.66499  -0.24548   0.67128   0.39258
   5   23110.5    432.7   0.037199681   0.52991  -0.11944  -0.67057  -0.25687
   6   23249.2    430.1   0.320230948   4.53452   2.09965   0.23166  -0.26890
   7   24177.9    413.6   0.409098780   5.57038   1.37444   1.82922   0.57900
   8   25377.8    394.0   0.149648990   1.94132  -0.17434   1.38219  -0.02153
   9   25757.7    388.2   0.163455778   2.08914  -0.84891   0.24759   1.14333
  10   26570.1    376.4   0.066655393   0.82588  -0.25399  -0.75097  -0.44432
  11   27252.0    366.9   0.119997386   1.44960  -1.16464  -0.28270   0.11530
  12   27721.1    360.7   0.126094222   1.49748  -0.48068   1.00029   0.51561
  13   27975.9    357.5   0.056376311   0.66342  -0.13312  -0.78781   0.15828
  14   28601.4    349.6   0.135757077   1.56261  -1.02362   0.57249   0.43251
  15   29054.2    344.2   0.441006959   4.99704  -0.42182   1.94203   1.02354
  16   29693.3    336.8   0.052159446   0.57830   0.58220  -0.46237  -0.15988
  17   30304.2    330.0   0.277748058   3.01734  -1.57598  -0.70515  -0.19079
  18   30481.4    328.1   0.104623579   1.12998   0.41921  -0.69370  -0.68777
  19   31266.3    319.8   0.065915615   0.69405  -0.82462  -0.11796  -0.01152
  20   31474.3    317.7   0.029059468   0.30395   0.54610  -0.01660  -0.07384
  21   31831.0    314.2   0.126373474   1.30702   1.07050   0.19550  -0.35045
  22   32480.1    307.9   0.255768279   2.59242  -0.64791   1.43402   0.34092
  23   32805.1    304.8   0.142635948   1.43141   0.90481   0.77969   0.06935
  24   33353.4    299.8   0.226893550   2.23953   0.57381  -1.07916  -0.86353
  25   33928.1    294.7   0.235759226   2.28763   0.11493  -1.30621  -0.75382
  26   34056.6    293.6   0.054882300   0.53053   0.48437  -0.52939  -0.12514
  27   34777.3    287.5   0.405556488   3.83912   1.89988  -0.14734  -0.45593
  28   34846.4    287.0   0.028428211   0.26858  -0.32870   0.27604   0.29041
  29   35132.2    284.6   0.000798503   0.00748  -0.02816  -0.03752  -0.07267
  30   35469.0    281.9   0.075933124   0.70479  -0.04641   0.71110   0.44381
  31   35625.7    280.7   0.102609817   0.94820  -0.32420   0.77654   0.48998
  32   35818.5    279.2   0.009190056   0.08447  -0.10629   0.27050  -0.00147
  33   36418.3    274.6   0.100491351   0.90842   0.93433   0.12689  -0.13909
  34   36525.8    273.8   0.039422497   0.35532  -0.21378   0.48405   0.27443
  35   36947.3    270.7   0.207021754   1.84463  -0.25827   1.23064   0.51328
  36   37191.6    268.9   0.013439094   0.11896   0.13284   0.28258   0.14650
  37   37374.3    267.6   0.305626447   2.69211   0.51546   1.48489   0.47065
  38   37400.9    267.4   0.038234028   0.33655  -0.10291   0.55242  -0.14418
  39   37625.1    265.8   0.019733153   0.17266  -0.14045  -0.38103  -0.08805
  40   37766.4    264.8   0.009990084   0.08708  -0.21943   0.10934   0.16425
  41   38016.2    263.0   0.008154292   0.07061  -0.02918  -0.12804  -0.23102
  42   38210.6    261.7   0.160521011   1.38301   1.10783   0.27086  -0.28696
  43   38622.0    258.9   0.493309987   4.20494  -0.32224  -1.87276  -0.77063
  44   38852.3    257.4   0.281906589   2.38871   0.62508   1.34294   0.44100
  45   39029.8    256.2   0.104656981   0.88277  -0.29943   0.70411   0.54529
  46   39708.1    251.8   0.119264308   0.98880  -0.80768  -0.58003  -0.00477
  47   40017.2    249.9   0.154189513   1.26848  -0.48789  -0.97065  -0.29713
  48   40107.0    249.3   0.013442518   0.11034   0.23229   0.09984   0.21544
  49   40174.4    248.9   0.011232387   0.09204  -0.25062   0.16397  -0.04845

FINAL SINGLE POINT ENERGY     -4485.980889628067

DIPOLE MOMENT
-------------
                                X             Y             Z
Electronic contribution:     -1.06649      -0.53235       4.91862
Nuclear contribution   :      2.17454       0.72176      -4.57870
                        -----------------------------------------
Total Dipole Moment    :      1.10805       0.18942       0.33992
                        -----------------------------------------
Magnitude (a.u.)       :      1.17439
Magnitude (Debye)      :      2.98506

Rotational constants in cm-1:     0.001317     0.001251     0.000689
Rotational constants in MHz :    39.474455    37.497145    20.646189

                             ****ORCA TERMINATED NORMALLY****
TOTAL RUN TIME: 0 days 0 hours 7 minutes 41 seconds 565 msec
