                         Program Version 4.2.0 -  RELEASE  -
|  1> # ORCA input file
|  2> # SCF done        -90.950827163081          0.000493615286
|  3> ! CAM-B3LYP def2-SVP def2/J RIJCOSX Grid4 TightSCF
|  4> %maxcore 5000
|  5> %tddft
|  6>     Mode sTDDFT
|  7>     Ethresh 5.0
|  8>     maxcore 5000
|  9> end
| 10>
| 11> %pal
| 12>   nprocs 6
| 13>   end
| 14> * xyz 0 1
| 15>    C       -0.95541         0.49510        -2.12473
| 16>    C       -0.11629        -0.24824        -2.89398
| 17>    C        0.17897        -1.52509        -2.38014
| 18>    C       -0.42005        -1.83199        -1.18377
| 19>   Se       -1.48777        -0.39559        -0.58967
| 20>    C       -0.29288        -3.04505        -0.44860
| 21>    C       -0.88552        -3.35768         0.75238
| 22>    C       -0.59325        -4.62529         1.26569
| 23>    C        0.25188        -5.39354         0.49681
| 24>   Se        0.77294        -4.47216        -1.06370
| 25>    C        0.71594        -6.70565         0.77139
| 26>    C        1.57143        -7.47054         0.00307
| 27>    C        1.82276        -8.71898         0.57458
| 28>    C        1.14998        -8.90791         1.79155
| 29>    S        0.20970        -7.54933         2.23134
| 30>    C        1.47128       -10.19624         2.29135
| 31>    C        2.34709       -10.82066         1.39014
| 32>    C        2.59619        -9.91481         0.27978
| 33>    C        3.38850       -10.13967        -0.80747
| 34>    C        4.09091       -11.34963        -0.98709
| 35>    N        4.66297       -12.33185        -1.13901
| 36>    C        3.55806        -9.17812        -1.82529
| 37>    N        3.70056        -8.39921        -2.65472
| 38>    C        2.72976       -12.09838         1.80138
| 39>    C        2.15483       -12.45499         3.00540
| 40>    S        1.11672       -11.18355         3.64166
| 41>    C        2.33056       -13.66944         3.71711
| 42>    C        1.74499       -14.03575         4.90809
| 43>    C        2.10850       -15.29617         5.39282
| 44>    C        3.00222       -16.00127         4.62122
| 45>   Se        3.47951       -15.02361         3.08268
| 46>    C        3.54064       -17.29259         4.88716
| 47>    C        4.45653       -17.97768         4.12816
| 48>    C        4.82825       -19.24159         4.62424
| 49>    C        4.22057       -19.59817         5.78696
| 50>   Se        3.05236       -18.29963         6.40514
| 51>    H       -1.30612         1.48957        -2.33229
| 52>    H        0.29230         0.10908        -3.82407
| 53>    H        0.83039        -2.22724        -2.88078
| 54>    H       -1.53407        -2.65622         1.25661
| 55>    H       -0.99590        -4.98485         2.19851
| 56>    H        1.98325        -7.11514        -0.92747
| 57>    H        3.39523       -12.75457         1.26442
| 58>    H        1.05545       -13.38802         5.42437
| 59>    H        1.72235       -15.70311         6.31595
| 60>    H        4.85709       -17.56030         3.21535
| 61>    H        5.53942       -19.87411         4.12027
| 62>    H        4.36133       -20.51425         6.33110
| 63> *
| 64>
| 65>                          ****END OF INPUT****

CARTESIAN COORDINATES (ANGSTROEM)
---------------------------------
  C     -0.955410    0.495100   -2.124730
  C     -0.116290   -0.248240   -2.893980
  C      0.178970   -1.525090   -2.380140
  C     -0.420050   -1.831990   -1.183770
  Se    -1.487770   -0.395590   -0.589670
  C     -0.292880   -3.045050   -0.448600
  C     -0.885520   -3.357680    0.752380
  C     -0.593250   -4.625290    1.265690
  C      0.251880   -5.393540    0.496810
  Se     0.772940   -4.472160   -1.063700
  C      0.715940   -6.705650    0.771390
  C      1.571430   -7.470540    0.003070
  C      1.822760   -8.718980    0.574580
  C      1.149980   -8.907910    1.791550
  S      0.209700   -7.549330    2.231340
  C      1.471280  -10.196240    2.291350
  C      2.347090  -10.820660    1.390140
  C      2.596190   -9.914810    0.279780
  C      3.388500  -10.139670   -0.807470
  C      4.090910  -11.349630   -0.987090
  N      4.662970  -12.331850   -1.139010
  C      3.558060   -9.178120   -1.825290
  N      3.700560   -8.399210   -2.654720
  C      2.729760  -12.098380    1.801380
  C      2.154830  -12.454990    3.005400
  S      1.116720  -11.183550    3.641660
  C      2.330560  -13.669440    3.717110
  C      1.744990  -14.035750    4.908090
  C      2.108500  -15.296170    5.392820
  C      3.002220  -16.001270    4.621220
  Se     3.479510  -15.023610    3.082680
  C      3.540640  -17.292590    4.887160
  C      4.456530  -17.977680    4.128160
  C      4.828250  -19.241590    4.624240
  C      4.220570  -19.598170    5.786960
  Se     3.052360  -18.299630    6.405140
  H     -1.306120    1.489570   -2.332290
  H      0.292300    0.109080   -3.824070
  H      0.830390   -2.227240   -2.880780
  H     -1.534070   -2.656220    1.256610
  H     -0.995900   -4.984850    2.198510
  H      1.983250   -7.115140   -0.927470
  H      3.395230  -12.754570    1.264420
  H      1.055450  -13.388020    5.424370
  H      1.722350  -15.703110    6.315950
  H      4.857090  -17.560300    3.215350
  H      5.539420  -19.874110    4.120270
  H      4.361330  -20.514250    6.331100

 Total Charge           Charge          ....    0
 Multiplicity           Mult            ....    1
 Number of Electrons    NEL             ....  362
 Basis Dimension        Dim             ....  644

ORBITAL ENERGIES
----------------

  NO   OCC          E(Eh)            E(eV)
   0   2.0000    -453.926849    -12351.9775
   1   2.0000    -453.926809    -12351.9764
   2   2.0000    -453.921880    -12351.8423
   3   2.0000    -453.921819    -12351.8407
   4   2.0000     -88.981849     -2421.3192
   5   2.0000     -88.981714     -2421.3155
   6   2.0000     -58.141840     -1582.1199
   7   2.0000     -58.141799     -1582.1188
   8   2.0000     -58.137570     -1582.0037
   9   2.0000     -58.137518     -1582.0023
  10   2.0000     -52.211808     -1420.7555
  11   2.0000     -52.211767     -1420.7544
  12   2.0000     -52.210990     -1420.7333
  13   2.0000     -52.210949     -1420.7322
  14   2.0000     -52.209979     -1420.7058
  15   2.0000     -52.209938     -1420.7047
  16   2.0000     -52.207570     -1420.6402
  17   2.0000     -52.207518     -1420.6388
  18   2.0000     -52.206521     -1420.6117
  19   2.0000     -52.206468     -1420.6102
  20   2.0000     -52.205770     -1420.5912
  21   2.0000     -52.205718     -1420.5898
  22   2.0000     -14.424726      -392.5167
  23   2.0000     -14.424644      -392.5145
  24   2.0000     -10.358015      -281.8559
  25   2.0000     -10.345386      -281.5123
  26   2.0000     -10.325296      -280.9656
  27   2.0000     -10.325180      -280.9624
  28   2.0000     -10.323626      -280.9201
  29   2.0000     -10.323427      -280.9147
  30   2.0000     -10.319072      -280.7962
  31   2.0000     -10.319043      -280.7954
  32   2.0000     -10.308165      -280.4994
  33   2.0000     -10.308140      -280.4988
  34   2.0000     -10.306564      -280.4559
  35   2.0000     -10.306558      -280.4557
  36   2.0000     -10.301916      -280.3294
  37   2.0000     -10.301907      -280.3291
  38   2.0000     -10.294642      -280.1315
  39   2.0000     -10.294545      -280.1288
  40   2.0000     -10.292257      -280.0666
  41   2.0000     -10.292216      -280.0654
  42   2.0000     -10.289907      -280.0026
  43   2.0000     -10.289842      -280.0008
  44   2.0000     -10.278973      -279.7051
  45   2.0000     -10.278946      -279.7043
  46   2.0000     -10.276116      -279.6273
  47   2.0000     -10.276038      -279.6252
  48   2.0000     -10.271840      -279.5110
  49   2.0000     -10.271793      -279.5097
  50   2.0000     -10.270639      -279.4783
  51   2.0000     -10.270638      -279.4783
  52   2.0000      -8.076357      -219.7688
  53   2.0000      -8.076272      -219.7665
  54   2.0000      -7.915740      -215.3982
  55   2.0000      -7.915692      -215.3969
  56   2.0000      -7.911796      -215.2909
  57   2.0000      -7.911742      -215.2895
  58   2.0000      -6.045659      -164.5107
  59   2.0000      -6.045590      -164.5089
  60   2.0000      -6.041468      -164.3967
  61   2.0000      -6.041419      -164.3954
  62   2.0000      -6.038619      -164.3192
  63   2.0000      -6.038545      -164.3172
  64   2.0000      -5.864852      -159.5907
  65   2.0000      -5.864806      -159.5895
  66   2.0000      -5.860946      -159.4845
  67   2.0000      -5.860901      -159.4832
  68   2.0000      -5.860773      -159.4797
  69   2.0000      -5.860718      -159.4782
  70   2.0000      -5.856720      -159.3695
  71   2.0000      -5.856671      -159.3681
  72   2.0000      -5.855162      -159.3271
  73   2.0000      -5.855116      -159.3258
  74   2.0000      -5.851711      -159.2332
  75   2.0000      -5.851656      -159.2317
  76   2.0000      -2.219634       -60.3993
  77   2.0000      -2.219581       -60.3979
  78   2.0000      -2.219168       -60.3866
  79   2.0000      -2.219129       -60.3856
  80   2.0000      -2.215418       -60.2846
  81   2.0000      -2.215370       -60.2833
  82   2.0000      -2.214918       -60.2710
  83   2.0000      -2.214865       -60.2695
  84   2.0000      -2.213799       -60.2405
  85   2.0000      -2.213763       -60.2396
  86   2.0000      -2.210637       -60.1545
  87   2.0000      -2.210580       -60.1530
  88   2.0000      -2.210133       -60.1408
  89   2.0000      -2.210103       -60.1400
  90   2.0000      -2.209996       -60.1370
  91   2.0000      -2.209952       -60.1359
  92   2.0000      -2.206879       -60.0522
  93   2.0000      -2.206809       -60.0503
  94   2.0000      -2.206425       -60.0399
  95   2.0000      -2.206377       -60.0386
  96   2.0000      -1.036582       -28.2068
  97   2.0000      -1.015981       -27.6462
  98   2.0000      -1.002386       -27.2763
  99   2.0000      -0.992920       -27.0187
 100   2.0000      -0.971740       -26.4424
 101   2.0000      -0.965696       -26.2779
 102   2.0000      -0.953962       -25.9586
 103   2.0000      -0.942362       -25.6430
 104   2.0000      -0.940633       -25.5959
 105   2.0000      -0.905016       -24.6267
 106   2.0000      -0.864911       -23.5354
 107   2.0000      -0.863902       -23.5080
 108   2.0000      -0.847823       -23.0704
 109   2.0000      -0.847587       -23.0640
 110   2.0000      -0.826929       -22.5019
 111   2.0000      -0.818565       -22.2743
 112   2.0000      -0.808464       -21.9994
 113   2.0000      -0.802874       -21.8473
 114   2.0000      -0.795026       -21.6338
 115   2.0000      -0.789754       -21.4903
 116   2.0000      -0.766265       -20.8511
 117   2.0000      -0.758348       -20.6357
 118   2.0000      -0.720815       -19.6144
 119   2.0000      -0.701183       -19.0802
 120   2.0000      -0.683336       -18.5945
 121   2.0000      -0.679984       -18.5033
 122   2.0000      -0.667010       -18.1503
 123   2.0000      -0.659213       -17.9381
 124   2.0000      -0.633920       -17.2498
 125   2.0000      -0.627802       -17.0834
 126   2.0000      -0.613025       -16.6813
 127   2.0000      -0.612789       -16.6748
 128   2.0000      -0.607895       -16.5417
 129   2.0000      -0.606975       -16.5166
 130   2.0000      -0.606688       -16.5088
 131   2.0000      -0.601494       -16.3675
 132   2.0000      -0.595873       -16.2145
 133   2.0000      -0.578832       -15.7508
 134   2.0000      -0.552438       -15.0326
 135   2.0000      -0.540526       -14.7085
 136   2.0000      -0.539735       -14.6869
 137   2.0000      -0.522391       -14.2150
 138   2.0000      -0.517736       -14.0883
 139   2.0000      -0.500022       -13.6063
 140   2.0000      -0.499837       -13.6012
 141   2.0000      -0.491620       -13.3777
 142   2.0000      -0.488379       -13.2895
 143   2.0000      -0.488100       -13.2819
 144   2.0000      -0.486131       -13.2283
 145   2.0000      -0.484917       -13.1953
 146   2.0000      -0.476596       -12.9688
 147   2.0000      -0.474029       -12.8990
 148   2.0000      -0.468896       -12.7593
 149   2.0000      -0.467290       -12.7156
 150   2.0000      -0.467066       -12.7095
 151   2.0000      -0.464184       -12.6311
 152   2.0000      -0.458767       -12.4837
 153   2.0000      -0.456335       -12.4175
 154   2.0000      -0.451493       -12.2858
 155   2.0000      -0.451155       -12.2765
 156   2.0000      -0.446185       -12.1413
 157   2.0000      -0.438656       -11.9364
 158   2.0000      -0.435528       -11.8513
 159   2.0000      -0.433336       -11.7917
 160   2.0000      -0.431680       -11.7466
 161   2.0000      -0.423991       -11.5374
 162   2.0000      -0.418935       -11.3998
 163   2.0000      -0.418260       -11.3814
 164   2.0000      -0.407562       -11.0903
 165   2.0000      -0.407417       -11.0864
 166   2.0000      -0.405711       -11.0400
 167   2.0000      -0.389383       -10.5957
 168   2.0000      -0.389303       -10.5935
 169   2.0000      -0.382838       -10.4175
 170   2.0000      -0.360866        -9.8197
 171   2.0000      -0.341942        -9.3047
 172   2.0000      -0.331850        -9.0301
 173   2.0000      -0.315680        -8.5901
 174   2.0000      -0.315035        -8.5726
 175   2.0000      -0.311806        -8.4847
 176   2.0000      -0.304600        -8.2886
 177   2.0000      -0.304091        -8.2747
 178   2.0000      -0.290841        -7.9142
 179   2.0000      -0.256571        -6.9816
 180   2.0000      -0.227340        -6.1862
 181   0.0000      -0.098189        -2.6719
 182   0.0000      -0.050889        -1.3848
 183   0.0000      -0.034225        -0.9313
 184   0.0000       0.010257         0.2791
 185   0.0000       0.024812         0.6752

MULLIKEN ATOMIC CHARGES
-----------------------
   0 C :   -0.104732
   1 C :    0.054423
   2 C :   -0.043093
   3 C :   -0.082422
   4 Se:    0.168941
   5 C :   -0.043315
   6 C :   -0.027044
   7 C :   -0.020504
   8 C :   -0.081235
   9 Se:    0.186772
  10 C :   -0.028201
  11 C :   -0.063623
  12 C :    0.012652
  13 C :   -0.106355
  14 S :    0.177572
  15 C :   -0.103762
  16 C :    0.019423
  17 C :    0.302546
  18 C :   -0.302628
  19 C :   -0.188199
  20 N :    0.170627
  21 C :   -0.184737
  22 N :    0.169516
  23 C :   -0.071493
  24 C :   -0.024901
  25 S :    0.177812
  26 C :   -0.081557
  27 C :   -0.026039
  28 C :   -0.021634
  29 C :   -0.044287
  30 Se:    0.186663
  31 C :   -0.083169
  32 C :   -0.037656
  33 C :    0.048923
  34 C :   -0.103971
  35 Se:    0.168422
  36 H :    0.029156
  37 H :   -0.005934
  38 H :   -0.002521
  39 H :   -0.006884
  40 H :   -0.010976
  41 H :    0.011423
  42 H :    0.012491
  43 H :   -0.010023
  44 H :   -0.007796
  45 H :   -0.003326
  46 H :   -0.004544
  47 H :    0.029201
Sum of atomic charges:   -0.0000000

LOEWDIN ATOMIC CHARGES
----------------------
   0 C :   -0.163605
   1 C :   -0.057643
   2 C :   -0.063798
   3 C :   -0.162199
   4 Se:    0.379054
   5 C :   -0.149541
   6 C :   -0.062407
   7 C :   -0.059677
   8 C :   -0.166586
   9 Se:    0.392092
  10 C :   -0.170625
  11 C :   -0.041603
  12 C :   -0.071460
  13 C :   -0.182007
  14 S :    0.469433
  15 C :   -0.181812
  16 C :   -0.071403
  17 C :    0.085425
  18 C :   -0.104345
  19 C :   -0.015815
  20 N :   -0.035783
  21 C :   -0.015804
  22 N :   -0.035893
  23 C :   -0.042034
  24 C :   -0.170605
  25 S :    0.469478
  26 C :   -0.166515
  27 C :   -0.060100
  28 C :   -0.061979
  29 C :   -0.149559
  30 Se:    0.391982
  31 C :   -0.162163
  32 C :   -0.063344
  33 C :   -0.058119
  34 C :   -0.163595
  35 Se:    0.378894
  36 H :    0.025824
  37 H :    0.031565
  38 H :    0.026251
  39 H :    0.027085
  40 H :    0.025103
  41 H :    0.035871
  42 H :    0.035942
  43 H :    0.025229
  44 H :    0.026969
  45 H :    0.026169
  46 H :    0.031782
  47 H :    0.025872

  Mayer bond orders larger than 0.100000
B(  0-C ,  1-C ) :   1.6137 B(  0-C ,  4-Se) :   1.1380 B(  0-C , 36-H ) :   0.9637
B(  1-C ,  2-C ) :   1.2445 B(  1-C , 37-H ) :   0.9887 B(  2-C ,  3-C ) :   1.5562
B(  2-C , 38-H ) :   0.9873 B(  3-C ,  4-Se) :   1.0943 B(  3-C ,  5-C ) :   1.1447
B(  5-C ,  6-C ) :   1.5412 B(  5-C ,  9-Se) :   1.0814 B(  6-C ,  7-C ) :   1.2539
B(  6-C , 39-H ) :   0.9894 B(  7-C ,  8-C ) :   1.5261 B(  7-C , 40-H ) :   0.9925
B(  8-C ,  9-Se) :   1.0835 B(  8-C , 10-C ) :   1.1655 B( 10-C , 11-C ) :   1.4680
B( 10-C , 14-S ) :   1.0969 B( 11-C , 12-C ) :   1.2887 B( 11-C , 41-H ) :   0.9848
B( 12-C , 13-C ) :   1.4547 B( 12-C , 17-C ) :   0.9950 B( 13-C , 14-S ) :   1.1147
B( 13-C , 15-C ) :   1.1883 B( 15-C , 16-C ) :   1.4501 B( 15-C , 25-S ) :   1.1157
B( 16-C , 17-C ) :   0.9955 B( 16-C , 23-C ) :   1.2896 B( 17-C , 18-C ) :   1.7116
B( 18-C , 19-C ) :   1.1352 B( 18-C , 21-C ) :   1.1314 B( 19-C , 20-N ) :   2.9907
B( 21-C , 22-N ) :   2.9916 B( 23-C , 24-C ) :   1.4689 B( 23-C , 42-H ) :   0.9847
B( 24-C , 25-S ) :   1.0958 B( 24-C , 26-C ) :   1.1643 B( 26-C , 27-C ) :   1.5285
B( 26-C , 30-Se) :   1.0828 B( 27-C , 28-C ) :   1.2536 B( 27-C , 43-H ) :   0.9921
B( 28-C , 29-C ) :   1.5395 B( 28-C , 44-H ) :   0.9900 B( 29-C , 30-Se) :   1.0820
B( 29-C , 31-C ) :   1.1460 B( 31-C , 32-C ) :   1.5548 B( 31-C , 35-Se) :   1.0946
B( 32-C , 33-C ) :   1.2436 B( 32-C , 45-H ) :   0.9880 B( 33-C , 34-C ) :   1.6134
B( 33-C , 46-H ) :   0.9891 B( 34-C , 35-Se) :   1.1376 B( 34-C , 47-H ) :   0.9640

-----------------------------------------------------------------------------
         ABSORPTION SPECTRUM VIA TRANSITION ELECTRIC DIPOLE MOMENTS
-----------------------------------------------------------------------------
State   Energy  Wavelength   fosc         T2         TX        TY        TZ
        (cm-1)    (nm)                  (au**2)     (au)      (au)      (au)
-----------------------------------------------------------------------------
   0   10180.5    982.3   0.135938986   4.39592   0.48389  -1.89970   0.74358
   1   19892.2    502.7   0.000316383   0.00524   0.05516  -0.00461  -0.04660
   2   22921.9    436.3   2.198263548  31.57226  -1.30384   5.08663  -1.99961
   3   26643.8    375.3   0.021267691   0.26278  -0.11824   0.46445  -0.18192
   4   27443.5    364.4   0.042346565   0.50799  -0.36060   0.14408   0.59766
   5   29848.7    335.0   0.054385838   0.59984   0.43953  -0.12487  -0.62535
   6   30343.9    329.6   0.108135181   1.17320   0.25707  -0.98081   0.38097
   7   31518.0    317.3   0.080998698   0.84605  -0.51762   0.16185   0.74291
   8   31924.4    313.2   0.515246959   5.31334   1.35065  -0.37729  -1.82941
   9   33264.0    300.6   0.240666571   2.38186   0.36145  -1.39521   0.55190
  10   34510.4    289.8   0.021904232   0.20896   0.27130  -0.06630  -0.36188
  11   34648.9    288.6   0.003671584   0.03489  -0.04999   0.17055  -0.05743
  12   35332.6    283.0   0.000008165   0.00008  -0.00258  -0.00675   0.00489
  13   35482.2    281.8   0.006147551   0.05704  -0.05637   0.21483  -0.08780
  14   35523.5    281.5   0.000276988   0.00257  -0.02728   0.01127   0.04118
  15   35640.3    280.6   0.002154515   0.01990  -0.11897  -0.01560  -0.07420
  16   36622.8    273.1   0.003987636   0.03585  -0.03754   0.17527  -0.06096
  17   38807.6    257.7   0.011844370   0.10048   0.07610  -0.28652   0.11222
  18   39141.6    255.5   0.015793088   0.13283   0.20318  -0.06513  -0.29548
  19   40159.8    249.0   0.000072511   0.00059   0.00917  -0.02239   0.00298

FINAL SINGLE POINT ENERGY    -11583.728888232758

DIPOLE MOMENT
-------------
                                X             Y             Z
Electronic contribution:     -9.77463       2.94342      13.85969
Nuclear contribution   :      8.66769      -2.61033     -12.29295
                        -----------------------------------------
Total Dipole Moment    :     -1.10694       0.33308       1.56674
                        -----------------------------------------
Magnitude (a.u.)       :      1.94703
Magnitude (Debye)      :      4.94896

Rotational constants in cm-1:     0.008339     0.000478     0.000452
Rotational constants in MHz :   250.006353    14.336283    13.560194

                             ****ORCA TERMINATED NORMALLY****
TOTAL RUN TIME: 0 days 0 hours 2 minutes 59 seconds 802 msec
