                         Program Version 4.2.0 -  RELEASE  -
|  1> # ORCA input file
|  2> # SCF done       -191.603492857381          0.000659245898
|  3> ! CAM-B3LYP def2-SVP def2/J RIJCOSX Grid4 TightSCF
|  4> %maxcore 5000
|  5> %tddft
|  6>     Mode sTDDFT
|  7>     Ethresh 5.0
|  8>     maxcore 5000
|  9> end
| 10>
| 11> %pal
| 12>   nprocs 6
| 13>   end
| 14> * xyz 0 1
| 15>    C        4.69785         7.71738        -2.23424
| 16>    C        4.05392         8.87337        -1.88810
| 17>    F        3.36661         9.55119        -2.82053
| 18>    C        4.08159         9.38790        -0.58389
| 19>    C        4.77651         8.71221         0.38002
| 20>    C        5.45898         7.51547         0.07854
| 21>    C        5.42092         7.00907        -1.25489
| 22>    C        6.10795         5.81776        -1.58300
| 23>    C        6.80773         5.15587        -0.60903
| 24>    C        6.82953         5.65904         0.72639
| 25>    C        6.17784         6.80970         1.06821
| 26>    C        7.62374         4.76125         1.58356
| 27>    O        7.91558         4.89243         2.74471
| 28>    C        7.95119         3.59042         0.70439
| 29>    C        7.63721         3.96111        -0.66721
| 30>    C        8.22094         3.43688        -1.79257
| 31>    C        9.26162         2.49462        -1.71068
| 32>    N       10.14997         1.77894        -1.57534
| 33>    C        7.91622         3.83521        -3.10562
| 34>    N        7.68857         4.11571        -4.19496
| 35>    C        8.31681         2.40422         1.23389
| 36>    C        8.28425         1.15878         0.51877
| 37>    C        9.15796         0.09628         0.47662
| 38>    C       10.48013        -0.03674         1.16429
| 39>    O       10.60612        -0.45007         2.28014
| 40>    O       11.50637         0.34792         0.40988
| 41>    C        8.61533        -0.74227        -0.54704
| 42>    N        7.50160        -0.21799        -1.01016
| 43>    O        7.29945         0.95080        -0.38121
| 44>    C        9.18187        -1.93876        -1.12132
| 45>    C        8.91455        -2.24432        -2.42674
| 46>    C        9.47004        -3.33047        -3.10771
| 47>    C       10.27215        -4.32738        -2.38195
| 48>    C       10.64829        -4.20341        -1.08758
| 49>    S       10.23905        -2.87335        -0.08895
| 50>    C       10.55312        -5.34729        -3.32982
| 51>    C        9.99667        -5.00481        -4.56410
| 52>    C       10.26424        -5.97258        -5.55678
| 53>    C       10.99584        -7.00461        -5.06108
| 54>    S       11.39571        -6.84482        -3.38356
| 55>    C        9.34020        -3.72925        -4.44739
| 56>    C        8.74094        -3.04878        -5.53973
| 57>    C        8.45873        -1.72449        -5.59056
| 58>    C        7.85400        -1.09514        -6.70904
| 59>    C        7.49746         0.24222        -6.88846
| 60>    C        7.66849         1.33447        -5.93296
| 61>    O        8.05074         1.18223        -4.79209
| 62>    O        7.34111         2.52126        -6.43498
| 63>    C        6.96004         0.26707        -8.20791
| 64>    N        6.97959        -0.94225        -8.72695
| 65>    O        7.51897        -1.77858        -7.81400
| 66>    C        6.40650         1.38058        -8.93553
| 67>    C        6.44146         1.53654       -10.27153
| 68>    C        5.51503         2.49738       -10.94806
| 69>    O        4.91850         3.41186       -10.43386
| 70>    C        5.44334         2.02932       -12.34473
| 71>    C        4.62130         2.45474       -13.34965
| 72>    C        4.69250         1.82590       -14.61199
| 73>    C        5.61700         0.75811       -14.81015
| 74>    C        5.67197         0.12624       -16.06822
| 75>    C        4.84237         0.54943       -17.06868
| 76>    C        3.92871         1.59872       -16.89461
| 77>    C        3.86199         2.22330       -15.68073
| 78>    F        4.89164        -0.05345       -18.26983
| 79>    C        6.46243         0.34389       -13.75592
| 80>    C        6.38128         0.97376       -12.54258
| 81>    C        7.12573         0.77119       -11.30574
| 82>    C        8.34318         0.16636       -11.19614
| 83>    C        9.13236         0.18401       -10.02481
| 84>    N        9.84305         0.21581        -9.12476
| 85>    C        8.99607        -0.47663       -12.26955
| 86>    N        9.56409        -1.01082       -13.11113
| 87>    H        4.65654         7.35349        -3.24887
| 88>    H        3.55432        10.30405        -0.37031
| 89>    H        4.81205         9.08855         1.39105
| 90>    H        6.05503         5.44842        -2.59514
| 91>    H        6.21334         7.17823         2.08232
| 92>    H        8.60478         2.36995         2.27724
| 93>    H       11.23455         0.74498        -0.44639
| 94>    H        8.22654        -1.58355        -2.93128
| 95>    H       11.26218        -4.94002        -0.59300
| 96>    H        9.93733        -5.91370        -6.57888
| 97>    H       11.34048        -7.87584        -5.58318
| 98>    H        8.53806        -3.64825        -6.41863
| 99>    H        8.70850        -1.04620        -4.79209
|100>    H        7.46581         3.22410        -5.75572
|101>    H        5.86711         2.11879        -8.35546
|102>    H        3.92085         3.25909       -13.18142
|103>    H        6.36526        -0.68252       -16.23843
|104>    H        3.29925         1.88852       -17.72102
|105>    H        3.16597         3.03325       -15.52260
|106>    H        7.14566        -0.47290       -13.92706
|107> *
|108>
|109>                          ****END OF INPUT****

CARTESIAN COORDINATES (ANGSTROEM)
---------------------------------
  C      4.697850    7.717380   -2.234240
  C      4.053920    8.873370   -1.888100
  F      3.366610    9.551190   -2.820530
  C      4.081590    9.387900   -0.583890
  C      4.776510    8.712210    0.380020
  C      5.458980    7.515470    0.078540
  C      5.420920    7.009070   -1.254890
  C      6.107950    5.817760   -1.583000
  C      6.807730    5.155870   -0.609030
  C      6.829530    5.659040    0.726390
  C      6.177840    6.809700    1.068210
  C      7.623740    4.761250    1.583560
  O      7.915580    4.892430    2.744710
  C      7.951190    3.590420    0.704390
  C      7.637210    3.961110   -0.667210
  C      8.220940    3.436880   -1.792570
  C      9.261620    2.494620   -1.710680
  N     10.149970    1.778940   -1.575340
  C      7.916220    3.835210   -3.105620
  N      7.688570    4.115710   -4.194960
  C      8.316810    2.404220    1.233890
  C      8.284250    1.158780    0.518770
  C      9.157960    0.096280    0.476620
  C     10.480130   -0.036740    1.164290
  O     10.606120   -0.450070    2.280140
  O     11.506370    0.347920    0.409880
  C      8.615330   -0.742270   -0.547040
  N      7.501600   -0.217990   -1.010160
  O      7.299450    0.950800   -0.381210
  C      9.181870   -1.938760   -1.121320
  C      8.914550   -2.244320   -2.426740
  C      9.470040   -3.330470   -3.107710
  C     10.272150   -4.327380   -2.381950
  C     10.648290   -4.203410   -1.087580
  S     10.239050   -2.873350   -0.088950
  C     10.553120   -5.347290   -3.329820
  C      9.996670   -5.004810   -4.564100
  C     10.264240   -5.972580   -5.556780
  C     10.995840   -7.004610   -5.061080
  S     11.395710   -6.844820   -3.383560
  C      9.340200   -3.729250   -4.447390
  C      8.740940   -3.048780   -5.539730
  C      8.458730   -1.724490   -5.590560
  C      7.854000   -1.095140   -6.709040
  C      7.497460    0.242220   -6.888460
  C      7.668490    1.334470   -5.932960
  O      8.050740    1.182230   -4.792090
  O      7.341110    2.521260   -6.434980
  C      6.960040    0.267070   -8.207910
  N      6.979590   -0.942250   -8.726950
  O      7.518970   -1.778580   -7.814000
  C      6.406500    1.380580   -8.935530
  C      6.441460    1.536540  -10.271530
  C      5.515030    2.497380  -10.948060
  O      4.918500    3.411860  -10.433860
  C      5.443340    2.029320  -12.344730
  C      4.621300    2.454740  -13.349650
  C      4.692500    1.825900  -14.611990
  C      5.617000    0.758110  -14.810150
  C      5.671970    0.126240  -16.068220
  C      4.842370    0.549430  -17.068680
  C      3.928710    1.598720  -16.894610
  C      3.861990    2.223300  -15.680730
  F      4.891640   -0.053450  -18.269830
  C      6.462430    0.343890  -13.755920
  C      6.381280    0.973760  -12.542580
  C      7.125730    0.771190  -11.305740
  C      8.343180    0.166360  -11.196140
  C      9.132360    0.184010  -10.024810
  N      9.843050    0.215810   -9.124760
  C      8.996070   -0.476630  -12.269550
  N      9.564090   -1.010820  -13.111130
  H      4.656540    7.353490   -3.248870
  H      3.554320   10.304050   -0.370310
  H      4.812050    9.088550    1.391050
  H      6.055030    5.448420   -2.595140
  H      6.213340    7.178230    2.082320
  H      8.604780    2.369950    2.277240
  H     11.234550    0.744980   -0.446390
  H      8.226540   -1.583550   -2.931280
  H     11.262180   -4.940020   -0.593000
  H      9.937330   -5.913700   -6.578880
  H     11.340480   -7.875840   -5.583180
  H      8.538060   -3.648250   -6.418630
  H      8.708500   -1.046200   -4.792090
  H      7.465810    3.224100   -5.755720
  H      5.867110    2.118790   -8.355460
  H      3.920850    3.259090  -13.181420
  H      6.365260   -0.682520  -16.238430
  H      3.299250    1.888520  -17.721020
  H      3.165970    3.033250  -15.522600
  H      7.145660   -0.472900  -13.927060

 Total Charge           Charge          ....    0
 Multiplicity           Mult            ....    1
 Number of Electrons    NEL             ....  500
 Basis Dimension        Dim             .... 1116

ORBITAL ENERGIES
----------------

  NO   OCC          E(Eh)            E(eV)
   0   2.0000     -88.981854     -2421.3193
   1   2.0000     -88.954191     -2420.5666
   2   2.0000     -24.800481      -674.8554
   3   2.0000     -24.784536      -674.4215
   4   2.0000     -19.338551      -526.2287
   5   2.0000     -19.313542      -525.5482
   6   2.0000     -19.252509      -523.8874
   7   2.0000     -19.245402      -523.6940
   8   2.0000     -19.238781      -523.5138
   9   2.0000     -19.214627      -522.8566
  10   2.0000     -19.206066      -522.6236
  11   2.0000     -19.194332      -522.3043
  12   2.0000     -14.478440      -393.9784
  13   2.0000     -14.456932      -393.3931
  14   2.0000     -14.452025      -393.2596
  15   2.0000     -14.450427      -393.2161
  16   2.0000     -14.412121      -392.1737
  17   2.0000     -14.408028      -392.0624
  18   2.0000     -10.414476      -283.3923
  19   2.0000     -10.400863      -283.0219
  20   2.0000     -10.389950      -282.7249
  21   2.0000     -10.386086      -282.6198
  22   2.0000     -10.374669      -282.3091
  23   2.0000     -10.372343      -282.2458
  24   2.0000     -10.371360      -282.2190
  25   2.0000     -10.368177      -282.1324
  26   2.0000     -10.365679      -282.0645
  27   2.0000     -10.357264      -281.8355
  28   2.0000     -10.356802      -281.8229
  29   2.0000     -10.350290      -281.6457
  30   2.0000     -10.346112      -281.5320
  31   2.0000     -10.342385      -281.4306
  32   2.0000     -10.340241      -281.3723
  33   2.0000     -10.336024      -281.2575
  34   2.0000     -10.331599      -281.1371
  35   2.0000     -10.330161      -281.0980
  36   2.0000     -10.328446      -281.0513
  37   2.0000     -10.326465      -280.9974
  38   2.0000     -10.325176      -280.9623
  39   2.0000     -10.320562      -280.8368
  40   2.0000     -10.319964      -280.8205
  41   2.0000     -10.319657      -280.8121
  42   2.0000     -10.319635      -280.8116
  43   2.0000     -10.316792      -280.7342
  44   2.0000     -10.314026      -280.6589
  45   2.0000     -10.313732      -280.6509
  46   2.0000     -10.312542      -280.6185
  47   2.0000     -10.311271      -280.5840
  48   2.0000     -10.310596      -280.5656
  49   2.0000     -10.310271      -280.5567
  50   2.0000     -10.305395      -280.4241
  51   2.0000     -10.304687      -280.4048
  52   2.0000     -10.304034      -280.3870
  53   2.0000     -10.299883      -280.2741
  54   2.0000     -10.299858      -280.2734
  55   2.0000     -10.299672      -280.2683
  56   2.0000     -10.298969      -280.2492
  57   2.0000     -10.297446      -280.2078
  58   2.0000     -10.296517      -280.1825
  59   2.0000     -10.295790      -280.1627
  60   2.0000     -10.294862      -280.1374
  61   2.0000     -10.293105      -280.0896
  62   2.0000     -10.288824      -279.9731
  63   2.0000     -10.287376      -279.9337
  64   2.0000     -10.287301      -279.9317
  65   2.0000     -10.287264      -279.9307
  66   2.0000     -10.285167      -279.8736
  67   2.0000     -10.280976      -279.7596
  68   2.0000     -10.275433      -279.6087
  69   2.0000     -10.272545      -279.5302
  70   2.0000     -10.272238      -279.5218
  71   2.0000     -10.272035      -279.5163
  72   2.0000      -8.076656      -219.7770
  73   2.0000      -8.049659      -219.0424
  74   2.0000      -6.046138      -164.5238
  75   2.0000      -6.041577      -164.3997
  76   2.0000      -6.038775      -164.3234
  77   2.0000      -6.019144      -163.7892
  78   2.0000      -6.014870      -163.6729
  79   2.0000      -6.011605      -163.5841
  80   2.0000      -1.316454       -35.8225
  81   2.0000      -1.299569       -35.3631
  82   2.0000      -1.277807       -34.7709
  83   2.0000      -1.251192       -34.0467
  84   2.0000      -1.183749       -32.2115
  85   2.0000      -1.177421       -32.0393
  86   2.0000      -1.155147       -31.4331
  87   2.0000      -1.130214       -30.7547
  88   2.0000      -1.101001       -29.9597
  89   2.0000      -1.081168       -29.4201
  90   2.0000      -1.050702       -28.5911
  91   2.0000      -1.030539       -28.0424
  92   2.0000      -1.026088       -27.9213
  93   2.0000      -1.015540       -27.6342
  94   2.0000      -1.011121       -27.5140
  95   2.0000      -1.000864       -27.2349
  96   2.0000      -0.997459       -27.1422
  97   2.0000      -0.994084       -27.0504
  98   2.0000      -0.989959       -26.9381
  99   2.0000      -0.978786       -26.6341
 100   2.0000      -0.968019       -26.3411
 101   2.0000      -0.966869       -26.3098
 102   2.0000      -0.951887       -25.9022
 103   2.0000      -0.945812       -25.7369
 104   2.0000      -0.929848       -25.3024
 105   2.0000      -0.922738       -25.1090
 106   2.0000      -0.918049       -24.9814
 107   2.0000      -0.914542       -24.8860
 108   2.0000      -0.905662       -24.6443
 109   2.0000      -0.895279       -24.3618
 110   2.0000      -0.886013       -24.1096
 111   2.0000      -0.883871       -24.0514
 112   2.0000      -0.879970       -23.9452
 113   2.0000      -0.864548       -23.5255
 114   2.0000      -0.860399       -23.4126
 115   2.0000      -0.853861       -23.2347
 116   2.0000      -0.837442       -22.7879
 117   2.0000      -0.832674       -22.6582
 118   2.0000      -0.822244       -22.3744
 119   2.0000      -0.810704       -22.0604
 120   2.0000      -0.799477       -21.7549
 121   2.0000      -0.789981       -21.4965
 122   2.0000      -0.785647       -21.3785
 123   2.0000      -0.769291       -20.9335
 124   2.0000      -0.760872       -20.7044
 125   2.0000      -0.757114       -20.6021
 126   2.0000      -0.751597       -20.4520
 127   2.0000      -0.738488       -20.0953
 128   2.0000      -0.734940       -19.9987
 129   2.0000      -0.728811       -19.8320
 130   2.0000      -0.727828       -19.8052
 131   2.0000      -0.722000       -19.6466
 132   2.0000      -0.712390       -19.3851
 133   2.0000      -0.709978       -19.3195
 134   2.0000      -0.707165       -19.2429
 135   2.0000      -0.699220       -19.0267
 136   2.0000      -0.685768       -18.6607
 137   2.0000      -0.682191       -18.5634
 138   2.0000      -0.678954       -18.4753
 139   2.0000      -0.673829       -18.3358
 140   2.0000      -0.660720       -17.9791
 141   2.0000      -0.657898       -17.9023
 142   2.0000      -0.653344       -17.7784
 143   2.0000      -0.647840       -17.6286
 144   2.0000      -0.647295       -17.6138
 145   2.0000      -0.640323       -17.4241
 146   2.0000      -0.633047       -17.2261
 147   2.0000      -0.627323       -17.0703
 148   2.0000      -0.624792       -17.0014
 149   2.0000      -0.620995       -16.8981
 150   2.0000      -0.614932       -16.7331
 151   2.0000      -0.607429       -16.5290
 152   2.0000      -0.605335       -16.4720
 153   2.0000      -0.599346       -16.3090
 154   2.0000      -0.594781       -16.1848
 155   2.0000      -0.587132       -15.9767
 156   2.0000      -0.584775       -15.9125
 157   2.0000      -0.582702       -15.8561
 158   2.0000      -0.579499       -15.7690
 159   2.0000      -0.574144       -15.6233
 160   2.0000      -0.573320       -15.6008
 161   2.0000      -0.568288       -15.4639
 162   2.0000      -0.567002       -15.4289
 163   2.0000      -0.563678       -15.3384
 164   2.0000      -0.560443       -15.2504
 165   2.0000      -0.558497       -15.1975
 166   2.0000      -0.557120       -15.1600
 167   2.0000      -0.556558       -15.1447
 168   2.0000      -0.552627       -15.0377
 169   2.0000      -0.548587       -14.9278
 170   2.0000      -0.546270       -14.8648
 171   2.0000      -0.545680       -14.8487
 172   2.0000      -0.541393       -14.7320
 173   2.0000      -0.541030       -14.7222
 174   2.0000      -0.536501       -14.5989
 175   2.0000      -0.534968       -14.5572
 176   2.0000      -0.531464       -14.4619
 177   2.0000      -0.531037       -14.4503
 178   2.0000      -0.529102       -14.3976
 179   2.0000      -0.525485       -14.2992
 180   2.0000      -0.522381       -14.2147
 181   2.0000      -0.521876       -14.2010
 182   2.0000      -0.520031       -14.1508
 183   2.0000      -0.516615       -14.0578
 184   2.0000      -0.514765       -14.0075
 185   2.0000      -0.510428       -13.8895
 186   2.0000      -0.508823       -13.8458
 187   2.0000      -0.507227       -13.8024
 188   2.0000      -0.504032       -13.7154
 189   2.0000      -0.502660       -13.6781
 190   2.0000      -0.500813       -13.6278
 191   2.0000      -0.499802       -13.6003
 192   2.0000      -0.493026       -13.4159
 193   2.0000      -0.490535       -13.3481
 194   2.0000      -0.488244       -13.2858
 195   2.0000      -0.487284       -13.2597
 196   2.0000      -0.481652       -13.1064
 197   2.0000      -0.480343       -13.0708
 198   2.0000      -0.477759       -13.0005
 199   2.0000      -0.475469       -12.9382
 200   2.0000      -0.469633       -12.7794
 201   2.0000      -0.466949       -12.7063
 202   2.0000      -0.465058       -12.6549
 203   2.0000      -0.463494       -12.6123
 204   2.0000      -0.460870       -12.5409
 205   2.0000      -0.455805       -12.4031
 206   2.0000      -0.454896       -12.3783
 207   2.0000      -0.451952       -12.2982
 208   2.0000      -0.447884       -12.1875
 209   2.0000      -0.446977       -12.1629
 210   2.0000      -0.445691       -12.1279
 211   2.0000      -0.445390       -12.1197
 212   2.0000      -0.439559       -11.9610
 213   2.0000      -0.438256       -11.9255
 214   2.0000      -0.435166       -11.8415
 215   2.0000      -0.434648       -11.8274
 216   2.0000      -0.430873       -11.7246
 217   2.0000      -0.426268       -11.5993
 218   2.0000      -0.425079       -11.5670
 219   2.0000      -0.423768       -11.5313
 220   2.0000      -0.421425       -11.4676
 221   2.0000      -0.420850       -11.4519
 222   2.0000      -0.417325       -11.3560
 223   2.0000      -0.413178       -11.2431
 224   2.0000      -0.411995       -11.2109
 225   2.0000      -0.400425       -10.8961
 226   2.0000      -0.398891       -10.8544
 227   2.0000      -0.398334       -10.8392
 228   2.0000      -0.390353       -10.6221
 229   2.0000      -0.388929       -10.5833
 230   2.0000      -0.384967       -10.4755
 231   2.0000      -0.382553       -10.4098
 232   2.0000      -0.380694       -10.3592
 233   2.0000      -0.378270       -10.2933
 234   2.0000      -0.368503       -10.0275
 235   2.0000      -0.367718       -10.0061
 236   2.0000      -0.358860        -9.7651
 237   2.0000      -0.353780        -9.6268
 238   2.0000      -0.346367        -9.4251
 239   2.0000      -0.338263        -9.2046
 240   2.0000      -0.336375        -9.1532
 241   2.0000      -0.334058        -9.0902
 242   2.0000      -0.332605        -9.0506
 243   2.0000      -0.325218        -8.8496
 244   2.0000      -0.316797        -8.6205
 245   2.0000      -0.311190        -8.4679
 246   2.0000      -0.306359        -8.3364
 247   2.0000      -0.293829        -7.9955
 248   2.0000      -0.279477        -7.6050
 249   2.0000      -0.238250        -6.4831
 250   0.0000      -0.116935        -3.1820
 251   0.0000      -0.084741        -2.3059
 252   0.0000      -0.077552        -2.1103
 253   0.0000      -0.066441        -1.8080
 254   0.0000      -0.050377        -1.3708

MULLIKEN ATOMIC CHARGES
-----------------------
   0 C :   -0.095292
   1 C :    0.306647
   2 F :   -0.182594
   3 C :   -0.025571
   4 C :   -0.005189
   5 C :    0.098318
   6 C :    0.101709
   7 C :   -0.079167
   8 C :    0.047585
   9 C :   -0.000395
  10 C :   -0.068542
  11 C :    0.144412
  12 O :   -0.116715
  13 C :   -0.106073
  14 C :    0.281425
  15 C :   -0.333135
  16 C :   -0.095881
  17 N :    0.108849
  18 C :   -0.052675
  19 N :    0.094889
  20 C :    0.035869
  21 C :    0.086367
  22 C :   -0.103429
  23 C :    0.166378
  24 O :   -0.165847
  25 O :   -0.161639
  26 C :    0.047259
  27 N :    0.022566
  28 O :   -0.169010
  29 C :   -0.125093
  30 C :   -0.048056
  31 C :    0.059223
  32 C :    0.058603
  33 C :   -0.114860
  34 S :    0.166555
  35 C :   -0.107169
  36 C :    0.055469
  37 C :    0.009710
  38 C :   -0.067025
  39 S :    0.129444
  40 C :    0.079051
  41 C :    0.009178
  42 C :   -0.063185
  43 C :    0.171127
  44 C :   -0.027774
  45 C :    0.140420
  46 O :   -0.225152
  47 O :   -0.185653
  48 C :   -0.056163
  49 N :    0.008038
  50 O :   -0.170494
  51 C :    0.065194
  52 C :   -0.095577
  53 C :    0.133672
  54 O :   -0.134674
  55 C :    0.002461
  56 C :   -0.079706
  57 C :    0.102541
  58 C :    0.103692
  59 C :   -0.099648
  60 C :    0.304615
  61 C :   -0.028915
  62 C :   -0.011057
  63 F :   -0.189863
  64 C :   -0.084868
  65 C :    0.045094
  66 C :    0.281037
  67 C :   -0.296942
  68 C :   -0.182571
  69 N :    0.165740
  70 C :   -0.190216
  71 N :    0.156626
  72 H :    0.001779
  73 H :    0.010401
  74 H :   -0.002946
  75 H :   -0.000768
  76 H :   -0.003261
  77 H :    0.057879
  78 H :    0.190227
  79 H :    0.019301
  80 H :    0.042635
  81 H :   -0.012289
  82 H :    0.028133
  83 H :   -0.000468
  84 H :    0.022904
  85 H :    0.187810
  86 H :    0.032888
  87 H :   -0.011003
  88 H :   -0.001131
  89 H :    0.003578
  90 H :   -0.008549
  91 H :   -0.001068
Sum of atomic charges:   -0.0000000

LOEWDIN ATOMIC CHARGES
----------------------
   0 C :   -0.039918
   1 C :    0.097378
   2 F :   -0.057425
   3 C :   -0.029188
   4 C :    0.007914
   5 C :   -0.014985
   6 C :    0.005294
   7 C :    0.017334
   8 C :   -0.020427
   9 C :   -0.061569
  10 C :    0.042815
  11 C :    0.085176
  12 O :   -0.119434
  13 C :   -0.055807
  14 C :    0.086343
  15 C :   -0.125552
  16 C :    0.039753
  17 N :   -0.045198
  18 C :    0.041911
  19 N :   -0.044291
  20 C :    0.055871
  21 C :    0.022536
  22 C :   -0.098092
  23 C :    0.052708
  24 O :   -0.142207
  25 O :   -0.024315
  26 C :   -0.038126
  27 N :   -0.017746
  28 O :    0.037410
  29 C :   -0.195072
  30 C :    0.010119
  31 C :   -0.013576
  32 C :   -0.044054
  33 C :   -0.136873
  34 S :    0.491856
  35 C :   -0.204818
  36 C :   -0.036085
  37 C :   -0.061979
  38 C :   -0.161430
  39 S :    0.421352
  40 C :   -0.052862
  41 C :    0.029320
  42 C :   -0.060606
  43 C :    0.090027
  44 C :   -0.133010
  45 C :    0.087431
  46 O :   -0.208394
  47 O :   -0.034219
  48 C :   -0.030802
  49 N :   -0.035435
  50 O :    0.039076
  51 C :    0.068555
  52 C :   -0.059598
  53 C :    0.085339
  54 O :   -0.135024
  55 C :   -0.060999
  56 C :    0.035285
  57 C :   -0.018405
  58 C :    0.004702
  59 C :   -0.041836
  60 C :    0.093429
  61 C :   -0.037037
  62 C :    0.004780
  63 F :   -0.064308
  64 C :    0.013094
  65 C :   -0.014376
  66 C :    0.072973
  67 C :   -0.113876
  68 C :   -0.017834
  69 N :   -0.046247
  70 C :   -0.015984
  71 N :   -0.048845
  72 H :    0.044726
  73 H :    0.045003
  74 H :    0.038397
  75 H :    0.039861
  76 H :    0.043346
  77 H :    0.063560
  78 H :    0.068409
  79 H :    0.047391
  80 H :    0.039304
  81 H :    0.032667
  82 H :    0.024252
  83 H :    0.035478
  84 H :    0.038755
  85 H :    0.065656
  86 H :    0.050220
  87 H :    0.039643
  88 H :    0.043616
  89 H :    0.041922
  90 H :    0.035717
  91 H :    0.040164

  Mayer bond orders larger than 0.100000
B(  0-C ,  1-C ) :   1.4402 B(  0-C ,  6-C ) :   1.2019 B(  0-C , 72-H ) :   1.0064
B(  1-C ,  2-F ) :   1.0970 B(  1-C ,  3-C ) :   1.2521 B(  3-C ,  4-C ) :   1.4627
B(  3-C , 73-H ) :   0.9931 B(  4-C ,  5-C ) :   1.2329 B(  4-C , 74-H ) :   0.9979
B(  5-C ,  6-C ) :   1.2498 B(  5-C , 10-C ) :   1.1991 B(  6-C ,  7-C ) :   1.2114
B(  7-C ,  8-C ) :   1.4504 B(  7-C , 75-H ) :   0.9942 B(  8-C ,  9-C ) :   1.2107
B(  8-C , 14-C ) :   1.0183 B(  9-C , 10-C ) :   1.4669 B(  9-C , 11-C ) :   0.9218
B( 10-C , 76-H ) :   1.0157 B( 11-C , 12-O ) :   2.3042 B( 11-C , 13-C ) :   0.9126
B( 13-C , 14-C ) :   1.0204 B( 13-C , 20-C ) :   1.7214 B( 14-C , 15-C ) :   1.6399
B( 15-C , 16-C ) :   1.1898 B( 15-C , 18-C ) :   1.1559 B( 16-C , 17-N ) :   2.8846
B( 17-N , 78-H ) :   0.1196 B( 18-C , 19-N ) :   2.8378 B( 19-N , 85-H ) :   0.1297
B( 20-C , 21-C ) :   1.0504 B( 20-C , 77-H ) :   0.9524 B( 21-C , 22-C ) :   1.5528
B( 21-C , 28-O ) :   1.1402 B( 22-C , 23-C ) :   0.8601 B( 22-C , 26-C ) :   1.2190
B( 23-C , 24-O ) :   2.1905 B( 23-C , 25-O ) :   1.2836 B( 25-O , 78-H ) :   0.9068
B( 26-C , 27-N ) :   1.6801 B( 26-C , 29-C ) :   1.0313 B( 27-N , 28-O ) :   1.0122
B( 29-C , 30-C ) :   1.5646 B( 29-C , 34-S ) :   1.0792 B( 30-C , 31-C ) :   1.1928
B( 30-C , 79-H ) :   0.9686 B( 31-C , 32-C ) :   1.0577 B( 31-C , 40-C ) :   1.4003
B( 32-C , 33-C ) :   1.5855 B( 32-C , 35-C ) :   1.1886 B( 33-C , 34-S ) :   1.1557
B( 33-C , 80-H ) :   0.9415 B( 35-C , 36-C ) :   1.4368 B( 35-C , 39-S ) :   1.0723
B( 36-C , 37-C ) :   1.2218 B( 36-C , 40-C ) :   1.1016 B( 37-C , 38-C ) :   1.5867
B( 37-C , 81-H ) :   0.9981 B( 38-C , 39-S ) :   1.1555 B( 38-C , 82-H ) :   0.9658
B( 40-C , 41-C ) :   1.1288 B( 41-C , 42-C ) :   1.5938 B( 41-C , 83-H ) :   0.9736
B( 42-C , 43-C ) :   1.1820 B( 42-C , 84-H ) :   0.9420 B( 43-C , 44-C ) :   1.3889
B( 43-C , 50-O ) :   1.1846 B( 44-C , 45-C ) :   0.9537 B( 44-C , 48-C ) :   1.1765
B( 45-C , 46-O ) :   2.0611 B( 45-C , 47-O ) :   1.3023 B( 47-O , 85-H ) :   0.8970
B( 48-C , 49-N ) :   1.6463 B( 48-C , 51-C ) :   1.0131 B( 49-N , 50-O ) :   1.0013
B( 51-C , 52-C ) :   1.7711 B( 51-C , 86-H ) :   0.9380 B( 52-C , 53-C ) :   0.9194
B( 52-C , 66-C ) :   0.9945 B( 53-C , 54-O ) :   2.2880 B( 53-C , 55-C ) :   0.9190
B( 55-C , 56-C ) :   1.4631 B( 55-C , 65-C ) :   1.2141 B( 56-C , 57-C ) :   1.1997
B( 56-C , 87-H ) :   1.0159 B( 57-C , 58-C ) :   1.2514 B( 57-C , 62-C ) :   1.2309
B( 58-C , 59-C ) :   1.1987 B( 58-C , 64-C ) :   1.2089 B( 59-C , 60-C ) :   1.4440
B( 59-C , 88-H ) :   1.0077 B( 60-C , 61-C ) :   1.2496 B( 60-C , 63-F ) :   1.0892
B( 61-C , 62-C ) :   1.4640 B( 61-C , 89-H ) :   0.9930 B( 62-C , 90-H ) :   0.9980
B( 64-C , 65-C ) :   1.4553 B( 64-C , 91-H ) :   0.9954 B( 65-C , 66-C ) :   1.0049
B( 66-C , 67-C ) :   1.7121 B( 67-C , 68-C ) :   1.1493 B( 67-C , 70-C ) :   1.1352
B( 68-C , 69-N ) :   3.0055 B( 70-C , 71-N ) :   2.9903

-----------------------------------------------------------------------------
         ABSORPTION SPECTRUM VIA TRANSITION ELECTRIC DIPOLE MOMENTS
-----------------------------------------------------------------------------
State   Energy  Wavelength   fosc         T2         TX        TY        TZ
        (cm-1)    (nm)                  (au**2)     (au)      (au)      (au)
-----------------------------------------------------------------------------
   0   12672.6    789.1   0.000733357   0.01905   0.09262   0.10203   0.00799
   1   20016.6    499.6   0.038634617   0.63542  -0.22131  -0.17331  -0.74593
   2   20434.9    489.4   0.396735139   6.39150  -0.28655  -0.17746  -2.50557
   3   22970.0    435.4   0.000251356   0.00360   0.05425  -0.01306  -0.02210
   4   23294.5    429.3   0.003253628   0.04598   0.14878   0.06601  -0.13961
   5   24761.1    403.9   0.116600629   1.55027   0.24709  -0.00099   1.22033
   6   25501.2    392.1   0.007182468   0.09272  -0.29193   0.08544   0.01410
   7   27409.1    364.8   0.534906880   6.42479  -0.90124   2.27032  -0.67690
   8   27794.8    359.8   0.027657186   0.32758   0.54459   0.13721   0.11032
   9   28103.8    355.8   0.095369115   1.11717   0.25658   0.32536  -0.97235
  10   28443.0    351.6   0.418098599   4.83925   0.95715  -1.22869   1.55352
  11   28748.5    347.8   0.054915680   0.62886  -0.67384   0.29355  -0.29772
  12   29073.0    344.0   0.034896039   0.39515  -0.38512   0.49328  -0.05923
  13   29168.0    342.8   0.057536779   0.64940  -0.45373   0.40076   0.53190
  14   29295.7    341.3   0.006879172   0.07730  -0.20644   0.18468  -0.02408
  15   30294.8    330.1   0.023344858   0.25369   0.41376   0.15446   0.24215
  16   30424.7    328.7   0.007355741   0.07959   0.07924  -0.21935   0.15874
  17   30945.9    323.1   0.195917946   2.08423   0.54853  -0.95573   0.93270
  18   31135.0    321.2   0.074517442   0.78792   0.51197  -0.72048   0.08196
  19   31484.2    317.6   0.011950203   0.12496  -0.13431   0.30710   0.11229
  20   32353.0    309.1   0.099970827   1.01727  -0.77260   0.35808   0.54049
  21   32392.1    308.7   0.023762935   0.24151   0.28738   0.09823  -0.38636
  22   32896.8    304.0   0.298245295   2.98466  -0.87422   1.44183   0.37617
  23   33026.3    302.8   0.023374330   0.23300  -0.13825   0.18025  -0.42591
  24   33172.2    301.5   0.000281129   0.00279   0.01596  -0.04080  -0.02951
  25   33495.3    298.5   0.028981783   0.28485   0.18209  -0.48994  -0.10795
  26   33931.7    294.7   0.678327657   6.58126  -1.23525   2.14710   0.66737
  27   34167.9    292.7   0.047975875   0.46225  -0.62393   0.20431  -0.17668
  28   34562.5    289.3   0.798396251   7.60482  -1.39438   1.22944  -2.03691
  29   35220.4    283.9   0.479855606   4.48530  -1.17865   0.89785  -1.51326
  30   35496.9    281.7   0.028446968   0.26383   0.04781   0.19835   0.47138
  31   35641.0    280.6   0.082047327   0.75786   0.18179   0.44038   0.72862
  32   35763.0    279.6   0.284572527   2.61960  -0.95193  -0.02731  -1.30869
  33   36489.4    274.1   0.280838186   2.53376   0.55073  -1.48533   0.15576
  34   37355.1    267.7   0.009090247   0.08011   0.20206  -0.19513  -0.03476
  35   37530.4    266.5   0.003793775   0.03328  -0.01579   0.06575   0.16943
  36   37568.7    266.2   0.026921407   0.23591  -0.05927   0.20061   0.43835
  37   37683.1    265.4   0.090968038   0.79473  -0.56978   0.68358  -0.05283
  38   37749.3    264.9   0.085528980   0.74590  -0.02727  -0.51299  -0.69426
  39   37882.1    264.0   0.005219844   0.04536   0.15894   0.10567  -0.09452
  40   38292.9    261.1   0.477527393   4.10540  -0.47711   1.52477   1.24613
  41   38813.7    257.6   0.183724659   1.55833  -0.20140   0.77285   0.95941
  42   38923.8    256.9   0.137717096   1.16479   0.67145  -0.84494  -0.00498
  43   39035.9    256.2   0.004880514   0.04116  -0.09534   0.15353  -0.09219
  44   39191.3    255.2   0.055425249   0.46558  -0.14003   0.10941  -0.65879
  45   39711.5    251.8   0.131893693   1.09341  -0.31980   0.33090   0.93896
  46   39825.4    251.1   0.036932278   0.30530  -0.24454   0.28125   0.40792
  47   40276.1    248.3   0.000774807   0.00633  -0.00923   0.04322   0.06618

FINAL SINGLE POINT ENERGY     -3991.850213937033

DIPOLE MOMENT
-------------
                                X             Y             Z
Electronic contribution:      3.23075      -0.75481       3.55453
Nuclear contribution   :     -5.79960       2.97005      -2.51389
                        -----------------------------------------
Total Dipole Moment    :     -2.56884       2.21525       1.04064
                        -----------------------------------------
Magnitude (a.u.)       :      3.54813
Magnitude (Debye)      :      9.01862

Rotational constants in cm-1:     0.000920     0.000511     0.000338
Rotational constants in MHz :    27.590421    15.317824    10.118496

                             ****ORCA TERMINATED NORMALLY****
TOTAL RUN TIME: 0 days 0 hours 10 minutes 1 seconds 565 msec
