                         Program Version 4.2.0 -  RELEASE  -
|  1> # ORCA input file
|  2> # SCF done       -169.862484034910          0.000264796365
|  3> ! CAM-B3LYP def2-SVP def2/J RIJCOSX Grid4 TightSCF
|  4> %maxcore 5000
|  5> %tddft
|  6>     Mode sTDDFT
|  7>     Ethresh 5.0
|  8>     maxcore 5000
|  9> end
| 10>
| 11> %pal
| 12>   nprocs 6
| 13>   end
| 14> * xyz 0 1
| 15>    C       -3.60034         0.76293         0.15545
| 16>    C       -2.50386         0.05039         0.54615
| 17>    C       -2.12955        -1.18223        -0.03207
| 18>    N       -1.74779        -2.14357        -0.52857
| 19>    C       -1.55812         0.52083         1.48205
| 20>    N       -0.76402         0.86661         2.23424
| 21>    C       -3.88960         2.15144         0.50019
| 22>    C       -4.77390         2.68618        -0.45848
| 23>    C       -5.17699         4.00767        -0.39369
| 24>    C       -4.69556         4.79336         0.64046
| 25>    C       -3.83157         4.27684         1.60598
| 26>    C       -3.42588         2.94474         1.53405
| 27>    C       -3.35384         5.13642         2.73143
| 28>    C       -5.15025         1.64543        -1.42671
| 29>    O       -5.83731         1.74159        -2.41527
| 30>    C       -4.54241         0.38734        -0.88548
| 31>    C       -5.00714        -0.81564        -1.28710
| 32>    C       -4.81448        -2.06102        -0.62471
| 33>    S       -5.02933        -3.59868        -1.44091
| 34>    C       -4.66379        -4.32735         0.12009
| 35>    N       -4.45330        -3.43346         1.04649
| 36>    N       -4.52834        -2.20458         0.64014
| 37>    C       -4.61561        -5.73707         0.28939
| 38>    C       -4.38732        -6.30589         1.49816
| 39>    C       -4.33176        -7.68113         1.84663
| 40>    N       -4.35865        -8.80106         1.04147
| 41>    C       -4.29711        -8.88733        -0.39833
| 42>    C       -2.93244        -8.47080        -0.94009
| 43>    C       -4.32819        -9.98734         1.80050
| 44>    O       -4.34356       -11.09739         1.30428
| 45>    C       -4.28977        -9.54433         3.17395
| 46>    C       -4.28129        -8.13020         3.16427
| 47>    C       -4.25182        -7.66942         4.53804
| 48>    O       -4.23567        -6.56409         5.02939
| 49>    N       -4.23363        -8.86179         5.29546
| 50>    C       -4.24570        -8.82942         6.73808
| 51>    C       -5.64485        -9.06915         7.29993
| 52>    C       -4.26779        -9.97957         4.49982
| 53>    C       -4.28430       -11.30688         4.99924
| 54>    C       -4.34706       -12.38835         4.18319
| 55>    C       -4.39854       -13.71409         4.68815
| 56>    S       -4.50383       -15.11236         3.63076
| 57>    C       -4.54139       -16.06296         5.10780
| 58>    N       -4.47058       -15.32048         6.18089
| 59>    N       -4.39384       -14.04549         5.95447
| 60>    C       -4.66422       -17.48039         5.08635
| 61>    C       -4.71573       -18.21682         6.21941
| 62>    C       -4.84669       -19.63355         6.28996
| 63>    C       -5.49887       -20.46746         5.43386
| 64>    C       -5.55511       -21.91691         5.56616
| 65>    C       -4.66533       -22.69992         6.24900
| 66>    C       -3.53043       -22.22002         6.93902
| 67>    N       -2.57876       -21.90918         7.50055
| 68>    C       -4.74105       -24.10788         6.31518
| 69>    N       -4.75267       -25.25166         6.40886
| 70>    C       -6.66956       -22.39508         4.75612
| 71>    C       -7.22042       -21.30493         4.06009
| 72>    C       -6.48923       -20.07026         4.38848
| 73>    O       -6.69350       -18.97059         3.92443
| 74>    C       -8.29237       -21.47079         3.20262
| 75>    C       -8.81434       -22.74322         3.04151
| 76>    C       -8.28541       -23.83707         3.72670
| 77>    C       -7.20624       -23.66096         4.59093
| 78>    C       -8.88832       -25.19398         3.55250
| 79>    H       -5.84857         4.40598        -1.13851
| 80>    H       -4.99515         5.82908         0.70577
| 81>    H       -2.76556         2.54663         2.28835
| 82>    H       -3.34717         6.18568         2.44746
| 83>    H       -2.35510         4.84297         3.04489
| 84>    H       -4.01970         5.02242         3.58755
| 85>    H       -5.65215        -0.82482        -2.15829
| 86>    H       -4.78559        -6.31151        -0.60620
| 87>    H       -4.25873        -5.64135         2.34357
| 88>    H       -5.10419        -8.30026        -0.84392
| 89>    H       -4.47486        -9.94187        -0.63227
| 90>    H       -2.68919        -7.44861        -0.66030
| 91>    H       -2.92874        -8.54849        -2.02385
| 92>    H       -2.16235        -9.12780        -0.54332
| 93>    H       -3.90419        -7.82932         7.01960
| 94>    H       -3.53909        -9.56783         7.12597
| 95>    H       -6.32736        -8.30600         6.93396
| 96>    H       -5.61755        -9.01921         8.38473
| 97>    H       -6.02286       -10.04512         7.00403
| 98>    H       -4.25433       -11.46551         6.06708
| 99>    H       -4.37337       -12.27003         3.10866
|100>    H       -4.70279       -17.94108         4.11251
|101>    H       -4.58593       -17.69907         7.16111
|102>    H       -4.41100       -20.07758         7.17843
|103>    H       -8.69929       -20.62177         2.67530
|104>    H       -9.64814       -22.89772         2.37240
|105>    H       -6.80864       -24.51115         5.12169
|106>    H       -9.22911       -25.33914         2.53001
|107>    H       -9.75157       -25.29963         4.21046
|108>    H       -8.17415       -25.97304         3.80581
|109> *
|110>
|111>                          ****END OF INPUT****

CARTESIAN COORDINATES (ANGSTROEM)
---------------------------------
  C     -3.600340    0.762930    0.155450
  C     -2.503860    0.050390    0.546150
  C     -2.129550   -1.182230   -0.032070
  N     -1.747790   -2.143570   -0.528570
  C     -1.558120    0.520830    1.482050
  N     -0.764020    0.866610    2.234240
  C     -3.889600    2.151440    0.500190
  C     -4.773900    2.686180   -0.458480
  C     -5.176990    4.007670   -0.393690
  C     -4.695560    4.793360    0.640460
  C     -3.831570    4.276840    1.605980
  C     -3.425880    2.944740    1.534050
  C     -3.353840    5.136420    2.731430
  C     -5.150250    1.645430   -1.426710
  O     -5.837310    1.741590   -2.415270
  C     -4.542410    0.387340   -0.885480
  C     -5.007140   -0.815640   -1.287100
  C     -4.814480   -2.061020   -0.624710
  S     -5.029330   -3.598680   -1.440910
  C     -4.663790   -4.327350    0.120090
  N     -4.453300   -3.433460    1.046490
  N     -4.528340   -2.204580    0.640140
  C     -4.615610   -5.737070    0.289390
  C     -4.387320   -6.305890    1.498160
  C     -4.331760   -7.681130    1.846630
  N     -4.358650   -8.801060    1.041470
  C     -4.297110   -8.887330   -0.398330
  C     -2.932440   -8.470800   -0.940090
  C     -4.328190   -9.987340    1.800500
  O     -4.343560  -11.097390    1.304280
  C     -4.289770   -9.544330    3.173950
  C     -4.281290   -8.130200    3.164270
  C     -4.251820   -7.669420    4.538040
  O     -4.235670   -6.564090    5.029390
  N     -4.233630   -8.861790    5.295460
  C     -4.245700   -8.829420    6.738080
  C     -5.644850   -9.069150    7.299930
  C     -4.267790   -9.979570    4.499820
  C     -4.284300  -11.306880    4.999240
  C     -4.347060  -12.388350    4.183190
  C     -4.398540  -13.714090    4.688150
  S     -4.503830  -15.112360    3.630760
  C     -4.541390  -16.062960    5.107800
  N     -4.470580  -15.320480    6.180890
  N     -4.393840  -14.045490    5.954470
  C     -4.664220  -17.480390    5.086350
  C     -4.715730  -18.216820    6.219410
  C     -4.846690  -19.633550    6.289960
  C     -5.498870  -20.467460    5.433860
  C     -5.555110  -21.916910    5.566160
  C     -4.665330  -22.699920    6.249000
  C     -3.530430  -22.220020    6.939020
  N     -2.578760  -21.909180    7.500550
  C     -4.741050  -24.107880    6.315180
  N     -4.752670  -25.251660    6.408860
  C     -6.669560  -22.395080    4.756120
  C     -7.220420  -21.304930    4.060090
  C     -6.489230  -20.070260    4.388480
  O     -6.693500  -18.970590    3.924430
  C     -8.292370  -21.470790    3.202620
  C     -8.814340  -22.743220    3.041510
  C     -8.285410  -23.837070    3.726700
  C     -7.206240  -23.660960    4.590930
  C     -8.888320  -25.193980    3.552500
  H     -5.848570    4.405980   -1.138510
  H     -4.995150    5.829080    0.705770
  H     -2.765560    2.546630    2.288350
  H     -3.347170    6.185680    2.447460
  H     -2.355100    4.842970    3.044890
  H     -4.019700    5.022420    3.587550
  H     -5.652150   -0.824820   -2.158290
  H     -4.785590   -6.311510   -0.606200
  H     -4.258730   -5.641350    2.343570
  H     -5.104190   -8.300260   -0.843920
  H     -4.474860   -9.941870   -0.632270
  H     -2.689190   -7.448610   -0.660300
  H     -2.928740   -8.548490   -2.023850
  H     -2.162350   -9.127800   -0.543320
  H     -3.904190   -7.829320    7.019600
  H     -3.539090   -9.567830    7.125970
  H     -6.327360   -8.306000    6.933960
  H     -5.617550   -9.019210    8.384730
  H     -6.022860  -10.045120    7.004030
  H     -4.254330  -11.465510    6.067080
  H     -4.373370  -12.270030    3.108660
  H     -4.702790  -17.941080    4.112510
  H     -4.585930  -17.699070    7.161110
  H     -4.411000  -20.077580    7.178430
  H     -8.699290  -20.621770    2.675300
  H     -9.648140  -22.897720    2.372400
  H     -6.808640  -24.511150    5.121690
  H     -9.229110  -25.339140    2.530010
  H     -9.751570  -25.299630    4.210460
  H     -8.174150  -25.973040    3.805810

 Total Charge           Charge          ....    0
 Multiplicity           Mult            ....    1
 Number of Electrons    NEL             ....  452
 Basis Dimension        Dim             .... 1054

ORBITAL ENERGIES
----------------

  NO   OCC          E(Eh)            E(eV)
   0   2.0000     -88.982097     -2421.3260
   1   2.0000     -88.981505     -2421.3098
   2   2.0000     -19.222754      -523.0777
   3   2.0000     -19.219834      -522.9983
   4   2.0000     -19.197123      -522.3803
   5   2.0000     -19.196533      -522.3642
   6   2.0000     -14.458858      -393.4455
   7   2.0000     -14.458325      -393.4310
   8   2.0000     -14.450266      -393.2117
   9   2.0000     -14.448160      -393.1544
  10   2.0000     -14.447954      -393.1488
  11   2.0000     -14.443241      -393.0206
  12   2.0000     -14.419112      -392.3640
  13   2.0000     -14.418705      -392.3529
  14   2.0000     -14.415503      -392.2658
  15   2.0000     -14.413007      -392.1979
  16   2.0000     -10.380440      -282.4661
  17   2.0000     -10.379144      -282.4309
  18   2.0000     -10.374410      -282.3021
  19   2.0000     -10.370638      -282.1994
  20   2.0000     -10.351433      -281.6768
  21   2.0000     -10.350333      -281.6469
  22   2.0000     -10.350298      -281.6459
  23   2.0000     -10.349816      -281.6328
  24   2.0000     -10.348999      -281.6106
  25   2.0000     -10.348564      -281.5987
  26   2.0000     -10.345804      -281.5236
  27   2.0000     -10.344403      -281.4855
  28   2.0000     -10.341916      -281.4178
  29   2.0000     -10.340333      -281.3748
  30   2.0000     -10.323369      -280.9132
  31   2.0000     -10.321547      -280.8636
  32   2.0000     -10.320940      -280.8471
  33   2.0000     -10.320319      -280.8302
  34   2.0000     -10.317181      -280.7448
  35   2.0000     -10.315445      -280.6975
  36   2.0000     -10.311107      -280.5795
  37   2.0000     -10.310429      -280.5610
  38   2.0000     -10.309179      -280.5270
  39   2.0000     -10.308597      -280.5112
  40   2.0000     -10.308570      -280.5104
  41   2.0000     -10.307741      -280.4879
  42   2.0000     -10.305624      -280.4303
  43   2.0000     -10.305315      -280.4219
  44   2.0000     -10.304800      -280.4079
  45   2.0000     -10.304514      -280.4001
  46   2.0000     -10.302750      -280.3521
  47   2.0000     -10.302507      -280.3455
  48   2.0000     -10.302169      -280.3363
  49   2.0000     -10.298280      -280.2304
  50   2.0000     -10.296323      -280.1772
  51   2.0000     -10.296293      -280.1764
  52   2.0000     -10.294451      -280.1262
  53   2.0000     -10.294180      -280.1189
  54   2.0000     -10.293048      -280.0881
  55   2.0000     -10.291420      -280.0438
  56   2.0000     -10.291309      -280.0408
  57   2.0000     -10.291081      -280.0346
  58   2.0000     -10.277976      -279.6779
  59   2.0000     -10.275402      -279.6079
  60   2.0000     -10.271395      -279.4989
  61   2.0000     -10.267544      -279.3941
  62   2.0000     -10.265628      -279.3419
  63   2.0000     -10.264501      -279.3113
  64   2.0000      -8.078338      -219.8228
  65   2.0000      -8.077879      -219.8103
  66   2.0000      -6.046846      -164.5430
  67   2.0000      -6.046451      -164.5323
  68   2.0000      -6.043539      -164.4531
  69   2.0000      -6.043181      -164.4433
  70   2.0000      -6.040940      -164.3823
  71   2.0000      -6.040330      -164.3657
  72   2.0000      -1.152444       -31.3596
  73   2.0000      -1.151868       -31.3439
  74   2.0000      -1.139407       -31.0048
  75   2.0000      -1.138399       -30.9774
  76   2.0000      -1.135085       -30.8872
  77   2.0000      -1.132797       -30.8250
  78   2.0000      -1.069449       -29.1012
  79   2.0000      -1.059640       -28.8343
  80   2.0000      -1.021972       -27.8093
  81   2.0000      -1.018431       -27.7129
  82   2.0000      -1.000109       -27.2144
  83   2.0000      -0.997189       -27.1349
  84   2.0000      -0.997033       -27.1307
  85   2.0000      -0.992753       -27.0142
  86   2.0000      -0.961728       -26.1699
  87   2.0000      -0.960683       -26.1415
  88   2.0000      -0.954506       -25.9734
  89   2.0000      -0.947286       -25.7770
  90   2.0000      -0.938512       -25.5382
  91   2.0000      -0.932815       -25.3832
  92   2.0000      -0.932031       -25.3618
  93   2.0000      -0.911344       -24.7989
  94   2.0000      -0.904449       -24.6113
  95   2.0000      -0.904094       -24.6016
  96   2.0000      -0.897007       -24.4088
  97   2.0000      -0.888839       -24.1865
  98   2.0000      -0.875501       -23.8236
  99   2.0000      -0.870982       -23.7006
 100   2.0000      -0.868207       -23.6251
 101   2.0000      -0.861627       -23.4461
 102   2.0000      -0.853376       -23.2215
 103   2.0000      -0.824496       -22.4357
 104   2.0000      -0.821321       -22.3493
 105   2.0000      -0.817097       -22.2343
 106   2.0000      -0.810359       -22.0510
 107   2.0000      -0.795838       -21.6558
 108   2.0000      -0.785161       -21.3653
 109   2.0000      -0.782372       -21.2894
 110   2.0000      -0.763982       -20.7890
 111   2.0000      -0.755033       -20.5455
 112   2.0000      -0.751508       -20.4496
 113   2.0000      -0.734168       -19.9777
 114   2.0000      -0.732159       -19.9230
 115   2.0000      -0.720966       -19.6185
 116   2.0000      -0.718595       -19.5540
 117   2.0000      -0.710623       -19.3370
 118   2.0000      -0.703629       -19.1467
 119   2.0000      -0.702912       -19.1272
 120   2.0000      -0.693132       -18.8611
 121   2.0000      -0.690435       -18.7877
 122   2.0000      -0.684210       -18.6183
 123   2.0000      -0.681072       -18.5329
 124   2.0000      -0.673302       -18.3215
 125   2.0000      -0.663292       -18.0491
 126   2.0000      -0.655783       -17.8448
 127   2.0000      -0.649583       -17.6761
 128   2.0000      -0.641220       -17.4485
 129   2.0000      -0.627356       -17.0712
 130   2.0000      -0.617638       -16.8068
 131   2.0000      -0.617040       -16.7905
 132   2.0000      -0.607021       -16.5179
 133   2.0000      -0.603622       -16.4254
 134   2.0000      -0.597416       -16.2565
 135   2.0000      -0.595767       -16.2116
 136   2.0000      -0.589605       -16.0440
 137   2.0000      -0.586214       -15.9517
 138   2.0000      -0.578411       -15.7394
 139   2.0000      -0.576498       -15.6873
 140   2.0000      -0.573061       -15.5938
 141   2.0000      -0.569462       -15.4959
 142   2.0000      -0.563157       -15.3243
 143   2.0000      -0.557201       -15.1622
 144   2.0000      -0.552917       -15.0456
 145   2.0000      -0.550298       -14.9744
 146   2.0000      -0.545195       -14.8355
 147   2.0000      -0.542589       -14.7646
 148   2.0000      -0.540928       -14.7194
 149   2.0000      -0.539470       -14.6797
 150   2.0000      -0.537637       -14.6298
 151   2.0000      -0.535371       -14.5682
 152   2.0000      -0.533654       -14.5215
 153   2.0000      -0.532093       -14.4790
 154   2.0000      -0.530582       -14.4379
 155   2.0000      -0.527308       -14.3488
 156   2.0000      -0.524184       -14.2638
 157   2.0000      -0.521848       -14.2002
 158   2.0000      -0.518865       -14.1190
 159   2.0000      -0.517003       -14.0684
 160   2.0000      -0.514837       -14.0094
 161   2.0000      -0.513867       -13.9830
 162   2.0000      -0.513202       -13.9649
 163   2.0000      -0.510302       -13.8860
 164   2.0000      -0.509005       -13.8507
 165   2.0000      -0.501695       -13.6518
 166   2.0000      -0.498628       -13.5684
 167   2.0000      -0.497275       -13.5315
 168   2.0000      -0.495927       -13.4949
 169   2.0000      -0.489644       -13.3239
 170   2.0000      -0.486830       -13.2473
 171   2.0000      -0.481933       -13.1141
 172   2.0000      -0.477155       -12.9841
 173   2.0000      -0.474629       -12.9153
 174   2.0000      -0.473025       -12.8717
 175   2.0000      -0.472271       -12.8511
 176   2.0000      -0.470794       -12.8109
 177   2.0000      -0.469000       -12.7621
 178   2.0000      -0.459398       -12.5009
 179   2.0000      -0.457808       -12.4576
 180   2.0000      -0.455858       -12.4045
 181   2.0000      -0.455067       -12.3830
 182   2.0000      -0.453624       -12.3437
 183   2.0000      -0.452851       -12.3227
 184   2.0000      -0.452007       -12.2997
 185   2.0000      -0.451256       -12.2793
 186   2.0000      -0.449563       -12.2332
 187   2.0000      -0.449335       -12.2270
 188   2.0000      -0.447863       -12.1870
 189   2.0000      -0.446081       -12.1385
 190   2.0000      -0.445389       -12.1196
 191   2.0000      -0.444254       -12.0888
 192   2.0000      -0.441808       -12.0222
 193   2.0000      -0.433766       -11.8034
 194   2.0000      -0.430574       -11.7165
 195   2.0000      -0.429566       -11.6891
 196   2.0000      -0.426463       -11.6046
 197   2.0000      -0.426195       -11.5974
 198   2.0000      -0.424596       -11.5538
 199   2.0000      -0.422786       -11.5046
 200   2.0000      -0.419405       -11.4126
 201   2.0000      -0.414384       -11.2760
 202   2.0000      -0.409652       -11.1472
 203   2.0000      -0.408154       -11.1064
 204   2.0000      -0.400098       -10.8872
 205   2.0000      -0.397736       -10.8229
 206   2.0000      -0.393713       -10.7135
 207   2.0000      -0.389653       -10.6030
 208   2.0000      -0.383190       -10.4271
 209   2.0000      -0.373904       -10.1744
 210   2.0000      -0.355411        -9.6712
 211   2.0000      -0.353913        -9.6305
 212   2.0000      -0.349442        -9.5088
 213   2.0000      -0.342212        -9.3121
 214   2.0000      -0.341202        -9.2846
 215   2.0000      -0.337941        -9.1958
 216   2.0000      -0.335909        -9.1406
 217   2.0000      -0.333992        -9.0884
 218   2.0000      -0.331846        -9.0300
 219   2.0000      -0.331657        -9.0248
 220   2.0000      -0.321737        -8.7549
 221   2.0000      -0.318470        -8.6660
 222   2.0000      -0.316277        -8.6063
 223   2.0000      -0.303134        -8.2487
 224   2.0000      -0.291696        -7.9375
 225   2.0000      -0.244673        -6.6579
 226   0.0000      -0.110664        -3.0113
 227   0.0000      -0.094707        -2.5771
 228   0.0000      -0.081012        -2.2044
 229   0.0000      -0.065580        -1.7845
 230   0.0000      -0.058093        -1.5808

MULLIKEN ATOMIC CHARGES
-----------------------
   0 C :    0.269597
   1 C :   -0.281636
   2 C :   -0.182991
   3 N :    0.164707
   4 C :   -0.185344
   5 N :    0.154502
   6 C :    0.035423
   7 C :   -0.010886
   8 C :   -0.020125
   9 C :    0.007342
  10 C :   -0.037739
  11 C :   -0.062695
  12 C :    0.085933
  13 C :    0.134156
  14 O :   -0.136833
  15 C :   -0.099388
  16 C :    0.087208
  17 C :   -0.111743
  18 S :    0.127126
  19 C :   -0.099620
  20 N :   -0.035761
  21 N :   -0.043751
  22 C :    0.069322
  23 C :   -0.014564
  24 C :    0.106932
  25 N :   -0.265200
  26 C :    0.096371
  27 C :   -0.006401
  28 C :    0.165888
  29 O :   -0.215600
  30 C :   -0.065934
  31 C :   -0.026026
  32 C :    0.153437
  33 O :   -0.171540
  34 N :   -0.263415
  35 C :    0.095546
  36 C :    0.000464
  37 C :    0.151567
  38 C :   -0.028527
  39 C :    0.087399
  40 C :   -0.119704
  41 S :    0.146618
  42 C :   -0.126498
  43 N :   -0.033982
  44 N :   -0.041670
  45 C :    0.133256
  46 C :    0.003734
  47 C :   -0.000937
  48 C :   -0.086005
  49 C :    0.282684
  50 C :   -0.328470
  51 C :   -0.206810
  52 N :    0.168845
  53 C :   -0.180941
  54 N :    0.151587
  55 C :    0.047000
  56 C :   -0.027087
  57 C :    0.149518
  58 O :   -0.149581
  59 C :   -0.015928
  60 C :    0.006317
  61 C :   -0.040088
  62 C :   -0.060870
  63 C :    0.086539
  64 H :   -0.003195
  65 H :   -0.013937
  66 H :   -0.003224
  67 H :    0.022518
  68 H :    0.034528
  69 H :    0.045797
  70 H :    0.025557
  71 H :   -0.019880
  72 H :    0.041569
  73 H :    0.024677
  74 H :    0.046090
  75 H :    0.031065
  76 H :    0.024863
  77 H :    0.028014
  78 H :    0.045917
  79 H :    0.029951
  80 H :    0.029912
  81 H :    0.028482
  82 H :    0.019419
  83 H :    0.007191
  84 H :    0.015735
  85 H :    0.012483
  86 H :    0.030816
  87 H :    0.036888
  88 H :   -0.004578
  89 H :   -0.013711
  90 H :   -0.009821
  91 H :    0.025883
  92 H :    0.044484
  93 H :    0.031777
Sum of atomic charges:   -0.0000000

LOEWDIN ATOMIC CHARGES
----------------------
   0 C :    0.069843
   1 C :   -0.108511
   2 C :   -0.015146
   3 N :   -0.049643
   4 C :   -0.016185
   5 N :   -0.044338
   6 C :   -0.002793
   7 C :   -0.056426
   8 C :    0.019425
   9 C :   -0.009911
  10 C :    0.005805
  11 C :   -0.006245
  12 C :   -0.042850
  13 C :    0.084131
  14 O :   -0.135930
  15 C :   -0.049569
  16 C :    0.023276
  17 C :   -0.160923
  18 S :    0.411545
  19 C :   -0.132077
  20 N :   -0.065184
  21 N :   -0.050844
  22 C :   -0.052391
  23 C :    0.017476
  24 C :    0.060128
  25 N :   -0.002846
  26 C :    0.034115
  27 C :   -0.062933
  28 C :    0.081237
  29 O :   -0.203354
  30 C :   -0.125100
  31 C :   -0.096509
  32 C :    0.083114
  33 O :   -0.175059
  34 N :   -0.001554
  35 C :    0.036835
  36 C :   -0.060458
  37 C :    0.086265
  38 C :   -0.013863
  39 C :   -0.000635
  40 C :   -0.151695
  41 S :    0.426981
  42 C :   -0.151592
  43 N :   -0.063604
  44 N :   -0.069707
  45 C :    0.010482
  46 C :   -0.010464
  47 C :    0.063582
  48 C :   -0.082724
  49 C :    0.074451
  50 C :   -0.131039
  51 C :   -0.025953
  52 N :   -0.042963
  53 C :   -0.017443
  54 N :   -0.048342
  55 C :   -0.010397
  56 C :   -0.051876
  57 C :    0.083930
  58 O :   -0.137165
  59 C :    0.018044
  60 C :   -0.006642
  61 C :    0.002895
  62 C :   -0.006134
  63 C :   -0.042787
  64 H :    0.040276
  65 H :    0.031817
  66 H :    0.038036
  67 H :    0.034006
  68 H :    0.039463
  69 H :    0.045479
  70 H :    0.048742
  71 H :    0.029049
  72 H :    0.057030
  73 H :    0.019073
  74 H :    0.037904
  75 H :    0.024855
  76 H :    0.031678
  77 H :    0.032695
  78 H :    0.038919
  79 H :    0.026206
  80 H :    0.032099
  81 H :    0.032877
  82 H :    0.023610
  83 H :    0.038958
  84 H :    0.038736
  85 H :    0.036776
  86 H :    0.044388
  87 H :    0.048808
  88 H :    0.039705
  89 H :    0.032054
  90 H :    0.036896
  91 H :    0.035661
  92 H :    0.044760
  93 H :    0.037686

  Mayer bond orders larger than 0.100000
B(  0-C ,  1-C ) :   1.7077 B(  0-C ,  6-C ) :   0.9975 B(  0-C , 15-C ) :   1.0096
B(  1-C ,  2-C ) :   1.1481 B(  1-C ,  4-C ) :   1.1347 B(  2-C ,  3-N ) :   3.0125
B(  4-C ,  5-N ) :   2.9903 B(  6-C ,  7-C ) :   1.3224 B(  6-C , 11-C ) :   1.3726
B(  7-C ,  8-C ) :   1.3727 B(  7-C , 13-C ) :   0.9333 B(  8-C ,  9-C ) :   1.3609
B(  8-C , 64-H ) :   1.0073 B(  9-C , 10-C ) :   1.3786 B(  9-C , 65-H ) :   0.9923
B( 10-C , 11-C ) :   1.3547 B( 10-C , 12-C ) :   1.0539 B( 11-C , 66-H ) :   0.9893
B( 12-C , 67-H ) :   0.9588 B( 12-C , 68-H ) :   0.9578 B( 12-C , 69-H ) :   0.9504
B( 13-C , 14-O ) :   2.2767 B( 13-C , 15-C ) :   0.9201 B( 15-C , 16-C ) :   1.7520
B( 16-C , 17-C ) :   1.0631 B( 16-C , 70-H ) :   0.9348 B( 17-C , 18-S ) :   1.0938
B( 17-C , 21-N ) :   1.6190 B( 18-S , 19-C ) :   1.1108 B( 18-S , 21-N ) :   0.1033
B( 19-C , 20-N ) :   1.6563 B( 19-C , 22-C ) :   1.1128 B( 20-N , 21-N ) :   1.2596
B( 22-C , 23-C ) :   1.6262 B( 22-C , 71-H ) :   0.9460 B( 23-C , 24-C ) :   1.1574
B( 23-C , 72-H ) :   0.9536 B( 24-C , 25-N ) :   1.1544 B( 24-C , 31-C ) :   1.3671
B( 25-N , 26-C ) :   0.9432 B( 25-N , 28-C ) :   1.0680 B( 26-C , 27-C ) :   1.1162
B( 26-C , 73-H ) :   0.9496 B( 26-C , 74-H ) :   0.9227 B( 27-C , 75-H ) :   0.9682
B( 27-C , 76-H ) :   0.9677 B( 27-C , 77-H ) :   0.9618 B( 28-C , 29-O ) :   2.0115
B( 28-C , 30-C ) :   0.9945 B( 29-O , 84-H ) :   0.1152 B( 30-C , 31-C ) :   1.2545
B( 30-C , 37-C ) :   1.3221 B( 31-C , 32-C ) :   0.9614 B( 32-C , 33-O ) :   2.1558
B( 32-C , 34-N ) :   1.0244 B( 34-N , 35-C ) :   0.9410 B( 34-N , 37-C ) :   1.1783
B( 35-C , 36-C ) :   1.1207 B( 35-C , 78-H ) :   0.9290 B( 35-C , 79-H ) :   0.9505
B( 36-C , 80-H ) :   0.9641 B( 36-C , 81-H ) :   0.9678 B( 36-C , 82-H ) :   0.9688
B( 37-C , 38-C ) :   1.1330 B( 38-C , 39-C ) :   1.6483 B( 38-C , 83-H ) :   0.9747
B( 39-C , 40-C ) :   1.1121 B( 39-C , 84-H ) :   0.9230 B( 40-C , 41-S ) :   1.1166
B( 40-C , 44-N ) :   1.6427 B( 41-S , 42-C ) :   1.1052 B( 42-C , 43-N ) :   1.6522
B( 42-C , 45-C ) :   1.1279 B( 43-N , 44-N ) :   1.2538 B( 45-C , 46-C ) :   1.7230
B( 45-C , 85-H ) :   0.9316 B( 46-C , 47-C ) :   1.1406 B( 46-C , 86-H ) :   0.9540
B( 47-C , 48-C ) :   1.6473 B( 47-C , 87-H ) :   0.9457 B( 48-C , 49-C ) :   1.0465
B( 48-C , 57-C ) :   0.9279 B( 49-C , 50-C ) :   1.6625 B( 49-C , 55-C ) :   0.9909
B( 50-C , 51-C ) :   1.1326 B( 50-C , 53-C ) :   1.1381 B( 51-C , 52-N ) :   3.0082
B( 53-C , 54-N ) :   2.9748 B( 55-C , 56-C ) :   1.3267 B( 55-C , 62-C ) :   1.3627
B( 56-C , 57-C ) :   0.9602 B( 56-C , 59-C ) :   1.3716 B( 57-C , 58-O ) :   2.2068
B( 59-C , 60-C ) :   1.3559 B( 59-C , 88-H ) :   1.0072 B( 60-C , 61-C ) :   1.3752
B( 60-C , 89-H ) :   0.9940 B( 61-C , 62-C ) :   1.3616 B( 61-C , 63-C ) :   1.0534
B( 62-C , 90-H ) :   0.9856 B( 63-C , 91-H ) :   0.9577 B( 63-C , 92-H ) :   0.9506
B( 63-C , 93-H ) :   0.9587

-----------------------------------------------------------------------------
         ABSORPTION SPECTRUM VIA TRANSITION ELECTRIC DIPOLE MOMENTS
-----------------------------------------------------------------------------
State   Energy  Wavelength   fosc         T2         TX        TY        TZ
        (cm-1)    (nm)                  (au**2)     (au)      (au)      (au)
-----------------------------------------------------------------------------
   0   14563.2    686.7   1.220019461  27.57938  -0.18672  -4.62449   2.48166
   1   20072.9    498.2   0.004193106   0.06877   0.02870  -0.15306  -0.21100
   2   22863.3    437.4   0.374419249   5.39131  -0.45318  -2.12455  -0.81990
   3   24131.7    414.4   0.408123753   5.56775   0.02302   2.29097  -0.56452
   4   24937.8    401.0   0.032493856   0.42896   0.39582   0.52175  -0.00768
   5   25826.1    387.2   0.015159719   0.19325   0.10196   0.42661  -0.02914
   6   26496.2    377.4   0.003364808   0.04181  -0.00208  -0.18975   0.07614
   7   27136.1    368.5   0.024577529   0.29817  -0.36406   0.21300  -0.34679
   8   27635.9    361.8   0.284800050   3.39268   0.45063   1.76998  -0.23830
   9   27924.4    358.1   0.014975499   0.17655  -0.11180  -0.40503  -0.00229
  10   28085.7    356.1   0.004321161   0.05065  -0.18699   0.11279   0.05444
  11   28506.2    350.8   0.257329741   2.97184  -0.30555  -1.68826  -0.16807
  12   29126.7    343.3   0.201808585   2.28099  -0.18110   1.47015  -0.29472
  13   30055.5    332.7   0.081164808   0.88904   0.52275   0.66021   0.42414
  14   30184.4    331.3   0.066740068   0.72791   0.73601  -0.01663   0.43120
  15   30540.7    327.4   0.238290338   2.56864   0.44559  -1.53935   0.02209
  16   30790.0    324.8   0.013853771   0.14813  -0.36461   0.11845   0.03396
  17   31306.3    319.4   0.033688109   0.35426  -0.42275   0.18000  -0.37834
  18   31397.3    318.5   0.003397316   0.03562  -0.13128   0.13437  -0.01825
  19   32275.8    309.8   0.100537671   1.02548  -0.52726  -0.82949  -0.24378
  20   32762.3    305.2   0.063879998   0.64190  -0.61099   0.30503  -0.41898
  21   33523.0    298.3   0.056164122   0.55156  -0.34856   0.63481  -0.16456
  22   33556.3    298.0   0.005224760   0.05126   0.16190  -0.15640  -0.02422
  23   33732.2    296.5   0.006641497   0.06482   0.20356   0.15275   0.00710
  24   33833.2    295.6   0.014067334   0.13688   0.24237   0.25299   0.11889
  25   34528.8    289.6   0.047803102   0.45578  -0.55184  -0.24274  -0.30384
  26   35693.2    280.2   0.050348928   0.46439   0.47841  -0.05599   0.48206
  27   36161.8    276.5   0.142769147   1.29975  -0.34887  -1.07327  -0.16164
  28   36658.7    272.8   0.053674345   0.48202   0.52912  -0.14460   0.42561
  29   36790.5    271.8   0.452802547   4.05181   0.87757  -1.80556   0.14707
  30   37054.3    269.9   0.299590858   2.66174   1.13401  -1.15919   0.17901
  31   37697.6    265.3   0.469786008   4.10262  -1.48203   0.33183  -1.34019
  32   37950.2    263.5   0.043461943   0.37703  -0.03783   0.60764  -0.07978
  33   38078.2    262.6   0.235704754   2.03783  -0.53412   1.30528  -0.22091
  34   38579.3    259.2   0.031829267   0.27161   0.17308   0.40468   0.27908
  35   38691.4    258.5   0.005821148   0.04953   0.21872  -0.00084  -0.04112
  36   39512.3    253.1   0.064712226   0.53918   0.27011  -0.00641   0.68277
  37   39587.6    252.6   0.023331773   0.19403   0.15868  -0.03926   0.40903
  38   39733.7    251.7   0.075369187   0.62447  -0.39319  -0.14976  -0.66891
  39   39794.8    251.3   0.001230415   0.01018  -0.07890  -0.06284   0.00232
  40   40141.0    249.1   0.028017006   0.22978  -0.37371   0.17636  -0.24294

FINAL SINGLE POINT ENERGY     -3488.200098600933

DIPOLE MOMENT
-------------
                                X             Y             Z
Electronic contribution:     10.73136       0.51070      -8.71640
Nuclear contribution   :    -13.82880       0.10785       7.17168
                        -----------------------------------------
Total Dipole Moment    :     -3.09744       0.61855      -1.54471
                        -----------------------------------------
Magnitude (a.u.)       :      3.51609
Magnitude (Debye)      :      8.93719

Rotational constants in cm-1:     0.003814     0.000216     0.000210
Rotational constants in MHz :   114.342021     6.470341     6.286567

                             ****ORCA TERMINATED NORMALLY****
TOTAL RUN TIME: 0 days 0 hours 7 minutes 47 seconds 372 msec
