                         Program Version 4.2.0 -  RELEASE  -
|  1> # ORCA input file
|  2> # SCF done       -194.827986087299          0.000409809185
|  3> ! CAM-B3LYP def2-SVP def2/J RIJCOSX Grid4 TightSCF
|  4> %maxcore 5000
|  5> %tddft
|  6>     Mode sTDDFT
|  7>     Ethresh 5.0
|  8>     maxcore 5000
|  9> end
| 10>
| 11> %pal
| 12>   nprocs 6
| 13>   end
| 14> * xyz 0 1
| 15>    C        1.79165         1.94528         0.24502
| 16>    C        0.83862         2.91310         0.15732
| 17>    S       -0.59194         2.31282        -0.59605
| 18>    C        0.10303         0.72260        -0.80075
| 19>   Cl       -0.76532        -0.53388        -1.53132
| 20>    C        1.37315         0.69021        -0.30442
| 21>    C        2.44537        -0.30091        -0.18045
| 22>    O        2.42797        -1.45778        -0.52829
| 23>    C        3.54565         0.42418         0.54090
| 24>    C        3.14426         1.81558         0.74191
| 25>    C        3.89927         2.83998         1.24053
| 26>    C        3.37787         4.14749         1.35358
| 27>    N        2.96457         5.21240         1.45402
| 28>    C        5.24144         2.73905         1.66149
| 29>    N        6.33619         2.72231         2.00527
| 30>    C        4.63347        -0.16380         1.08849
| 31>    C        5.07572        -1.52495         0.87244
| 32>    C        5.57116        -2.25468         1.94992
| 33>    C        5.98078        -3.56840         1.78861
| 34>    N        6.50539        -4.23483         2.95121
| 35>    O        6.21517        -3.77785         4.03564
| 36>    O        7.21319        -5.20889         2.78552
| 37>    C        5.94028        -4.20167         0.53089
| 38>    C        5.49802        -3.42847        -0.55087
| 39>    C        5.07474        -2.12967        -0.39188
| 40>    C        6.28795        -5.59314         0.34641
| 41>    C        6.89735        -6.04808        -0.76790
| 42>    C        7.31488        -7.37087        -1.09378
| 43>    N        7.08162        -8.56244        -0.45896
| 44>    C        6.34634        -8.82320         0.75598
| 45>    C        7.20252        -8.61313         2.00332
| 46>    C        7.71248        -9.64521        -1.12774
| 47>    O        7.65885       -10.78646        -0.73397
| 48>    C        8.34999        -9.03311        -2.27502
| 49>    C        8.08997        -7.64683        -2.21882
| 50>    C        8.75042        -7.02268        -3.34061
| 51>    O        8.78914        -5.87261        -3.72362
| 52>    N        9.41550        -8.08783        -3.99162
| 53>    C       10.08382        -7.83929        -5.24825
| 54>    C        9.38616        -8.51552        -6.42384
| 55>    C        9.17365        -9.29248        -3.36770
| 56>    C        9.65504       -10.58893        -3.69450
| 57>    C       10.76330       -10.90438        -4.41012
| 58>    C       11.17835       -12.23519        -4.66955
| 59>    S       12.77886       -12.50202        -5.33221
| 60>    C       10.54779       -13.45378        -4.50125
| 61>    C        9.23099       -13.96645        -4.07400
| 62>    O        8.24744       -13.37891        -3.70207
| 63>    N        9.33065       -15.34870        -4.18809
| 64>    C        8.23008       -16.24090        -3.88842
| 65>    C        7.38334       -16.50662        -5.12786
| 66>    C       10.55625       -15.79238        -4.66375
| 67>    O       10.86775       -16.94255        -4.83218
| 68>    C       11.33768       -14.55713        -4.87441
| 69>    C       12.58124       -14.24611        -5.37732
| 70>    C       13.59425       -15.15956        -5.76197
| 71>    C       14.68590       -14.94766        -6.54014
| 72>    C       15.86099       -15.87478        -6.42702
| 73>    O       15.87637       -16.95642        -5.89682
| 74>    C       16.96475       -15.12556        -7.04158
| 75>    C       18.30850       -15.28212        -7.20903
| 76>    S       18.98057       -13.91840        -8.07269
| 77>    C       17.43605       -13.15938        -8.20845
| 78>    C       16.46893       -13.90788        -7.61562
| 79>    C       15.03116       -13.85810        -7.43574
| 80>    C       14.17470       -13.09506        -8.18362
| 81>    C       14.65207       -12.11130        -9.07353
| 82>    N       15.02847       -11.29257        -9.78341
| 83>    C       12.77671       -13.27034        -8.20638
| 84>    N       11.64081       -13.41626        -8.28277
| 85>   Cl       19.28263       -16.56918        -6.69774
| 86>    H        0.87309         3.93299         0.48563
| 87>    H        5.22653         0.40294         1.79641
| 88>    H        5.62812        -1.81385         2.93484
| 89>    H        5.45989        -3.88233        -1.52851
| 90>    H        4.75787        -1.56458        -1.25289
| 91>    H        6.07182        -6.25513         1.16848
| 92>    H        7.19324        -5.33629        -1.52935
| 93>    H        6.05094        -9.87601         0.70274
| 94>    H        5.44297        -8.20932         0.77360
| 95>    H        8.05739        -9.28403         1.97416
| 96>    H        6.61619        -8.84108         2.88926
| 97>    H        7.56725        -7.59175         2.08131
| 98>    H       11.13312        -8.14019        -5.18722
| 99>    H       10.05152        -6.75248        -5.37664
|100>    H        9.38377        -9.59727        -6.31491
|101>    H        9.89934        -8.26031        -7.34678
|102>    H        8.35684        -8.17217        -6.49289
|103>    H        9.06789       -11.38714        -3.25666
|104>    H       11.42721       -10.13887        -4.78354
|105>    H        7.62961       -15.76512        -3.10962
|106>    H        8.65830       -17.17313        -3.51269
|107>    H        6.96724       -15.57566        -5.50585
|108>    H        6.56745       -17.17849        -4.87748
|109>    H        7.98918       -16.96571        -5.90562
|110>    H       13.51194       -16.14522        -5.31171
|111>    H       17.35356       -12.21280        -8.70478
|112> *
|113>
|114>                          ****END OF INPUT****

CARTESIAN COORDINATES (ANGSTROEM)
---------------------------------
  C      1.791650    1.945280    0.245020
  C      0.838620    2.913100    0.157320
  S     -0.591940    2.312820   -0.596050
  C      0.103030    0.722600   -0.800750
  Cl    -0.765320   -0.533880   -1.531320
  C      1.373150    0.690210   -0.304420
  C      2.445370   -0.300910   -0.180450
  O      2.427970   -1.457780   -0.528290
  C      3.545650    0.424180    0.540900
  C      3.144260    1.815580    0.741910
  C      3.899270    2.839980    1.240530
  C      3.377870    4.147490    1.353580
  N      2.964570    5.212400    1.454020
  C      5.241440    2.739050    1.661490
  N      6.336190    2.722310    2.005270
  C      4.633470   -0.163800    1.088490
  C      5.075720   -1.524950    0.872440
  C      5.571160   -2.254680    1.949920
  C      5.980780   -3.568400    1.788610
  N      6.505390   -4.234830    2.951210
  O      6.215170   -3.777850    4.035640
  O      7.213190   -5.208890    2.785520
  C      5.940280   -4.201670    0.530890
  C      5.498020   -3.428470   -0.550870
  C      5.074740   -2.129670   -0.391880
  C      6.287950   -5.593140    0.346410
  C      6.897350   -6.048080   -0.767900
  C      7.314880   -7.370870   -1.093780
  N      7.081620   -8.562440   -0.458960
  C      6.346340   -8.823200    0.755980
  C      7.202520   -8.613130    2.003320
  C      7.712480   -9.645210   -1.127740
  O      7.658850  -10.786460   -0.733970
  C      8.349990   -9.033110   -2.275020
  C      8.089970   -7.646830   -2.218820
  C      8.750420   -7.022680   -3.340610
  O      8.789140   -5.872610   -3.723620
  N      9.415500   -8.087830   -3.991620
  C     10.083820   -7.839290   -5.248250
  C      9.386160   -8.515520   -6.423840
  C      9.173650   -9.292480   -3.367700
  C      9.655040  -10.588930   -3.694500
  C     10.763300  -10.904380   -4.410120
  C     11.178350  -12.235190   -4.669550
  S     12.778860  -12.502020   -5.332210
  C     10.547790  -13.453780   -4.501250
  C      9.230990  -13.966450   -4.074000
  O      8.247440  -13.378910   -3.702070
  N      9.330650  -15.348700   -4.188090
  C      8.230080  -16.240900   -3.888420
  C      7.383340  -16.506620   -5.127860
  C     10.556250  -15.792380   -4.663750
  O     10.867750  -16.942550   -4.832180
  C     11.337680  -14.557130   -4.874410
  C     12.581240  -14.246110   -5.377320
  C     13.594250  -15.159560   -5.761970
  C     14.685900  -14.947660   -6.540140
  C     15.860990  -15.874780   -6.427020
  O     15.876370  -16.956420   -5.896820
  C     16.964750  -15.125560   -7.041580
  C     18.308500  -15.282120   -7.209030
  S     18.980570  -13.918400   -8.072690
  C     17.436050  -13.159380   -8.208450
  C     16.468930  -13.907880   -7.615620
  C     15.031160  -13.858100   -7.435740
  C     14.174700  -13.095060   -8.183620
  C     14.652070  -12.111300   -9.073530
  N     15.028470  -11.292570   -9.783410
  C     12.776710  -13.270340   -8.206380
  N     11.640810  -13.416260   -8.282770
  Cl    19.282630  -16.569180   -6.697740
  H      0.873090    3.932990    0.485630
  H      5.226530    0.402940    1.796410
  H      5.628120   -1.813850    2.934840
  H      5.459890   -3.882330   -1.528510
  H      4.757870   -1.564580   -1.252890
  H      6.071820   -6.255130    1.168480
  H      7.193240   -5.336290   -1.529350
  H      6.050940   -9.876010    0.702740
  H      5.442970   -8.209320    0.773600
  H      8.057390   -9.284030    1.974160
  H      6.616190   -8.841080    2.889260
  H      7.567250   -7.591750    2.081310
  H     11.133120   -8.140190   -5.187220
  H     10.051520   -6.752480   -5.376640
  H      9.383770   -9.597270   -6.314910
  H      9.899340   -8.260310   -7.346780
  H      8.356840   -8.172170   -6.492890
  H      9.067890  -11.387140   -3.256660
  H     11.427210  -10.138870   -4.783540
  H      7.629610  -15.765120   -3.109620
  H      8.658300  -17.173130   -3.512690
  H      6.967240  -15.575660   -5.505850
  H      6.567450  -17.178490   -4.877480
  H      7.989180  -16.965710   -5.905620
  H     13.511940  -16.145220   -5.311710
  H     17.353560  -12.212800   -8.704780

 Total Charge           Charge          ....    0
 Multiplicity           Mult            ....    1
 Number of Electrons    NEL             ....  528
 Basis Dimension        Dim             .... 1144

ORBITAL ENERGIES
----------------

  NO   OCC          E(Eh)            E(eV)
   0   2.0000    -101.626885     -2765.4081
   1   2.0000    -101.619352     -2765.2031
   2   2.0000     -89.004232     -2421.9283
   3   2.0000     -88.995976     -2421.7036
   4   2.0000     -88.988026     -2421.4873
   5   2.0000     -19.256744      -524.0026
   6   2.0000     -19.255325      -523.9640
   7   2.0000     -19.234289      -523.3916
   8   2.0000     -19.222131      -523.0608
   9   2.0000     -19.218657      -522.9663
  10   2.0000     -19.218183      -522.9533
  11   2.0000     -19.196493      -522.3631
  12   2.0000     -19.192552      -522.2559
  13   2.0000     -14.662106      -398.9762
  14   2.0000     -14.459618      -393.4662
  15   2.0000     -14.457943      -393.4206
  16   2.0000     -14.456289      -393.3756
  17   2.0000     -14.430953      -392.6862
  18   2.0000     -14.430114      -392.6634
  19   2.0000     -14.425905      -392.5488
  20   2.0000     -14.423202      -392.4753
  21   2.0000     -10.401217      -283.0315
  22   2.0000     -10.400943      -283.0241
  23   2.0000     -10.391888      -282.7777
  24   2.0000     -10.386891      -282.6417
  25   2.0000     -10.379325      -282.4358
  26   2.0000     -10.379196      -282.4323
  27   2.0000     -10.378879      -282.4236
  28   2.0000     -10.376680      -282.3638
  29   2.0000     -10.360453      -281.9223
  30   2.0000     -10.359655      -281.9005
  31   2.0000     -10.354682      -281.7652
  32   2.0000     -10.354101      -281.7494
  33   2.0000     -10.348247      -281.5901
  34   2.0000     -10.346677      -281.5474
  35   2.0000     -10.345524      -281.5160
  36   2.0000     -10.343328      -281.4563
  37   2.0000     -10.340317      -281.3743
  38   2.0000     -10.339843      -281.3614
  39   2.0000     -10.335649      -281.2473
  40   2.0000     -10.332542      -281.1628
  41   2.0000     -10.332494      -281.1615
  42   2.0000     -10.331630      -281.1379
  43   2.0000     -10.329905      -281.0910
  44   2.0000     -10.328669      -281.0574
  45   2.0000     -10.327507      -281.0258
  46   2.0000     -10.325069      -280.9594
  47   2.0000     -10.323338      -280.9123
  48   2.0000     -10.322012      -280.8762
  49   2.0000     -10.317242      -280.7464
  50   2.0000     -10.316871      -280.7363
  51   2.0000     -10.316540      -280.7273
  52   2.0000     -10.311811      -280.5986
  53   2.0000     -10.311006      -280.5767
  54   2.0000     -10.310894      -280.5737
  55   2.0000     -10.310689      -280.5681
  56   2.0000     -10.309241      -280.5287
  57   2.0000     -10.308610      -280.5115
  58   2.0000     -10.308105      -280.4978
  59   2.0000     -10.307758      -280.4884
  60   2.0000     -10.306719      -280.4601
  61   2.0000     -10.303535      -280.3734
  62   2.0000     -10.303285      -280.3666
  63   2.0000     -10.303228      -280.3651
  64   2.0000     -10.303203      -280.3644
  65   2.0000     -10.302293      -280.3396
  66   2.0000     -10.269491      -279.4470
  67   2.0000     -10.265682      -279.3434
  68   2.0000     -10.262821      -279.2656
  69   2.0000     -10.258354      -279.1440
  70   2.0000     -10.257258      -279.1142
  71   2.0000      -9.581664      -260.7303
  72   2.0000      -9.574130      -260.5253
  73   2.0000      -8.099913      -220.4098
  74   2.0000      -8.091757      -220.1879
  75   2.0000      -8.082763      -219.9432
  76   2.0000      -7.352316      -200.0667
  77   2.0000      -7.344796      -199.8621
  78   2.0000      -7.341701      -199.7778
  79   2.0000      -7.341131      -199.7623
  80   2.0000      -7.334153      -199.5724
  81   2.0000      -7.333607      -199.5576
  82   2.0000      -6.069275      -165.1534
  83   2.0000      -6.064640      -165.0273
  84   2.0000      -6.062224      -164.9615
  85   2.0000      -6.061140      -164.9320
  86   2.0000      -6.056543      -164.8069
  87   2.0000      -6.053961      -164.7366
  88   2.0000      -6.052198      -164.6887
  89   2.0000      -6.047875      -164.5710
  90   2.0000      -6.044789      -164.4871
  91   2.0000      -1.337135       -36.3853
  92   2.0000      -1.165093       -31.7038
  93   2.0000      -1.155445       -31.4413
  94   2.0000      -1.152058       -31.3491
  95   2.0000      -1.141962       -31.0744
  96   2.0000      -1.139985       -31.0206
  97   2.0000      -1.137608       -30.9559
  98   2.0000      -1.130144       -30.7528
  99   2.0000      -1.067000       -29.0346
 100   2.0000      -1.057311       -28.7709
 101   2.0000      -1.057023       -28.7630
 102   2.0000      -1.048960       -28.5437
 103   2.0000      -1.041718       -28.3466
 104   2.0000      -1.027867       -27.9697
 105   2.0000      -1.023053       -27.8387
 106   2.0000      -1.013206       -27.5707
 107   2.0000      -1.009035       -27.4573
 108   2.0000      -1.007431       -27.4136
 109   2.0000      -1.002033       -27.2667
 110   2.0000      -0.998170       -27.1616
 111   2.0000      -0.991640       -26.9839
 112   2.0000      -0.966150       -26.2903
 113   2.0000      -0.958404       -26.0795
 114   2.0000      -0.940030       -25.5795
 115   2.0000      -0.932640       -25.3784
 116   2.0000      -0.929607       -25.2959
 117   2.0000      -0.919446       -25.0194
 118   2.0000      -0.915873       -24.9222
 119   2.0000      -0.914192       -24.8764
 120   2.0000      -0.907279       -24.6883
 121   2.0000      -0.893990       -24.3267
 122   2.0000      -0.889253       -24.1978
 123   2.0000      -0.875652       -23.8277
 124   2.0000      -0.860523       -23.4160
 125   2.0000      -0.849189       -23.1076
 126   2.0000      -0.843300       -22.9474
 127   2.0000      -0.836109       -22.7517
 128   2.0000      -0.833342       -22.6764
 129   2.0000      -0.822396       -22.3785
 130   2.0000      -0.820953       -22.3393
 131   2.0000      -0.806512       -21.9463
 132   2.0000      -0.801723       -21.8160
 133   2.0000      -0.784892       -21.3580
 134   2.0000      -0.773203       -21.0399
 135   2.0000      -0.765548       -20.8316
 136   2.0000      -0.760761       -20.7014
 137   2.0000      -0.760006       -20.6808
 138   2.0000      -0.749975       -20.4079
 139   2.0000      -0.744661       -20.2633
 140   2.0000      -0.735928       -20.0256
 141   2.0000      -0.718893       -19.5621
 142   2.0000      -0.711464       -19.3599
 143   2.0000      -0.709687       -19.3116
 144   2.0000      -0.700097       -19.0506
 145   2.0000      -0.695789       -18.9334
 146   2.0000      -0.692412       -18.8415
 147   2.0000      -0.690083       -18.7781
 148   2.0000      -0.687696       -18.7132
 149   2.0000      -0.681561       -18.5462
 150   2.0000      -0.679262       -18.4837
 151   2.0000      -0.669286       -18.2122
 152   2.0000      -0.662006       -18.0141
 153   2.0000      -0.655789       -17.8449
 154   2.0000      -0.647841       -17.6287
 155   2.0000      -0.646035       -17.5795
 156   2.0000      -0.639234       -17.3944
 157   2.0000      -0.626653       -17.0521
 158   2.0000      -0.625777       -17.0283
 159   2.0000      -0.619782       -16.8651
 160   2.0000      -0.616167       -16.7668
 161   2.0000      -0.610947       -16.6247
 162   2.0000      -0.608392       -16.5552
 163   2.0000      -0.607045       -16.5185
 164   2.0000      -0.600173       -16.3315
 165   2.0000      -0.592455       -16.1215
 166   2.0000      -0.588096       -16.0029
 167   2.0000      -0.583636       -15.8815
 168   2.0000      -0.581509       -15.8237
 169   2.0000      -0.577531       -15.7154
 170   2.0000      -0.573891       -15.6164
 171   2.0000      -0.568947       -15.4818
 172   2.0000      -0.566611       -15.4183
 173   2.0000      -0.562067       -15.2946
 174   2.0000      -0.560941       -15.2640
 175   2.0000      -0.555535       -15.1169
 176   2.0000      -0.550462       -14.9788
 177   2.0000      -0.548236       -14.9182
 178   2.0000      -0.547808       -14.9066
 179   2.0000      -0.546292       -14.8654
 180   2.0000      -0.542085       -14.7509
 181   2.0000      -0.541460       -14.7339
 182   2.0000      -0.537260       -14.6196
 183   2.0000      -0.535729       -14.5779
 184   2.0000      -0.533807       -14.5256
 185   2.0000      -0.529543       -14.4096
 186   2.0000      -0.528225       -14.3737
 187   2.0000      -0.525527       -14.3003
 188   2.0000      -0.523881       -14.2555
 189   2.0000      -0.519521       -14.1369
 190   2.0000      -0.517109       -14.0713
 191   2.0000      -0.516002       -14.0411
 192   2.0000      -0.514992       -14.0137
 193   2.0000      -0.512235       -13.9386
 194   2.0000      -0.509811       -13.8727
 195   2.0000      -0.508371       -13.8335
 196   2.0000      -0.506165       -13.7734
 197   2.0000      -0.505724       -13.7614
 198   2.0000      -0.502763       -13.6809
 199   2.0000      -0.501359       -13.6427
 200   2.0000      -0.495218       -13.4756
 201   2.0000      -0.494029       -13.4432
 202   2.0000      -0.493053       -13.4167
 203   2.0000      -0.490331       -13.3426
 204   2.0000      -0.487763       -13.2727
 205   2.0000      -0.481802       -13.1105
 206   2.0000      -0.474718       -12.9177
 207   2.0000      -0.472710       -12.8631
 208   2.0000      -0.469659       -12.7801
 209   2.0000      -0.468557       -12.7501
 210   2.0000      -0.466869       -12.7042
 211   2.0000      -0.464710       -12.6454
 212   2.0000      -0.462543       -12.5864
 213   2.0000      -0.462012       -12.5720
 214   2.0000      -0.460448       -12.5294
 215   2.0000      -0.457023       -12.4362
 216   2.0000      -0.456669       -12.4266
 217   2.0000      -0.455972       -12.4076
 218   2.0000      -0.454643       -12.3715
 219   2.0000      -0.454105       -12.3568
 220   2.0000      -0.453241       -12.3333
 221   2.0000      -0.451423       -12.2838
 222   2.0000      -0.450639       -12.2625
 223   2.0000      -0.448214       -12.1965
 224   2.0000      -0.446554       -12.1513
 225   2.0000      -0.443648       -12.0723
 226   2.0000      -0.443235       -12.0611
 227   2.0000      -0.441410       -12.0114
 228   2.0000      -0.439051       -11.9472
 229   2.0000      -0.437259       -11.8984
 230   2.0000      -0.433844       -11.8055
 231   2.0000      -0.427849       -11.6424
 232   2.0000      -0.426990       -11.6190
 233   2.0000      -0.426058       -11.5936
 234   2.0000      -0.424165       -11.5421
 235   2.0000      -0.421728       -11.4758
 236   2.0000      -0.418533       -11.3889
 237   2.0000      -0.413937       -11.2638
 238   2.0000      -0.412921       -11.2362
 239   2.0000      -0.405829       -11.0432
 240   2.0000      -0.405476       -11.0336
 241   2.0000      -0.396153       -10.7799
 242   2.0000      -0.393779       -10.7153
 243   2.0000      -0.393517       -10.7081
 244   2.0000      -0.381699       -10.3866
 245   2.0000      -0.369929       -10.0663
 246   2.0000      -0.366294        -9.9674
 247   2.0000      -0.363768        -9.8986
 248   2.0000      -0.361706        -9.8425
 249   2.0000      -0.353487        -9.6189
 250   2.0000      -0.352286        -9.5862
 251   2.0000      -0.350832        -9.5466
 252   2.0000      -0.347856        -9.4657
 253   2.0000      -0.346786        -9.4365
 254   2.0000      -0.343945        -9.3592
 255   2.0000      -0.338261        -9.2045
 256   2.0000      -0.336000        -9.1430
 257   2.0000      -0.335050        -9.1172
 258   2.0000      -0.327622        -8.9150
 259   2.0000      -0.320404        -8.7186
 260   2.0000      -0.317987        -8.6529
 261   2.0000      -0.312452        -8.5023
 262   2.0000      -0.298118        -8.1122
 263   2.0000      -0.244838        -6.6624
 264   0.0000      -0.115863        -3.1528
 265   0.0000      -0.104893        -2.8543
 266   0.0000      -0.086317        -2.3488
 267   0.0000      -0.063911        -1.7391
 268   0.0000      -0.059402        -1.6164

MULLIKEN ATOMIC CHARGES
-----------------------
   0 C :    0.030887
   1 C :   -0.125503
   2 S :    0.196033
   3 C :   -0.169367
   4 Cl:    0.005265
   5 C :    0.073666
   6 C :    0.144814
   7 O :   -0.125572
   8 C :   -0.089081
   9 C :    0.282470
  10 C :   -0.319561
  11 C :   -0.191694
  12 N :    0.160993
  13 C :   -0.196490
  14 N :    0.174130
  15 C :   -0.033434
  16 C :    0.062403
  17 C :   -0.058290
  18 C :    0.142514
  19 N :    0.252442
  20 O :   -0.226272
  21 O :   -0.236413
  22 C :    0.063030
  23 C :   -0.048624
  24 C :    0.116863
  25 C :    0.019436
  26 C :   -0.034126
  27 C :    0.122821
  28 N :   -0.269992
  29 C :    0.097060
  30 C :   -0.000955
  31 C :    0.150994
  32 O :   -0.172563
  33 C :   -0.016375
  34 C :   -0.056243
  35 C :    0.152427
  36 O :   -0.197551
  37 N :   -0.273956
  38 C :    0.092755
  39 C :   -0.004479
  40 C :    0.098859
  41 C :   -0.018246
  42 C :    0.054972
  43 C :   -0.136809
  44 S :    0.171506
  45 C :    0.020907
  46 C :    0.203116
  47 O :   -0.157368
  48 N :   -0.307142
  49 C :    0.133375
  50 C :   -0.009398
  51 C :    0.188625
  52 O :   -0.152794
  53 C :    0.077756
  54 C :   -0.188824
  55 C :    0.039659
  56 C :   -0.137737
  57 C :    0.140555
  58 O :   -0.118366
  59 C :    0.084170
  60 C :   -0.171471
  61 S :    0.186909
  62 C :   -0.124066
  63 C :    0.020121
  64 C :    0.243099
  65 C :   -0.307413
  66 C :   -0.181830
  67 N :    0.156282
  68 C :   -0.203514
  69 N :    0.179617
  70 Cl:    0.002920
  71 H :    0.056600
  72 H :    0.043187
  73 H :    0.011975
  74 H :    0.005344
  75 H :   -0.001901
  76 H :    0.014304
  77 H :    0.016950
  78 H :    0.040794
  79 H :    0.020835
  80 H :    0.025743
  81 H :    0.021830
  82 H :    0.037980
  83 H :    0.025614
  84 H :    0.047821
  85 H :    0.032676
  86 H :    0.026285
  87 H :    0.024866
  88 H :    0.040148
  89 H :   -0.027792
  90 H :    0.037347
  91 H :    0.032153
  92 H :    0.028264
  93 H :    0.024950
  94 H :    0.030806
  95 H :    0.048756
  96 H :    0.052526
Sum of atomic charges:   -0.0000000

LOEWDIN ATOMIC CHARGES
----------------------
   0 C :   -0.060091
   1 C :   -0.147097
   2 S :    0.484549
   3 C :   -0.270596
   4 Cl:    0.196536
   5 C :   -0.118620
   6 C :    0.081106
   7 O :   -0.122865
   8 C :   -0.078673
   9 C :    0.072839
  10 C :   -0.128157
  11 C :   -0.015443
  12 N :   -0.043801
  13 C :   -0.026000
  14 N :   -0.037146
  15 C :    0.078329
  16 C :   -0.036967
  17 C :    0.025423
  18 C :   -0.032039
  19 N :    0.287788
  20 O :   -0.194067
  21 O :   -0.193071
  22 C :    0.010255
  23 C :   -0.002853
  24 C :    0.048034
  25 C :    0.006816
  26 C :   -0.021057
  27 C :    0.082836
  28 N :   -0.003955
  29 C :    0.034284
  30 C :   -0.064117
  31 C :    0.085944
  32 O :   -0.172729
  33 C :   -0.100949
  34 C :   -0.119631
  35 C :    0.080014
  36 O :   -0.197301
  37 N :   -0.008824
  38 C :    0.034458
  39 C :   -0.062264
  40 C :    0.067384
  41 C :    0.012684
  42 C :   -0.043401
  43 C :   -0.109807
  44 S :    0.481202
  45 C :   -0.093016
  46 C :    0.094636
  47 O :   -0.147216
  48 N :   -0.028512
  49 C :    0.044707
  50 C :   -0.058933
  51 C :    0.089004
  52 O :   -0.151257
  53 C :   -0.049398
  54 C :   -0.156851
  55 C :    0.056994
  56 C :   -0.083376
  57 C :    0.080830
  58 O :   -0.123771
  59 C :   -0.118021
  60 C :   -0.271606
  61 S :    0.475763
  62 C :   -0.152152
  63 C :   -0.057394
  64 C :    0.060017
  65 C :   -0.137717
  66 C :   -0.017423
  67 N :   -0.047386
  68 C :   -0.037910
  69 N :   -0.042788
  70 Cl:    0.194691
  71 H :    0.039041
  72 H :    0.049899
  73 H :    0.044709
  74 H :    0.041397
  75 H :    0.038275
  76 H :    0.031301
  77 H :    0.046614
  78 H :    0.037174
  79 H :    0.021461
  80 H :    0.032068
  81 H :    0.031542
  82 H :    0.024843
  83 H :    0.018049
  84 H :    0.038321
  85 H :    0.024592
  86 H :    0.032919
  87 H :    0.031033
  88 H :    0.050512
  89 H :    0.028668
  90 H :    0.034587
  91 H :    0.033111
  92 H :    0.029071
  93 H :    0.031299
  94 H :    0.029685
  95 H :    0.061166
  96 H :    0.037789

  Mayer bond orders larger than 0.100000
B(  0-C ,  1-C ) :   1.5399 B(  0-C ,  5-C ) :   1.2200 B(  0-C ,  9-C ) :   1.0078
B(  1-C ,  2-S ) :   1.1669 B(  1-C , 71-H ) :   0.9544 B(  2-S ,  3-C ) :   1.1566
B(  3-C ,  4-Cl) :   1.1335 B(  3-C ,  5-C ) :   1.4705 B(  5-C ,  6-C ) :   0.9558
B(  6-C ,  7-O ) :   2.2412 B(  6-C ,  8-C ) :   0.9193 B(  8-C ,  9-C ) :   1.0377
B(  8-C , 15-C ) :   1.7164 B(  9-C , 10-C ) :   1.6810 B( 10-C , 11-C ) :   1.1415
B( 10-C , 13-C ) :   1.1334 B( 11-C , 12-N ) :   2.9940 B( 13-C , 14-N ) :   2.9904
B( 15-C , 16-C ) :   1.0378 B( 15-C , 72-H ) :   0.9500 B( 16-C , 17-C ) :   1.2947
B( 16-C , 24-C ) :   1.3310 B( 17-C , 18-C ) :   1.3701 B( 17-C , 73-H ) :   0.9984
B( 18-C , 19-N ) :   0.8864 B( 18-C , 22-C ) :   1.3360 B( 19-N , 20-O ) :   1.5636
B( 19-N , 21-O ) :   1.5004 B( 20-O , 21-O ) :   0.2626 B( 22-C , 23-C ) :   1.3436
B( 22-C , 25-C ) :   1.0548 B( 23-C , 24-C ) :   1.4090 B( 23-C , 74-H ) :   0.9923
B( 24-C , 75-H ) :   0.9831 B( 25-C , 26-C ) :   1.6631 B( 25-C , 76-H ) :   0.9462
B( 26-C , 27-C ) :   1.1701 B( 26-C , 77-H ) :   0.9443 B( 27-C , 28-N ) :   1.1872
B( 27-C , 34-C ) :   1.3454 B( 28-N , 29-C ) :   0.9392 B( 28-N , 31-C ) :   1.0227
B( 29-C , 30-C ) :   1.1168 B( 29-C , 78-H ) :   0.9251 B( 29-C , 79-H ) :   0.9498
B( 30-C , 80-H ) :   0.9583 B( 30-C , 81-H ) :   0.9674 B( 30-C , 82-H ) :   0.9652
B( 31-C , 32-O ) :   2.1469 B( 31-C , 33-C ) :   0.9646 B( 33-C , 34-C ) :   1.2315
B( 33-C , 40-C ) :   1.3689 B( 34-C , 35-C ) :   0.9865 B( 35-C , 36-O ) :   2.1155
B( 35-C , 37-N ) :   1.0376 B( 37-N , 38-C ) :   0.9412 B( 37-N , 40-C ) :   1.1686
B( 38-C , 39-C ) :   1.1170 B( 38-C , 83-H ) :   0.9501 B( 38-C , 84-H ) :   0.9235
B( 39-C , 85-H ) :   0.9658 B( 39-C , 86-H ) :   0.9666 B( 39-C , 87-H ) :   0.9628
B( 40-C , 41-C ) :   1.1733 B( 41-C , 42-C ) :   1.5977 B( 41-C , 88-H ) :   0.9310
B( 42-C , 43-C ) :   1.1471 B( 42-C , 89-H ) :   0.9582 B( 43-C , 44-S ) :   1.1475
B( 43-C , 45-C ) :   1.4633 B( 44-S , 54-C ) :   1.1042 B( 45-C , 46-C ) :   0.8887
B( 45-C , 53-C ) :   1.2940 B( 46-C , 47-O ) :   2.1331 B( 46-C , 48-N ) :   1.0792
B( 48-N , 49-C ) :   0.9161 B( 48-N , 51-C ) :   1.0777 B( 49-C , 50-C ) :   1.1269
B( 49-C , 90-H ) :   0.9409 B( 49-C , 91-H ) :   0.9412 B( 50-C , 92-H ) :   0.9686
B( 50-C , 93-H ) :   0.9702 B( 50-C , 94-H ) :   0.9691 B( 51-C , 52-O ) :   2.1948
B( 51-C , 53-C ) :   0.8804 B( 53-C , 54-C ) :   1.5014 B( 54-C , 55-C ) :   1.1236
B( 55-C , 56-C ) :   1.6703 B( 55-C , 95-H ) :   0.9419 B( 56-C , 57-C ) :   0.9293
B( 56-C , 64-C ) :   1.0321 B( 57-C , 58-O ) :   2.2910 B( 57-C , 59-C ) :   0.9222
B( 59-C , 60-C ) :   1.4861 B( 59-C , 63-C ) :   1.2219 B( 60-C , 61-S ) :   1.1530
B( 60-C , 70-Cl) :   1.1319 B( 61-S , 62-C ) :   1.1591 B( 62-C , 63-C ) :   1.5529
B( 62-C , 96-H ) :   0.9568 B( 63-C , 64-C ) :   1.0147 B( 64-C , 65-C ) :   1.6716
B( 65-C , 66-C ) :   1.1330 B( 65-C , 68-C ) :   1.1491 B( 66-C , 67-N ) :   3.0029
B( 68-C , 69-N ) :   3.0249

-----------------------------------------------------------------------------
         ABSORPTION SPECTRUM VIA TRANSITION ELECTRIC DIPOLE MOMENTS
-----------------------------------------------------------------------------
State   Energy  Wavelength   fosc         T2         TX        TY        TZ
        (cm-1)    (nm)                  (au**2)     (au)      (au)      (au)
-----------------------------------------------------------------------------
   0   13958.5    716.4   1.107133633  26.11173  -3.07339   2.96057   2.81087
   1   18416.5    543.0   0.071435136   1.27697   0.05562  -1.11287  -0.18814
   2   21284.4    469.8   0.022413173   0.34667  -0.18726   0.30449  -0.46786
   3   23741.9    421.2   0.251812217   3.49170  -1.18463   0.39752   1.38936
   4   24671.7    405.3   0.049518392   0.66076  -0.52360   0.60509   0.14303
   5   25885.6    386.3   0.001989958   0.02531  -0.05450  -0.14931  -0.00665
   6   26283.2    380.5   0.256842355   3.21709  -0.54838   1.69187   0.23231
   7   27127.9    368.6   0.070848851   0.85979  -0.86529   0.31417   0.11116
   8   27658.3    361.6   0.001614805   0.01922   0.02321  -0.10373  -0.08900
   9   28211.8    354.5   0.008968679   0.10466   0.17249   0.23283  -0.14387
  10   28563.2    350.1   0.023793066   0.27423   0.30116   0.42421  -0.05980
  11   29145.8    343.1   0.073498707   0.83019  -0.07264  -0.90806   0.01837
  12   29185.0    342.6   0.179315082   2.02271   0.74658  -1.20025  -0.15729
  13   29368.5    340.5   0.104198531   1.16803  -0.03859   1.07354   0.11853
  14   29904.0    334.4   0.107788939   1.18665  -0.53126   0.86296  -0.39964
  15   30771.0    325.0   0.418453032   4.47693   1.09261  -1.79307  -0.26084
  16   31382.3    318.7   0.009060345   0.09505   0.24419  -0.17857  -0.05940
  17   31492.0    317.5   0.141567061   1.47992  -0.80294  -0.76312   0.50285
  18   31673.2    315.7   0.023172083   0.24085   0.00191  -0.41525   0.26156
  19   31894.1    313.5   0.099610492   1.02818   0.98569  -0.23771  -0.00918
  20   32732.0    305.5   0.054446351   0.54761  -0.14897  -0.59556   0.41320
  21   33450.4    299.0   0.033086641   0.32563  -0.56513   0.06839   0.03983
  22   33976.0    294.3   0.004989217   0.04834  -0.14827  -0.10275   0.12570
  23   34282.4    291.7   0.047867511   0.45967  -0.16579   0.65230  -0.08173
  24   34441.0    290.4   0.087701659   0.83832   0.71842  -0.10087   0.55859
  25   34570.8    289.3   0.009845028   0.09375   0.29528  -0.03025   0.07514
  26   34581.2    289.2   0.031379859   0.29874   0.42009  -0.32189  -0.13655
  27   35165.4    284.4   0.182770598   1.71106  -0.69627   1.08914  -0.20009
  28   35268.6    283.5   0.001036381   0.00967   0.07961  -0.04005   0.04162
  29   35372.3    282.7   0.068697186   0.63937  -0.70711   0.37109  -0.04071
  30   35739.7    279.8   0.001134058   0.01045   0.03212  -0.03936  -0.08869
  31   36179.0    276.4   0.076881749   0.69959   0.78522  -0.20976  -0.19751
  32   36579.7    273.4   0.331312762   2.98176  -1.26224   1.11833  -0.37127
  33   36751.3    272.1   0.113905904   1.02035  -0.79750  -0.61404  -0.08547
  34   37080.0    269.7   0.349809231   3.10575   1.71193  -0.04379   0.41610
  35   37159.3    269.1   0.007346166   0.06508   0.03806   0.07642   0.24041
  36   37283.9    268.2   0.234459645   2.07025   0.98377   0.95727   0.43137
  37   37341.8    267.8   0.034572416   0.30480   0.54352   0.09680  -0.00404
  38   37726.9    265.1   0.106424873   0.92868  -0.91747  -0.08834  -0.28130
  39   37934.8    263.6   0.256095359   2.22249   0.78576   0.93245   0.85767
  40   38051.8    262.8   0.213429528   1.84653  -1.23696   0.14632  -0.54319
  41   38216.1    261.7   0.054371700   0.46838  -0.44175  -0.17323   0.49319
  42   38639.1    258.8   0.073883630   0.62950  -0.63899  -0.25305   0.39642
  43   39280.8    254.6   0.038526354   0.32289  -0.53258  -0.19794   0.00796
  44   39687.4    252.0   0.040431029   0.33538   0.26223  -0.01553   0.51612
  45   39836.9    251.0   0.049141244   0.40610  -0.32879  -0.40875  -0.36183
  46   40093.7    249.4   0.086662110   0.71159  -0.43636   0.62822  -0.35570

FINAL SINGLE POINT ENERGY     -5071.273524847724

DIPOLE MOMENT
-------------
                                X             Y             Z
Electronic contribution:     20.17924      22.74970     -12.95332
Nuclear contribution   :    -21.31733     -22.03273      12.59488
                        -----------------------------------------
Total Dipole Moment    :     -1.13809       0.71698      -0.35844
                        -----------------------------------------
Magnitude (a.u.)       :      1.39205
Magnitude (Debye)      :      3.53830

Rotational constants in cm-1:     0.001827     0.000206     0.000200
Rotational constants in MHz :    54.758583     6.168853     6.005124

                             ****ORCA TERMINATED NORMALLY****
TOTAL RUN TIME: 0 days 0 hours 9 minutes 16 seconds 320 msec
