                         Program Version 4.2.0 -  RELEASE  -
|  1> # ORCA input file
|  2> # SCF done       -191.429186125859          0.000373555766
|  3> ! CAM-B3LYP def2-SVP def2/J RIJCOSX Grid4 TightSCF
|  4> %maxcore 5000
|  5> %tddft
|  6>     Mode sTDDFT
|  7>     Ethresh 5.0
|  8>     maxcore 5000
|  9> end
| 10>
| 11> %pal
| 12>   nprocs 6
| 13>   end
| 14> * xyz 0 1
| 15>    C        3.47815         3.03224        -0.43410
| 16>    C        3.23767         4.35919        -0.25026
| 17>    S        4.67373         5.19447         0.21443
| 18>    C        5.62240         3.72754         0.16221
| 19>   Cl        7.27516         3.73148         0.53155
| 20>    C        4.84243         2.66857        -0.19740
| 21>    C        5.02740         1.22915        -0.40588
| 22>    O        6.05467         0.60055        -0.30402
| 23>    C        3.67786         0.73094        -0.83051
| 24>    C        2.73292         1.84681        -0.79993
| 25>    C        1.38135         1.81308        -1.00789
| 26>    C        0.59902         2.98573        -0.92418
| 27>    N       -0.05065         3.92887        -0.86172
| 28>    C        0.61120         0.66655        -1.29183
| 29>    N       -0.07901        -0.22486        -1.50833
| 30>    C        3.38655        -0.49379        -1.33582
| 31>    C        4.19282        -1.68782        -1.37356
| 32>    C        3.96672        -2.59864        -2.41046
| 33>    C        4.69201        -3.77046        -2.49746
| 34>    N        4.33192        -4.69106        -3.54947
| 35>    O        3.84621        -4.22022        -4.55397
| 36>    O        4.50046        -5.87401        -3.34569
| 37>    C        5.68067        -4.10107        -1.54936
| 38>    C        5.85690        -3.20092        -0.48943
| 39>    C        5.13468        -2.03421        -0.39359
| 40>    C        6.50658        -5.27309        -1.68960
| 41>    C        7.00999        -5.97722        -0.65188
| 42>    C        7.81587        -7.13282        -0.84891
| 43>    N        8.23589        -7.95947         0.16735
| 44>    C        7.92003        -7.83451         1.56949
| 45>    C        6.50465        -8.31618         1.87927
| 46>    C        8.97698        -9.05184        -0.31532
| 47>    O        9.44675        -9.91311         0.40275
| 48>    C        9.01864        -8.85213        -1.74623
| 49>    C        8.30647        -7.65946        -2.03839
| 50>    C        8.36506        -7.44569        -3.46727
| 51>    O        7.94605        -6.55380        -4.17645
| 52>    N        9.09481        -8.54603        -3.95224
| 53>    C        9.31263        -8.72472        -5.36732
| 54>    C        8.31571        -9.71012        -5.97285
| 55>    C        9.48515        -9.39221        -2.94154
| 56>    C       10.22684       -10.58675        -3.15799
| 57>    C       10.63333       -11.38057        -2.14186
| 58>    C       11.37965       -12.60548        -2.28145
| 59>    C       11.97178       -13.16407        -1.14621
| 60>    C       12.70450       -14.33538        -1.22615
| 61>    N       13.25654       -14.85241         0.00001
| 62>    O       13.41424       -14.07220         0.91303
| 63>    O       13.52948       -16.03563         0.05260
| 64>    C       12.87085       -15.01872        -2.44517
| 65>    C       12.25764       -14.45703        -3.57263
| 66>    C       11.53881       -13.28767        -3.49818
| 67>    C       13.68425       -16.20556        -2.58222
| 68>    C       13.39204       -17.22315        -3.41654
| 69>    C       14.16310       -18.41875        -3.53116
| 70>    C       15.48868       -18.62961        -3.33110
| 71>    C       15.95631       -20.04319        -3.13764
| 72>    O       15.32008       -21.04265        -3.36455
| 73>    C       17.30816       -19.90876        -2.58591
| 74>    C       18.27488       -20.73036        -2.08800
| 75>    S       19.67191       -19.80210        -1.59495
| 76>    C       18.93759       -18.31775        -2.07903
| 77>    C       17.69091       -18.52700        -2.58047
| 78>    C       16.62205       -17.73560        -3.16087
| 79>    C       16.78336       -16.46046        -3.63427
| 80>    C       17.99442       -15.75798        -3.45872
| 81>    N       18.96740       -15.16749        -3.31516
| 82>    C       15.82887       -15.74611        -4.38043
| 83>    N       15.09896       -15.12390        -5.01142
| 84>   Cl       18.23352       -22.41516        -1.92458
| 85>    H        2.32259         4.90682        -0.35820
| 86>    H        2.42195        -0.60722        -1.81739
| 87>    H        3.21912        -2.39786        -3.16477
| 88>    H        6.60525        -3.41937         0.25623
| 89>    H        5.28973        -1.38640         0.45211
| 90>    H        6.71861        -5.61274        -2.69521
| 91>    H        6.76066        -5.70781         0.36480
| 92>    H        8.05770        -6.79627         1.88456
| 93>    H        8.64373        -8.46077         2.09880
| 94>    H        5.76540        -7.74498         1.32190
| 95>    H        6.30362        -8.20943         2.94167
| 96>    H        6.40386        -9.36466         1.61049
| 97>    H       10.34251        -9.04800        -5.54272
| 98>    H        9.17171        -7.73976        -5.82114
| 99>    H        8.39478       -10.68778        -5.50195
|100>    H        8.50353        -9.81640        -7.03765
|101>    H        7.30247        -9.34172        -5.83387
|102>    H       10.47220       -10.83313        -4.18056
|103>    H       10.40653       -11.08280        -1.12650
|104>    H       11.86182       -12.68320        -0.18487
|105>    H       12.40061       -14.93950        -4.52636
|106>    H       11.08297       -12.89876        -4.39495
|107>    H       14.54516       -16.29213        -1.93310
|108>    H       12.45470       -17.21544        -3.95689
|109>    H       13.59975       -19.32087        -3.75384
|110>    H       19.47324       -17.39847        -1.94832
|111> *
|112>
|113>                          ****END OF INPUT****

CARTESIAN COORDINATES (ANGSTROEM)
---------------------------------
  C      3.478150    3.032240   -0.434100
  C      3.237670    4.359190   -0.250260
  S      4.673730    5.194470    0.214430
  C      5.622400    3.727540    0.162210
  Cl     7.275160    3.731480    0.531550
  C      4.842430    2.668570   -0.197400
  C      5.027400    1.229150   -0.405880
  O      6.054670    0.600550   -0.304020
  C      3.677860    0.730940   -0.830510
  C      2.732920    1.846810   -0.799930
  C      1.381350    1.813080   -1.007890
  C      0.599020    2.985730   -0.924180
  N     -0.050650    3.928870   -0.861720
  C      0.611200    0.666550   -1.291830
  N     -0.079010   -0.224860   -1.508330
  C      3.386550   -0.493790   -1.335820
  C      4.192820   -1.687820   -1.373560
  C      3.966720   -2.598640   -2.410460
  C      4.692010   -3.770460   -2.497460
  N      4.331920   -4.691060   -3.549470
  O      3.846210   -4.220220   -4.553970
  O      4.500460   -5.874010   -3.345690
  C      5.680670   -4.101070   -1.549360
  C      5.856900   -3.200920   -0.489430
  C      5.134680   -2.034210   -0.393590
  C      6.506580   -5.273090   -1.689600
  C      7.009990   -5.977220   -0.651880
  C      7.815870   -7.132820   -0.848910
  N      8.235890   -7.959470    0.167350
  C      7.920030   -7.834510    1.569490
  C      6.504650   -8.316180    1.879270
  C      8.976980   -9.051840   -0.315320
  O      9.446750   -9.913110    0.402750
  C      9.018640   -8.852130   -1.746230
  C      8.306470   -7.659460   -2.038390
  C      8.365060   -7.445690   -3.467270
  O      7.946050   -6.553800   -4.176450
  N      9.094810   -8.546030   -3.952240
  C      9.312630   -8.724720   -5.367320
  C      8.315710   -9.710120   -5.972850
  C      9.485150   -9.392210   -2.941540
  C     10.226840  -10.586750   -3.157990
  C     10.633330  -11.380570   -2.141860
  C     11.379650  -12.605480   -2.281450
  C     11.971780  -13.164070   -1.146210
  C     12.704500  -14.335380   -1.226150
  N     13.256540  -14.852410    0.000010
  O     13.414240  -14.072200    0.913030
  O     13.529480  -16.035630    0.052600
  C     12.870850  -15.018720   -2.445170
  C     12.257640  -14.457030   -3.572630
  C     11.538810  -13.287670   -3.498180
  C     13.684250  -16.205560   -2.582220
  C     13.392040  -17.223150   -3.416540
  C     14.163100  -18.418750   -3.531160
  C     15.488680  -18.629610   -3.331100
  C     15.956310  -20.043190   -3.137640
  O     15.320080  -21.042650   -3.364550
  C     17.308160  -19.908760   -2.585910
  C     18.274880  -20.730360   -2.088000
  S     19.671910  -19.802100   -1.594950
  C     18.937590  -18.317750   -2.079030
  C     17.690910  -18.527000   -2.580470
  C     16.622050  -17.735600   -3.160870
  C     16.783360  -16.460460   -3.634270
  C     17.994420  -15.757980   -3.458720
  N     18.967400  -15.167490   -3.315160
  C     15.828870  -15.746110   -4.380430
  N     15.098960  -15.123900   -5.011420
  Cl    18.233520  -22.415160   -1.924580
  H      2.322590    4.906820   -0.358200
  H      2.421950   -0.607220   -1.817390
  H      3.219120   -2.397860   -3.164770
  H      6.605250   -3.419370    0.256230
  H      5.289730   -1.386400    0.452110
  H      6.718610   -5.612740   -2.695210
  H      6.760660   -5.707810    0.364800
  H      8.057700   -6.796270    1.884560
  H      8.643730   -8.460770    2.098800
  H      5.765400   -7.744980    1.321900
  H      6.303620   -8.209430    2.941670
  H      6.403860   -9.364660    1.610490
  H     10.342510   -9.048000   -5.542720
  H      9.171710   -7.739760   -5.821140
  H      8.394780  -10.687780   -5.501950
  H      8.503530   -9.816400   -7.037650
  H      7.302470   -9.341720   -5.833870
  H     10.472200  -10.833130   -4.180560
  H     10.406530  -11.082800   -1.126500
  H     11.861820  -12.683200   -0.184870
  H     12.400610  -14.939500   -4.526360
  H     11.082970  -12.898760   -4.394950
  H     14.545160  -16.292130   -1.933100
  H     12.454700  -17.215440   -3.956890
  H     13.599750  -19.320870   -3.753840
  H     19.473240  -17.398470   -1.948320

 Total Charge           Charge          ....    0
 Multiplicity           Mult            ....    1
 Number of Electrons    NEL             ....  512
 Basis Dimension        Dim             .... 1126

ORBITAL ENERGIES
----------------

  NO   OCC          E(Eh)            E(eV)
   0   2.0000    -101.624343     -2765.3389
   1   2.0000    -101.617217     -2765.1451
   2   2.0000     -89.001164     -2421.8448
   3   2.0000     -88.993441     -2421.6346
   4   2.0000     -19.250879      -523.8430
   5   2.0000     -19.249641      -523.8093
   6   2.0000     -19.247910      -523.7623
   7   2.0000     -19.246124      -523.7137
   8   2.0000     -19.231214      -523.3079
   9   2.0000     -19.219374      -522.9858
  10   2.0000     -19.194405      -522.3063
  11   2.0000     -19.194121      -522.2986
  12   2.0000     -14.655728      -398.8026
  13   2.0000     -14.652450      -398.7134
  14   2.0000     -14.456896      -393.3921
  15   2.0000     -14.456822      -393.3901
  16   2.0000     -14.428103      -392.6086
  17   2.0000     -14.426756      -392.5720
  18   2.0000     -14.425492      -392.5376
  19   2.0000     -14.421988      -392.4422
  20   2.0000     -10.389052      -282.7005
  21   2.0000     -10.383884      -282.5598
  22   2.0000     -10.376845      -282.3683
  23   2.0000     -10.376822      -282.3677
  24   2.0000     -10.376148      -282.3493
  25   2.0000     -10.375586      -282.3341
  26   2.0000     -10.356779      -281.8223
  27   2.0000     -10.356122      -281.8044
  28   2.0000     -10.352484      -281.7054
  29   2.0000     -10.350087      -281.6402
  30   2.0000     -10.343494      -281.4608
  31   2.0000     -10.341395      -281.4037
  32   2.0000     -10.340327      -281.3746
  33   2.0000     -10.340135      -281.3694
  34   2.0000     -10.336802      -281.2787
  35   2.0000     -10.332782      -281.1693
  36   2.0000     -10.329992      -281.0934
  37   2.0000     -10.329831      -281.0890
  38   2.0000     -10.328572      -281.0547
  39   2.0000     -10.327332      -281.0210
  40   2.0000     -10.324128      -280.9338
  41   2.0000     -10.324072      -280.9323
  42   2.0000     -10.320541      -280.8362
  43   2.0000     -10.320079      -280.8236
  44   2.0000     -10.319198      -280.7997
  45   2.0000     -10.318467      -280.7798
  46   2.0000     -10.314701      -280.6773
  47   2.0000     -10.313628      -280.6481
  48   2.0000     -10.313547      -280.6459
  49   2.0000     -10.312662      -280.6218
  50   2.0000     -10.311589      -280.5926
  51   2.0000     -10.310154      -280.5535
  52   2.0000     -10.307636      -280.4850
  53   2.0000     -10.307321      -280.4765
  54   2.0000     -10.306333      -280.4496
  55   2.0000     -10.305583      -280.4292
  56   2.0000     -10.303854      -280.3821
  57   2.0000     -10.302330      -280.3407
  58   2.0000     -10.301455      -280.3169
  59   2.0000     -10.300413      -280.2885
  60   2.0000     -10.299328      -280.2590
  61   2.0000     -10.298844      -280.2458
  62   2.0000     -10.297617      -280.2124
  63   2.0000     -10.297544      -280.2104
  64   2.0000     -10.297530      -280.2100
  65   2.0000     -10.296469      -280.1812
  66   2.0000     -10.267374      -279.3895
  67   2.0000     -10.266634      -279.3693
  68   2.0000     -10.263911      -279.2952
  69   2.0000     -10.263435      -279.2823
  70   2.0000      -9.579091      -260.6603
  71   2.0000      -9.571942      -260.4658
  72   2.0000      -8.096855      -220.3266
  73   2.0000      -8.089199      -220.1183
  74   2.0000      -7.349751      -199.9969
  75   2.0000      -7.342584      -199.8019
  76   2.0000      -7.339125      -199.7077
  77   2.0000      -7.338568      -199.6926
  78   2.0000      -7.331983      -199.5134
  79   2.0000      -7.331453      -199.4990
  80   2.0000      -6.066248      -165.0710
  81   2.0000      -6.061575      -164.9438
  82   2.0000      -6.059145      -164.8777
  83   2.0000      -6.058585      -164.8625
  84   2.0000      -6.053960      -164.7366
  85   2.0000      -6.051451      -164.6684
  86   2.0000      -1.331310       -36.2268
  87   2.0000      -1.328549       -36.1517
  88   2.0000      -1.149686       -31.2846
  89   2.0000      -1.148975       -31.2652
  90   2.0000      -1.147861       -31.2349
  91   2.0000      -1.137140       -30.9431
  92   2.0000      -1.136733       -30.9321
  93   2.0000      -1.130524       -30.7631
  94   2.0000      -1.067391       -29.0452
  95   2.0000      -1.059256       -28.8238
  96   2.0000      -1.045952       -28.4618
  97   2.0000      -1.038719       -28.2650
  98   2.0000      -1.024948       -27.8903
  99   2.0000      -1.020537       -27.7702
 100   2.0000      -1.005942       -27.3731
 101   2.0000      -1.003178       -27.2979
 102   2.0000      -1.002645       -27.2833
 103   2.0000      -0.998416       -27.1683
 104   2.0000      -0.994958       -27.0742
 105   2.0000      -0.989092       -26.9146
 106   2.0000      -0.962948       -26.2032
 107   2.0000      -0.956269       -26.0214
 108   2.0000      -0.938433       -25.5361
 109   2.0000      -0.936369       -25.4799
 110   2.0000      -0.930369       -25.3166
 111   2.0000      -0.922105       -25.0917
 112   2.0000      -0.914850       -24.8943
 113   2.0000      -0.911448       -24.8018
 114   2.0000      -0.907471       -24.6935
 115   2.0000      -0.897761       -24.4293
 116   2.0000      -0.890197       -24.2235
 117   2.0000      -0.881480       -23.9863
 118   2.0000      -0.872731       -23.7482
 119   2.0000      -0.859456       -23.3870
 120   2.0000      -0.843517       -22.9533
 121   2.0000      -0.840236       -22.8640
 122   2.0000      -0.833276       -22.6746
 123   2.0000      -0.823851       -22.4181
 124   2.0000      -0.816413       -22.2157
 125   2.0000      -0.804576       -21.8936
 126   2.0000      -0.797995       -21.7145
 127   2.0000      -0.796594       -21.6764
 128   2.0000      -0.775068       -21.0907
 129   2.0000      -0.768055       -20.8998
 130   2.0000      -0.764187       -20.7946
 131   2.0000      -0.762839       -20.7579
 132   2.0000      -0.752438       -20.4749
 133   2.0000      -0.737989       -20.0817
 134   2.0000      -0.729950       -19.8629
 135   2.0000      -0.715891       -19.4804
 136   2.0000      -0.713038       -19.4027
 137   2.0000      -0.708150       -19.2697
 138   2.0000      -0.703494       -19.1430
 139   2.0000      -0.696805       -18.9610
 140   2.0000      -0.691217       -18.8090
 141   2.0000      -0.685932       -18.6652
 142   2.0000      -0.684783       -18.6339
 143   2.0000      -0.677040       -18.4232
 144   2.0000      -0.668473       -18.1901
 145   2.0000      -0.656977       -17.8772
 146   2.0000      -0.654311       -17.8047
 147   2.0000      -0.652089       -17.7443
 148   2.0000      -0.642540       -17.4844
 149   2.0000      -0.639442       -17.4001
 150   2.0000      -0.633833       -17.2475
 151   2.0000      -0.629970       -17.1424
 152   2.0000      -0.628724       -17.1085
 153   2.0000      -0.622622       -16.9424
 154   2.0000      -0.619308       -16.8522
 155   2.0000      -0.614557       -16.7229
 156   2.0000      -0.613329       -16.6895
 157   2.0000      -0.609592       -16.5878
 158   2.0000      -0.604211       -16.4414
 159   2.0000      -0.601783       -16.3754
 160   2.0000      -0.600703       -16.3460
 161   2.0000      -0.595962       -16.2169
 162   2.0000      -0.590930       -16.0800
 163   2.0000      -0.587550       -15.9881
 164   2.0000      -0.582035       -15.8380
 165   2.0000      -0.572573       -15.5805
 166   2.0000      -0.570033       -15.5114
 167   2.0000      -0.567010       -15.4291
 168   2.0000      -0.560754       -15.2589
 169   2.0000      -0.558619       -15.2008
 170   2.0000      -0.552930       -15.0460
 171   2.0000      -0.551876       -15.0173
 172   2.0000      -0.548909       -14.9366
 173   2.0000      -0.545950       -14.8561
 174   2.0000      -0.543855       -14.7990
 175   2.0000      -0.543536       -14.7904
 176   2.0000      -0.540735       -14.7142
 177   2.0000      -0.536582       -14.6011
 178   2.0000      -0.536273       -14.5927
 179   2.0000      -0.534677       -14.5493
 180   2.0000      -0.531737       -14.4693
 181   2.0000      -0.531187       -14.4543
 182   2.0000      -0.523875       -14.2554
 183   2.0000      -0.520996       -14.1770
 184   2.0000      -0.519932       -14.1481
 185   2.0000      -0.517341       -14.0776
 186   2.0000      -0.513551       -13.9744
 187   2.0000      -0.512438       -13.9441
 188   2.0000      -0.508486       -13.8366
 189   2.0000      -0.505030       -13.7426
 190   2.0000      -0.502786       -13.6815
 191   2.0000      -0.501201       -13.6384
 192   2.0000      -0.500721       -13.6253
 193   2.0000      -0.495341       -13.4789
 194   2.0000      -0.491734       -13.3808
 195   2.0000      -0.491333       -13.3698
 196   2.0000      -0.490844       -13.3565
 197   2.0000      -0.485715       -13.2170
 198   2.0000      -0.483893       -13.1674
 199   2.0000      -0.479511       -13.0482
 200   2.0000      -0.478306       -13.0154
 201   2.0000      -0.469923       -12.7872
 202   2.0000      -0.466127       -12.6839
 203   2.0000      -0.462594       -12.5878
 204   2.0000      -0.461503       -12.5581
 205   2.0000      -0.461022       -12.5450
 206   2.0000      -0.460332       -12.5263
 207   2.0000      -0.459425       -12.5016
 208   2.0000      -0.458142       -12.4667
 209   2.0000      -0.457346       -12.4450
 210   2.0000      -0.455592       -12.3973
 211   2.0000      -0.453709       -12.3460
 212   2.0000      -0.453108       -12.3297
 213   2.0000      -0.452182       -12.3045
 214   2.0000      -0.450050       -12.2465
 215   2.0000      -0.447598       -12.1798
 216   2.0000      -0.444140       -12.0857
 217   2.0000      -0.442365       -12.0374
 218   2.0000      -0.441219       -12.0062
 219   2.0000      -0.439799       -11.9675
 220   2.0000      -0.438468       -11.9313
 221   2.0000      -0.437716       -11.9108
 222   2.0000      -0.435461       -11.8495
 223   2.0000      -0.431481       -11.7412
 224   2.0000      -0.428638       -11.6638
 225   2.0000      -0.426264       -11.5992
 226   2.0000      -0.423870       -11.5341
 227   2.0000      -0.420449       -11.4410
 228   2.0000      -0.414383       -11.2759
 229   2.0000      -0.410317       -11.1653
 230   2.0000      -0.404167       -10.9979
 231   2.0000      -0.402416       -10.9503
 232   2.0000      -0.400363       -10.8944
 233   2.0000      -0.391951       -10.6655
 234   2.0000      -0.389290       -10.5931
 235   2.0000      -0.387812       -10.5529
 236   2.0000      -0.384012       -10.4495
 237   2.0000      -0.379332       -10.3222
 238   2.0000      -0.377460       -10.2712
 239   2.0000      -0.375870       -10.2279
 240   2.0000      -0.359312        -9.7774
 241   2.0000      -0.358704        -9.7608
 242   2.0000      -0.353133        -9.6092
 243   2.0000      -0.351326        -9.5601
 244   2.0000      -0.344978        -9.3873
 245   2.0000      -0.344155        -9.3649
 246   2.0000      -0.341872        -9.3028
 247   2.0000      -0.337728        -9.1900
 248   2.0000      -0.335224        -9.1219
 249   2.0000      -0.332035        -9.0351
 250   2.0000      -0.324605        -8.8330
 251   2.0000      -0.318473        -8.6661
 252   2.0000      -0.315795        -8.5932
 253   2.0000      -0.307780        -8.3751
 254   2.0000      -0.296324        -8.0634
 255   2.0000      -0.242390        -6.5958
 256   0.0000      -0.109161        -2.9704
 257   0.0000      -0.100145        -2.7251
 258   0.0000      -0.079612        -2.1664
 259   0.0000      -0.061878        -1.6838
 260   0.0000      -0.057160        -1.5554

MULLIKEN ATOMIC CHARGES
-----------------------
   0 C :    0.031809
   1 C :   -0.127265
   2 S :    0.193578
   3 C :   -0.172283
   4 Cl:    0.003030
   5 C :    0.075469
   6 C :    0.149446
   7 O :   -0.129767
   8 C :   -0.080746
   9 C :    0.284524
  10 C :   -0.321552
  11 C :   -0.193190
  12 N :    0.158390
  13 C :   -0.193966
  14 N :    0.166246
  15 C :   -0.036189
  16 C :    0.068831
  17 C :   -0.055120
  18 C :    0.149725
  19 N :    0.243666
  20 O :   -0.228338
  21 O :   -0.220992
  22 C :    0.075143
  23 C :   -0.051072
  24 C :    0.093849
  25 C :    0.013678
  26 C :   -0.028254
  27 C :    0.129521
  28 N :   -0.258184
  29 C :    0.097600
  30 C :    0.001307
  31 C :    0.166101
  32 O :   -0.214240
  33 C :   -0.069163
  34 C :   -0.063268
  35 C :    0.172546
  36 O :   -0.205202
  37 N :   -0.261433
  38 C :    0.099722
  39 C :    0.004833
  40 C :    0.134291
  41 C :   -0.000920
  42 C :    0.004559
  43 C :    0.112639
  44 C :   -0.072180
  45 C :    0.158046
  46 N :    0.244888
  47 O :   -0.222415
  48 O :   -0.236446
  49 C :    0.021745
  50 C :   -0.003537
  51 C :    0.018289
  52 C :    0.034453
  53 C :    0.002336
  54 C :    0.037277
  55 C :   -0.125265
  56 C :    0.131119
  57 O :   -0.129002
  58 C :    0.097720
  59 C :   -0.174030
  60 S :    0.187568
  61 C :   -0.127819
  62 C :    0.009986
  63 C :    0.275508
  64 C :   -0.331389
  65 C :   -0.185619
  66 N :    0.157836
  67 C :   -0.188388
  68 N :    0.173761
  69 Cl:    0.000664
  70 H :    0.056009
  71 H :    0.031578
  72 H :    0.014804
  73 H :   -0.006283
  74 H :   -0.000372
  75 H :    0.038876
  76 H :   -0.022556
  77 H :    0.020655
  78 H :    0.045259
  79 H :    0.019220
  80 H :    0.024660
  81 H :    0.031549
  82 H :    0.023771
  83 H :    0.045508
  84 H :    0.009805
  85 H :    0.025152
  86 H :    0.036451
  87 H :   -0.028032
  88 H :    0.016723
  89 H :    0.018744
  90 H :    0.005155
  91 H :   -0.012894
  92 H :    0.032826
  93 H :    0.010599
  94 H :    0.033765
  95 H :    0.054563
Sum of atomic charges:   -0.0000000

LOEWDIN ATOMIC CHARGES
----------------------
   0 C :   -0.060067
   1 C :   -0.147476
   2 S :    0.481715
   3 C :   -0.271252
   4 Cl:    0.194581
   5 C :   -0.117940
   6 C :    0.081174
   7 O :   -0.126338
   8 C :   -0.082734
   9 C :    0.074013
  10 C :   -0.131530
  11 C :   -0.015001
  12 N :   -0.046723
  13 C :   -0.026669
  14 N :   -0.039724
  15 C :    0.079098
  16 C :   -0.039854
  17 C :    0.027730
  18 C :   -0.024608
  19 N :    0.284435
  20 O :   -0.196060
  21 O :   -0.182649
  22 C :    0.010214
  23 C :   -0.008898
  24 C :    0.042201
  25 C :    0.031495
  26 C :   -0.036705
  27 C :    0.074370
  28 N :    0.000549
  29 C :    0.036157
  30 C :   -0.061225
  31 C :    0.080358
  32 O :   -0.203354
  33 C :   -0.122987
  34 C :   -0.116692
  35 C :    0.083220
  36 O :   -0.192356
  37 N :    0.000724
  38 C :    0.036430
  39 C :   -0.060640
  40 C :    0.079630
  41 C :   -0.042780
  42 C :    0.033809
  43 C :   -0.021859
  44 C :    0.018503
  45 C :   -0.022965
  46 N :    0.284954
  47 O :   -0.190603
  48 O :   -0.196277
  49 C :   -0.007929
  50 C :    0.009392
  51 C :    0.015179
  52 C :    0.041092
  53 C :   -0.034961
  54 C :    0.073175
  55 C :   -0.085129
  56 C :    0.082021
  57 O :   -0.131167
  58 C :   -0.117456
  59 C :   -0.272197
  60 S :    0.476516
  61 C :   -0.150098
  62 C :   -0.057546
  63 C :    0.070096
  64 C :   -0.139797
  65 C :   -0.017704
  66 N :   -0.049611
  67 C :   -0.010335
  68 N :   -0.046307
  69 Cl:    0.192958
  70 H :    0.038562
  71 H :    0.048968
  72 H :    0.045553
  73 H :    0.036134
  74 H :    0.036815
  75 H :    0.037458
  76 H :    0.027654
  77 H :    0.021767
  78 H :    0.038520
  79 H :    0.022979
  80 H :    0.030977
  81 H :    0.033217
  82 H :    0.022943
  83 H :    0.039043
  84 H :    0.019881
  85 H :    0.031263
  86 H :    0.035132
  87 H :    0.026985
  88 H :    0.039130
  89 H :    0.048062
  90 H :    0.038436
  91 H :    0.033250
  92 H :    0.033965
  93 H :    0.035944
  94 H :    0.049775
  95 H :    0.037999

  Mayer bond orders larger than 0.100000
B(  0-C ,  1-C ) :   1.5406 B(  0-C ,  5-C ) :   1.2189 B(  0-C ,  9-C ) :   1.0034
B(  1-C ,  2-S ) :   1.1648 B(  1-C , 70-H ) :   0.9546 B(  2-S ,  3-C ) :   1.1560
B(  3-C ,  4-Cl) :   1.1316 B(  3-C ,  5-C ) :   1.4717 B(  5-C ,  6-C ) :   0.9546
B(  6-C ,  7-O ) :   2.2385 B(  6-C ,  8-C ) :   0.9199 B(  8-C ,  9-C ) :   1.0513
B(  8-C , 15-C ) :   1.6665 B(  9-C , 10-C ) :   1.6661 B( 10-C , 11-C ) :   1.1438
B( 10-C , 13-C ) :   1.1333 B( 11-C , 12-N ) :   2.9925 B( 13-C , 14-N ) :   2.9837
B( 15-C , 16-C ) :   1.0764 B( 15-C , 71-H ) :   0.9487 B( 16-C , 17-C ) :   1.2703
B( 16-C , 24-C ) :   1.3299 B( 17-C , 18-C ) :   1.3912 B( 17-C , 72-H ) :   0.9991
B( 18-C , 19-N ) :   0.8750 B( 18-C , 22-C ) :   1.3323 B( 19-N , 20-O ) :   1.5535
B( 19-N , 21-O ) :   1.5333 B( 20-O , 21-O ) :   0.2698 B( 22-C , 23-C ) :   1.3337
B( 22-C , 25-C ) :   1.0622 B( 23-C , 24-C ) :   1.4138 B( 23-C , 73-H ) :   0.9917
B( 24-C , 74-H ) :   0.9796 B( 25-C , 26-C ) :   1.6761 B( 25-C , 75-H ) :   0.9175
B( 26-C , 27-C ) :   1.1437 B( 26-C , 76-H ) :   0.9620 B( 27-C , 28-N ) :   1.1568
B( 27-C , 34-C ) :   1.3617 B( 28-N , 29-C ) :   0.9473 B( 28-N , 31-C ) :   1.0620
B( 29-C , 30-C ) :   1.1199 B( 29-C , 77-H ) :   0.9506 B( 29-C , 78-H ) :   0.9282
B( 30-C , 79-H ) :   0.9684 B( 30-C , 80-H ) :   0.9678 B( 30-C , 81-H ) :   0.9637
B( 31-C , 32-O ) :   2.0181 B( 31-C , 33-C ) :   0.9893 B( 32-O , 88-H ) :   0.1158
B( 33-C , 34-C ) :   1.2469 B( 33-C , 40-C ) :   1.3497 B( 34-C , 35-C ) :   0.9822
B( 35-C , 36-O ) :   2.0306 B( 35-C , 37-N ) :   1.0551 B( 36-O , 75-H ) :   0.1098
B( 37-N , 38-C ) :   0.9457 B( 37-N , 40-C ) :   1.1626 B( 38-C , 39-C ) :   1.1195
B( 38-C , 82-H ) :   0.9501 B( 38-C , 83-H ) :   0.9271 B( 39-C , 84-H ) :   0.9682
B( 39-C , 85-H ) :   0.9680 B( 39-C , 86-H ) :   0.9638 B( 40-C , 41-C ) :   1.1457
B( 41-C , 42-C ) :   1.6251 B( 41-C , 87-H ) :   0.9588 B( 42-C , 43-C ) :   1.0667
B( 42-C , 88-H ) :   0.9617 B( 43-C , 44-C ) :   1.2832 B( 43-C , 51-C ) :   1.3099
B( 44-C , 45-C ) :   1.3609 B( 44-C , 89-H ) :   1.0062 B( 45-C , 46-N ) :   0.8809
B( 45-C , 49-C ) :   1.3457 B( 46-N , 47-O ) :   1.5660 B( 46-N , 48-O ) :   1.5123
B( 47-O , 48-O ) :   0.2657 B( 49-C , 50-C ) :   1.3481 B( 49-C , 52-C ) :   1.0839
B( 50-C , 51-C ) :   1.4149 B( 50-C , 90-H ) :   0.9806 B( 51-C , 91-H ) :   0.9924
B( 52-C , 53-C ) :   1.7098 B( 52-C , 92-H ) :   0.9374 B( 53-C , 54-C ) :   1.1289
B( 53-C , 93-H ) :   0.9589 B( 54-C , 55-C ) :   1.7091 B( 54-C , 94-H ) :   0.9263
B( 55-C , 56-C ) :   0.9370 B( 55-C , 63-C ) :   1.0290 B( 56-C , 57-O ) :   2.2751
B( 56-C , 58-C ) :   0.9229 B( 58-C , 59-C ) :   1.4826 B( 58-C , 62-C ) :   1.2222
B( 59-C , 60-S ) :   1.1517 B( 59-C , 69-Cl) :   1.1298 B( 60-S , 61-C ) :   1.1620
B( 61-C , 62-C ) :   1.5482 B( 61-C , 95-H ) :   0.9566 B( 62-C , 63-C ) :   1.0117
B( 63-C , 64-C ) :   1.6629 B( 64-C , 65-C ) :   1.1279 B( 64-C , 67-C ) :   1.1673
B( 65-C , 66-N ) :   3.0013 B( 67-C , 68-N ) :   2.9956

-----------------------------------------------------------------------------
         ABSORPTION SPECTRUM VIA TRANSITION ELECTRIC DIPOLE MOMENTS
-----------------------------------------------------------------------------
State   Energy  Wavelength   fosc         T2         TX        TY        TZ
        (cm-1)    (nm)                  (au**2)     (au)      (au)      (au)
-----------------------------------------------------------------------------
   0   15247.5    655.8   1.066317162  23.02308   2.65285  -3.83000  -1.14741
   1   19365.0    516.4   0.047204741   0.80250  -0.71530   0.38799   0.37457
   2   22277.3    448.9   0.044492894   0.65751   0.49714  -0.45966   0.44619
   3   24830.6    402.7   0.080167230   1.06288   1.01898  -0.10155   0.11933
   4   25498.7    392.2   0.360923937   4.65986   1.51902  -1.34363  -0.73968
   5   26196.2    381.7   0.258458232   3.24808  -1.00770   1.48523  -0.16344
   6   26377.9    379.1   0.007561782   0.09438   0.12146  -0.27941   0.03942
   7   27113.7    368.8   0.001610938   0.01956   0.06661   0.07846   0.09470
   8   28612.2    349.5   0.042593144   0.49008  -0.34282   0.56060  -0.24142
   9   28788.2    347.4   0.087544782   1.00113   0.74360  -0.65284   0.14830
  10   29029.8    344.5   0.084560428   0.95896  -0.61316   0.76303  -0.02777
  11   29161.2    342.9   0.007524550   0.08495  -0.21585  -0.19584   0.00243
  12   29625.1    337.6   0.013720353   0.15247   0.35870   0.12179   0.09473
  13   30458.6    328.3   0.710690093   7.68151   0.81888  -2.64703   0.06472
  14   30506.2    327.8   0.025342131   0.27348   0.21464  -0.46824  -0.09034
  15   31072.4    321.8   0.160196939   1.69729  -0.32322   1.15513  -0.50841
  16   32595.6    306.8   0.010333436   0.10437  -0.12518  -0.11625   0.27420
  17   32885.9    304.1   0.011345733   0.11358   0.25895  -0.21411   0.02606
  18   33006.0    303.0   0.118432792   1.18128   0.43426  -0.86931   0.48682
  19   33378.4    299.6   0.054745595   0.53996   0.03314   0.72880   0.08777
  20   33631.3    297.3   0.045663849   0.44700  -0.59752   0.19544  -0.22754
  21   33718.6    296.6   0.134163832   1.30991  -0.13907   1.13425   0.06356
  22   34437.4    290.4   0.050209105   0.47999  -0.07130  -0.60852   0.32343
  23   34926.1    286.3   0.009672426   0.09117  -0.04684  -0.26074  -0.14488
  24   35248.2    283.7   0.071943757   0.67194   0.25529   0.70689   0.32722
  25   35690.1    280.2   0.027346471   0.25225   0.26144  -0.42293   0.07093
  26   36337.8    275.2   0.055025119   0.49852   0.13005  -0.68894  -0.08346
  27   36456.7    274.3   0.039790950   0.35932   0.49272  -0.34002   0.03062
  28   36692.9    272.5   0.161788216   1.45158  -0.27354   1.01027  -0.59675
  29   37176.9    269.0   0.133620364   1.18324   0.87124   0.09382   0.64450
  30   37414.8    267.3   0.626611870   5.51354   0.30444   2.23671  -0.64653
  31   37515.5    266.6   0.045314749   0.39765  -0.14495   0.48738   0.37296
  32   37742.0    265.0   0.418736770   3.65251  -1.70706   0.33709  -0.79045
  33   38058.3    262.8   0.022764778   0.19692  -0.40379  -0.16589  -0.07971
  34   38336.0    260.9   0.052440310   0.45033  -0.56327  -0.21326  -0.29594
  35   38718.6    258.3   0.386381235   3.28528   1.50801   0.28975   0.96292
  36   38844.7    257.4   0.133210818   1.12897  -0.07736   1.03256  -0.23836
  37   39076.5    255.9   0.008287478   0.06982   0.09434  -0.21827   0.11523
  38   39279.8    254.6   0.126382530   1.05924  -0.13446  -0.89604  -0.48813
  39   39827.3    251.1   0.163066055   1.34790   0.14764  -1.13855  -0.17267
  40   40143.8    249.1   0.014121664   0.11581   0.07023   0.32636  -0.06608

FINAL SINGLE POINT ENERGY     -4673.061567582095

DIPOLE MOMENT
-------------
                                X             Y             Z
Electronic contribution:     30.71610       8.61909       9.79750
Nuclear contribution   :    -29.79093      -7.77100      -8.89575
                        -----------------------------------------
Total Dipole Moment    :      0.92517       0.84809       0.90175
                        -----------------------------------------
Magnitude (a.u.)       :      1.54543
Magnitude (Debye)      :      3.92816

Rotational constants in cm-1:     0.002881     0.000173     0.000170
Rotational constants in MHz :    86.364023     5.180767     5.086274

                             ****ORCA TERMINATED NORMALLY****
TOTAL RUN TIME: 0 days 0 hours 10 minutes 14 seconds 396 msec
