                         Program Version 4.2.0 -  RELEASE  -
|  1> # ORCA input file
|  2> # SCF done       -174.671378855412          0.000799336358
|  3> ! CAM-B3LYP def2-SVP def2/J RIJCOSX Grid4 TightSCF
|  4> %maxcore 5000
|  5> %tddft
|  6>     Mode sTDDFT
|  7>     Ethresh 5.0
|  8>     maxcore 5000
|  9> end
| 10>
| 11> %pal
| 12>   nprocs 6
| 13>   end
| 14> * xyz 0 1
| 15>    C        0.50694         0.40306        -0.95162
| 16>    C        0.67914         0.71083        -2.27642
| 17>    C        0.99825        -0.23951        -3.26950
| 18>    N        1.25007        -0.96030        -4.12698
| 19>    C        0.60862         2.00125        -2.84236
| 20>    N        0.58752         3.01838        -3.37617
| 21>    C        0.67902        -0.92181        -0.36921
| 22>    C        0.60114        -0.80306         1.04654
| 23>    C        0.73103        -1.88237         1.87197
| 24>    C        0.93996        -3.15962         1.30581
| 25>    C        1.00998        -3.28969        -0.11138
| 26>    C        0.87850        -2.15137        -0.93962
| 27>    C        1.21064        -4.57019        -0.66598
| 28>    C        1.33682        -5.66974         0.13863
| 29>    C        1.26860        -5.54014         1.53382
| 30>    C        1.07511        -4.31162         2.10506
| 31>    C        0.35917         0.60219         1.41351
| 32>    O        0.29417         1.03862         2.54394
| 33>    C        0.19836         1.32922         0.12885
| 34>    C       -0.29263         2.58765        -0.07739
| 35>    C       -0.65399         3.60694         0.83001
| 36>    S       -1.49330         4.99366         0.14678
| 37>    C       -1.62314         5.75589         1.69082
| 38>    C       -1.01313         4.96605         2.67511
| 39>    C       -0.47421         3.77006         2.19006
| 40>    C       -0.96786         5.36368         4.02320
| 41>    N       -0.93950         5.70337         5.11843
| 42>    C       -2.28766         6.98669         1.92258
| 43>    C       -2.89739         7.70244         0.95001
| 44>    C       -3.65708         8.91261         1.08098
| 45>    C       -3.89527         9.59610         2.30061
| 46>    O       -3.30636         9.11014         3.41824
| 47>    C       -3.49891         9.76218         4.65376
| 48>    C       -4.71472        10.71271         2.30128
| 49>    C       -5.30903        11.21068         1.13999
| 50>    C       -5.02873        10.56241        -0.08295
| 51>    C       -4.22882         9.43839        -0.08561
| 52>    O       -5.59616        11.10580        -1.19206
| 53>    C       -5.36167        10.52125        -2.45139
| 54>    C       -6.19989        12.34213         1.19227
| 55>    S       -6.87357        13.03031        -0.25264
| 56>    C       -7.76940        14.19606         0.65040
| 57>    C       -8.53741        15.26393        -0.01797
| 58>    O       -8.67468        16.36162         0.45459
| 59>    O       -9.04549        14.95589        -1.21823
| 60>    C       -7.56055        14.05695         2.01117
| 61>    C       -6.65394        13.01671         2.30021
| 62>    C       -8.18828        14.84677         3.04495
| 63>    C       -9.48485        15.22057         3.07213
| 64>    C      -10.11593        16.10629         4.04514
| 65>    C       -9.54787        16.61543         5.18070
| 66>    C      -10.21257        17.47631         6.08119
| 67>    N      -10.69274        18.17398         6.85564
| 68>    C       -8.24737        16.32850         5.64723
| 69>    N       -7.21285        16.12831         6.10401
| 70>    C      -11.48111        16.34711         3.59896
| 71>    C      -11.73546        15.55072         2.44570
| 72>    C      -10.53211        14.78580         2.09956
| 73>    O      -10.43412        13.93676         1.23856
| 74>    C      -12.94257        15.56746         1.80681
| 75>    C      -13.96923        16.40360         2.29674
| 76>    C      -13.72326        17.20618         3.44873
| 77>    C      -12.46544        17.16468         4.09131
| 78>    C      -14.75585        18.03770         3.92928
| 79>    C      -15.97177        18.07679         3.30332
| 80>    C      -16.21222        17.28713         2.16854
| 81>    C      -15.23251        16.46859         1.67609
| 82>    H        0.67124        -1.76278         2.94360
| 83>    H        0.93052        -2.28512        -2.00834
| 84>    H        1.26384        -4.66490        -1.74064
| 85>    H        1.49007        -6.64619        -0.29591
| 86>    H        1.36973        -6.41844         2.15364
| 87>    H        1.02148        -4.20535         3.17869
| 88>    H       -0.48233         2.86046        -1.10938
| 89>    H        0.02157         3.04389         2.80823
| 90>    H       -2.29942         7.31963         2.94816
| 91>    H       -2.83872         7.31357        -0.06155
| 92>    H       -2.91438         9.19062         5.37314
| 93>    H       -4.55077         9.75170         4.95411
| 94>    H       -3.13173        10.79213         4.62588
| 95>    H       -4.90967        11.22391         3.22765
| 96>    H       -4.02976         8.92425        -1.01246
| 97>    H       -5.89783        11.14402        -3.16533
| 98>    H       -5.75102         9.49986        -2.49639
| 99>    H       -4.29631        10.52184        -2.69902
|100>    H       -8.95819        14.01527        -1.42426
|101>    H       -6.38755        12.76418         3.31030
|102>    H       -7.53197        15.12947         3.85783
|103>    H      -13.10724        14.95464         0.93305
|104>    H      -12.31082        17.78775         4.95782
|105>    H      -14.56621        18.64393         4.80286
|106>    H      -16.75580        18.71726         3.67860
|107>    H      -17.17753        17.33140         1.68677
|108>    H      -15.41130        15.85883         0.80259
|109> *
|110>
|111>                          ****END OF INPUT****

CARTESIAN COORDINATES (ANGSTROEM)
---------------------------------
  C      0.506940    0.403060   -0.951620
  C      0.679140    0.710830   -2.276420
  C      0.998250   -0.239510   -3.269500
  N      1.250070   -0.960300   -4.126980
  C      0.608620    2.001250   -2.842360
  N      0.587520    3.018380   -3.376170
  C      0.679020   -0.921810   -0.369210
  C      0.601140   -0.803060    1.046540
  C      0.731030   -1.882370    1.871970
  C      0.939960   -3.159620    1.305810
  C      1.009980   -3.289690   -0.111380
  C      0.878500   -2.151370   -0.939620
  C      1.210640   -4.570190   -0.665980
  C      1.336820   -5.669740    0.138630
  C      1.268600   -5.540140    1.533820
  C      1.075110   -4.311620    2.105060
  C      0.359170    0.602190    1.413510
  O      0.294170    1.038620    2.543940
  C      0.198360    1.329220    0.128850
  C     -0.292630    2.587650   -0.077390
  C     -0.653990    3.606940    0.830010
  S     -1.493300    4.993660    0.146780
  C     -1.623140    5.755890    1.690820
  C     -1.013130    4.966050    2.675110
  C     -0.474210    3.770060    2.190060
  C     -0.967860    5.363680    4.023200
  N     -0.939500    5.703370    5.118430
  C     -2.287660    6.986690    1.922580
  C     -2.897390    7.702440    0.950010
  C     -3.657080    8.912610    1.080980
  C     -3.895270    9.596100    2.300610
  O     -3.306360    9.110140    3.418240
  C     -3.498910    9.762180    4.653760
  C     -4.714720   10.712710    2.301280
  C     -5.309030   11.210680    1.139990
  C     -5.028730   10.562410   -0.082950
  C     -4.228820    9.438390   -0.085610
  O     -5.596160   11.105800   -1.192060
  C     -5.361670   10.521250   -2.451390
  C     -6.199890   12.342130    1.192270
  S     -6.873570   13.030310   -0.252640
  C     -7.769400   14.196060    0.650400
  C     -8.537410   15.263930   -0.017970
  O     -8.674680   16.361620    0.454590
  O     -9.045490   14.955890   -1.218230
  C     -7.560550   14.056950    2.011170
  C     -6.653940   13.016710    2.300210
  C     -8.188280   14.846770    3.044950
  C     -9.484850   15.220570    3.072130
  C    -10.115930   16.106290    4.045140
  C     -9.547870   16.615430    5.180700
  C    -10.212570   17.476310    6.081190
  N    -10.692740   18.173980    6.855640
  C     -8.247370   16.328500    5.647230
  N     -7.212850   16.128310    6.104010
  C    -11.481110   16.347110    3.598960
  C    -11.735460   15.550720    2.445700
  C    -10.532110   14.785800    2.099560
  O    -10.434120   13.936760    1.238560
  C    -12.942570   15.567460    1.806810
  C    -13.969230   16.403600    2.296740
  C    -13.723260   17.206180    3.448730
  C    -12.465440   17.164680    4.091310
  C    -14.755850   18.037700    3.929280
  C    -15.971770   18.076790    3.303320
  C    -16.212220   17.287130    2.168540
  C    -15.232510   16.468590    1.676090
  H      0.671240   -1.762780    2.943600
  H      0.930520   -2.285120   -2.008340
  H      1.263840   -4.664900   -1.740640
  H      1.490070   -6.646190   -0.295910
  H      1.369730   -6.418440    2.153640
  H      1.021480   -4.205350    3.178690
  H     -0.482330    2.860460   -1.109380
  H      0.021570    3.043890    2.808230
  H     -2.299420    7.319630    2.948160
  H     -2.838720    7.313570   -0.061550
  H     -2.914380    9.190620    5.373140
  H     -4.550770    9.751700    4.954110
  H     -3.131730   10.792130    4.625880
  H     -4.909670   11.223910    3.227650
  H     -4.029760    8.924250   -1.012460
  H     -5.897830   11.144020   -3.165330
  H     -5.751020    9.499860   -2.496390
  H     -4.296310   10.521840   -2.699020
  H     -8.958190   14.015270   -1.424260
  H     -6.387550   12.764180    3.310300
  H     -7.531970   15.129470    3.857830
  H    -13.107240   14.954640    0.933050
  H    -12.310820   17.787750    4.957820
  H    -14.566210   18.643930    4.802860
  H    -16.755800   18.717260    3.678600
  H    -17.177530   17.331400    1.686770
  H    -15.411300   15.858830    0.802590

 Total Charge           Charge          ....    0
 Multiplicity           Mult            ....    1
 Number of Electrons    NEL             ....  466
 Basis Dimension        Dim             .... 1081

ORBITAL ENERGIES
----------------

  NO   OCC          E(Eh)            E(eV)
   0   2.0000     -88.979987     -2421.2685
   1   2.0000     -88.976525     -2421.1743
   2   2.0000     -19.272212      -524.4235
   3   2.0000     -19.264537      -524.2147
   4   2.0000     -19.259318      -524.0727
   5   2.0000     -19.221027      -523.0307
   6   2.0000     -19.216113      -522.8970
   7   2.0000     -19.195265      -522.3297
   8   2.0000     -14.418299      -392.3419
   9   2.0000     -14.416921      -392.3044
  10   2.0000     -14.415252      -392.2590
  11   2.0000     -14.414023      -392.2255
  12   2.0000     -14.407934      -392.0598
  13   2.0000     -10.405975      -283.1610
  14   2.0000     -10.372057      -282.2380
  15   2.0000     -10.368161      -282.1320
  16   2.0000     -10.352514      -281.7062
  17   2.0000     -10.350463      -281.6504
  18   2.0000     -10.344028      -281.4753
  19   2.0000     -10.343144      -281.4513
  20   2.0000     -10.342455      -281.4325
  21   2.0000     -10.341978      -281.4195
  22   2.0000     -10.340102      -281.3685
  23   2.0000     -10.339613      -281.3552
  24   2.0000     -10.334557      -281.2176
  25   2.0000     -10.328838      -281.0620
  26   2.0000     -10.325181      -280.9625
  27   2.0000     -10.321476      -280.8616
  28   2.0000     -10.321291      -280.8566
  29   2.0000     -10.319571      -280.8098
  30   2.0000     -10.318564      -280.7824
  31   2.0000     -10.318371      -280.7771
  32   2.0000     -10.316715      -280.7321
  33   2.0000     -10.316052      -280.7140
  34   2.0000     -10.308991      -280.5219
  35   2.0000     -10.308845      -280.5179
  36   2.0000     -10.308707      -280.5142
  37   2.0000     -10.304307      -280.3945
  38   2.0000     -10.303818      -280.3811
  39   2.0000     -10.303067      -280.3607
  40   2.0000     -10.302347      -280.3411
  41   2.0000     -10.302022      -280.3323
  42   2.0000     -10.300836      -280.3000
  43   2.0000     -10.299016      -280.2505
  44   2.0000     -10.298800      -280.2446
  45   2.0000     -10.298554      -280.2379
  46   2.0000     -10.298507      -280.2366
  47   2.0000     -10.297958      -280.2217
  48   2.0000     -10.297635      -280.2129
  49   2.0000     -10.297265      -280.2028
  50   2.0000     -10.297018      -280.1961
  51   2.0000     -10.296179      -280.1733
  52   2.0000     -10.295776      -280.1623
  53   2.0000     -10.293581      -280.1026
  54   2.0000     -10.291081      -280.0346
  55   2.0000     -10.290827      -280.0276
  56   2.0000     -10.290539      -280.0198
  57   2.0000     -10.289645      -279.9955
  58   2.0000     -10.287666      -279.9416
  59   2.0000     -10.287198      -279.9289
  60   2.0000     -10.287094      -279.9261
  61   2.0000     -10.286846      -279.9193
  62   2.0000     -10.286367      -279.9063
  63   2.0000     -10.286182      -279.9012
  64   2.0000     -10.285646      -279.8867
  65   2.0000     -10.285375      -279.8793
  66   2.0000     -10.284800      -279.8636
  67   2.0000      -8.075613      -219.7486
  68   2.0000      -8.070552      -219.6109
  69   2.0000      -6.044669      -164.4838
  70   2.0000      -6.040762      -164.3775
  71   2.0000      -6.039839      -164.3524
  72   2.0000      -6.037881      -164.2991
  73   2.0000      -6.035314      -164.2293
  74   2.0000      -6.033194      -164.1716
  75   2.0000      -1.183063       -32.1928
  76   2.0000      -1.177246       -32.0345
  77   2.0000      -1.169319       -31.8188
  78   2.0000      -1.135805       -30.9068
  79   2.0000      -1.131890       -30.8003
  80   2.0000      -1.095245       -29.8031
  81   2.0000      -1.020791       -27.7771
  82   2.0000      -1.017847       -27.6970
  83   2.0000      -1.016478       -27.6598
  84   2.0000      -1.003515       -27.3070
  85   2.0000      -1.000287       -27.2192
  86   2.0000      -0.997924       -27.1549
  87   2.0000      -0.994981       -27.0748
  88   2.0000      -0.993497       -27.0344
  89   2.0000      -0.987364       -26.8675
  90   2.0000      -0.973286       -26.4845
  91   2.0000      -0.972397       -26.4603
  92   2.0000      -0.969570       -26.3833
  93   2.0000      -0.931503       -25.3475
  94   2.0000      -0.925681       -25.1891
  95   2.0000      -0.921953       -25.0876
  96   2.0000      -0.911045       -24.7908
  97   2.0000      -0.903142       -24.5757
  98   2.0000      -0.889872       -24.2147
  99   2.0000      -0.882687       -24.0191
 100   2.0000      -0.881519       -23.9873
 101   2.0000      -0.879586       -23.9348
 102   2.0000      -0.874316       -23.7913
 103   2.0000      -0.865761       -23.5585
 104   2.0000      -0.860034       -23.4027
 105   2.0000      -0.844567       -22.9818
 106   2.0000      -0.835681       -22.7400
 107   2.0000      -0.829422       -22.5697
 108   2.0000      -0.827662       -22.5218
 109   2.0000      -0.825162       -22.4538
 110   2.0000      -0.816976       -22.2310
 111   2.0000      -0.794809       -21.6279
 112   2.0000      -0.785060       -21.3626
 113   2.0000      -0.776900       -21.1405
 114   2.0000      -0.763842       -20.7852
 115   2.0000      -0.761420       -20.7193
 116   2.0000      -0.753148       -20.4942
 117   2.0000      -0.733241       -19.9525
 118   2.0000      -0.727378       -19.7930
 119   2.0000      -0.713155       -19.4059
 120   2.0000      -0.705996       -19.2111
 121   2.0000      -0.705204       -19.1896
 122   2.0000      -0.703622       -19.1465
 123   2.0000      -0.700553       -19.0630
 124   2.0000      -0.697285       -18.9741
 125   2.0000      -0.692935       -18.8557
 126   2.0000      -0.681923       -18.5561
 127   2.0000      -0.677979       -18.4487
 128   2.0000      -0.671758       -18.2795
 129   2.0000      -0.668092       -18.1797
 130   2.0000      -0.661147       -17.9907
 131   2.0000      -0.656736       -17.8707
 132   2.0000      -0.644430       -17.5358
 133   2.0000      -0.636147       -17.3104
 134   2.0000      -0.635729       -17.2991
 135   2.0000      -0.628205       -17.0943
 136   2.0000      -0.619884       -16.8679
 137   2.0000      -0.615938       -16.7605
 138   2.0000      -0.610364       -16.6089
 139   2.0000      -0.607636       -16.5346
 140   2.0000      -0.607092       -16.5198
 141   2.0000      -0.605328       -16.4718
 142   2.0000      -0.596256       -16.2250
 143   2.0000      -0.582367       -15.8470
 144   2.0000      -0.578712       -15.7475
 145   2.0000      -0.569884       -15.5073
 146   2.0000      -0.568490       -15.4694
 147   2.0000      -0.563446       -15.3321
 148   2.0000      -0.559799       -15.2329
 149   2.0000      -0.558111       -15.1870
 150   2.0000      -0.550730       -14.9861
 151   2.0000      -0.549487       -14.9523
 152   2.0000      -0.548132       -14.9154
 153   2.0000      -0.547153       -14.8888
 154   2.0000      -0.545715       -14.8497
 155   2.0000      -0.544943       -14.8287
 156   2.0000      -0.539855       -14.6902
 157   2.0000      -0.536496       -14.5988
 158   2.0000      -0.534123       -14.5342
 159   2.0000      -0.530522       -14.4363
 160   2.0000      -0.527623       -14.3574
 161   2.0000      -0.525696       -14.3049
 162   2.0000      -0.523509       -14.2454
 163   2.0000      -0.520744       -14.1702
 164   2.0000      -0.517902       -14.0928
 165   2.0000      -0.516287       -14.0489
 166   2.0000      -0.516176       -14.0459
 167   2.0000      -0.514173       -13.9913
 168   2.0000      -0.512463       -13.9448
 169   2.0000      -0.510475       -13.8907
 170   2.0000      -0.505919       -13.7668
 171   2.0000      -0.504728       -13.7343
 172   2.0000      -0.501096       -13.6355
 173   2.0000      -0.499568       -13.5939
 174   2.0000      -0.496559       -13.5120
 175   2.0000      -0.495321       -13.4784
 176   2.0000      -0.494328       -13.4514
 177   2.0000      -0.491265       -13.3680
 178   2.0000      -0.487558       -13.2671
 179   2.0000      -0.484450       -13.1826
 180   2.0000      -0.482098       -13.1185
 181   2.0000      -0.472527       -12.8581
 182   2.0000      -0.466556       -12.6956
 183   2.0000      -0.466212       -12.6863
 184   2.0000      -0.465777       -12.6744
 185   2.0000      -0.460773       -12.5383
 186   2.0000      -0.457778       -12.4568
 187   2.0000      -0.450647       -12.2627
 188   2.0000      -0.449692       -12.2368
 189   2.0000      -0.449319       -12.2266
 190   2.0000      -0.448954       -12.2167
 191   2.0000      -0.446671       -12.1545
 192   2.0000      -0.444742       -12.1020
 193   2.0000      -0.444230       -12.0881
 194   2.0000      -0.441697       -12.0192
 195   2.0000      -0.441332       -12.0092
 196   2.0000      -0.439348       -11.9553
 197   2.0000      -0.435461       -11.8495
 198   2.0000      -0.434784       -11.8311
 199   2.0000      -0.434367       -11.8197
 200   2.0000      -0.433503       -11.7962
 201   2.0000      -0.431003       -11.7282
 202   2.0000      -0.428145       -11.6504
 203   2.0000      -0.426404       -11.6030
 204   2.0000      -0.424581       -11.5534
 205   2.0000      -0.420758       -11.4494
 206   2.0000      -0.419883       -11.4256
 207   2.0000      -0.413291       -11.2462
 208   2.0000      -0.411584       -11.1998
 209   2.0000      -0.409193       -11.1347
 210   2.0000      -0.407578       -11.0907
 211   2.0000      -0.407117       -11.0782
 212   2.0000      -0.401685       -10.9304
 213   2.0000      -0.400539       -10.8992
 214   2.0000      -0.397013       -10.8033
 215   2.0000      -0.388519       -10.5721
 216   2.0000      -0.381792       -10.3891
 217   2.0000      -0.377558       -10.2739
 218   2.0000      -0.371702       -10.1145
 219   2.0000      -0.360460        -9.8086
 220   2.0000      -0.346894        -9.4395
 221   2.0000      -0.344857        -9.3840
 222   2.0000      -0.340638        -9.2692
 223   2.0000      -0.338543        -9.2122
 224   2.0000      -0.335154        -9.1200
 225   2.0000      -0.320538        -8.7223
 226   2.0000      -0.318310        -8.6617
 227   2.0000      -0.314678        -8.5628
 228   2.0000      -0.302010        -8.2181
 229   2.0000      -0.298643        -8.1265
 230   2.0000      -0.292070        -7.9476
 231   2.0000      -0.288998        -7.8640
 232   2.0000      -0.257430        -7.0050
 233   0.0000      -0.101883        -2.7724
 234   0.0000      -0.089360        -2.4316
 235   0.0000      -0.066334        -1.8051
 236   0.0000      -0.058529        -1.5927
 237   0.0000      -0.052636        -1.4323

MULLIKEN ATOMIC CHARGES
-----------------------
   0 C :    0.307057
   1 C :   -0.353073
   2 C :   -0.179289
   3 N :    0.147179
   4 C :   -0.196564
   5 N :    0.153691
   6 C :    0.049124
   7 C :   -0.003588
   8 C :   -0.081733
   9 C :    0.099237
  10 C :    0.096283
  11 C :   -0.082487
  12 C :   -0.020970
  13 C :    0.037515
  14 C :    0.036325
  15 C :   -0.018651
  16 C :    0.161584
  17 O :   -0.154858
  18 C :   -0.088264
  19 C :    0.045948
  20 C :   -0.103253
  21 S :    0.141737
  22 C :   -0.010990
  23 C :   -0.094621
  24 C :    0.049695
  25 C :   -0.170531
  26 N :    0.127839
  27 C :   -0.002515
  28 C :   -0.022400
  29 C :    0.093331
  30 C :    0.237444
  31 O :   -0.314120
  32 C :    0.176878
  33 C :   -0.171044
  34 C :    0.153072
  35 C :    0.211377
  36 C :   -0.162840
  37 O :   -0.344264
  38 C :    0.180083
  39 C :   -0.076201
  40 S :    0.159848
  41 C :   -0.176289
  42 C :    0.175906
  43 O :   -0.185738
  44 O :   -0.150834
  45 C :    0.116743
  46 C :   -0.029068
  47 C :   -0.051343
  48 C :   -0.026798
  49 C :    0.312581
  50 C :   -0.346892
  51 C :   -0.182897
  52 N :    0.147879
  53 C :   -0.185985
  54 N :    0.150307
  55 C :    0.053726
  56 C :    0.004315
  57 C :    0.155471
  58 O :   -0.162461
  59 C :   -0.076521
  60 C :    0.098957
  61 C :    0.099477
  62 C :   -0.084501
  63 C :   -0.019043
  64 C :    0.037118
  65 C :    0.038110
  66 C :   -0.016129
  67 H :   -0.010958
  68 H :   -0.007110
  69 H :   -0.007432
  70 H :   -0.005292
  71 H :   -0.004169
  72 H :   -0.015652
  73 H :    0.013337
  74 H :    0.026481
  75 H :    0.030595
  76 H :   -0.015256
  77 H :    0.056284
  78 H :    0.029812
  79 H :    0.032067
  80 H :   -0.041403
  81 H :   -0.034990
  82 H :    0.042450
  83 H :    0.031959
  84 H :    0.034961
  85 H :    0.181239
  86 H :   -0.012642
  87 H :    0.025329
  88 H :   -0.013951
  89 H :   -0.008160
  90 H :   -0.008672
  91 H :   -0.004457
  92 H :   -0.005552
  93 H :   -0.017902
Sum of atomic charges:   -0.0000000

LOEWDIN ATOMIC CHARGES
----------------------
   0 C :    0.077592
   1 C :   -0.142490
   2 C :   -0.017143
   3 N :   -0.054467
   4 C :   -0.024835
   5 N :   -0.054013
   6 C :   -0.026549
   7 C :   -0.055221
   8 C :    0.032315
   9 C :   -0.008040
  10 C :   -0.006218
  11 C :    0.019672
  12 C :   -0.005533
  13 C :   -0.013001
  14 C :   -0.011794
  15 C :   -0.009569
  16 C :    0.088130
  17 O :   -0.141134
  18 C :   -0.091315
  19 C :    0.045904
  20 C :   -0.178443
  21 S :    0.463556
  22 C :   -0.113280
  23 C :   -0.114166
  24 C :    0.022705
  25 C :   -0.028450
  26 N :   -0.057311
  27 C :   -0.048251
  28 C :    0.010015
  29 C :   -0.041851
  30 C :    0.064672
  31 O :   -0.085210
  32 C :    0.080884
  33 C :   -0.053696
  34 C :   -0.039255
  35 C :    0.040004
  36 C :   -0.047637
  37 O :   -0.111099
  38 C :    0.081688
  39 C :   -0.155305
  40 S :    0.491245
  41 C :   -0.219406
  42 C :    0.060641
  43 O :   -0.165406
  44 O :   -0.022897
  45 C :   -0.047941
  46 C :   -0.039361
  47 C :    0.081369
  48 C :   -0.068970
  49 C :    0.082181
  50 C :   -0.134041
  51 C :   -0.016251
  52 N :   -0.051835
  53 C :   -0.017888
  54 N :   -0.052744
  55 C :   -0.022490
  56 C :   -0.051681
  57 C :    0.095029
  58 O :   -0.146140
  59 C :    0.037084
  60 C :   -0.007156
  61 C :   -0.004313
  62 C :    0.021021
  63 C :   -0.004801
  64 C :   -0.012523
  65 C :   -0.011854
  66 C :   -0.008690
  67 H :    0.039369
  68 H :    0.039068
  69 H :    0.035017
  70 H :    0.033190
  71 H :    0.033088
  72 H :    0.032321
  73 H :    0.043224
  74 H :    0.042643
  75 H :    0.040739
  76 H :    0.023870
  77 H :    0.037501
  78 H :    0.018517
  79 H :    0.019748
  80 H :    0.030753
  81 H :    0.030999
  82 H :    0.032034
  83 H :    0.019481
  84 H :    0.020682
  85 H :    0.084699
  86 H :    0.031351
  87 H :    0.046471
  88 H :    0.038998
  89 H :    0.039145
  90 H :    0.035013
  91 H :    0.033402
  92 H :    0.032777
  93 H :    0.031867

  Mayer bond orders larger than 0.100000
B(  0-C ,  1-C ) :   1.6299 B(  0-C ,  6-C ) :   0.9863 B(  0-C , 18-C ) :   1.0714
B(  1-C ,  2-C ) :   1.1457 B(  1-C ,  4-C ) :   1.1373 B(  2-C ,  3-N ) :   2.9664
B(  4-C ,  5-N ) :   2.9847 B(  6-C ,  7-C ) :   1.2157 B(  6-C , 11-C ) :   1.4495
B(  7-C ,  8-C ) :   1.4710 B(  7-C , 16-C ) :   0.9539 B(  8-C ,  9-C ) :   1.1792
B(  8-C , 67-H ) :   1.0165 B(  9-C , 10-C ) :   1.2557 B(  9-C , 15-C ) :   1.2436
B( 10-C , 11-C ) :   1.2063 B( 10-C , 12-C ) :   1.2401 B( 11-C , 68-H ) :   0.9907
B( 12-C , 13-C ) :   1.4884 B( 12-C , 69-H ) :   0.9977 B( 13-C , 14-C ) :   1.2598
B( 13-C , 70-H ) :   0.9890 B( 14-C , 15-C ) :   1.4887 B( 14-C , 71-H ) :   0.9891
B( 15-C , 72-H ) :   0.9981 B( 16-C , 17-O ) :   2.1721 B( 16-C , 18-C ) :   0.9377
B( 18-C , 19-C ) :   1.6066 B( 19-C , 20-C ) :   1.1979 B( 19-C , 73-H ) :   0.9160
B( 20-C , 21-S ) :   1.0904 B( 20-C , 24-C ) :   1.4466 B( 21-S , 22-C ) :   1.1561
B( 22-C , 23-C ) :   1.4003 B( 22-C , 27-C ) :   1.1702 B( 23-C , 24-C ) :   1.2849
B( 23-C , 25-C ) :   1.1074 B( 24-C , 74-H ) :   0.9810 B( 25-C , 26-N ) :   3.0155
B( 27-C , 28-C ) :   1.6243 B( 27-C , 75-H ) :   0.9533 B( 28-C , 29-C ) :   1.1294
B( 28-C , 76-H ) :   0.9768 B( 29-C , 30-C ) :   1.3004 B( 29-C , 36-C ) :   1.2836
B( 30-C , 31-O ) :   1.1563 B( 30-C , 33-C ) :   1.3112 B( 31-O , 32-C ) :   0.9437
B( 32-C , 77-H ) :   0.9753 B( 32-C , 78-H ) :   0.9689 B( 32-C , 79-H ) :   0.9691
B( 33-C , 34-C ) :   1.3201 B( 33-C , 80-H ) :   0.9926 B( 34-C , 35-C ) :   1.3196
B( 34-C , 39-C ) :   1.0764 B( 35-C , 36-C ) :   1.3054 B( 35-C , 37-O ) :   1.1090
B( 36-C , 81-H ) :   1.0052 B( 37-O , 38-C ) :   0.9459 B( 38-C , 82-H ) :   0.9765
B( 38-C , 83-H ) :   0.9711 B( 38-C , 84-H ) :   0.9706 B( 39-C , 40-S ) :   1.1404
B( 39-C , 46-C ) :   1.5034 B( 40-S , 41-C ) :   1.1079 B( 41-C , 42-C ) :   0.9097
B( 41-C , 45-C ) :   1.5345 B( 42-C , 43-O ) :   2.1648 B( 42-C , 44-O ) :   1.2556
B( 44-O , 85-H ) :   0.9472 B( 45-C , 46-C ) :   1.2561 B( 45-C , 47-C ) :   1.0332
B( 46-C , 86-H ) :   0.9942 B( 47-C , 48-C ) :   1.7213 B( 47-C , 87-H ) :   0.9325
B( 48-C , 49-C ) :   1.0476 B( 48-C , 57-C ) :   0.9146 B( 49-C , 50-C ) :   1.6491
B( 49-C , 55-C ) :   0.9988 B( 50-C , 51-C ) :   1.1411 B( 50-C , 53-C ) :   1.1427
B( 51-C , 52-N ) :   2.9664 B( 53-C , 54-N ) :   2.9684 B( 55-C , 56-C ) :   1.2102
B( 55-C , 62-C ) :   1.4387 B( 56-C , 57-C ) :   0.9509 B( 56-C , 59-C ) :   1.4634
B( 57-C , 58-O ) :   2.2035 B( 59-C , 60-C ) :   1.1837 B( 59-C , 88-H ) :   1.0160
B( 60-C , 61-C ) :   1.2529 B( 60-C , 66-C ) :   1.2406 B( 61-C , 62-C ) :   1.2114
B( 61-C , 63-C ) :   1.2366 B( 62-C , 89-H ) :   0.9901 B( 63-C , 64-C ) :   1.4914
B( 63-C , 90-H ) :   0.9980 B( 64-C , 65-C ) :   1.2552 B( 64-C , 91-H ) :   0.9889
B( 65-C , 66-C ) :   1.4917 B( 65-C , 92-H ) :   0.9889 B( 66-C , 93-H ) :   0.9982

-----------------------------------------------------------------------------
         ABSORPTION SPECTRUM VIA TRANSITION ELECTRIC DIPOLE MOMENTS
-----------------------------------------------------------------------------
State   Energy  Wavelength   fosc         T2         TX        TY        TZ
        (cm-1)    (nm)                  (au**2)     (au)      (au)      (au)
-----------------------------------------------------------------------------
   0   19092.7    523.8   1.878897246  32.39750  -2.71043   4.87413   1.13753
   1   22029.7    453.9   0.055624511   0.83125   0.42293  -0.19874  -0.78287
   2   25991.8    384.7   0.103446144   1.31025   0.47497  -0.92036   0.48744
   3   26636.3    375.4   0.068358349   0.84488  -0.73405   0.55314  -0.00848
   4   26905.2    371.7   0.067517099   0.82614   0.54614  -0.10999   0.71817
   5   27337.9    365.8   0.046554040   0.56062   0.69648  -0.26002   0.08901
   6   27855.5    359.0   0.102208836   1.20796   0.41934  -1.01484   0.04706
   7   28640.8    349.2   0.307290244   3.53215   0.94638  -1.45227  -0.72625
   8   28809.3    347.1   0.067488114   0.77121   0.21704  -0.76375   0.37521
   9   29190.9    342.6   0.017323988   0.19538  -0.00102   0.22166   0.38242
  10   29809.2    335.5   0.428009495   4.72692  -0.77320   1.75184  -1.02963
  11   30075.3    332.5   0.092960710   1.01757   0.76329  -0.62789  -0.20179
  12   30724.2    325.5   0.111669260   1.19654  -0.99481   0.30047  -0.34147
  13   31683.3    315.6   0.135818487   1.41125  -0.58813   0.32587   0.97937
  14   32102.3    311.5   0.084646045   0.86805  -0.57139   0.56323   0.47364
  15   33422.2    299.2   0.664265876   6.54308  -0.82656   1.96196  -1.41795
  16   33763.1    296.2   0.755900406   7.37051  -2.66037  -0.27174  -0.46810
  17   33921.9    294.8   0.102658098   0.99630   0.18078   0.94058  -0.28094
  18   34196.6    292.4   0.212994903   2.05051  -1.07370   0.62185  -0.71483
  19   34310.3    291.5   0.022876876   0.21951   0.14430  -0.30648   0.32366
  20   34547.4    289.5   0.081380998   0.77550  -0.64759   0.58498  -0.11804
  21   34664.3    288.5   0.149899964   1.42362  -1.17497   0.19974  -0.05629
  22   34898.7    286.5   0.006000515   0.05661   0.06392   0.18436   0.13614
  23   35720.3    280.0   0.068046964   0.62715  -0.03125   0.49169   0.62001
  24   36188.6    276.3   0.021980630   0.19996  -0.10553   0.36674  -0.23307
  25   36536.0    273.7   0.040907941   0.36861  -0.11210   0.32950  -0.49746
  26   36771.6    271.9   0.011050148   0.09893   0.12809   0.28658  -0.01989
  27   37816.6    264.4   0.071650555   0.62375   0.17893  -0.72280   0.26323
  28   38074.3    262.6   0.064099949   0.55425   0.50214  -0.54173  -0.09290
  29   38685.6    258.5   0.038970259   0.33163   0.21552   0.14565   0.51378
  30   38793.9    257.8   0.071397576   0.60589  -0.04798  -0.66266  -0.40555
  31   39191.6    255.2   0.234346543   1.96853   0.25725   0.13629   1.37251
  32   39646.8    252.2   0.003594698   0.02985  -0.08622   0.08675   0.12202
  33   39984.6    250.1   0.105092334   0.86527   0.10674  -0.28237  -0.87986
  34   40288.8    248.2   0.302048390   2.46813  -0.20075   0.29319   1.53032

FINAL SINGLE POINT ENERGY     -3591.650063498445

DIPOLE MOMENT
-------------
                                X             Y             Z
Electronic contribution:      8.76466       7.43500      -2.72439
Nuclear contribution   :    -10.70805      -9.80447       1.64127
                        -----------------------------------------
Total Dipole Moment    :     -1.94339      -2.36946      -1.08312
                        -----------------------------------------
Magnitude (a.u.)       :      3.25027
Magnitude (Debye)      :      8.26154

Rotational constants in cm-1:     0.002752     0.000231     0.000226
Rotational constants in MHz :    82.515348     6.919368     6.780093

                             ****ORCA TERMINATED NORMALLY****
TOTAL RUN TIME: 0 days 0 hours 8 minutes 39 seconds 559 msec
