                         Program Version 4.2.0 -  RELEASE  -
|  1> # ORCA input file
|  2> # SCF done       -208.336616433837          0.000565620404
|  3> ! CAM-B3LYP def2-SVP def2/J RIJCOSX Grid4 TightSCF
|  4> %maxcore 5000
|  5> %tddft
|  6>     Mode sTDDFT
|  7>     Ethresh 5.0
|  8>     maxcore 5000
|  9> end
| 10>
| 11> %pal
| 12>   nprocs 6
| 13>   end
| 14> * xyz 0 1
| 15>    C       -0.93926         0.12181        -0.57213
| 16>    C       -1.77970        -0.49990         0.31689
| 17>    C       -2.09722        -1.87397         0.27365
| 18>    N       -2.39572        -2.98207         0.29517
| 19>    C       -2.44876         0.12648         1.38822
| 20>    N       -3.02660         0.57669         2.27361
| 21>    C       -0.26457        -0.52787        -1.69193
| 22>    C        0.50791         0.44899        -2.38564
| 23>    C        1.24929         0.13741        -3.48882
| 24>    C        1.25257        -1.19431        -3.96065
| 25>    C        0.48350        -2.17793        -3.27416
| 26>    C       -0.27383        -1.82394        -2.13284
| 27>    C        0.49189        -3.50267        -3.75442
| 28>    C        1.22431        -3.84176        -4.86012
| 29>    C        1.98139        -2.87282        -5.53469
| 30>    C        1.99557        -1.57669        -5.09433
| 31>    C        0.34814         1.74496        -1.71880
| 32>    O        0.86565         2.80422        -2.04388
| 33>    C       -0.55937         1.52165        -0.59011
| 34>    C       -0.99246         2.48459         0.28968
| 35>    C       -0.70202         3.84955         0.35228
| 36>    S        0.39443         4.71452        -0.68099
| 37>    C        0.11517         6.20832         0.13934
| 38>    C       -0.85785         6.07258         1.15289
| 39>    C       -1.29778         4.72741         1.29899
| 40>    C       -2.23752         4.41171         2.29083
| 41>    C       -2.74605         5.41773         3.08640
| 42>    C       -3.68456         5.11597         4.10219
| 43>    N       -4.44563         4.87373         4.92287
| 44>    C       -2.37211         6.77430         2.87288
| 45>    C       -2.95792         7.80446         3.64500
| 46>    N       -3.41585         8.66256         4.24991
| 47>    C       -1.44982         7.09693         1.90281
| 48>    C        0.86031         7.38831        -0.09869
| 49>    N        1.40031         7.78267        -1.29791
| 50>    C        1.22558         7.15095        -2.58471
| 51>    C       -0.20456         7.28418        -3.09831
| 52>    C        2.07255         9.02047        -1.18731
| 53>    O        2.59647         9.58712        -2.12135
| 54>    C        1.96966         9.35156         0.21560
| 55>    C        1.22225         8.34304         0.85703
| 56>    C        1.24669         8.62183         2.27995
| 57>    O        0.81614         8.01002         3.23475
| 58>    N        1.95657         9.83373         2.39157
| 59>    C        2.12409        10.43076         3.69548
| 60>    C        1.05154        11.47986         3.98212
| 61>    C        2.38874        10.28945         1.16540
| 62>    C        3.08791        11.46050         0.81130
| 63>    C        3.44165        12.53543         1.57505
| 64>    C        4.07295        13.67959         1.05698
| 65>    S        4.48012        13.84685        -0.61742
| 66>    C        5.00931        15.48678        -0.42262
| 67>    C        4.97248        15.86291         0.93248
| 68>    C        4.42118        14.84936         1.77100
| 69>    C        4.27953        15.08452         3.14567
| 70>    C        4.70768        16.28149         3.67677
| 71>    C        4.55792        16.53027         5.06089
| 72>    N        4.42612        16.70780         6.18493
| 73>    C        5.33278        17.25965         2.84906
| 74>    C        5.81842        18.45566         3.42765
| 75>    N        6.21826        19.42999         3.87807
| 76>    C        5.47380        17.04594         1.49739
| 77>    C        5.39078        16.22806        -1.55962
| 78>    C        5.19636        17.57018        -1.74468
| 79>    C        5.68886        18.35247        -2.86102
| 80>    C        6.72620        18.00445        -3.68735
| 81>    C        7.19136        18.80704        -4.74927
| 82>    N        7.60324        19.41358        -5.63241
| 83>    C        7.48362        16.82213        -3.55411
| 84>    N        8.14756        15.88838        -3.47731
| 85>    C        4.95353        19.60962        -2.88429
| 86>    C        4.06741        19.63491        -1.76866
| 87>    C        4.19851        18.38734        -1.00221
| 88>    O        3.55836        18.06311        -0.02227
| 89>    C        3.24391        20.69627        -1.52491
| 90>    C        3.27083        21.80314        -2.40242
| 91>    C        4.15036        21.78344        -3.52379
| 92>    C        4.99140        20.66927        -3.75075
| 93>    C        4.16295        22.89071        -4.39559
| 94>    C        3.34790        23.96728        -4.17160
| 95>    C        2.48353        23.98598        -3.06701
| 96>    C        2.44631        22.92709        -2.20042
| 97>    H        1.82582         0.89689        -3.99586
| 98>    H       -0.84416        -2.59333        -1.63759
| 99>    H       -0.09245        -4.24558        -3.23181
|100>    H        1.22369        -4.85940        -5.22049
|101>    H        2.55332        -3.15765        -6.40494
|102>    H        2.57675        -0.82612        -5.60979
|103>    H       -1.67503         2.15288         1.05928
|104>    H       -2.57705         3.39865         2.44750
|105>    H       -1.20798         8.12864         1.71048
|106>    H        1.51866         6.09952        -2.52680
|107>    H        1.91081         7.67161        -3.25994
|108>    H       -0.90806         6.79135        -2.43092
|109>    H       -0.28199         6.82663        -4.08005
|110>    H       -0.47825         8.33350        -3.18018
|111>    H        3.13297        10.84089         3.78058
|112>    H        2.02141         9.61246         4.41488
|113>    H        1.03632        12.25368         3.21710
|114>    H        1.23469        11.94096         4.94879
|115>    H        0.07336        11.00598         4.00891
|116>    H        3.32605        11.49431        -0.24609
|117>    H        3.21427        12.56769         2.62816
|118>    H        3.84560        14.34055         3.79624
|119>    H        5.98173        17.77446         0.88553
|120>    H        5.79933        15.64851        -2.37940
|121>    H        2.58236        20.69201        -0.67138
|122>    H        5.64109        20.67976        -4.61167
|123>    H        4.83115        22.87281        -5.24398
|124>    H        3.36551        24.81095        -4.84497
|125>    H        1.84716        24.84309        -2.90578
|126>    H        1.78318        22.93556        -1.34789
|127> *
|128>
|129>                          ****END OF INPUT****

CARTESIAN COORDINATES (ANGSTROEM)
---------------------------------
  C     -0.939260    0.121810   -0.572130
  C     -1.779700   -0.499900    0.316890
  C     -2.097220   -1.873970    0.273650
  N     -2.395720   -2.982070    0.295170
  C     -2.448760    0.126480    1.388220
  N     -3.026600    0.576690    2.273610
  C     -0.264570   -0.527870   -1.691930
  C      0.507910    0.448990   -2.385640
  C      1.249290    0.137410   -3.488820
  C      1.252570   -1.194310   -3.960650
  C      0.483500   -2.177930   -3.274160
  C     -0.273830   -1.823940   -2.132840
  C      0.491890   -3.502670   -3.754420
  C      1.224310   -3.841760   -4.860120
  C      1.981390   -2.872820   -5.534690
  C      1.995570   -1.576690   -5.094330
  C      0.348140    1.744960   -1.718800
  O      0.865650    2.804220   -2.043880
  C     -0.559370    1.521650   -0.590110
  C     -0.992460    2.484590    0.289680
  C     -0.702020    3.849550    0.352280
  S      0.394430    4.714520   -0.680990
  C      0.115170    6.208320    0.139340
  C     -0.857850    6.072580    1.152890
  C     -1.297780    4.727410    1.298990
  C     -2.237520    4.411710    2.290830
  C     -2.746050    5.417730    3.086400
  C     -3.684560    5.115970    4.102190
  N     -4.445630    4.873730    4.922870
  C     -2.372110    6.774300    2.872880
  C     -2.957920    7.804460    3.645000
  N     -3.415850    8.662560    4.249910
  C     -1.449820    7.096930    1.902810
  C      0.860310    7.388310   -0.098690
  N      1.400310    7.782670   -1.297910
  C      1.225580    7.150950   -2.584710
  C     -0.204560    7.284180   -3.098310
  C      2.072550    9.020470   -1.187310
  O      2.596470    9.587120   -2.121350
  C      1.969660    9.351560    0.215600
  C      1.222250    8.343040    0.857030
  C      1.246690    8.621830    2.279950
  O      0.816140    8.010020    3.234750
  N      1.956570    9.833730    2.391570
  C      2.124090   10.430760    3.695480
  C      1.051540   11.479860    3.982120
  C      2.388740   10.289450    1.165400
  C      3.087910   11.460500    0.811300
  C      3.441650   12.535430    1.575050
  C      4.072950   13.679590    1.056980
  S      4.480120   13.846850   -0.617420
  C      5.009310   15.486780   -0.422620
  C      4.972480   15.862910    0.932480
  C      4.421180   14.849360    1.771000
  C      4.279530   15.084520    3.145670
  C      4.707680   16.281490    3.676770
  C      4.557920   16.530270    5.060890
  N      4.426120   16.707800    6.184930
  C      5.332780   17.259650    2.849060
  C      5.818420   18.455660    3.427650
  N      6.218260   19.429990    3.878070
  C      5.473800   17.045940    1.497390
  C      5.390780   16.228060   -1.559620
  C      5.196360   17.570180   -1.744680
  C      5.688860   18.352470   -2.861020
  C      6.726200   18.004450   -3.687350
  C      7.191360   18.807040   -4.749270
  N      7.603240   19.413580   -5.632410
  C      7.483620   16.822130   -3.554110
  N      8.147560   15.888380   -3.477310
  C      4.953530   19.609620   -2.884290
  C      4.067410   19.634910   -1.768660
  C      4.198510   18.387340   -1.002210
  O      3.558360   18.063110   -0.022270
  C      3.243910   20.696270   -1.524910
  C      3.270830   21.803140   -2.402420
  C      4.150360   21.783440   -3.523790
  C      4.991400   20.669270   -3.750750
  C      4.162950   22.890710   -4.395590
  C      3.347900   23.967280   -4.171600
  C      2.483530   23.985980   -3.067010
  C      2.446310   22.927090   -2.200420
  H      1.825820    0.896890   -3.995860
  H     -0.844160   -2.593330   -1.637590
  H     -0.092450   -4.245580   -3.231810
  H      1.223690   -4.859400   -5.220490
  H      2.553320   -3.157650   -6.404940
  H      2.576750   -0.826120   -5.609790
  H     -1.675030    2.152880    1.059280
  H     -2.577050    3.398650    2.447500
  H     -1.207980    8.128640    1.710480
  H      1.518660    6.099520   -2.526800
  H      1.910810    7.671610   -3.259940
  H     -0.908060    6.791350   -2.430920
  H     -0.281990    6.826630   -4.080050
  H     -0.478250    8.333500   -3.180180
  H      3.132970   10.840890    3.780580
  H      2.021410    9.612460    4.414880
  H      1.036320   12.253680    3.217100
  H      1.234690   11.940960    4.948790
  H      0.073360   11.005980    4.008910
  H      3.326050   11.494310   -0.246090
  H      3.214270   12.567690    2.628160
  H      3.845600   14.340550    3.796240
  H      5.981730   17.774460    0.885530
  H      5.799330   15.648510   -2.379400
  H      2.582360   20.692010   -0.671380
  H      5.641090   20.679760   -4.611670
  H      4.831150   22.872810   -5.243980
  H      3.365510   24.810950   -4.844970
  H      1.847160   24.843090   -2.905780
  H      1.783180   22.935560   -1.347890

 Total Charge           Charge          ....    0
 Multiplicity           Mult            ....    1
 Number of Electrons    NEL             ....  560
 Basis Dimension        Dim             .... 1306

ORBITAL ENERGIES
----------------

  NO   OCC          E(Eh)            E(eV)
   0   2.0000     -89.009348     -2422.0675
   1   2.0000     -89.007743     -2422.0238
   2   2.0000     -19.239834      -523.5425
   3   2.0000     -19.227309      -523.2017
   4   2.0000     -19.214637      -522.8569
   5   2.0000     -19.213438      -522.8242
   6   2.0000     -14.477983      -393.9659
   7   2.0000     -14.477381      -393.9496
   8   2.0000     -14.432040      -392.7158
   9   2.0000     -14.424718      -392.5165
  10   2.0000     -14.424108      -392.4999
  11   2.0000     -14.422976      -392.4691
  12   2.0000     -14.419345      -392.3703
  13   2.0000     -14.417720      -392.3261
  14   2.0000     -14.414655      -392.2427
  15   2.0000     -14.413718      -392.2172
  16   2.0000     -10.398718      -282.9635
  17   2.0000     -10.397378      -282.9270
  18   2.0000     -10.386471      -282.6302
  19   2.0000     -10.378656      -282.4176
  20   2.0000     -10.373032      -282.2646
  21   2.0000     -10.366107      -282.0761
  22   2.0000     -10.354895      -281.7710
  23   2.0000     -10.354887      -281.7708
  24   2.0000     -10.354098      -281.7493
  25   2.0000     -10.352128      -281.6957
  26   2.0000     -10.349500      -281.6242
  27   2.0000     -10.348223      -281.5895
  28   2.0000     -10.347308      -281.5646
  29   2.0000     -10.345414      -281.5130
  30   2.0000     -10.344842      -281.4975
  31   2.0000     -10.343709      -281.4666
  32   2.0000     -10.343601      -281.4637
  33   2.0000     -10.341154      -281.3971
  34   2.0000     -10.338637      -281.3286
  35   2.0000     -10.338342      -281.3206
  36   2.0000     -10.334627      -281.2195
  37   2.0000     -10.331586      -281.1367
  38   2.0000     -10.329597      -281.0826
  39   2.0000     -10.329337      -281.0755
  40   2.0000     -10.328432      -281.0509
  41   2.0000     -10.327438      -281.0239
  42   2.0000     -10.327172      -281.0166
  43   2.0000     -10.326616      -281.0015
  44   2.0000     -10.326411      -280.9959
  45   2.0000     -10.325241      -280.9641
  46   2.0000     -10.325218      -280.9635
  47   2.0000     -10.324517      -280.9444
  48   2.0000     -10.324387      -280.9409
  49   2.0000     -10.323773      -280.9241
  50   2.0000     -10.322229      -280.8821
  51   2.0000     -10.321545      -280.8635
  52   2.0000     -10.317242      -280.7464
  53   2.0000     -10.317126      -280.7433
  54   2.0000     -10.316130      -280.7162
  55   2.0000     -10.315551      -280.7004
  56   2.0000     -10.314927      -280.6834
  57   2.0000     -10.312139      -280.6076
  58   2.0000     -10.311709      -280.5959
  59   2.0000     -10.310577      -280.5651
  60   2.0000     -10.310262      -280.5565
  61   2.0000     -10.308808      -280.5169
  62   2.0000     -10.308518      -280.5090
  63   2.0000     -10.308121      -280.4982
  64   2.0000     -10.304460      -280.3986
  65   2.0000     -10.304355      -280.3958
  66   2.0000     -10.304126      -280.3895
  67   2.0000     -10.303921      -280.3840
  68   2.0000     -10.301992      -280.3315
  69   2.0000     -10.297000      -280.1956
  70   2.0000     -10.296830      -280.1910
  71   2.0000     -10.296284      -280.1761
  72   2.0000     -10.295752      -280.1617
  73   2.0000     -10.295263      -280.1483
  74   2.0000     -10.293616      -280.1035
  75   2.0000     -10.292031      -280.0604
  76   2.0000     -10.291682      -280.0509
  77   2.0000     -10.291442      -280.0444
  78   2.0000     -10.291090      -280.0348
  79   2.0000     -10.289870      -280.0016
  80   2.0000     -10.278595      -279.6948
  81   2.0000     -10.278015      -279.6790
  82   2.0000      -8.102695      -220.4855
  83   2.0000      -8.101176      -220.4442
  84   2.0000      -6.071528      -165.2147
  85   2.0000      -6.070390      -165.1837
  86   2.0000      -6.067486      -165.1047
  87   2.0000      -6.065644      -165.0546
  88   2.0000      -6.065528      -165.0514
  89   2.0000      -6.064327      -165.0187
  90   2.0000      -1.157785       -31.5049
  91   2.0000      -1.153914       -31.3996
  92   2.0000      -1.150586       -31.3090
  93   2.0000      -1.142664       -31.0935
  94   2.0000      -1.088785       -29.6273
  95   2.0000      -1.079549       -29.3760
  96   2.0000      -1.042663       -28.3723
  97   2.0000      -1.038091       -28.2479
  98   2.0000      -1.031540       -28.0696
  99   2.0000      -1.026858       -27.9422
 100   2.0000      -1.013939       -27.5907
 101   2.0000      -1.012790       -27.5594
 102   2.0000      -1.008937       -27.4546
 103   2.0000      -1.006502       -27.3883
 104   2.0000      -1.005599       -27.3637
 105   2.0000      -1.001872       -27.2623
 106   2.0000      -0.998768       -27.1779
 107   2.0000      -0.994239       -27.0546
 108   2.0000      -0.984171       -26.7807
 109   2.0000      -0.980192       -26.6724
 110   2.0000      -0.975950       -26.5569
 111   2.0000      -0.971073       -26.4242
 112   2.0000      -0.954080       -25.9618
 113   2.0000      -0.951078       -25.8802
 114   2.0000      -0.941853       -25.6291
 115   2.0000      -0.931593       -25.3499
 116   2.0000      -0.930168       -25.3111
 117   2.0000      -0.917301       -24.9610
 118   2.0000      -0.908103       -24.7107
 119   2.0000      -0.903077       -24.5740
 120   2.0000      -0.894368       -24.3370
 121   2.0000      -0.892900       -24.2971
 122   2.0000      -0.890132       -24.2217
 123   2.0000      -0.889082       -24.1932
 124   2.0000      -0.888130       -24.1673
 125   2.0000      -0.883749       -24.0480
 126   2.0000      -0.881085       -23.9755
 127   2.0000      -0.864699       -23.5296
 128   2.0000      -0.854298       -23.2466
 129   2.0000      -0.840110       -22.8606
 130   2.0000      -0.839867       -22.8539
 131   2.0000      -0.835163       -22.7259
 132   2.0000      -0.828402       -22.5420
 133   2.0000      -0.817812       -22.2538
 134   2.0000      -0.795987       -21.6599
 135   2.0000      -0.787919       -21.4404
 136   2.0000      -0.780019       -21.2254
 137   2.0000      -0.777096       -21.1459
 138   2.0000      -0.775375       -21.0990
 139   2.0000      -0.772229       -21.0134
 140   2.0000      -0.769972       -20.9520
 141   2.0000      -0.751999       -20.4629
 142   2.0000      -0.748303       -20.3624
 143   2.0000      -0.742525       -20.2051
 144   2.0000      -0.732166       -19.9232
 145   2.0000      -0.723555       -19.6889
 146   2.0000      -0.716997       -19.5105
 147   2.0000      -0.712397       -19.3853
 148   2.0000      -0.711208       -19.3530
 149   2.0000      -0.709505       -19.3066
 150   2.0000      -0.705984       -19.2108
 151   2.0000      -0.700789       -19.0694
 152   2.0000      -0.696734       -18.9591
 153   2.0000      -0.691680       -18.8216
 154   2.0000      -0.685322       -18.6486
 155   2.0000      -0.683195       -18.5907
 156   2.0000      -0.673125       -18.3167
 157   2.0000      -0.664257       -18.0754
 158   2.0000      -0.656606       -17.8671
 159   2.0000      -0.652231       -17.7481
 160   2.0000      -0.646766       -17.5994
 161   2.0000      -0.641045       -17.4437
 162   2.0000      -0.636772       -17.3275
 163   2.0000      -0.629485       -17.1292
 164   2.0000      -0.626795       -17.0560
 165   2.0000      -0.623698       -16.9717
 166   2.0000      -0.621481       -16.9113
 167   2.0000      -0.617797       -16.8111
 168   2.0000      -0.613513       -16.6945
 169   2.0000      -0.610074       -16.6010
 170   2.0000      -0.606483       -16.5032
 171   2.0000      -0.602914       -16.4061
 172   2.0000      -0.596552       -16.2330
 173   2.0000      -0.587024       -15.9737
 174   2.0000      -0.584397       -15.9022
 175   2.0000      -0.577357       -15.7107
 176   2.0000      -0.572832       -15.5875
 177   2.0000      -0.570555       -15.5256
 178   2.0000      -0.566877       -15.4255
 179   2.0000      -0.565454       -15.3868
 180   2.0000      -0.564542       -15.3620
 181   2.0000      -0.560686       -15.2570
 182   2.0000      -0.558593       -15.2001
 183   2.0000      -0.556694       -15.1484
 184   2.0000      -0.554642       -15.0926
 185   2.0000      -0.554326       -15.0840
 186   2.0000      -0.553662       -15.0659
 187   2.0000      -0.551726       -15.0132
 188   2.0000      -0.546214       -14.8632
 189   2.0000      -0.544788       -14.8244
 190   2.0000      -0.543654       -14.7936
 191   2.0000      -0.543470       -14.7886
 192   2.0000      -0.542152       -14.7527
 193   2.0000      -0.541303       -14.7296
 194   2.0000      -0.537573       -14.6281
 195   2.0000      -0.532356       -14.4861
 196   2.0000      -0.529117       -14.3980
 197   2.0000      -0.527587       -14.3564
 198   2.0000      -0.525521       -14.3001
 199   2.0000      -0.523764       -14.2523
 200   2.0000      -0.522571       -14.2199
 201   2.0000      -0.521006       -14.1773
 202   2.0000      -0.517945       -14.0940
 203   2.0000      -0.514595       -14.0028
 204   2.0000      -0.511302       -13.9132
 205   2.0000      -0.511078       -13.9071
 206   2.0000      -0.509274       -13.8581
 207   2.0000      -0.506435       -13.7808
 208   2.0000      -0.504450       -13.7268
 209   2.0000      -0.503405       -13.6984
 210   2.0000      -0.503153       -13.6915
 211   2.0000      -0.496076       -13.4989
 212   2.0000      -0.494207       -13.4481
 213   2.0000      -0.493669       -13.4334
 214   2.0000      -0.488846       -13.3022
 215   2.0000      -0.486057       -13.2263
 216   2.0000      -0.484161       -13.1747
 217   2.0000      -0.479111       -13.0373
 218   2.0000      -0.477143       -12.9837
 219   2.0000      -0.474295       -12.9062
 220   2.0000      -0.471605       -12.8330
 221   2.0000      -0.471154       -12.8207
 222   2.0000      -0.469296       -12.7702
 223   2.0000      -0.464346       -12.6355
 224   2.0000      -0.462776       -12.5928
 225   2.0000      -0.458789       -12.4843
 226   2.0000      -0.456913       -12.4332
 227   2.0000      -0.456473       -12.4213
 228   2.0000      -0.455349       -12.3907
 229   2.0000      -0.453629       -12.3439
 230   2.0000      -0.453282       -12.3344
 231   2.0000      -0.451853       -12.2956
 232   2.0000      -0.449237       -12.2244
 233   2.0000      -0.447647       -12.1811
 234   2.0000      -0.447296       -12.1715
 235   2.0000      -0.446096       -12.1389
 236   2.0000      -0.445411       -12.1202
 237   2.0000      -0.444120       -12.0851
 238   2.0000      -0.443624       -12.0716
 239   2.0000      -0.442657       -12.0453
 240   2.0000      -0.441314       -12.0088
 241   2.0000      -0.440651       -11.9907
 242   2.0000      -0.440345       -11.9824
 243   2.0000      -0.440039       -11.9741
 244   2.0000      -0.438916       -11.9435
 245   2.0000      -0.435550       -11.8519
 246   2.0000      -0.435149       -11.8410
 247   2.0000      -0.429582       -11.6895
 248   2.0000      -0.428055       -11.6480
 249   2.0000      -0.426095       -11.5946
 250   2.0000      -0.425702       -11.5839
 251   2.0000      -0.424309       -11.5460
 252   2.0000      -0.420669       -11.4470
 253   2.0000      -0.419733       -11.4215
 254   2.0000      -0.419414       -11.4128
 255   2.0000      -0.417674       -11.3655
 256   2.0000      -0.416694       -11.3388
 257   2.0000      -0.415319       -11.3014
 258   2.0000      -0.408606       -11.1187
 259   2.0000      -0.401270       -10.9191
 260   2.0000      -0.395308       -10.7569
 261   2.0000      -0.385594       -10.4925
 262   2.0000      -0.382923       -10.4199
 263   2.0000      -0.372627       -10.1397
 264   2.0000      -0.369554       -10.0561
 265   2.0000      -0.358421        -9.7531
 266   2.0000      -0.356965        -9.7135
 267   2.0000      -0.353819        -9.6279
 268   2.0000      -0.349290        -9.5047
 269   2.0000      -0.348529        -9.4839
 270   2.0000      -0.343829        -9.3561
 271   2.0000      -0.340856        -9.2752
 272   2.0000      -0.337937        -9.1957
 273   2.0000      -0.329388        -8.9631
 274   2.0000      -0.323005        -8.7894
 275   2.0000      -0.308943        -8.4068
 276   2.0000      -0.304811        -8.2943
 277   2.0000      -0.299722        -8.1558
 278   2.0000      -0.290166        -7.8958
 279   2.0000      -0.253641        -6.9019
 280   0.0000      -0.142645        -3.8816
 281   0.0000      -0.116221        -3.1625
 282   0.0000      -0.086583        -2.3560
 283   0.0000      -0.076682        -2.0866
 284   0.0000      -0.071374        -1.9422

MULLIKEN ATOMIC CHARGES
-----------------------
   0 C :    0.332350
   1 C :   -0.349115
   2 C :   -0.182097
   3 N :    0.154816
   4 C :   -0.181163
   5 N :    0.151419
   6 C :    0.042181
   7 C :    0.000049
   8 C :   -0.079426
   9 C :    0.098735
  10 C :    0.096678
  11 C :   -0.080090
  12 C :   -0.018726
  13 C :    0.038080
  14 C :    0.037772
  15 C :   -0.017097
  16 C :    0.171100
  17 O :   -0.196710
  18 C :   -0.090945
  19 C :   -0.030037
  20 C :   -0.064453
  21 S :    0.247480
  22 C :   -0.161079
  23 C :    0.138526
  24 C :    0.120195
  25 C :   -0.067287
  26 C :   -0.050925
  27 C :   -0.175541
  28 N :    0.187352
  29 C :   -0.077530
  30 C :   -0.176956
  31 N :    0.178306
  32 C :    0.000252
  33 C :    0.118761
  34 N :   -0.260267
  35 C :    0.078411
  36 C :    0.003801
  37 C :    0.155304
  38 O :   -0.180915
  39 C :   -0.055651
  40 C :   -0.047798
  41 C :    0.130880
  42 O :   -0.182731
  43 N :   -0.263986
  44 C :    0.095860
  45 C :   -0.004816
  46 C :    0.135033
  47 C :   -0.042047
  48 C :    0.008404
  49 C :   -0.081713
  50 S :    0.218490
  51 C :   -0.138832
  52 C :    0.164126
  53 C :    0.119956
  54 C :   -0.062047
  55 C :   -0.051483
  56 C :   -0.182283
  57 N :    0.179703
  58 C :   -0.083752
  59 C :   -0.179075
  60 N :    0.186458
  61 C :    0.002403
  62 C :    0.012893
  63 C :   -0.112172
  64 C :    0.293281
  65 C :   -0.329511
  66 C :   -0.180643
  67 N :    0.153111
  68 C :   -0.211538
  69 N :    0.167059
  70 C :    0.056118
  71 C :   -0.006339
  72 C :    0.136288
  73 O :   -0.149159
  74 C :   -0.076142
  75 C :    0.098328
  76 C :    0.099063
  77 C :   -0.086485
  78 C :   -0.021188
  79 C :    0.038106
  80 C :    0.036783
  81 C :   -0.016280
  82 H :   -0.012833
  83 H :   -0.007271
  84 H :   -0.005783
  85 H :   -0.001243
  86 H :   -0.001902
  87 H :   -0.015725
  88 H :   -0.011059
  89 H :    0.019044
  90 H :    0.002670
  91 H :    0.046654
  92 H :    0.051009
  93 H :    0.021431
  94 H :    0.030357
  95 H :    0.028019
  96 H :    0.025484
  97 H :    0.052568
  98 H :    0.019767
  99 H :    0.032407
 100 H :    0.042244
 101 H :    0.019404
 102 H :   -0.011873
 103 H :   -0.003717
 104 H :    0.004785
 105 H :    0.036251
 106 H :   -0.009074
 107 H :   -0.006006
 108 H :   -0.007217
 109 H :   -0.001310
 110 H :   -0.001697
 111 H :   -0.013267
Sum of atomic charges:   -0.0000000

LOEWDIN ATOMIC CHARGES
----------------------
   0 C :    0.075470
   1 C :   -0.138163
   2 C :   -0.017913
   3 N :   -0.047143
   4 C :   -0.017027
   5 N :   -0.050429
   6 C :   -0.025518
   7 C :   -0.057523
   8 C :    0.034855
   9 C :   -0.008641
  10 C :   -0.005037
  11 C :    0.022752
  12 C :   -0.003701
  13 C :   -0.009734
  14 C :   -0.009392
  15 C :   -0.008673
  16 C :    0.087473
  17 O :   -0.180420
  18 C :   -0.095721
  19 C :    0.048238
  20 C :   -0.179127
  21 S :    0.595877
  22 C :   -0.174959
  23 C :   -0.031587
  24 C :   -0.014836
  25 C :    0.023187
  26 C :   -0.032739
  27 C :   -0.030392
  28 N :   -0.020850
  29 C :   -0.046424
  30 C :   -0.027958
  31 N :   -0.034255
  32 C :    0.053754
  33 C :    0.055267
  34 N :   -0.001373
  35 C :    0.028459
  36 C :   -0.061405
  37 C :    0.079826
  38 O :   -0.184826
  39 C :   -0.105733
  40 C :   -0.115153
  41 C :    0.078549
  42 O :   -0.179157
  43 N :   -0.001632
  44 C :    0.034988
  45 C :   -0.063089
  46 C :    0.073096
  47 C :   -0.020766
  48 C :   -0.023573
  49 C :   -0.146963
  50 S :    0.531353
  51 C :   -0.170048
  52 C :   -0.014738
  53 C :   -0.035714
  54 C :    0.027902
  55 C :   -0.044392
  56 C :   -0.032954
  57 N :   -0.028765
  58 C :   -0.043103
  59 C :   -0.030509
  60 N :   -0.028075
  61 C :    0.052430
  62 C :    0.035377
  63 C :   -0.089633
  64 C :    0.071730
  65 C :   -0.134458
  66 C :   -0.017950
  67 N :   -0.047098
  68 C :   -0.026010
  69 N :   -0.048050
  70 C :   -0.026972
  71 C :   -0.056610
  72 C :    0.077484
  73 O :   -0.140690
  74 C :    0.035925
  75 C :   -0.007544
  76 C :   -0.005159
  77 C :    0.021078
  78 C :   -0.005062
  79 C :   -0.010471
  80 C :   -0.009801
  81 C :   -0.007619
  82 H :    0.039137
  83 H :    0.040069
  84 H :    0.036065
  85 H :    0.034839
  86 H :    0.034243
  87 H :    0.032415
  88 H :    0.049065
  89 H :    0.047845
  90 H :    0.044164
  91 H :    0.017189
  92 H :    0.040651
  93 H :    0.018756
  94 H :    0.034910
  95 H :    0.031259
  96 H :    0.021808
  97 H :    0.041927
  98 H :    0.020425
  99 H :    0.034931
 100 H :    0.038426
 101 H :    0.041274
 102 H :    0.036225
 103 H :    0.041805
 104 H :    0.045174
 105 H :    0.048010
 106 H :    0.040574
 107 H :    0.039621
 108 H :    0.035354
 109 H :    0.034453
 110 H :    0.034231
 111 H :    0.033338

  Mayer bond orders larger than 0.100000
B(  0-C ,  1-C ) :   1.6221 B(  0-C ,  6-C ) :   0.9854 B(  0-C , 18-C ) :   1.0760
B(  1-C ,  2-C ) :   1.1490 B(  1-C ,  4-C ) :   1.1479 B(  2-C ,  3-N ) :   2.9610
B(  4-C ,  5-N ) :   2.9676 B(  6-C ,  7-C ) :   1.2118 B(  6-C , 11-C ) :   1.4570
B(  7-C ,  8-C ) :   1.4622 B(  7-C , 16-C ) :   0.9718 B(  8-C ,  9-C ) :   1.1780
B(  8-C , 82-H ) :   1.0176 B(  9-C , 10-C ) :   1.2556 B(  9-C , 15-C ) :   1.2434
B( 10-C , 11-C ) :   1.1995 B( 10-C , 12-C ) :   1.2438 B( 11-C , 83-H ) :   0.9902
B( 12-C , 13-C ) :   1.4846 B( 12-C , 84-H ) :   0.9980 B( 13-C , 14-C ) :   1.2612
B( 13-C , 85-H ) :   0.9892 B( 14-C , 15-C ) :   1.4863 B( 14-C , 86-H ) :   0.9895
B( 15-C , 87-H ) :   0.9984 B( 16-C , 17-O ) :   2.0931 B( 16-C , 18-C ) :   0.9787
B( 18-C , 19-C ) :   1.5118 B( 19-C , 20-C ) :   1.2874 B( 19-C , 88-H ) :   0.9297
B( 20-C , 21-S ) :   1.1214 B( 20-C , 22-C ) :   0.1019 B( 20-C , 24-C ) :   1.2162
B( 21-S , 22-C ) :   1.1614 B( 22-C , 23-C ) :   1.2582 B( 22-C , 33-C ) :   1.1202
B( 23-C , 24-C ) :   1.2426 B( 23-C , 32-C ) :   1.2300 B( 24-C , 25-C ) :   1.2196
B( 25-C , 26-C ) :   1.5326 B( 25-C , 89-H ) :   0.9840 B( 26-C , 27-C ) :   1.0890
B( 26-C , 29-C ) :   1.2717 B( 27-C , 28-N ) :   3.0395 B( 29-C , 30-C ) :   1.0825
B( 29-C , 32-C ) :   1.5429 B( 30-C , 31-N ) :   3.0450 B( 32-C , 90-H ) :   0.9815
B( 33-C , 34-N ) :   1.2126 B( 33-C , 40-C ) :   1.3605 B( 34-N , 35-C ) :   0.9367
B( 34-N , 37-C ) :   1.0231 B( 35-C , 36-C ) :   1.1161 B( 35-C , 91-H ) :   0.9467
B( 35-C , 92-H ) :   0.9236 B( 36-C , 93-H ) :   0.9670 B( 36-C , 94-H ) :   0.9670
B( 36-C , 95-H ) :   0.9641 B( 37-C , 38-O ) :   2.1334 B( 37-C , 39-C ) :   0.9827
B( 39-C , 40-C ) :   1.2454 B( 39-C , 46-C ) :   1.3190 B( 40-C , 41-C ) :   0.9616
B( 41-C , 42-O ) :   2.1167 B( 41-C , 43-N ) :   1.0439 B( 43-N , 44-C ) :   0.9348
B( 43-N , 46-C ) :   1.1685 B( 44-C , 45-C ) :   1.1138 B( 44-C , 96-H ) :   0.9507
B( 44-C , 97-H ) :   0.9233 B( 45-C , 98-H ) :   0.9675 B( 45-C , 99-H ) :   0.9692
B( 45-C ,100-H ) :   0.9601 B( 46-C , 47-C ) :   1.2211 B( 47-C , 48-C ) :   1.5186
B( 47-C ,101-H ) :   0.9448 B( 48-C , 49-C ) :   1.2223 B( 48-C ,102-H ) :   0.9706
B( 49-C , 50-S ) :   1.1792 B( 49-C , 53-C ) :   1.2470 B( 50-S , 51-C ) :   1.1412
B( 51-C , 52-C ) :   1.3003 B( 51-C , 62-C ) :   1.1945 B( 52-C , 53-C ) :   1.2379
B( 52-C , 61-C ) :   1.1997 B( 53-C , 54-C ) :   1.2081 B( 54-C , 55-C ) :   1.5520
B( 54-C ,103-H ) :   0.9929 B( 55-C , 56-C ) :   1.0814 B( 55-C , 58-C ) :   1.2563
B( 56-C , 57-N ) :   3.0431 B( 58-C , 59-C ) :   1.0794 B( 58-C , 61-C ) :   1.5663
B( 59-C , 60-N ) :   3.0471 B( 61-C ,104-H ) :   0.9859 B( 62-C , 63-C ) :   1.5889
B( 62-C ,105-H ) :   0.9339 B( 63-C , 64-C ) :   1.0615 B( 63-C , 72-C ) :   0.9448
B( 64-C , 65-C ) :   1.6462 B( 64-C , 70-C ) :   0.9975 B( 65-C , 66-C ) :   1.1435
B( 65-C , 68-C ) :   1.1398 B( 66-C , 67-N ) :   2.9671 B( 68-C , 69-N ) :   2.9996
B( 70-C , 71-C ) :   1.2087 B( 70-C , 77-C ) :   1.4506 B( 71-C , 72-C ) :   0.9465
B( 71-C , 74-C ) :   1.4727 B( 72-C , 73-O ) :   2.1982 B( 74-C , 75-C ) :   1.1786
B( 74-C ,106-H ) :   1.0171 B( 75-C , 76-C ) :   1.2541 B( 75-C , 81-C ) :   1.2455
B( 76-C , 77-C ) :   1.2036 B( 76-C , 78-C ) :   1.2410 B( 77-C ,107-H ) :   0.9912
B( 78-C , 79-C ) :   1.4893 B( 78-C ,108-H ) :   0.9974 B( 79-C , 80-C ) :   1.2608
B( 79-C ,109-H ) :   0.9880 B( 80-C , 81-C ) :   1.4881 B( 80-C ,110-H ) :   0.9885
B( 81-C ,111-H ) :   0.9980

-----------------------------------------------------------------------------
         ABSORPTION SPECTRUM VIA TRANSITION ELECTRIC DIPOLE MOMENTS
-----------------------------------------------------------------------------
State   Energy  Wavelength   fosc         T2         TX        TY        TZ
        (cm-1)    (nm)                  (au**2)     (au)      (au)      (au)
-----------------------------------------------------------------------------
   0   10168.3    983.4   1.379835245  44.67386   2.28329   6.27695   0.24578
   1   16140.9    619.5   0.120110616   2.44979   0.37555   0.27169  -1.49497
   2   18672.8    535.5   0.155898199   2.74857  -0.24650   0.35576   1.60039
   3   19795.3    505.2   0.410365866   6.82473  -0.39628  -2.48838   0.68968
   4   22226.5    449.9   0.116118876   1.71991   0.21105  -1.03275   0.78026
   5   22686.3    440.8   0.098402833   1.42797   0.60235  -0.07378   1.02942
   6   22781.2    439.0   0.054099474   0.78179  -0.18203   0.67500   0.54132
   7   23596.7    423.8   0.020275219   0.28287  -0.03113  -0.52526   0.07749
   8   24397.6    409.9   0.017227371   0.23246  -0.11953   0.34529   0.31456
   9   25016.8    399.7   0.089952570   1.18374   0.31222  -0.79728  -0.67128
  10   25713.9    388.9   0.029176348   0.37354   0.55892   0.11840  -0.21710
  11   25787.6    387.8   0.036398345   0.46467   0.36807  -0.26657  -0.50807
  12   26066.1    383.6   0.040898196   0.51654  -0.41010   0.58095   0.10416
  13   26208.5    381.6   0.035058729   0.44038   0.36772   0.12862   0.53723
  14   26367.6    379.3   0.071377980   0.89119  -0.53009   0.50427   0.59658
  15   26712.2    374.4   0.032899777   0.40547   0.02284   0.20341  -0.60297
  16   27044.1    369.8   0.050850456   0.61901   0.03409   0.31125   0.72178
  17   27775.6    360.0   0.014099433   0.16711  -0.11985   0.36302   0.14480
  18   28441.7    351.6   0.047157205   0.54584   0.32917  -0.28062  -0.59895
  19   28807.6    347.1   0.139070388   1.58929   0.70687  -0.63870  -0.82565
  20   28910.7    345.9   0.030829898   0.35107  -0.19330  -0.55460   0.07823
  21   29875.3    334.7   0.114897040   1.26611   0.76194  -0.00227   0.82798
  22   30225.9    330.8   0.168579825   1.83612   0.65642  -1.18378   0.06255
  23   30933.5    323.3   0.477182474   5.07844   1.19251  -0.82362  -1.72569
  24   31207.1    320.4   0.053359403   0.56290   0.04844   0.47227   0.58097
  25   31577.4    316.7   0.046921221   0.48918  -0.08989  -0.54332  -0.43117
  26   31678.2    315.7   0.173633614   1.80446   0.37301  -1.19886  -0.47757
  27   32198.4    310.6   0.246273910   2.51802   0.03845  -0.00162   1.58636
  28   32313.8    309.5   0.263000885   2.67944   0.43252  -1.56094  -0.23630
  29   32781.2    305.1   0.022008064   0.22102  -0.43913   0.06301   0.15562
  30   33054.1    302.5   0.074232528   0.73934  -0.42061   0.73607  -0.14363
  31   33319.9    300.1   0.091325545   0.90233   0.85765  -0.35134  -0.20813
  32   33470.1    298.8   0.038608092   0.37975   0.36882   0.23551   0.43389
  33   33533.0    298.2   0.046046344   0.45206   0.59800   0.18821  -0.24297
  34   34035.8    293.8   0.173689057   1.68001   0.11271  -1.27406  -0.20992
  35   34430.9    290.4   0.057636900   0.55110   0.73276   0.07826   0.08965
  36   35044.9    285.3   0.015615083   0.14669   0.07554   0.34607  -0.14567
  37   35129.8    284.7   0.001666097   0.01561   0.06629   0.10542   0.01025
  38   35218.6    283.9   0.034594151   0.32337   0.37640  -0.02600  -0.42547
  39   35312.2    283.2   0.124214563   1.15804  -0.68033   0.23236   0.80075
  40   35684.5    280.2   0.177150944   1.63433  -0.42544   1.18030   0.24540
  41   35974.3    278.0   0.127832750   1.16984  -0.40187   0.85209   0.53130
  42   36209.5    276.2   0.028872843   0.26251   0.45013  -0.06265  -0.23658
  43   36453.7    274.3   0.241937805   2.18493   0.92148   0.07882  -1.15308
  44   36567.5    273.5   0.011041804   0.09941  -0.21484   0.07015   0.21984
  45   37008.3    270.2   0.128506918   1.14315   0.64129  -0.25187  -0.81759
  46   37209.3    268.7   0.164604181   1.45635  -0.69458  -0.40908   0.89808
  47   37371.0    267.6   0.014811928   0.13048  -0.21976   0.10026   0.26858
  48   37601.7    265.9   0.345135491   3.02174   1.03838  -0.96263  -1.00839
  49   37688.7    265.3   0.060956544   0.53246   0.10383   0.68585   0.22648
  50   38055.4    262.8   0.051610902   0.44648   0.29492   0.50945   0.31617
  51   38133.2    262.2   0.082279530   0.71034  -0.51182  -0.30765   0.59476
  52   38230.0    261.6   0.063469168   0.54655  -0.22065  -0.70558  -0.00542
  53   39014.2    256.3   0.123344209   1.04081  -0.08697  -0.49689   0.88676
  54   39137.1    255.5   0.472054169   3.97080   0.91496   1.59996  -0.75748
  55   39549.3    252.8   0.042327199   0.35234  -0.34123   0.38567   0.29523
  56   39611.4    252.5   0.043398816   0.36069   0.03191  -0.59141  -0.09953
  57   39772.1    251.4   0.004418682   0.03658   0.17241  -0.01289   0.08175
  58   39932.7    250.4   0.015473861   0.12757   0.16760  -0.23702  -0.20808
  59   40078.2    249.5   0.003485311   0.02863  -0.03370  -0.10136   0.13122

FINAL SINGLE POINT ENERGY     -4173.261960043702

DIPOLE MOMENT
-------------
                                X             Y             Z
Electronic contribution:      5.64270      -1.83895      15.95598
Nuclear contribution   :     -4.98810       0.74084     -21.02385
                        -----------------------------------------
Total Dipole Moment    :      0.65459      -1.09811      -5.06787
                        -----------------------------------------
Magnitude (a.u.)       :      5.22662
Magnitude (Debye)      :     13.28502

Rotational constants in cm-1:     0.001316     0.000223     0.000204
Rotational constants in MHz :    39.452575     6.698559     6.106904

                             ****ORCA TERMINATED NORMALLY****
TOTAL RUN TIME: 0 days 0 hours 12 minutes 28 seconds 786 msec
