                         Program Version 4.2.0 -  RELEASE  -
|  1> # ORCA input file
|  2> # SCF done       -213.456094305064          0.000597387713
|  3> ! CAM-B3LYP def2-SVP def2/J RIJCOSX Grid4 TightSCF
|  4> %maxcore 5000
|  5> %tddft
|  6>     Mode sTDDFT
|  7>     Ethresh 5.0
|  8>     maxcore 5000
|  9> end
| 10>
| 11> %pal
| 12>   nprocs 6
| 13>   end
| 14> * xyz 0 1
| 15>    C        1.75386         0.46795        -1.16464
| 16>    C        0.91862        -0.61417        -1.05721
| 17>    C        1.35129        -1.95524        -1.14232
| 18>    N        1.62789        -3.06807        -1.19719
| 19>    C       -0.48077        -0.58181        -0.87918
| 20>    N       -1.62000        -0.65532        -0.74861
| 21>    C        3.18627         0.39040        -1.42449
| 22>    C        3.68474         1.71136        -1.59801
| 23>    C        4.99966         1.96201        -1.86609
| 24>    C        5.89835         0.87762        -1.97103
| 25>    C        5.41032        -0.44920        -1.79254
| 26>    C        4.04207        -0.67587        -1.51821
| 27>    C        6.31607        -1.52465        -1.89608
| 28>    C        7.63943        -1.30199        -2.16358
| 29>    C        8.11844         0.00491        -2.33926
| 30>    C        7.26634         1.07172        -2.24528
| 31>    C        2.58919         2.67980        -1.43917
| 32>    O        2.68853         3.88373        -1.55502
| 33>    C        1.38475         1.87685        -1.10271
| 34>    C        0.14959         2.31390        -0.71426
| 35>    C       -0.39910         3.61152        -0.61169
| 36>    S       -2.03343         3.72188         0.01559
| 37>    C       -2.06184         5.44344        -0.16281
| 38>    C       -0.83692         5.89756        -0.67506
| 39>    C        0.07891         4.87044        -0.92551
| 40>    C       -0.47931         7.24710        -0.85662
| 41>    N       -0.11585         8.32744        -0.98257
| 42>    C       -3.22489         6.16228         0.20859
| 43>    C       -3.45972         7.45922        -0.12620
| 44>    C       -4.56182         8.28619         0.19804
| 45>    N       -5.57651         8.11234         1.11847
| 46>    C       -5.75192         7.05013         2.08069
| 47>    C       -4.68996         7.08353         3.17606
| 48>    C       -6.44611         9.21723         1.14431
| 49>    O       -7.40770         9.29654         1.88937
| 50>    C       -5.93192        10.11691         0.14003
| 51>    C       -4.78239         9.51794        -0.41637
| 52>    C       -4.26213        10.39591        -1.44573
| 53>    O       -3.32790        10.29743        -2.20684
| 54>    N       -5.13319        11.50675        -1.41321
| 55>    C       -4.97527        12.60649        -2.33381
| 56>    C       -5.96357        12.52131        -3.49424
| 57>    C       -6.13000        11.35549        -0.48254
| 58>    C       -7.12523        12.32209        -0.22170
| 59>    C       -8.09883        12.11748         0.70819
| 60>    C       -9.09613        13.06365         1.02440
| 61>    S       -9.18132        14.61795         0.26045
| 62>    C      -10.56256        15.05710         1.22002
| 63>    C      -10.92258        14.01235         2.09247
| 64>    C      -10.10939        12.89481         1.97437
| 65>    C      -10.27876        11.64678         2.78477
| 66>    C      -11.62916        11.61748         3.49504
| 67>    N      -12.70299        11.17269         2.54786
| 68>    O      -13.77783        11.71023         2.63735
| 69>    O      -12.41986        10.28863         1.78507
| 70>    C      -11.99600        12.97571         4.09625
| 71>    N      -10.96111        13.27513         5.13890
| 72>    O      -10.81822        12.43323         5.99060
| 73>    O      -10.35380        14.30735         5.05707
| 74>    C      -12.06597        14.08533         3.05689
| 75>    C      -11.24517        16.28192         1.17689
| 76>    C      -11.02320        17.40265         0.42002
| 77>    C      -11.78702        18.63456         0.50381
| 78>    C      -12.81277        18.91813         1.37065
| 79>    C      -13.50679        20.14626         1.39743
| 80>    N      -14.11517        21.11705         1.47132
| 81>    C      -13.31979        18.04987         2.35851
| 82>    N      -13.77827        17.39810         3.18707
| 83>    C      -11.24933        19.55344        -0.49437
| 84>    C      -10.16842        18.91247        -1.16582
| 85>    C       -9.99258        17.56135        -0.61671
| 86>    O       -9.16120        16.73962        -0.96279
| 87>    C       -9.45948        19.53188        -2.15397
| 88>    C       -9.80558        20.85029        -2.52568
| 89>    C      -10.88624        21.49920        -1.86166
| 90>    C      -11.60219        20.83049        -0.84143
| 91>    C      -11.22320        22.81442        -2.23998
| 92>    C      -10.52684        23.45953        -3.22602
| 93>    C       -9.46308        22.81957        -3.87885
| 94>    C       -9.11008        21.54222        -3.53617
| 95>    H        5.34811         2.97597        -1.99544
| 96>    H        3.70840        -1.69234        -1.38487
| 97>    H        5.94267        -2.52916        -1.76115
| 98>    H        8.32502        -2.13242        -2.24148
| 99>    H        9.16580         0.16211        -2.54931
|100>    H        7.62884         2.08036        -2.37954
|101>    H       -0.55245         1.54364        -0.41690
|102>    H        1.06638         5.03985        -1.31630
|103>    H       -3.95798         5.58425         0.75069
|104>    H       -2.74393         7.96398        -0.76292
|105>    H       -5.77075         6.08314         1.57175
|106>    H       -6.73804         7.22089         2.52381
|107>    H       -3.69084         6.97279         2.76139
|108>    H       -4.86760         6.27794         3.88309
|109>    H       -4.73843         8.02993         3.70899
|110>    H       -3.95304        12.53387        -2.71547
|111>    H       -5.08705        13.55263        -1.79723
|112>    H       -5.82017        11.58971        -4.03615
|113>    H       -5.79875        13.34941        -4.17757
|114>    H       -6.99023        12.56167        -3.13731
|115>    H       -7.10102        13.25317        -0.77009
|116>    H       -8.11337        11.18172         1.25061
|117>    H       -9.47387        11.57466         3.52211
|118>    H      -10.19610        10.76439         2.14467
|119>    H      -11.60668        10.85857         4.28860
|120>    H      -12.95163        12.89902         4.62795
|121>    H      -12.07155        15.04806         3.57350
|122>    H      -13.01652        13.99923         2.52127
|123>    H      -12.07830        16.33375         1.86307
|124>    H       -8.64382        19.02277        -2.64563
|125>    H      -12.41486        21.35086        -0.36046
|126>    H      -12.04277        23.30355        -1.73437
|127>    H      -10.79236        24.46727        -3.50805
|128>    H       -8.92446        23.34322        -4.65437
|129>    H       -8.29169        21.04417        -4.03522
|130> *
|131>
|132>                          ****END OF INPUT****

CARTESIAN COORDINATES (ANGSTROEM)
---------------------------------
  C      1.753860    0.467950   -1.164640
  C      0.918620   -0.614170   -1.057210
  C      1.351290   -1.955240   -1.142320
  N      1.627890   -3.068070   -1.197190
  C     -0.480770   -0.581810   -0.879180
  N     -1.620000   -0.655320   -0.748610
  C      3.186270    0.390400   -1.424490
  C      3.684740    1.711360   -1.598010
  C      4.999660    1.962010   -1.866090
  C      5.898350    0.877620   -1.971030
  C      5.410320   -0.449200   -1.792540
  C      4.042070   -0.675870   -1.518210
  C      6.316070   -1.524650   -1.896080
  C      7.639430   -1.301990   -2.163580
  C      8.118440    0.004910   -2.339260
  C      7.266340    1.071720   -2.245280
  C      2.589190    2.679800   -1.439170
  O      2.688530    3.883730   -1.555020
  C      1.384750    1.876850   -1.102710
  C      0.149590    2.313900   -0.714260
  C     -0.399100    3.611520   -0.611690
  S     -2.033430    3.721880    0.015590
  C     -2.061840    5.443440   -0.162810
  C     -0.836920    5.897560   -0.675060
  C      0.078910    4.870440   -0.925510
  C     -0.479310    7.247100   -0.856620
  N     -0.115850    8.327440   -0.982570
  C     -3.224890    6.162280    0.208590
  C     -3.459720    7.459220   -0.126200
  C     -4.561820    8.286190    0.198040
  N     -5.576510    8.112340    1.118470
  C     -5.751920    7.050130    2.080690
  C     -4.689960    7.083530    3.176060
  C     -6.446110    9.217230    1.144310
  O     -7.407700    9.296540    1.889370
  C     -5.931920   10.116910    0.140030
  C     -4.782390    9.517940   -0.416370
  C     -4.262130   10.395910   -1.445730
  O     -3.327900   10.297430   -2.206840
  N     -5.133190   11.506750   -1.413210
  C     -4.975270   12.606490   -2.333810
  C     -5.963570   12.521310   -3.494240
  C     -6.130000   11.355490   -0.482540
  C     -7.125230   12.322090   -0.221700
  C     -8.098830   12.117480    0.708190
  C     -9.096130   13.063650    1.024400
  S     -9.181320   14.617950    0.260450
  C    -10.562560   15.057100    1.220020
  C    -10.922580   14.012350    2.092470
  C    -10.109390   12.894810    1.974370
  C    -10.278760   11.646780    2.784770
  C    -11.629160   11.617480    3.495040
  N    -12.702990   11.172690    2.547860
  O    -13.777830   11.710230    2.637350
  O    -12.419860   10.288630    1.785070
  C    -11.996000   12.975710    4.096250
  N    -10.961110   13.275130    5.138900
  O    -10.818220   12.433230    5.990600
  O    -10.353800   14.307350    5.057070
  C    -12.065970   14.085330    3.056890
  C    -11.245170   16.281920    1.176890
  C    -11.023200   17.402650    0.420020
  C    -11.787020   18.634560    0.503810
  C    -12.812770   18.918130    1.370650
  C    -13.506790   20.146260    1.397430
  N    -14.115170   21.117050    1.471320
  C    -13.319790   18.049870    2.358510
  N    -13.778270   17.398100    3.187070
  C    -11.249330   19.553440   -0.494370
  C    -10.168420   18.912470   -1.165820
  C     -9.992580   17.561350   -0.616710
  O     -9.161200   16.739620   -0.962790
  C     -9.459480   19.531880   -2.153970
  C     -9.805580   20.850290   -2.525680
  C    -10.886240   21.499200   -1.861660
  C    -11.602190   20.830490   -0.841430
  C    -11.223200   22.814420   -2.239980
  C    -10.526840   23.459530   -3.226020
  C     -9.463080   22.819570   -3.878850
  C     -9.110080   21.542220   -3.536170
  H      5.348110    2.975970   -1.995440
  H      3.708400   -1.692340   -1.384870
  H      5.942670   -2.529160   -1.761150
  H      8.325020   -2.132420   -2.241480
  H      9.165800    0.162110   -2.549310
  H      7.628840    2.080360   -2.379540
  H     -0.552450    1.543640   -0.416900
  H      1.066380    5.039850   -1.316300
  H     -3.957980    5.584250    0.750690
  H     -2.743930    7.963980   -0.762920
  H     -5.770750    6.083140    1.571750
  H     -6.738040    7.220890    2.523810
  H     -3.690840    6.972790    2.761390
  H     -4.867600    6.277940    3.883090
  H     -4.738430    8.029930    3.708990
  H     -3.953040   12.533870   -2.715470
  H     -5.087050   13.552630   -1.797230
  H     -5.820170   11.589710   -4.036150
  H     -5.798750   13.349410   -4.177570
  H     -6.990230   12.561670   -3.137310
  H     -7.101020   13.253170   -0.770090
  H     -8.113370   11.181720    1.250610
  H     -9.473870   11.574660    3.522110
  H    -10.196100   10.764390    2.144670
  H    -11.606680   10.858570    4.288600
  H    -12.951630   12.899020    4.627950
  H    -12.071550   15.048060    3.573500
  H    -13.016520   13.999230    2.521270
  H    -12.078300   16.333750    1.863070
  H     -8.643820   19.022770   -2.645630
  H    -12.414860   21.350860   -0.360460
  H    -12.042770   23.303550   -1.734370
  H    -10.792360   24.467270   -3.508050
  H     -8.924460   23.343220   -4.654370
  H     -8.291690   21.044170   -4.035220

 Total Charge           Charge          ....    0
 Multiplicity           Mult            ....    1
 Number of Electrons    NEL             ....  560
 Basis Dimension        Dim             .... 1303

ORBITAL ENERGIES
----------------

  NO   OCC          E(Eh)            E(eV)
   0   2.0000     -88.984328     -2421.3867
   1   2.0000     -88.973395     -2421.0892
   2   2.0000     -19.267288      -524.2896
   3   2.0000     -19.266767      -524.2754
   4   2.0000     -19.266093      -524.2570
   5   2.0000     -19.262395      -524.1564
   6   2.0000     -19.226539      -523.1807
   7   2.0000     -19.222208      -523.0629
   8   2.0000     -19.201467      -522.4985
   9   2.0000     -19.198880      -522.4281
  10   2.0000     -14.665939      -399.0805
  11   2.0000     -14.663508      -399.0143
  12   2.0000     -14.462554      -393.5461
  13   2.0000     -14.461450      -393.5161
  14   2.0000     -14.424714      -392.5164
  15   2.0000     -14.419700      -392.3800
  16   2.0000     -14.417559      -392.3217
  17   2.0000     -14.415710      -392.2714
  18   2.0000     -14.408559      -392.0768
  19   2.0000     -10.384074      -282.5650
  20   2.0000     -10.381661      -282.4994
  21   2.0000     -10.374802      -282.3127
  22   2.0000     -10.373071      -282.2656
  23   2.0000     -10.359297      -281.8908
  24   2.0000     -10.356497      -281.8146
  25   2.0000     -10.354726      -281.7664
  26   2.0000     -10.346301      -281.5372
  27   2.0000     -10.345714      -281.5212
  28   2.0000     -10.345251      -281.5086
  29   2.0000     -10.344233      -281.4809
  30   2.0000     -10.343612      -281.4640
  31   2.0000     -10.342898      -281.4446
  32   2.0000     -10.329938      -281.0919
  33   2.0000     -10.328833      -281.0618
  34   2.0000     -10.328038      -281.0402
  35   2.0000     -10.328032      -281.0400
  36   2.0000     -10.325488      -280.9708
  37   2.0000     -10.323283      -280.9108
  38   2.0000     -10.322588      -280.8919
  39   2.0000     -10.320790      -280.8430
  40   2.0000     -10.318845      -280.7901
  41   2.0000     -10.318834      -280.7898
  42   2.0000     -10.314329      -280.6672
  43   2.0000     -10.313412      -280.6422
  44   2.0000     -10.311715      -280.5960
  45   2.0000     -10.310307      -280.5577
  46   2.0000     -10.308693      -280.5138
  47   2.0000     -10.308070      -280.4968
  48   2.0000     -10.307790      -280.4892
  49   2.0000     -10.306957      -280.4666
  50   2.0000     -10.306371      -280.4506
  51   2.0000     -10.305318      -280.4219
  52   2.0000     -10.305032      -280.4142
  53   2.0000     -10.304367      -280.3961
  54   2.0000     -10.304308      -280.3945
  55   2.0000     -10.303870      -280.3826
  56   2.0000     -10.303610      -280.3755
  57   2.0000     -10.303016      -280.3593
  58   2.0000     -10.301827      -280.3270
  59   2.0000     -10.301588      -280.3204
  60   2.0000     -10.301383      -280.3149
  61   2.0000     -10.300770      -280.2982
  62   2.0000     -10.299099      -280.2527
  63   2.0000     -10.298861      -280.2462
  64   2.0000     -10.298202      -280.2283
  65   2.0000     -10.298002      -280.2229
  66   2.0000     -10.293329      -280.0957
  67   2.0000     -10.290376      -280.0154
  68   2.0000     -10.289921      -280.0030
  69   2.0000     -10.289893      -280.0022
  70   2.0000     -10.289508      -279.9917
  71   2.0000     -10.289007      -279.9781
  72   2.0000     -10.287875      -279.9473
  73   2.0000     -10.287318      -279.9321
  74   2.0000     -10.287101      -279.9263
  75   2.0000     -10.286617      -279.9131
  76   2.0000     -10.275334      -279.6061
  77   2.0000     -10.270493      -279.4743
  78   2.0000     -10.268705      -279.4257
  79   2.0000     -10.268166      -279.4110
  80   2.0000      -8.080073      -219.8700
  81   2.0000      -8.066760      -219.5077
  82   2.0000      -6.049154      -164.6058
  83   2.0000      -6.045138      -164.4966
  84   2.0000      -6.042383      -164.4216
  85   2.0000      -6.035989      -164.2476
  86   2.0000      -6.031658      -164.1298
  87   2.0000      -6.029132      -164.0610
  88   2.0000      -1.349723       -36.7278
  89   2.0000      -1.347419       -36.6651
  90   2.0000      -1.171109       -31.8675
  91   2.0000      -1.169182       -31.8150
  92   2.0000      -1.142747       -31.0957
  93   2.0000      -1.141526       -31.0625
  94   2.0000      -1.137090       -30.9418
  95   2.0000      -1.135238       -30.8914
  96   2.0000      -1.073027       -29.1986
  97   2.0000      -1.062424       -28.9100
  98   2.0000      -1.024605       -27.8809
  99   2.0000      -1.022371       -27.8201
 100   2.0000      -1.019749       -27.7488
 101   2.0000      -1.019046       -27.7296
 102   2.0000      -1.004789       -27.3417
 103   2.0000      -1.001130       -27.2421
 104   2.0000      -0.998486       -27.1702
 105   2.0000      -0.995702       -27.0944
 106   2.0000      -0.988782       -26.9061
 107   2.0000      -0.986257       -26.8374
 108   2.0000      -0.975796       -26.5528
 109   2.0000      -0.973330       -26.4857
 110   2.0000      -0.940026       -25.5794
 111   2.0000      -0.935346       -25.4521
 112   2.0000      -0.933053       -25.3897
 113   2.0000      -0.926164       -25.2022
 114   2.0000      -0.922948       -25.1147
 115   2.0000      -0.909830       -24.7577
 116   2.0000      -0.905041       -24.6274
 117   2.0000      -0.904264       -24.6063
 118   2.0000      -0.887533       -24.1510
 119   2.0000      -0.886038       -24.1103
 120   2.0000      -0.884222       -24.0609
 121   2.0000      -0.882259       -24.0075
 122   2.0000      -0.881128       -23.9767
 123   2.0000      -0.873366       -23.7655
 124   2.0000      -0.869765       -23.6675
 125   2.0000      -0.852063       -23.1858
 126   2.0000      -0.845720       -23.0132
 127   2.0000      -0.832644       -22.6574
 128   2.0000      -0.829843       -22.5812
 129   2.0000      -0.827450       -22.5161
 130   2.0000      -0.821702       -22.3597
 131   2.0000      -0.811846       -22.0915
 132   2.0000      -0.804946       -21.9037
 133   2.0000      -0.781422       -21.2636
 134   2.0000      -0.778474       -21.1833
 135   2.0000      -0.767950       -20.8970
 136   2.0000      -0.767502       -20.8848
 137   2.0000      -0.764939       -20.8150
 138   2.0000      -0.763693       -20.7812
 139   2.0000      -0.737655       -20.0726
 140   2.0000      -0.733628       -19.9630
 141   2.0000      -0.723233       -19.6802
 142   2.0000      -0.714545       -19.4438
 143   2.0000      -0.710178       -19.3249
 144   2.0000      -0.709113       -19.2960
 145   2.0000      -0.706040       -19.2123
 146   2.0000      -0.705280       -19.1916
 147   2.0000      -0.701131       -19.0787
 148   2.0000      -0.699611       -19.0374
 149   2.0000      -0.690036       -18.7768
 150   2.0000      -0.686871       -18.6907
 151   2.0000      -0.685299       -18.6479
 152   2.0000      -0.681512       -18.5449
 153   2.0000      -0.676619       -18.4117
 154   2.0000      -0.667578       -18.1657
 155   2.0000      -0.663111       -18.0442
 156   2.0000      -0.662811       -18.0360
 157   2.0000      -0.657411       -17.8891
 158   2.0000      -0.650180       -17.6923
 159   2.0000      -0.645480       -17.5644
 160   2.0000      -0.638194       -17.3662
 161   2.0000      -0.635539       -17.2939
 162   2.0000      -0.634181       -17.2569
 163   2.0000      -0.629746       -17.1363
 164   2.0000      -0.620871       -16.8948
 165   2.0000      -0.616528       -16.7766
 166   2.0000      -0.611372       -16.6363
 167   2.0000      -0.609320       -16.5804
 168   2.0000      -0.608347       -16.5540
 169   2.0000      -0.607663       -16.5354
 170   2.0000      -0.606309       -16.4985
 171   2.0000      -0.601724       -16.3737
 172   2.0000      -0.597986       -16.2720
 173   2.0000      -0.592913       -16.1340
 174   2.0000      -0.582187       -15.8421
 175   2.0000      -0.581774       -15.8309
 176   2.0000      -0.576715       -15.6932
 177   2.0000      -0.574542       -15.6341
 178   2.0000      -0.571222       -15.5437
 179   2.0000      -0.561489       -15.2789
 180   2.0000      -0.558845       -15.2069
 181   2.0000      -0.556562       -15.1448
 182   2.0000      -0.553499       -15.0615
 183   2.0000      -0.550187       -14.9713
 184   2.0000      -0.548365       -14.9218
 185   2.0000      -0.548098       -14.9145
 186   2.0000      -0.544426       -14.8146
 187   2.0000      -0.541906       -14.7460
 188   2.0000      -0.540962       -14.7203
 189   2.0000      -0.539591       -14.6830
 190   2.0000      -0.538700       -14.6588
 191   2.0000      -0.538345       -14.6491
 192   2.0000      -0.535629       -14.5752
 193   2.0000      -0.531843       -14.4722
 194   2.0000      -0.528295       -14.3756
 195   2.0000      -0.526784       -14.3345
 196   2.0000      -0.525036       -14.2869
 197   2.0000      -0.522609       -14.2209
 198   2.0000      -0.521194       -14.1824
 199   2.0000      -0.519290       -14.1306
 200   2.0000      -0.518193       -14.1007
 201   2.0000      -0.516073       -14.0431
 202   2.0000      -0.515363       -14.0237
 203   2.0000      -0.513771       -13.9804
 204   2.0000      -0.512572       -13.9478
 205   2.0000      -0.510669       -13.8960
 206   2.0000      -0.506599       -13.7853
 207   2.0000      -0.502928       -13.6854
 208   2.0000      -0.500652       -13.6234
 209   2.0000      -0.500223       -13.6118
 210   2.0000      -0.498806       -13.5732
 211   2.0000      -0.496832       -13.5195
 212   2.0000      -0.493648       -13.4329
 213   2.0000      -0.488430       -13.2908
 214   2.0000      -0.485535       -13.2121
 215   2.0000      -0.480647       -13.0791
 216   2.0000      -0.480156       -13.0657
 217   2.0000      -0.476632       -12.9698
 218   2.0000      -0.473895       -12.8953
 219   2.0000      -0.473294       -12.8790
 220   2.0000      -0.468038       -12.7360
 221   2.0000      -0.467017       -12.7082
 222   2.0000      -0.463334       -12.6080
 223   2.0000      -0.459766       -12.5109
 224   2.0000      -0.457615       -12.4523
 225   2.0000      -0.456377       -12.4186
 226   2.0000      -0.451555       -12.2874
 227   2.0000      -0.451052       -12.2737
 228   2.0000      -0.450112       -12.2482
 229   2.0000      -0.448465       -12.2034
 230   2.0000      -0.447884       -12.1875
 231   2.0000      -0.446147       -12.1403
 232   2.0000      -0.444499       -12.0954
 233   2.0000      -0.444354       -12.0915
 234   2.0000      -0.443863       -12.0781
 235   2.0000      -0.443229       -12.0609
 236   2.0000      -0.441637       -12.0176
 237   2.0000      -0.439325       -11.9547
 238   2.0000      -0.437763       -11.9121
 239   2.0000      -0.435525       -11.8512
 240   2.0000      -0.435159       -11.8413
 241   2.0000      -0.435058       -11.8385
 242   2.0000      -0.433410       -11.7937
 243   2.0000      -0.431442       -11.7401
 244   2.0000      -0.428414       -11.6577
 245   2.0000      -0.427946       -11.6450
 246   2.0000      -0.427637       -11.6366
 247   2.0000      -0.421017       -11.4564
 248   2.0000      -0.417488       -11.3604
 249   2.0000      -0.414715       -11.2850
 250   2.0000      -0.413678       -11.2568
 251   2.0000      -0.410089       -11.1591
 252   2.0000      -0.408597       -11.1185
 253   2.0000      -0.408320       -11.1109
 254   2.0000      -0.405675       -11.0390
 255   2.0000      -0.404724       -11.0131
 256   2.0000      -0.402738       -10.9591
 257   2.0000      -0.398135       -10.8338
 258   2.0000      -0.392179       -10.6717
 259   2.0000      -0.389889       -10.6094
 260   2.0000      -0.388610       -10.5746
 261   2.0000      -0.384931       -10.4745
 262   2.0000      -0.378929       -10.3112
 263   2.0000      -0.376921       -10.2565
 264   2.0000      -0.357387        -9.7250
 265   2.0000      -0.351053        -9.5526
 266   2.0000      -0.347909        -9.4671
 267   2.0000      -0.343291        -9.3414
 268   2.0000      -0.342270        -9.3136
 269   2.0000      -0.341344        -9.2884
 270   2.0000      -0.338225        -9.2036
 271   2.0000      -0.331695        -9.0259
 272   2.0000      -0.325291        -8.8516
 273   2.0000      -0.321762        -8.7556
 274   2.0000      -0.319413        -8.6917
 275   2.0000      -0.302588        -8.2338
 276   2.0000      -0.300199        -8.1688
 277   2.0000      -0.292110        -7.9487
 278   2.0000      -0.285388        -7.7658
 279   2.0000      -0.241690        -6.5767
 280   0.0000      -0.121684        -3.3112
 281   0.0000      -0.100085        -2.7234
 282   0.0000      -0.077237        -2.1017
 283   0.0000      -0.064435        -1.7534
 284   0.0000      -0.058799        -1.6000

MULLIKEN ATOMIC CHARGES
-----------------------
   0 C :    0.316677
   1 C :   -0.355558
   2 C :   -0.182446
   3 N :    0.148166
   4 C :   -0.189833
   5 N :    0.151380
   6 C :    0.047084
   7 C :   -0.002926
   8 C :   -0.079998
   9 C :    0.098309
  10 C :    0.094821
  11 C :   -0.081305
  12 C :   -0.018876
  13 C :    0.035854
  14 C :    0.036805
  15 C :   -0.015360
  16 C :    0.162371
  17 O :   -0.154974
  18 C :   -0.084883
  19 C :    0.061827
  20 C :   -0.110788
  21 S :    0.169158
  22 C :   -0.054697
  23 C :   -0.065614
  24 C :    0.030577
  25 C :   -0.188306
  26 N :    0.143970
  27 C :    0.045430
  28 C :   -0.039860
  29 C :    0.103301
  30 N :   -0.261211
  31 C :    0.098466
  32 C :   -0.003891
  33 C :    0.163063
  34 O :   -0.229346
  35 C :   -0.066883
  36 C :   -0.025592
  37 C :    0.153893
  38 O :   -0.164051
  39 N :   -0.261705
  40 C :    0.096906
  41 C :    0.000568
  42 C :    0.152775
  43 C :   -0.022403
  44 C :   -0.017076
  45 C :   -0.058566
  46 S :    0.183265
  47 C :   -0.065535
  48 C :   -0.089824
  49 C :   -0.087843
  50 C :    0.150638
  51 C :    0.010125
  52 N :    0.222027
  53 O :   -0.220941
  54 O :   -0.205434
  55 C :    0.041792
  56 N :    0.211516
  57 O :   -0.226046
  58 O :   -0.200601
  59 C :    0.171525
  60 C :   -0.055231
  61 C :   -0.083215
  62 C :    0.328766
  63 C :   -0.353387
  64 C :   -0.182759
  65 N :    0.150281
  66 C :   -0.174083
  67 N :    0.132169
  68 C :    0.045400
  69 C :   -0.002876
  70 C :    0.165960
  71 O :   -0.180102
  72 C :   -0.080440
  73 C :    0.098206
  74 C :    0.096218
  75 C :   -0.081743
  76 C :   -0.019912
  77 C :    0.037657
  78 C :    0.035608
  79 C :   -0.015960
  80 H :   -0.011485
  81 H :   -0.006795
  82 H :   -0.008711
  83 H :   -0.003200
  84 H :   -0.003713
  85 H :   -0.016622
  86 H :    0.003300
  87 H :    0.029565
  88 H :   -0.019290
  89 H :    0.033607
  90 H :    0.027229
  91 H :    0.045185
  92 H :    0.026521
  93 H :    0.025366
  94 H :    0.027103
  95 H :    0.048483
  96 H :    0.027939
  97 H :    0.030820
  98 H :    0.027488
  99 H :    0.018537
 100 H :   -0.007701
 101 H :    0.022581
 102 H :    0.058288
 103 H :    0.075441
 104 H :    0.085213
 105 H :    0.071781
 106 H :    0.062761
 107 H :    0.065568
 108 H :   -0.011885
 109 H :   -0.014734
 110 H :   -0.007512
 111 H :   -0.007711
 112 H :   -0.003432
 113 H :   -0.003143
 114 H :   -0.017320
Sum of atomic charges:   -0.0000000

LOEWDIN ATOMIC CHARGES
----------------------
   0 C :    0.077206
   1 C :   -0.140831
   2 C :   -0.016734
   3 N :   -0.053313
   4 C :   -0.024268
   5 N :   -0.052047
   6 C :   -0.026911
   7 C :   -0.055802
   8 C :    0.033437
   9 C :   -0.008028
  10 C :   -0.006034
  11 C :    0.020270
  12 C :   -0.005052
  13 C :   -0.012791
  14 C :   -0.011455
  15 C :   -0.009071
  16 C :    0.088965
  17 O :   -0.140210
  18 C :   -0.089415
  19 C :    0.045893
  20 C :   -0.180699
  21 S :    0.476942
  22 C :   -0.121476
  23 C :   -0.107954
  24 C :    0.024140
  25 C :   -0.034297
  26 N :   -0.039667
  27 C :   -0.049396
  28 C :    0.003732
  29 C :    0.054716
  30 N :   -0.001332
  31 C :    0.035261
  32 C :   -0.062409
  33 C :    0.080334
  34 O :   -0.213931
  35 C :   -0.127588
  36 C :   -0.090377
  37 C :    0.083885
  38 O :   -0.167569
  39 N :   -0.002083
  40 C :    0.036887
  41 C :   -0.060371
  42 C :    0.090463
  43 C :   -0.041687
  44 C :    0.019437
  45 C :   -0.163266
  46 S :    0.522178
  47 C :   -0.178295
  48 C :   -0.023690
  49 C :   -0.056810
  50 C :   -0.028800
  51 C :    0.010448
  52 N :    0.272949
  53 O :   -0.187980
  54 O :   -0.175093
  55 C :    0.009999
  56 N :    0.271748
  57 O :   -0.197044
  58 O :   -0.170679
  59 C :   -0.035352
  60 C :    0.053507
  61 C :   -0.098789
  62 C :    0.078541
  63 C :   -0.143391
  64 C :   -0.017779
  65 N :   -0.052829
  66 C :   -0.016087
  67 N :   -0.059412
  68 C :   -0.025848
  69 C :   -0.055557
  70 C :    0.084374
  71 O :   -0.168419
  72 C :    0.032476
  73 C :   -0.008414
  74 C :   -0.006097
  75 C :    0.021386
  76 C :   -0.004498
  77 C :   -0.012164
  78 C :   -0.011158
  79 C :   -0.009505
  80 H :    0.039487
  81 H :    0.039230
  82 H :    0.034941
  83 H :    0.033649
  84 H :    0.033259
  85 H :    0.032268
  86 H :    0.042865
  87 H :    0.043165
  88 H :    0.029507
  89 H :    0.054595
  90 H :    0.019992
  91 H :    0.037990
  92 H :    0.023160
  93 H :    0.031964
  94 H :    0.032217
  95 H :    0.040020
  96 H :    0.025105
  97 H :    0.032735
  98 H :    0.032550
  99 H :    0.022817
 100 H :    0.027351
 101 H :    0.040413
 102 H :    0.052711
 103 H :    0.053126
 104 H :    0.058032
 105 H :    0.056161
 106 H :    0.049061
 107 H :    0.052601
 108 H :    0.047168
 109 H :    0.038423
 110 H :    0.039549
 111 H :    0.035355
 112 H :    0.033818
 113 H :    0.033466
 114 H :    0.031833

  Mayer bond orders larger than 0.100000
B(  0-C ,  1-C ) :   1.6206 B(  0-C ,  6-C ) :   0.9846 B(  0-C , 18-C ) :   1.0764
B(  1-C ,  2-C ) :   1.1497 B(  1-C ,  4-C ) :   1.1394 B(  2-C ,  3-N ) :   2.9626
B(  4-C ,  5-N ) :   2.9674 B(  6-C ,  7-C ) :   1.2156 B(  6-C , 11-C ) :   1.4468
B(  7-C ,  8-C ) :   1.4682 B(  7-C , 16-C ) :   0.9578 B(  8-C ,  9-C ) :   1.1776
B(  8-C , 80-H ) :   1.0173 B(  9-C , 10-C ) :   1.2560 B(  9-C , 15-C ) :   1.2438
B( 10-C , 11-C ) :   1.2071 B( 10-C , 12-C ) :   1.2397 B( 11-C , 81-H ) :   0.9897
B( 12-C , 13-C ) :   1.4890 B( 12-C , 82-H ) :   0.9978 B( 13-C , 14-C ) :   1.2593
B( 13-C , 83-H ) :   0.9890 B( 14-C , 15-C ) :   1.4880 B( 14-C , 84-H ) :   0.9889
B( 15-C , 85-H ) :   0.9984 B( 16-C , 17-O ) :   2.1644 B( 16-C , 18-C ) :   0.9322
B( 18-C , 19-C ) :   1.6106 B( 19-C , 20-C ) :   1.1983 B( 19-C , 86-H ) :   0.9074
B( 20-C , 21-S ) :   1.0987 B( 20-C , 24-C ) :   1.4304 B( 21-S , 22-C ) :   1.1719
B( 22-C , 23-C ) :   1.3932 B( 22-C , 27-C ) :   1.1623 B( 23-C , 24-C ) :   1.3118
B( 23-C , 25-C ) :   1.1083 B( 24-C , 87-H ) :   0.9798 B( 25-C , 26-N ) :   2.9989
B( 27-C , 28-C ) :   1.5712 B( 27-C , 88-H ) :   0.9499 B( 28-C , 29-C ) :   1.2076
B( 28-C , 89-H ) :   0.9345 B( 29-C , 30-N ) :   1.1500 B( 29-C , 36-C ) :   1.3517
B( 30-N , 31-C ) :   0.9430 B( 30-N , 33-C ) :   1.0777 B( 31-C , 32-C ) :   1.1148
B( 31-C , 90-H ) :   0.9508 B( 31-C , 91-H ) :   0.9232 B( 32-C , 92-H ) :   0.9677
B( 32-C , 93-H ) :   0.9676 B( 32-C , 94-H ) :   0.9625 B( 33-C , 34-O ) :   1.9881
B( 33-C , 35-C ) :   1.0036 B( 34-O ,101-H ) :   0.1192 B( 35-C , 36-C ) :   1.2638
B( 35-C , 42-C ) :   1.2941 B( 36-C , 37-C ) :   0.9592 B( 37-C , 38-O ) :   2.1550
B( 37-C , 39-N ) :   1.0241 B( 39-N , 40-C ) :   0.9423 B( 39-N , 42-C ) :   1.1800
B( 40-C , 41-C ) :   1.1180 B( 40-C , 95-H ) :   0.9285 B( 40-C , 96-H ) :   0.9504
B( 41-C , 97-H ) :   0.9645 B( 41-C , 98-H ) :   0.9683 B( 41-C , 99-H ) :   0.9686
B( 42-C , 43-C ) :   1.1746 B( 43-C , 44-C ) :   1.5477 B( 43-C ,100-H ) :   0.9697
B( 44-C , 45-C ) :   1.1886 B( 44-C ,101-H ) :   0.9447 B( 45-C , 46-S ) :   1.1082
B( 45-C , 49-C ) :   1.3884 B( 46-S , 47-C ) :   1.1078 B( 47-C , 48-C ) :   1.3729
B( 47-C , 60-C ) :   1.2630 B( 48-C , 49-C ) :   1.4102 B( 48-C , 59-C ) :   1.0341
B( 49-C , 50-C ) :   1.0343 B( 50-C , 51-C ) :   1.0438 B( 50-C ,102-H ) :   0.8997
B( 50-C ,103-H ) :   0.8856 B( 51-C , 52-N ) :   0.8325 B( 51-C , 55-C ) :   1.0286
B( 51-C ,104-H ) :   0.8996 B( 52-N , 53-O ) :   1.5578 B( 52-N , 54-O ) :   1.5850
B( 53-O , 54-O ) :   0.2725 B( 55-C , 56-N ) :   0.8239 B( 55-C , 59-C ) :   1.0300
B( 55-C ,105-H ) :   0.8953 B( 56-N , 57-O ) :   1.5383 B( 56-N , 58-O ) :   1.6050
B( 57-O , 58-O ) :   0.2749 B( 59-C ,106-H ) :   0.8767 B( 59-C ,107-H ) :   0.8891
B( 60-C , 61-C ) :   1.5207 B( 60-C ,108-H ) :   0.9264 B( 61-C , 62-C ) :   1.0806
B( 61-C , 70-C ) :   0.9634 B( 62-C , 63-C ) :   1.6131 B( 62-C , 68-C ) :   0.9868
B( 63-C , 64-C ) :   1.1485 B( 63-C , 66-C ) :   1.1526 B( 64-C , 65-N ) :   2.9612
B( 66-C , 67-N ) :   2.9431 B( 68-C , 69-C ) :   1.2152 B( 68-C , 75-C ) :   1.4498
B( 69-C , 70-C ) :   0.9598 B( 69-C , 72-C ) :   1.4694 B( 70-C , 71-O ) :   2.1380
B( 72-C , 73-C ) :   1.1735 B( 72-C ,109-H ) :   1.0175 B( 73-C , 74-C ) :   1.2598
B( 73-C , 79-C ) :   1.2455 B( 74-C , 75-C ) :   1.2021 B( 74-C , 76-C ) :   1.2389
B( 75-C ,110-H ) :   0.9904 B( 76-C , 77-C ) :   1.4875 B( 76-C ,111-H ) :   0.9981
B( 77-C , 78-C ) :   1.2624 B( 77-C ,112-H ) :   0.9880 B( 78-C , 79-C ) :   1.4846
B( 78-C ,113-H ) :   0.9895 B( 79-C ,114-H ) :   0.9985

-----------------------------------------------------------------------------
         ABSORPTION SPECTRUM VIA TRANSITION ELECTRIC DIPOLE MOMENTS
-----------------------------------------------------------------------------
State   Energy  Wavelength   fosc         T2         TX        TY        TZ
        (cm-1)    (nm)                  (au**2)     (au)      (au)      (au)
-----------------------------------------------------------------------------
   0   12026.6    831.5   1.698602105  46.49703  -3.86357   5.61867  -0.02141
   1   18228.3    548.6   0.083461967   1.50736   0.89645  -0.78195  -0.30380
   2   21642.2    462.1   0.353450450   5.37654  -1.29155   1.91849   0.16683
   3   23087.4    433.1   0.235051975   3.35169   0.99589  -1.43209  -0.55589
   4   24171.8    413.7   0.258405897   3.51941   1.14817  -1.43521  -0.37589
   5   24886.0    401.8   0.088188516   1.16663   0.30824  -0.98886   0.30623
   6   25525.0    391.8   0.021666952   0.27945   0.36679  -0.38054   0.01026
   7   25906.2    386.0   0.240050721   3.05053  -1.41414   0.98621   0.27953
   8   26222.3    381.4   0.002193073   0.02753  -0.15007  -0.04464  -0.05495
   9   26393.9    378.9   0.059097157   0.73712   0.62948   0.27287  -0.51615
  10   27518.9    363.4   0.003773983   0.04515  -0.20736   0.04573   0.00762
  11   27615.2    362.1   0.048425653   0.57730   0.72845  -0.21412  -0.02864
  12   28071.1    356.2   0.029347595   0.34418  -0.55830   0.17576   0.03991
  13   28246.5    354.0   0.030096031   0.35077  -0.21331  -0.41334   0.36663
  14   29007.2    344.7   0.058379064   0.66256  -0.78347   0.21155   0.06316
  15   29132.6    343.3   0.068676806   0.77608  -0.66703  -0.48305   0.31274
  16   29354.5    340.7   0.028493837   0.31956   0.40018  -0.30705  -0.25521
  17   29537.8    338.5   0.055986946   0.62400  -0.28327  -0.66580   0.31697
  18   29962.8    333.7   0.005302588   0.05826  -0.11465   0.17795   0.11598
  19   30296.8    330.1   0.019013074   0.20660   0.20783  -0.34803  -0.20563
  20   30876.1    323.9   0.000324193   0.00346  -0.04952  -0.01399   0.02844
  21   32180.7    310.7   0.507433609   5.19110   0.64762   1.39335  -1.68233
  22   32295.8    309.6   0.001466745   0.01495  -0.09817  -0.04126   0.06010
  23   32672.8    306.1   0.649140613   6.54076  -2.46839   0.05894   0.66658
  24   33168.4    301.5   0.144569368   1.43492   0.89508   0.68107  -0.41218
  25   33285.3    300.4   0.101932272   1.00817   1.00175  -0.02619  -0.06307
  26   33357.5    299.8   0.037577182   0.37086   0.29813  -0.52976  -0.03642
  27   34159.5    292.7   0.000552446   0.00532   0.02997  -0.06484  -0.01492
  28   34401.0    290.7   0.026038664   0.24919  -0.35592   0.34947   0.01946
  29   34460.4    290.2   0.001688183   0.01613  -0.09232   0.03010   0.08184
  30   34759.8    287.7   0.109500437   1.03709   0.76895   0.05020  -0.66580
  31   34813.6    287.2   0.015031451   0.14214   0.19658  -0.16035   0.27890
  32   35410.8    282.4   0.095231335   0.88536   0.44769   0.49907  -0.66019
  33   35633.3    280.6   0.017511918   0.16179   0.01085  -0.06703  -0.39646
  34   35868.0    278.8   0.248249443   2.27854   1.09405   0.01606  -1.03987
  35   36355.9    275.1   0.070077343   0.63457   0.70346   0.06468  -0.36814
  36   36656.3    272.8   0.401381128   3.60482   1.44651   1.02851  -0.67425
  37   37210.0    268.7   0.024570535   0.21739   0.03271  -0.21450   0.41268
  38   37528.1    266.5   0.013396738   0.11752  -0.32758   0.09734   0.02711
  39   37858.9    264.1   0.005879363   0.05113   0.15050   0.10427  -0.13268
  40   38019.5    263.0   0.044699248   0.38705  -0.38716   0.14812   0.46392
  41   38145.6    262.2   0.117432869   1.01349   0.51028  -0.36940  -0.78527
  42   38383.6    260.5   0.228244290   1.95763   1.20370   0.14099  -0.69918
  43   38589.3    259.1   0.026663837   0.22747  -0.34236   0.10724   0.31427
  44   38942.9    256.8   0.071693660   0.60608   0.64445  -0.38237  -0.21107
  45   39254.3    254.7   0.043981899   0.36886   0.05776   0.60292  -0.04487
  46   39557.8    252.8   0.027928134   0.23243  -0.24388  -0.15063   0.38764
  47   39745.5    251.6   0.024798741   0.20541  -0.30257  -0.32058   0.10530
  48   39913.1    250.5   0.193308063   1.59445   0.51106  -1.15466   0.00513
  49   39998.5    250.0   0.104877164   0.86320   0.35547   0.85591  -0.06523
  50   40147.8    249.1   0.024092612   0.19756  -0.16203   0.39380  -0.12738
  51   40306.3    248.1   0.301516804   2.46271  -0.52123  -1.25104   0.79116

FINAL SINGLE POINT ENERGY     -4231.750358473583

DIPOLE MOMENT
-------------
                                X             Y             Z
Electronic contribution:    -10.05262     -10.17628       7.69300
Nuclear contribution   :     12.09904      11.45128      -9.10244
                        -----------------------------------------
Total Dipole Moment    :      2.04642       1.27500      -1.40944
                        -----------------------------------------
Magnitude (a.u.)       :      2.79285
Magnitude (Debye)      :      7.09885

Rotational constants in cm-1:     0.001647     0.000182     0.000168
Rotational constants in MHz :    49.363984     5.463507     5.026357

                             ****ORCA TERMINATED NORMALLY****
TOTAL RUN TIME: 0 days 0 hours 12 minutes 2 seconds 101 msec
