                         Program Version 4.2.0 -  RELEASE  -
|  1> # ORCA input file
|  2> # SCF done       -179.258786902107          0.000405132954
|  3> ! CAM-B3LYP def2-SVP def2/J RIJCOSX Grid4 TightSCF
|  4> %maxcore 5000
|  5> %tddft
|  6>     Mode sTDDFT
|  7>     Ethresh 5.0
|  8>     maxcore 5000
|  9> end
| 10>
| 11> %pal
| 12>   nprocs 6
| 13>   end
| 14> * xyz 0 1
| 15>    C        4.61088         4.04280        -0.14411
| 16>    C        4.96388         3.17779        -1.14728
| 17>    C        6.21000         2.51951        -1.22001
| 18>    N        7.20098         1.95305        -1.34200
| 19>    C        4.15356         2.80424        -2.23943
| 20>    N        3.55679         2.44763        -3.15406
| 21>    C        5.45239         4.40164         0.99320
| 22>    C        4.72029         5.28141         1.84146
| 23>    C        5.25086         5.79016         2.99168
| 24>    C        6.56996         5.43772         3.35394
| 25>    C        7.31171         4.55999         2.51157
| 26>    C        6.73260         4.04720         1.32750
| 27>    C        8.62809         4.21720         2.88095
| 28>    C        9.18651         4.71689         4.02621
| 29>    C        8.45511         5.58095         4.85448
| 30>    C        7.17404         5.93349         4.52578
| 31>    C        3.39086         5.51180         1.26335
| 32>    O        2.50448         6.20317         1.73469
| 33>    C        3.34997         4.75001         0.00506
| 34>    C        2.31222         4.74583        -0.88624
| 35>    C        1.06667         5.40036        -0.82856
| 36>    S        0.44752         6.39943         0.46215
| 37>    C       -1.03363         6.67549        -0.38934
| 38>    C       -1.03886         6.01882        -1.63142
| 39>    C        0.13834         5.30741        -1.86001
| 40>    C       -2.08753         6.04661        -2.56507
| 41>    N       -2.92964         6.05388        -3.34584
| 42>    C       -2.01990         7.48899         0.22259
| 43>    C       -3.21277         7.83859        -0.31670
| 44>    C       -4.17760         8.65256         0.33550
| 45>    N       -5.35334         8.99557        -0.28366
| 46>    C       -6.11579         9.76971         0.52112
| 47>    C       -7.39883        10.28802         0.14894
| 48>    C       -8.01064        10.08613        -1.01995
| 49>    C       -5.40464         9.94048         1.73499
| 50>    C       -4.19377         9.23310         1.59363
| 51>    C       -5.84905        10.68061         2.86796
| 52>    C       -5.15255        10.79584         4.02705
| 53>    C       -5.57854        11.51575         5.16987
| 54>    C       -4.88676        11.61411         6.35933
| 55>    C       -5.62671        12.40165         7.27777
| 56>    C       -6.85637        12.81126         6.56137
| 57>    C       -6.81496        12.27835         5.31518
| 58>    C       -7.88993        13.61855         7.04843
| 59>    N       -8.75923        14.28058         7.40372
| 60>    C       -5.29229        12.72456         8.57372
| 61>    C       -6.04691        13.50716         9.49856
| 62>    C       -5.33394        13.63505        10.67218
| 63>    C       -4.10500        12.86943        10.53330
| 64>    C       -4.07265        12.32247         9.28800
| 65>    C       -3.05072        11.49792         8.80579
| 66>    N       -2.20178        10.81680         8.43708
| 67>    C       -5.77580        14.35139        11.81725
| 68>    C       -4.99029        14.95827        12.75080
| 69>    C       -5.43581        15.56804        13.99109
| 70>    C       -6.66025        15.39889        14.58305
| 71>    C       -7.03504        15.99488        15.80536
| 72>    N       -7.39936        16.45466        16.79217
| 73>    C       -7.69641        14.58322        14.08110
| 74>    N       -8.57421        13.92113        13.75020
| 75>    C       -4.31727        16.31904        14.54727
| 76>    C       -3.18547        16.14139        13.70141
| 77>    C       -3.55115        15.28915        12.55767
| 78>    O       -2.84363        14.99566        11.61840
| 79>    C       -1.98107        16.72329        13.97396
| 80>    C       -1.84928        17.52324        15.13079
| 81>    C       -2.97794        17.71073        15.98016
| 82>    C       -4.21354        17.09794        15.66963
| 83>    C       -2.83593        18.51455        17.12962
| 84>    C       -1.63769        19.10407        17.42794
| 85>    C       -0.52712        18.91836        16.59106
| 86>    C       -0.63054        18.14448        15.46712
| 87>    H        4.67194         6.45451         3.61590
| 88>    H        7.32307         3.38687         0.71279
| 89>    H        9.18754         3.55128         2.24050
| 90>    H       10.19584         4.44865         4.29997
| 91>    H        8.91137         5.96604         5.75406
| 92>    H        6.60553         6.59830         5.15945
| 93>    H        2.44086         4.16616        -1.79239
| 94>    H        0.31996         4.73532        -2.75387
| 95>    H       -1.76130         7.84942         1.20872
| 96>    H       -3.47460         7.49210        -1.30663
| 97>    H       -5.60626         8.70474        -1.21432
| 98>    H       -7.88829        10.89126         0.89986
| 99>    H       -7.58323         9.49609        -1.81315
|100>    H       -8.97665        10.51275        -1.22154
|101>    H       -3.41848         9.15320         2.32707
|102>    H       -6.80895        11.16890         2.77910
|103>    H       -4.19432        10.30448         4.12223
|104>    H       -3.93800        11.16113         6.56907
|105>    H       -7.56594        12.40067         4.55707
|106>    H       -6.99718        13.95959         9.29003
|107>    H       -3.37360        12.72445        11.30373
|108>    H       -6.85204        14.43628        11.91362
|109>    H       -1.13842        16.57261        13.31546
|110>    H       -5.05088        17.26548        16.32828
|111>    H       -3.69344        18.65382        17.77145
|112>    H       -1.53887        19.71721        18.31113
|113>    H        0.41055        19.39172        16.84124
|114>    H        0.22083        17.99787        14.81860
|115> *
|116>
|117>                          ****END OF INPUT****

CARTESIAN COORDINATES (ANGSTROEM)
---------------------------------
  C      4.610880    4.042800   -0.144110
  C      4.963880    3.177790   -1.147280
  C      6.210000    2.519510   -1.220010
  N      7.200980    1.953050   -1.342000
  C      4.153560    2.804240   -2.239430
  N      3.556790    2.447630   -3.154060
  C      5.452390    4.401640    0.993200
  C      4.720290    5.281410    1.841460
  C      5.250860    5.790160    2.991680
  C      6.569960    5.437720    3.353940
  C      7.311710    4.559990    2.511570
  C      6.732600    4.047200    1.327500
  C      8.628090    4.217200    2.880950
  C      9.186510    4.716890    4.026210
  C      8.455110    5.580950    4.854480
  C      7.174040    5.933490    4.525780
  C      3.390860    5.511800    1.263350
  O      2.504480    6.203170    1.734690
  C      3.349970    4.750010    0.005060
  C      2.312220    4.745830   -0.886240
  C      1.066670    5.400360   -0.828560
  S      0.447520    6.399430    0.462150
  C     -1.033630    6.675490   -0.389340
  C     -1.038860    6.018820   -1.631420
  C      0.138340    5.307410   -1.860010
  C     -2.087530    6.046610   -2.565070
  N     -2.929640    6.053880   -3.345840
  C     -2.019900    7.488990    0.222590
  C     -3.212770    7.838590   -0.316700
  C     -4.177600    8.652560    0.335500
  N     -5.353340    8.995570   -0.283660
  C     -6.115790    9.769710    0.521120
  C     -7.398830   10.288020    0.148940
  C     -8.010640   10.086130   -1.019950
  C     -5.404640    9.940480    1.734990
  C     -4.193770    9.233100    1.593630
  C     -5.849050   10.680610    2.867960
  C     -5.152550   10.795840    4.027050
  C     -5.578540   11.515750    5.169870
  C     -4.886760   11.614110    6.359330
  C     -5.626710   12.401650    7.277770
  C     -6.856370   12.811260    6.561370
  C     -6.814960   12.278350    5.315180
  C     -7.889930   13.618550    7.048430
  N     -8.759230   14.280580    7.403720
  C     -5.292290   12.724560    8.573720
  C     -6.046910   13.507160    9.498560
  C     -5.333940   13.635050   10.672180
  C     -4.105000   12.869430   10.533300
  C     -4.072650   12.322470    9.288000
  C     -3.050720   11.497920    8.805790
  N     -2.201780   10.816800    8.437080
  C     -5.775800   14.351390   11.817250
  C     -4.990290   14.958270   12.750800
  C     -5.435810   15.568040   13.991090
  C     -6.660250   15.398890   14.583050
  C     -7.035040   15.994880   15.805360
  N     -7.399360   16.454660   16.792170
  C     -7.696410   14.583220   14.081100
  N     -8.574210   13.921130   13.750200
  C     -4.317270   16.319040   14.547270
  C     -3.185470   16.141390   13.701410
  C     -3.551150   15.289150   12.557670
  O     -2.843630   14.995660   11.618400
  C     -1.981070   16.723290   13.973960
  C     -1.849280   17.523240   15.130790
  C     -2.977940   17.710730   15.980160
  C     -4.213540   17.097940   15.669630
  C     -2.835930   18.514550   17.129620
  C     -1.637690   19.104070   17.427940
  C     -0.527120   18.918360   16.591060
  C     -0.630540   18.144480   15.467120
  H      4.671940    6.454510    3.615900
  H      7.323070    3.386870    0.712790
  H      9.187540    3.551280    2.240500
  H     10.195840    4.448650    4.299970
  H      8.911370    5.966040    5.754060
  H      6.605530    6.598300    5.159450
  H      2.440860    4.166160   -1.792390
  H      0.319960    4.735320   -2.753870
  H     -1.761300    7.849420    1.208720
  H     -3.474600    7.492100   -1.306630
  H     -5.606260    8.704740   -1.214320
  H     -7.888290   10.891260    0.899860
  H     -7.583230    9.496090   -1.813150
  H     -8.976650   10.512750   -1.221540
  H     -3.418480    9.153200    2.327070
  H     -6.808950   11.168900    2.779100
  H     -4.194320   10.304480    4.122230
  H     -3.938000   11.161130    6.569070
  H     -7.565940   12.400670    4.557070
  H     -6.997180   13.959590    9.290030
  H     -3.373600   12.724450   11.303730
  H     -6.852040   14.436280   11.913620
  H     -1.138420   16.572610   13.315460
  H     -5.050880   17.265480   16.328280
  H     -3.693440   18.653820   17.771450
  H     -1.538870   19.717210   18.311130
  H      0.410550   19.391720   16.841240
  H      0.220830   17.997870   14.818600

 Total Charge           Charge          ....    0
 Multiplicity           Mult            ....    1
 Number of Electrons    NEL             ....  482
 Basis Dimension        Dim             .... 1152

ORBITAL ENERGIES
----------------

  NO   OCC          E(Eh)            E(eV)
   0   2.0000     -88.979309     -2421.2501
   1   2.0000     -19.226666      -523.1842
   2   2.0000     -19.221753      -523.0505
   3   2.0000     -14.485737      -394.1770
   4   2.0000     -14.420484      -392.4013
   5   2.0000     -14.417407      -392.3176
   6   2.0000     -14.417221      -392.3125
   7   2.0000     -14.417076      -392.3086
   8   2.0000     -14.416330      -392.2883
   9   2.0000     -14.413195      -392.2030
  10   2.0000     -14.401943      -391.8968
  11   2.0000     -10.374536      -282.3055
  12   2.0000     -10.372501      -282.2501
  13   2.0000     -10.345661      -281.5197
  14   2.0000     -10.344818      -281.4968
  15   2.0000     -10.344238      -281.4810
  16   2.0000     -10.342899      -281.4446
  17   2.0000     -10.335266      -281.2369
  18   2.0000     -10.331914      -281.1457
  19   2.0000     -10.330413      -281.1048
  20   2.0000     -10.326777      -281.0059
  21   2.0000     -10.326282      -280.9924
  22   2.0000     -10.325547      -280.9724
  23   2.0000     -10.323256      -280.9101
  24   2.0000     -10.322739      -280.8960
  25   2.0000     -10.322158      -280.8802
  26   2.0000     -10.321771      -280.8697
  27   2.0000     -10.319640      -280.8117
  28   2.0000     -10.319415      -280.8056
  29   2.0000     -10.319241      -280.8008
  30   2.0000     -10.319183      -280.7992
  31   2.0000     -10.319061      -280.7959
  32   2.0000     -10.314745      -280.6785
  33   2.0000     -10.314664      -280.6763
  34   2.0000     -10.314330      -280.6672
  35   2.0000     -10.309883      -280.5462
  36   2.0000     -10.307265      -280.4750
  37   2.0000     -10.305955      -280.4393
  38   2.0000     -10.305856      -280.4366
  39   2.0000     -10.305588      -280.4293
  40   2.0000     -10.305431      -280.4250
  41   2.0000     -10.305238      -280.4198
  42   2.0000     -10.304908      -280.4108
  43   2.0000     -10.303687      -280.3776
  44   2.0000     -10.303204      -280.3644
  45   2.0000     -10.302633      -280.3489
  46   2.0000     -10.302489      -280.3450
  47   2.0000     -10.302244      -280.3383
  48   2.0000     -10.300675      -280.2956
  49   2.0000     -10.300478      -280.2903
  50   2.0000     -10.300359      -280.2870
  51   2.0000     -10.300226      -280.2834
  52   2.0000     -10.300126      -280.2807
  53   2.0000     -10.299636      -280.2673
  54   2.0000     -10.299608      -280.2666
  55   2.0000     -10.299243      -280.2567
  56   2.0000     -10.297582      -280.2115
  57   2.0000     -10.292191      -280.0648
  58   2.0000     -10.291909      -280.0571
  59   2.0000     -10.291606      -280.0488
  60   2.0000     -10.291173      -280.0371
  61   2.0000     -10.291037      -280.0334
  62   2.0000     -10.289084      -279.9802
  63   2.0000     -10.288966      -279.9770
  64   2.0000     -10.288625      -279.9677
  65   2.0000     -10.288441      -279.9627
  66   2.0000     -10.288355      -279.9604
  67   2.0000     -10.288141      -279.9546
  68   2.0000     -10.287886      -279.9476
  69   2.0000     -10.287613      -279.9402
  70   2.0000     -10.281978      -279.7868
  71   2.0000     -10.278682      -279.6972
  72   2.0000      -8.072675      -219.6686
  73   2.0000      -6.042076      -164.4133
  74   2.0000      -6.037446      -164.2873
  75   2.0000      -6.034983      -164.2202
  76   2.0000      -1.142039       -31.0765
  77   2.0000      -1.137105       -30.9422
  78   2.0000      -1.105085       -30.0709
  79   2.0000      -1.022248       -27.8168
  80   2.0000      -1.020493       -27.7690
  81   2.0000      -1.019022       -27.7290
  82   2.0000      -1.016684       -27.6654
  83   2.0000      -1.002536       -27.2804
  84   2.0000      -1.001136       -27.2423
  85   2.0000      -0.999695       -27.2031
  86   2.0000      -0.996739       -27.1226
  87   2.0000      -0.995527       -27.0897
  88   2.0000      -0.995341       -27.0846
  89   2.0000      -0.986737       -26.8505
  90   2.0000      -0.980125       -26.6705
  91   2.0000      -0.974681       -26.5224
  92   2.0000      -0.973022       -26.4773
  93   2.0000      -0.936581       -25.4857
  94   2.0000      -0.931154       -25.3380
  95   2.0000      -0.927508       -25.2388
  96   2.0000      -0.925783       -25.1918
  97   2.0000      -0.912722       -24.8364
  98   2.0000      -0.908305       -24.7162
  99   2.0000      -0.898074       -24.4378
 100   2.0000      -0.888914       -24.1886
 101   2.0000      -0.885566       -24.0975
 102   2.0000      -0.883858       -24.0510
 103   2.0000      -0.882533       -24.0150
 104   2.0000      -0.879427       -23.9304
 105   2.0000      -0.870197       -23.6793
 106   2.0000      -0.856294       -23.3010
 107   2.0000      -0.847539       -23.0627
 108   2.0000      -0.843782       -22.9605
 109   2.0000      -0.834889       -22.7185
 110   2.0000      -0.831412       -22.6239
 111   2.0000      -0.830811       -22.6075
 112   2.0000      -0.815306       -22.1856
 113   2.0000      -0.800648       -21.7867
 114   2.0000      -0.787233       -21.4217
 115   2.0000      -0.771114       -20.9831
 116   2.0000      -0.766677       -20.8623
 117   2.0000      -0.764369       -20.7995
 118   2.0000      -0.756283       -20.5795
 119   2.0000      -0.743598       -20.2343
 120   2.0000      -0.727290       -19.7906
 121   2.0000      -0.725374       -19.7384
 122   2.0000      -0.716410       -19.4945
 123   2.0000      -0.709631       -19.3100
 124   2.0000      -0.705890       -19.2082
 125   2.0000      -0.704716       -19.1763
 126   2.0000      -0.700533       -19.0625
 127   2.0000      -0.699552       -19.0358
 128   2.0000      -0.695465       -18.9246
 129   2.0000      -0.683933       -18.6108
 130   2.0000      -0.682048       -18.5595
 131   2.0000      -0.680295       -18.5118
 132   2.0000      -0.676465       -18.4075
 133   2.0000      -0.665886       -18.1197
 134   2.0000      -0.660888       -17.9837
 135   2.0000      -0.655013       -17.8238
 136   2.0000      -0.645247       -17.5581
 137   2.0000      -0.641368       -17.4525
 138   2.0000      -0.637976       -17.3602
 139   2.0000      -0.629887       -17.1401
 140   2.0000      -0.627210       -17.0672
 141   2.0000      -0.615496       -16.7485
 142   2.0000      -0.610101       -16.6017
 143   2.0000      -0.609196       -16.5771
 144   2.0000      -0.608843       -16.5675
 145   2.0000      -0.604922       -16.4608
 146   2.0000      -0.588420       -16.0117
 147   2.0000      -0.584657       -15.9093
 148   2.0000      -0.577674       -15.7193
 149   2.0000      -0.568359       -15.4658
 150   2.0000      -0.567556       -15.4440
 151   2.0000      -0.559301       -15.2194
 152   2.0000      -0.555108       -15.1052
 153   2.0000      -0.552128       -15.0242
 154   2.0000      -0.549569       -14.9545
 155   2.0000      -0.548493       -14.9252
 156   2.0000      -0.547460       -14.8972
 157   2.0000      -0.544960       -14.8291
 158   2.0000      -0.544500       -14.8166
 159   2.0000      -0.542850       -14.7717
 160   2.0000      -0.542022       -14.7492
 161   2.0000      -0.538793       -14.6613
 162   2.0000      -0.537502       -14.6262
 163   2.0000      -0.535476       -14.5711
 164   2.0000      -0.531082       -14.4515
 165   2.0000      -0.528694       -14.3865
 166   2.0000      -0.525244       -14.2926
 167   2.0000      -0.522843       -14.2273
 168   2.0000      -0.521980       -14.2038
 169   2.0000      -0.518602       -14.1119
 170   2.0000      -0.517877       -14.0922
 171   2.0000      -0.517503       -14.0820
 172   2.0000      -0.513718       -13.9790
 173   2.0000      -0.511228       -13.9112
 174   2.0000      -0.509549       -13.8655
 175   2.0000      -0.505983       -13.7685
 176   2.0000      -0.501833       -13.6556
 177   2.0000      -0.500868       -13.6293
 178   2.0000      -0.498495       -13.5647
 179   2.0000      -0.498086       -13.5536
 180   2.0000      -0.497009       -13.5243
 181   2.0000      -0.490888       -13.3577
 182   2.0000      -0.490554       -13.3486
 183   2.0000      -0.487177       -13.2568
 184   2.0000      -0.485083       -13.1998
 185   2.0000      -0.480600       -13.0778
 186   2.0000      -0.477633       -12.9970
 187   2.0000      -0.474848       -12.9213
 188   2.0000      -0.469430       -12.7738
 189   2.0000      -0.467040       -12.7088
 190   2.0000      -0.466753       -12.7010
 191   2.0000      -0.464171       -12.6307
 192   2.0000      -0.452624       -12.3165
 193   2.0000      -0.450031       -12.2460
 194   2.0000      -0.449632       -12.2351
 195   2.0000      -0.449292       -12.2258
 196   2.0000      -0.447594       -12.1797
 197   2.0000      -0.447469       -12.1762
 198   2.0000      -0.446715       -12.1557
 199   2.0000      -0.445659       -12.1270
 200   2.0000      -0.444508       -12.0957
 201   2.0000      -0.442986       -12.0543
 202   2.0000      -0.440606       -11.9895
 203   2.0000      -0.438713       -11.9380
 204   2.0000      -0.438117       -11.9218
 205   2.0000      -0.436070       -11.8661
 206   2.0000      -0.435493       -11.8504
 207   2.0000      -0.434982       -11.8365
 208   2.0000      -0.433533       -11.7970
 209   2.0000      -0.431554       -11.7432
 210   2.0000      -0.430808       -11.7229
 211   2.0000      -0.429250       -11.6805
 212   2.0000      -0.427381       -11.6296
 213   2.0000      -0.421328       -11.4649
 214   2.0000      -0.420286       -11.4366
 215   2.0000      -0.416406       -11.3310
 216   2.0000      -0.414814       -11.2877
 217   2.0000      -0.410963       -11.1829
 218   2.0000      -0.410227       -11.1628
 219   2.0000      -0.408491       -11.1156
 220   2.0000      -0.408006       -11.1024
 221   2.0000      -0.399792       -10.8789
 222   2.0000      -0.395759       -10.7692
 223   2.0000      -0.391133       -10.6433
 224   2.0000      -0.380025       -10.3410
 225   2.0000      -0.379451       -10.3254
 226   2.0000      -0.362570        -9.8660
 227   2.0000      -0.356242        -9.6938
 228   2.0000      -0.348362        -9.4794
 229   2.0000      -0.342721        -9.3259
 230   2.0000      -0.340534        -9.2664
 231   2.0000      -0.337029        -9.1710
 232   2.0000      -0.323021        -8.7898
 233   2.0000      -0.321263        -8.7420
 234   2.0000      -0.317153        -8.6302
 235   2.0000      -0.312337        -8.4991
 236   2.0000      -0.301366        -8.2006
 237   2.0000      -0.296365        -8.0645
 238   2.0000      -0.292377        -7.9560
 239   2.0000      -0.276785        -7.5317
 240   2.0000      -0.250811        -6.8249
 241   0.0000      -0.128515        -3.4971
 242   0.0000      -0.101871        -2.7721
 243   0.0000      -0.081338        -2.2133
 244   0.0000      -0.064656        -1.7594
 245   0.0000      -0.058654        -1.5961

MULLIKEN ATOMIC CHARGES
-----------------------
   0 C :    0.334162
   1 C :   -0.354582
   2 C :   -0.182295
   3 N :    0.149855
   4 C :   -0.190250
   5 N :    0.146845
   6 C :    0.047159
   7 C :   -0.003854
   8 C :   -0.082105
   9 C :    0.099772
  10 C :    0.098962
  11 C :   -0.086936
  12 C :   -0.023066
  13 C :    0.038931
  14 C :    0.038090
  15 C :   -0.018965
  16 C :    0.173582
  17 O :   -0.183078
  18 C :   -0.096594
  19 C :   -0.011427
  20 C :   -0.054554
  21 S :    0.212078
  22 C :   -0.039694
  23 C :   -0.060767
  24 C :    0.013738
  25 C :   -0.159874
  26 N :    0.107988
  27 C :    0.025155
  28 C :    0.022688
  29 C :    0.106458
  30 N :   -0.018240
  31 C :    0.010267
  32 C :    0.011819
  33 C :   -0.024896
  34 C :    0.085056
  35 C :   -0.095922
  36 C :   -0.001374
  37 C :   -0.002295
  38 C :    0.133706
  39 C :   -0.123264
  40 C :    0.137230
  41 C :   -0.093097
  42 C :   -0.011536
  43 C :   -0.175786
  44 N :    0.135737
  45 C :    0.100417
  46 C :   -0.074480
  47 C :    0.082507
  48 C :    0.069615
  49 C :   -0.127464
  50 C :   -0.175082
  51 N :    0.120506
  52 C :   -0.027785
  53 C :   -0.093605
  54 C :    0.312776
  55 C :   -0.337575
  56 C :   -0.182057
  57 N :    0.153285
  58 C :   -0.203910
  59 N :    0.165409
  60 C :    0.051866
  61 C :   -0.008195
  62 C :    0.143540
  63 O :   -0.143712
  64 C :   -0.078661
  65 C :    0.098408
  66 C :    0.097757
  67 C :   -0.084844
  68 C :   -0.019667
  69 C :    0.036831
  70 C :    0.038492
  71 C :   -0.017992
  72 H :   -0.010895
  73 H :   -0.007129
  74 H :   -0.007245
  75 H :   -0.003777
  76 H :   -0.004050
  77 H :   -0.014937
  78 H :    0.010009
  79 H :    0.016928
  80 H :   -0.013418
  81 H :   -0.011272
  82 H :    0.132386
  83 H :   -0.008117
  84 H :    0.010972
  85 H :    0.034442
  86 H :   -0.013102
  87 H :   -0.026552
  88 H :   -0.014644
  89 H :   -0.001882
  90 H :   -0.000021
  91 H :    0.010537
  92 H :    0.001894
  93 H :    0.038989
  94 H :   -0.011683
  95 H :   -0.007124
  96 H :   -0.007713
  97 H :   -0.003129
  98 H :   -0.004619
  99 H :   -0.016053
Sum of atomic charges:   -0.0000000

LOEWDIN ATOMIC CHARGES
----------------------
   0 C :    0.077492
   1 C :   -0.141017
   2 C :   -0.017181
   3 N :   -0.053145
   4 C :   -0.021227
   5 N :   -0.053040
   6 C :   -0.025420
   7 C :   -0.056394
   8 C :    0.034003
   9 C :   -0.008517
  10 C :   -0.005688
  11 C :    0.020601
  12 C :   -0.005107
  13 C :   -0.011981
  14 C :   -0.011083
  15 C :   -0.008900
  16 C :    0.086700
  17 O :   -0.168581
  18 C :   -0.104812
  19 C :    0.058980
  20 C :   -0.190223
  21 S :    0.531586
  22 C :   -0.127042
  23 C :   -0.123396
  24 C :    0.018085
  25 C :   -0.025551
  26 N :   -0.067720
  27 C :   -0.052340
  28 C :    0.002699
  29 C :   -0.009579
  30 N :    0.110167
  31 C :    0.012800
  32 C :   -0.032387
  33 C :   -0.036417
  34 C :   -0.062884
  35 C :   -0.037596
  36 C :    0.013421
  37 C :   -0.026698
  38 C :    0.002671
  39 C :   -0.043835
  40 C :    0.051032
  41 C :   -0.072392
  42 C :    0.053935
  43 C :   -0.032376
  44 N :   -0.057760
  45 C :    0.019270
  46 C :    0.022967
  47 C :   -0.035249
  48 C :    0.074193
  49 C :   -0.096724
  50 C :   -0.026165
  51 N :   -0.073498
  52 C :    0.076727
  53 C :   -0.084930
  54 C :    0.073046
  55 C :   -0.132175
  56 C :   -0.016830
  57 N :   -0.049708
  58 C :   -0.024992
  59 N :   -0.043798
  60 C :   -0.025812
  61 C :   -0.056753
  62 C :    0.083961
  63 O :   -0.132863
  64 C :    0.033833
  65 C :   -0.008046
  66 C :   -0.005320
  67 C :    0.020059
  68 C :   -0.005051
  69 C :   -0.012149
  70 C :   -0.011249
  71 C :   -0.009199
  72 H :    0.039723
  73 H :    0.039444
  74 H :    0.035245
  75 H :    0.033694
  76 H :    0.033329
  77 H :    0.032576
  78 H :    0.051639
  79 H :    0.047028
  80 H :    0.031341
  81 H :    0.037241
  82 H :    0.094927
  83 H :    0.036375
  84 H :    0.018407
  85 H :    0.032866
  86 H :    0.026979
  87 H :    0.026476
  88 H :    0.034848
  89 H :    0.034855
  90 H :    0.034800
  91 H :    0.038572
  92 H :    0.036563
  93 H :    0.052272
  94 H :    0.039550
  95 H :    0.039343
  96 H :    0.035224
  97 H :    0.033801
  98 H :    0.033146
  99 H :    0.032308

  Mayer bond orders larger than 0.100000
B(  0-C ,  1-C ) :   1.6247 B(  0-C ,  6-C ) :   0.9870 B(  0-C , 18-C ) :   1.0707
B(  1-C ,  2-C ) :   1.1494 B(  1-C ,  4-C ) :   1.1442 B(  2-C ,  3-N ) :   2.9613
B(  4-C ,  5-N ) :   2.9569 B(  6-C ,  7-C ) :   1.2130 B(  6-C , 11-C ) :   1.4516
B(  7-C ,  8-C ) :   1.4675 B(  7-C , 16-C ) :   0.9629 B(  8-C ,  9-C ) :   1.1771
B(  8-C , 72-H ) :   1.0173 B(  9-C , 10-C ) :   1.2544 B(  9-C , 15-C ) :   1.2448
B( 10-C , 11-C ) :   1.2036 B( 10-C , 12-C ) :   1.2415 B( 11-C , 73-H ) :   0.9896
B( 12-C , 13-C ) :   1.4880 B( 12-C , 74-H ) :   0.9974 B( 13-C , 14-C ) :   1.2605
B( 13-C , 75-H ) :   0.9884 B( 14-C , 15-C ) :   1.4867 B( 14-C , 76-H ) :   0.9893
B( 15-C , 77-H ) :   0.9982 B( 16-C , 17-O ) :   2.1246 B( 16-C , 18-C ) :   0.9721
B( 18-C , 19-C ) :   1.5242 B( 19-C , 20-C ) :   1.2366 B( 19-C , 78-H ) :   0.9376
B( 20-C , 21-S ) :   1.0845 B( 20-C , 24-C ) :   1.3709 B( 21-S , 22-C ) :   1.1421
B( 22-C , 23-C ) :   1.3724 B( 22-C , 27-C ) :   1.1700 B( 23-C , 24-C ) :   1.3394
B( 23-C , 25-C ) :   1.0996 B( 24-C , 79-H ) :   1.0123 B( 25-C , 26-N ) :   2.9648
B( 27-C , 28-C ) :   1.6664 B( 27-C , 80-H ) :   0.9489 B( 28-C , 29-C ) :   1.1082
B( 28-C , 81-H ) :   0.9437 B( 29-C , 30-N ) :   1.1806 B( 29-C , 35-C ) :   1.4398
B( 30-N , 31-C ) :   1.2791 B( 30-N , 82-H ) :   0.9215 B( 31-C , 32-C ) :   1.1332
B( 31-C , 34-C ) :   1.2842 B( 32-C , 33-C ) :   1.9041 B( 32-C , 83-H ) :   0.9490
B( 33-C , 84-H ) :   0.9687 B( 33-C , 85-H ) :   0.9402 B( 34-C , 35-C ) :   1.2937
B( 34-C , 36-C ) :   1.1149 B( 35-C , 86-H ) :   0.9999 B( 36-C , 37-C ) :   1.6279
B( 36-C , 87-H ) :   0.9693 B( 37-C , 38-C ) :   1.1330 B( 37-C , 88-H ) :   0.9801
B( 38-C , 39-C ) :   1.4960 B( 38-C , 42-C ) :   1.0266 B( 39-C , 40-C ) :   1.1401
B( 39-C , 89-H ) :   1.0099 B( 40-C , 41-C ) :   1.0860 B( 40-C , 45-C ) :   1.3957
B( 41-C , 42-C ) :   1.7052 B( 41-C , 43-C ) :   1.0878 B( 42-C , 90-H ) :   1.0146
B( 43-C , 44-N ) :   2.9661 B( 45-C , 46-C ) :   1.1088 B( 45-C , 49-C ) :   1.1237
B( 46-C , 47-C ) :   1.5007 B( 46-C , 91-H ) :   1.0065 B( 47-C , 48-C ) :   1.0699
B( 47-C , 52-C ) :   1.1075 B( 48-C , 49-C ) :   1.6597 B( 48-C , 92-H ) :   1.0064
B( 49-C , 50-C ) :   1.0947 B( 50-C , 51-N ) :   2.9628 B( 52-C , 53-C ) :   1.6117
B( 52-C , 93-H ) :   0.9501 B( 53-C , 54-C ) :   1.0459 B( 53-C , 62-C ) :   0.9382
B( 54-C , 55-C ) :   1.6482 B( 54-C , 60-C ) :   0.9929 B( 55-C , 56-C ) :   1.1454
B( 55-C , 58-C ) :   1.1407 B( 56-C , 57-N ) :   2.9665 B( 58-C , 59-N ) :   2.9883
B( 60-C , 61-C ) :   1.2116 B( 60-C , 67-C ) :   1.4489 B( 61-C , 62-C ) :   0.9444
B( 61-C , 64-C ) :   1.4699 B( 62-C , 63-O ) :   2.2179 B( 64-C , 65-C ) :   1.1812
B( 64-C , 94-H ) :   1.0160 B( 65-C , 66-C ) :   1.2544 B( 65-C , 71-C ) :   1.2434
B( 66-C , 67-C ) :   1.2067 B( 66-C , 68-C ) :   1.2403 B( 67-C , 95-H ) :   0.9896
B( 68-C , 69-C ) :   1.4894 B( 68-C , 96-H ) :   0.9969 B( 69-C , 70-C ) :   1.2599
B( 69-C , 97-H ) :   0.9884 B( 70-C , 71-C ) :   1.4904 B( 70-C , 98-H ) :   0.9882
B( 71-C , 99-H ) :   0.9972

-----------------------------------------------------------------------------
         ABSORPTION SPECTRUM VIA TRANSITION ELECTRIC DIPOLE MOMENTS
-----------------------------------------------------------------------------
State   Energy  Wavelength   fosc         T2         TX        TY        TZ
        (cm-1)    (nm)                  (au**2)     (au)      (au)      (au)
-----------------------------------------------------------------------------
   0   12625.5    792.0   0.882356165  23.00753  -0.54307   2.18829   4.23367
   1   17987.8    555.9   0.093308126   1.70772  -1.11055   0.23325  -0.64807
   2   18680.1    535.3   0.875885729  15.43631   3.48743  -1.80720  -0.09061
   3   19097.2    523.6   0.423195438   7.29535   2.42330  -1.19288  -0.00014
   4   22741.4    439.7   0.265047175   3.83691  -0.04777  -0.54337  -1.88132
   5   23764.3    420.8   0.434883023   6.02452  -0.58972  -1.01379  -2.15614
   6   25511.9    392.0   0.082874712   1.06944   0.88032  -0.53979  -0.05567
   7   25722.1    388.8   0.029846007   0.38199  -0.13138   0.35244   0.49043
   8   26329.0    379.8   0.162664597   2.03392   0.00420   0.61304   1.28767
   9   26479.8    377.6   0.083852954   1.04251  -0.68471  -0.12185  -0.74755
  10   26946.6    371.1   0.022388289   0.27352   0.47806   0.03479  -0.20922
  11   27423.6    364.6   0.251586243   3.02022   1.40385  -0.02866   1.02401
  12   28185.8    354.8   0.001897929   0.02217  -0.13271  -0.06063  -0.02967
  13   28447.4    351.5   0.309950615   3.58695   1.19263  -1.14387  -0.92529
  14   28728.6    348.1   0.033473168   0.38358   0.33232   0.11789   0.50917
  15   28953.2    345.4   0.082883890   0.94243  -0.10287   0.24498   0.93372
  16   29330.9    340.9   0.009678803   0.10864  -0.29413  -0.07274  -0.12974
  17   29573.1    338.1   0.032815286   0.36530  -0.44037  -0.05290   0.41059
  18   30483.0    328.1   0.129087660   1.39413  -0.61611  -0.61273  -0.79943
  19   30952.8    323.1   0.075247175   0.80032  -0.37963  -0.67594  -0.44644
  20   31179.2    320.7   0.565516373   5.97111   1.68733   1.04801   1.42327
  21   31513.7    317.3   0.038179950   0.39885   0.44382  -0.07192   0.44351
  22   32371.8    308.9   0.025434849   0.25867   0.31805  -0.05464   0.39309
  23   32694.0    305.9   0.035720813   0.35969   0.37373   0.38548   0.26725
  24   32922.1    303.7   0.569009325   5.68994  -1.14968  -0.83401  -1.91640
  25   33258.4    300.7   0.464858979   4.60145  -0.80111  -0.62010  -1.89081
  26   33402.1    299.4   0.025066840   0.24706  -0.13930   0.16920  -0.44612
  27   33812.7    295.7   0.000367407   0.00358   0.02385  -0.00460  -0.05466
  28   34178.1    292.6   0.043191303   0.41603   0.57976  -0.20834  -0.19107
  29   34336.3    291.2   0.009894259   0.09486   0.17088   0.14754   0.20952
  30   34578.3    289.2   0.329408093   3.13622  -0.66768  -0.59306  -1.52928
  31   34786.5    287.5   0.079237426   0.74989   0.37353   0.55796   0.54685
  32   34854.6    286.9   0.050557639   0.47753   0.58474   0.27674  -0.24296
  33   35018.3    285.6   0.056046981   0.52691   0.24082   0.28709   0.62168
  34   35584.6    281.0   0.171552154   1.58712  -0.41385  -0.53491  -1.06288
  35   35730.7    279.9   0.230607708   2.12475  -1.21836  -0.75099   0.27636
  36   36459.1    274.3   0.339390955   3.06457  -1.68991  -0.40226  -0.21672
  37   36829.2    271.5   0.062129295   0.55537   0.69510   0.14598   0.22559
  38   37425.1    267.2   0.005793523   0.05096  -0.14390   0.14114   0.10166
  39   37426.1    267.2   0.005444639   0.04789  -0.10921   0.12450   0.14306
  40   37899.8    263.9   0.205982543   1.78924   0.47568  -0.76731  -0.98702
  41   38006.7    263.1   0.002868148   0.02484   0.01536  -0.05170  -0.14811
  42   38419.8    260.3   0.141198568   1.20991   0.42211  -0.72745  -0.70891
  43   38686.2    258.5   0.060699732   0.51654  -0.61743   0.26730   0.25274
  44   38873.1    257.2   0.004906753   0.04155   0.01560  -0.03884   0.19951
  45   38963.3    256.7   0.040075512   0.33861  -0.09168   0.19527  -0.54044
  46   39219.5    255.0   0.111898553   0.93929   0.55493  -0.51030  -0.60904
  47   39515.7    253.1   0.012780229   0.10647  -0.30186   0.11559  -0.04461
  48   39881.4    250.7   0.072393462   0.59759  -0.20055   0.60657   0.43525
  49   40184.9    248.8   0.081683832   0.66919  -0.03538  -0.32283  -0.75081

FINAL SINGLE POINT ENERGY     -3323.947900290028

DIPOLE MOMENT
-------------
                                X             Y             Z
Electronic contribution:     -0.60973     -12.07322      -1.82119
Nuclear contribution   :      2.51415      13.83639       2.00344
                        -----------------------------------------
Total Dipole Moment    :      1.90441       1.76317       0.18226
                        -----------------------------------------
Magnitude (a.u.)       :      2.60169
Magnitude (Debye)      :      6.61297

Rotational constants in cm-1:     0.001018     0.000248     0.000203
Rotational constants in MHz :    30.523492     7.426754     6.078008

                             ****ORCA TERMINATED NORMALLY****
TOTAL RUN TIME: 0 days 0 hours 9 minutes 39 seconds 318 msec
