                         Program Version 4.2.0 -  RELEASE  -
|  1> # ORCA input file
|  2> # SCF done       -202.132271891529          0.000637416565
|  3> ! CAM-B3LYP def2-SVP def2/J RIJCOSX Grid4 TightSCF
|  4> %maxcore 5000
|  5> %tddft
|  6>     Mode sTDDFT
|  7>     Ethresh 5.0
|  8>     maxcore 5000
|  9> end
| 10>
| 11> %pal
| 12>   nprocs 6
| 13>   end
| 14> * xyz 0 1
| 15>    C        1.79252         5.25938        -2.60620
| 16>    C        0.41826         4.95218        -3.18419
| 17>    O       -0.07806         5.41441        -4.16513
| 18>    O       -0.20253         4.04924        -2.40166
| 19>    C        0.65393         3.59014        -1.36315
| 20>    C        1.67834         4.72606        -1.17986
| 21>    C        2.98072         4.31436        -0.50465
| 22>    C        3.60057         3.06644        -1.11937
| 23>    C        2.63983         1.88712        -1.21476
| 24>    C        1.25234         2.22845        -1.78650
| 25>    O        0.40539         1.18144        -1.32855
| 26>    C        0.92750         0.53069        -0.27897
| 27>    O        0.37108        -0.36303         0.28113
| 28>    C        2.29512         1.12812         0.08006
| 29>    C        2.12133         1.94637         1.31873
| 30>    C        2.95209         1.88267         2.35936
| 31>    C        2.83225         2.64256         3.59195
| 32>    C        3.92907         2.72588         4.44562
| 33>    C        3.86323         3.44941         5.62468
| 34>    N        5.01157         3.40740         6.49279
| 35>    O        6.08194         3.14669         5.98513
| 36>    O        4.83500         3.59845         7.67703
| 37>    C        2.69761         4.13412         6.00659
| 38>    C        1.59423         4.01606         5.15248
| 39>    C        1.65499         3.29267         3.98331
| 40>    C        2.64256         4.97460         7.18101
| 41>    C        1.56327         5.06792         7.98407
| 42>    C        1.54302         5.92481         9.12218
| 43>    N        0.54161         5.92585        10.06647
| 44>    C       -0.66930         5.14417        10.04272
| 45>    C       -1.71344         5.74432         9.10315
| 46>    C        0.79989         6.84015        11.10928
| 47>    O        0.06010         7.00282        12.05886
| 48>    C        2.06054         7.43727        10.74325
| 49>    C        2.48740         6.86205         9.51917
| 50>    C        3.74652         7.47738         9.17148
| 51>    O        4.48320         7.33384         8.21547
| 52>    N        4.01050         8.37635        10.22593
| 53>    C        5.20470         9.18686        10.18546
| 54>    C        4.92222        10.57635         9.62138
| 55>    C        3.00692         8.36325        11.16715
| 56>    C        2.87875         9.06635        12.39994
| 57>    C        3.63327        10.05241        12.92840
| 58>    C        3.40569        10.59839        14.24348
| 59>    C        2.69242         9.97218        15.23466
| 60>    S        2.70470        10.82385        16.71904
| 61>    C        3.68575        12.04876        16.04898
| 62>    C        3.97971        11.82280        14.73311
| 63>    C        4.77408        12.80582        13.98498
| 64>    O        5.57540        13.55822        14.47780
| 65>    O        4.46477        12.81388        12.66423
| 66>    C        5.20277        13.62274        11.84353
| 67>    C        4.77076        13.95019        10.63420
| 68>    C        5.58974        14.76471         9.68624
| 69>    C        7.02384        14.23203         9.55447
| 70>    O        7.36240        13.08733         9.54537
| 71>    O        7.87842        15.25725         9.45628
| 72>    C        7.18947        16.50381         9.41529
| 73>    C        5.84804        16.21907        10.10932
| 74>    C        4.73978        17.21487         9.79671
| 75>    C        4.56903        17.46454         8.30398
| 76>    C        5.86425        17.83793         7.59142
| 77>    C        7.07700        16.95547         7.94099
| 78>    O        8.20872        17.74552         7.60410
| 79>    C        7.90512        19.05140         7.51084
| 80>    O        8.71326        19.89145         7.26044
| 81>    C        6.41327        19.26197         7.78786
| 82>    C        6.27571        19.86678         9.15372
| 83>    C        5.53224        20.92819         9.40739
| 84>    H        2.00589         6.32403        -2.66708
| 85>    H        2.54189         4.72363        -3.19098
| 86>    H        0.02443         3.43651        -0.48209
| 87>    H        1.20249         5.50012        -0.56698
| 88>    H        2.79289         4.14352         0.55545
| 89>    H        3.68926         5.14082        -0.58192
| 90>    H        4.46671         2.76726        -0.52737
| 91>    H        3.95773         3.29488        -2.12569
| 92>    H        3.08738         1.14799        -1.88985
| 93>    H        1.24136         2.18839        -2.88108
| 94>    H        3.01272         0.32944         0.27643
| 95>    H        1.24871         2.58333         1.34571
| 96>    H        3.82381         1.24414         2.29815
| 97>    H        4.85205         2.21738         4.20751
| 98>    H        0.68320         4.53261         5.41343
| 99>    H        0.77274         3.21763         3.36711
|100>    H        3.52452         5.55589         7.41885
|101>    H        0.70101         4.43910         7.81071
|102>    H       -1.05363         5.15184        11.06667
|103>    H       -0.43702         4.11315         9.76136
|104>    H       -1.96951         6.74926         9.42942
|105>    H       -2.61328         5.13552         9.11299
|106>    H       -1.33697         5.79846         8.08386
|107>    H        5.90171         8.66465         9.52359
|108>    H        5.64464         9.23879        11.18349
|109>    H        4.57145        10.48759         8.59591
|110>    H        5.82863        11.17591         9.62935
|111>    H        4.15705        11.08185        10.20616
|112>    H        2.01588         8.72306        12.95674
|113>    H        4.45295        10.48834        12.38236
|114>    H        2.17892         9.03353        15.17768
|115>    H        3.99029        12.89231        16.63616
|116>    H        6.14772        13.95220        12.25924
|117>    H        3.81066        13.59405        10.29521
|118>    H        5.13720        14.72822         8.69129
|119>    H        7.80937        17.22316         9.95732
|120>    H        6.02149        16.22143        11.19102
|121>    H        4.95970        18.15670        10.29886
|122>    H        3.80414        16.83285        10.20866
|123>    H        3.84502        18.26702         8.15527
|124>    H        4.16394        16.56877         7.82820
|125>    H        5.69304        17.72459         6.51403
|126>    H        7.12066        16.05713         7.31512
|127>    H        5.99427        19.95446         7.05539
|128>    H        6.86671        19.41283         9.93763
|129>    H        4.95617        21.41593         8.63893
|130>    H        5.47342        21.35611        10.39303
|131> *
|132>
|133>                          ****END OF INPUT****

CARTESIAN COORDINATES (ANGSTROEM)
---------------------------------
  C      1.792520    5.259380   -2.606200
  C      0.418260    4.952180   -3.184190
  O     -0.078060    5.414410   -4.165130
  O     -0.202530    4.049240   -2.401660
  C      0.653930    3.590140   -1.363150
  C      1.678340    4.726060   -1.179860
  C      2.980720    4.314360   -0.504650
  C      3.600570    3.066440   -1.119370
  C      2.639830    1.887120   -1.214760
  C      1.252340    2.228450   -1.786500
  O      0.405390    1.181440   -1.328550
  C      0.927500    0.530690   -0.278970
  O      0.371080   -0.363030    0.281130
  C      2.295120    1.128120    0.080060
  C      2.121330    1.946370    1.318730
  C      2.952090    1.882670    2.359360
  C      2.832250    2.642560    3.591950
  C      3.929070    2.725880    4.445620
  C      3.863230    3.449410    5.624680
  N      5.011570    3.407400    6.492790
  O      6.081940    3.146690    5.985130
  O      4.835000    3.598450    7.677030
  C      2.697610    4.134120    6.006590
  C      1.594230    4.016060    5.152480
  C      1.654990    3.292670    3.983310
  C      2.642560    4.974600    7.181010
  C      1.563270    5.067920    7.984070
  C      1.543020    5.924810    9.122180
  N      0.541610    5.925850   10.066470
  C     -0.669300    5.144170   10.042720
  C     -1.713440    5.744320    9.103150
  C      0.799890    6.840150   11.109280
  O      0.060100    7.002820   12.058860
  C      2.060540    7.437270   10.743250
  C      2.487400    6.862050    9.519170
  C      3.746520    7.477380    9.171480
  O      4.483200    7.333840    8.215470
  N      4.010500    8.376350   10.225930
  C      5.204700    9.186860   10.185460
  C      4.922220   10.576350    9.621380
  C      3.006920    8.363250   11.167150
  C      2.878750    9.066350   12.399940
  C      3.633270   10.052410   12.928400
  C      3.405690   10.598390   14.243480
  C      2.692420    9.972180   15.234660
  S      2.704700   10.823850   16.719040
  C      3.685750   12.048760   16.048980
  C      3.979710   11.822800   14.733110
  C      4.774080   12.805820   13.984980
  O      5.575400   13.558220   14.477800
  O      4.464770   12.813880   12.664230
  C      5.202770   13.622740   11.843530
  C      4.770760   13.950190   10.634200
  C      5.589740   14.764710    9.686240
  C      7.023840   14.232030    9.554470
  O      7.362400   13.087330    9.545370
  O      7.878420   15.257250    9.456280
  C      7.189470   16.503810    9.415290
  C      5.848040   16.219070   10.109320
  C      4.739780   17.214870    9.796710
  C      4.569030   17.464540    8.303980
  C      5.864250   17.837930    7.591420
  C      7.077000   16.955470    7.940990
  O      8.208720   17.745520    7.604100
  C      7.905120   19.051400    7.510840
  O      8.713260   19.891450    7.260440
  C      6.413270   19.261970    7.787860
  C      6.275710   19.866780    9.153720
  C      5.532240   20.928190    9.407390
  H      2.005890    6.324030   -2.667080
  H      2.541890    4.723630   -3.190980
  H      0.024430    3.436510   -0.482090
  H      1.202490    5.500120   -0.566980
  H      2.792890    4.143520    0.555450
  H      3.689260    5.140820   -0.581920
  H      4.466710    2.767260   -0.527370
  H      3.957730    3.294880   -2.125690
  H      3.087380    1.147990   -1.889850
  H      1.241360    2.188390   -2.881080
  H      3.012720    0.329440    0.276430
  H      1.248710    2.583330    1.345710
  H      3.823810    1.244140    2.298150
  H      4.852050    2.217380    4.207510
  H      0.683200    4.532610    5.413430
  H      0.772740    3.217630    3.367110
  H      3.524520    5.555890    7.418850
  H      0.701010    4.439100    7.810710
  H     -1.053630    5.151840   11.066670
  H     -0.437020    4.113150    9.761360
  H     -1.969510    6.749260    9.429420
  H     -2.613280    5.135520    9.112990
  H     -1.336970    5.798460    8.083860
  H      5.901710    8.664650    9.523590
  H      5.644640    9.238790   11.183490
  H      4.571450   10.487590    8.595910
  H      5.828630   11.175910    9.629350
  H      4.157050   11.081850   10.206160
  H      2.015880    8.723060   12.956740
  H      4.452950   10.488340   12.382360
  H      2.178920    9.033530   15.177680
  H      3.990290   12.892310   16.636160
  H      6.147720   13.952200   12.259240
  H      3.810660   13.594050   10.295210
  H      5.137200   14.728220    8.691290
  H      7.809370   17.223160    9.957320
  H      6.021490   16.221430   11.191020
  H      4.959700   18.156700   10.298860
  H      3.804140   16.832850   10.208660
  H      3.845020   18.267020    8.155270
  H      4.163940   16.568770    7.828200
  H      5.693040   17.724590    6.514030
  H      7.120660   16.057130    7.315120
  H      5.994270   19.954460    7.055390
  H      6.866710   19.412830    9.937630
  H      4.956170   21.415930    8.638930
  H      5.473420   21.356110   10.393030

 Total Charge           Charge          ....    0
 Multiplicity           Mult            ....    1
 Number of Electrons    NEL             ....  502
 Basis Dimension        Dim             .... 1205

ORBITAL ENERGIES
----------------

  NO   OCC          E(Eh)            E(eV)
   0   2.0000     -88.973846     -2421.1014
   1   2.0000     -19.288086      -524.8555
   2   2.0000     -19.269433      -524.3479
   3   2.0000     -19.268565      -524.3243
   4   2.0000     -19.265084      -524.2296
   5   2.0000     -19.263119      -524.1761
   6   2.0000     -19.244746      -523.6762
   7   2.0000     -19.242251      -523.6083
   8   2.0000     -19.218204      -522.9539
   9   2.0000     -19.209028      -522.7042
  10   2.0000     -19.205444      -522.6067
  11   2.0000     -19.201639      -522.5032
  12   2.0000     -19.200693      -522.4774
  13   2.0000     -19.184087      -522.0255
  14   2.0000     -19.183040      -521.9970
  15   2.0000     -14.648846      -398.6154
  16   2.0000     -14.447835      -393.1456
  17   2.0000     -14.445824      -393.0908
  18   2.0000     -10.418385      -283.4987
  19   2.0000     -10.404652      -283.1250
  20   2.0000     -10.402993      -283.0798
  21   2.0000     -10.399327      -282.9801
  22   2.0000     -10.398970      -282.9703
  23   2.0000     -10.366915      -282.0981
  24   2.0000     -10.366364      -282.0831
  25   2.0000     -10.349835      -281.6333
  26   2.0000     -10.349411      -281.6218
  27   2.0000     -10.349018      -281.6111
  28   2.0000     -10.348766      -281.6043
  29   2.0000     -10.339770      -281.3594
  30   2.0000     -10.335703      -281.2488
  31   2.0000     -10.334729      -281.2223
  32   2.0000     -10.331290      -281.1287
  33   2.0000     -10.314535      -280.6728
  34   2.0000     -10.312408      -280.6149
  35   2.0000     -10.306990      -280.4674
  36   2.0000     -10.306490      -280.4538
  37   2.0000     -10.306032      -280.4414
  38   2.0000     -10.305144      -280.4172
  39   2.0000     -10.304539      -280.4008
  40   2.0000     -10.303819      -280.3812
  41   2.0000     -10.302930      -280.3570
  42   2.0000     -10.302004      -280.3318
  43   2.0000     -10.301985      -280.3313
  44   2.0000     -10.301467      -280.3172
  45   2.0000     -10.301358      -280.3142
  46   2.0000     -10.300982      -280.3040
  47   2.0000     -10.299827      -280.2725
  48   2.0000     -10.299475      -280.2629
  49   2.0000     -10.296501      -280.1820
  50   2.0000     -10.296439      -280.1804
  51   2.0000     -10.295603      -280.1576
  52   2.0000     -10.295506      -280.1550
  53   2.0000     -10.292963      -280.0858
  54   2.0000     -10.292733      -280.0795
  55   2.0000     -10.292427      -280.0712
  56   2.0000     -10.290764      -280.0259
  57   2.0000     -10.290644      -280.0226
  58   2.0000     -10.289831      -280.0005
  59   2.0000     -10.289004      -279.9780
  60   2.0000     -10.286139      -279.9001
  61   2.0000     -10.284373      -279.8520
  62   2.0000     -10.284150      -279.8459
  63   2.0000     -10.284099      -279.8445
  64   2.0000     -10.278924      -279.7037
  65   2.0000     -10.264716      -279.3171
  66   2.0000     -10.252627      -278.9882
  67   2.0000     -10.252292      -278.9791
  68   2.0000     -10.246120      -278.8111
  69   2.0000      -8.070192      -219.6011
  70   2.0000      -6.039237      -164.3360
  71   2.0000      -6.034788      -164.2149
  72   2.0000      -6.032982      -164.1658
  73   2.0000      -1.324541       -36.0426
  74   2.0000      -1.216601       -33.1054
  75   2.0000      -1.208804       -32.8932
  76   2.0000      -1.207028       -32.8449
  77   2.0000      -1.198910       -32.6240
  78   2.0000      -1.197353       -32.5816
  79   2.0000      -1.143539       -31.1173
  80   2.0000      -1.125940       -30.6384
  81   2.0000      -1.119225       -30.4557
  82   2.0000      -1.118341       -30.4316
  83   2.0000      -1.117666       -30.4132
  84   2.0000      -1.115440       -30.3527
  85   2.0000      -1.109613       -30.1941
  86   2.0000      -1.108501       -30.1638
  87   2.0000      -1.056285       -28.7430
  88   2.0000      -1.047187       -28.4954
  89   2.0000      -0.999160       -27.1885
  90   2.0000      -0.996637       -27.1199
  91   2.0000      -0.960779       -26.1441
  92   2.0000      -0.960760       -26.1436
  93   2.0000      -0.935242       -25.4492
  94   2.0000      -0.931644       -25.3513
  95   2.0000      -0.922890       -25.1131
  96   2.0000      -0.915217       -24.9043
  97   2.0000      -0.908057       -24.7095
  98   2.0000      -0.905664       -24.6444
  99   2.0000      -0.900232       -24.4966
 100   2.0000      -0.885617       -24.0989
 101   2.0000      -0.875801       -23.8318
 102   2.0000      -0.870936       -23.6994
 103   2.0000      -0.863800       -23.5052
 104   2.0000      -0.857578       -23.3359
 105   2.0000      -0.855283       -23.2734
 106   2.0000      -0.854280       -23.2461
 107   2.0000      -0.839058       -22.8319
 108   2.0000      -0.835674       -22.7399
 109   2.0000      -0.828848       -22.5541
 110   2.0000      -0.813194       -22.1281
 111   2.0000      -0.810524       -22.0555
 112   2.0000      -0.803537       -21.8653
 113   2.0000      -0.802434       -21.8353
 114   2.0000      -0.779436       -21.2095
 115   2.0000      -0.763992       -20.7893
 116   2.0000      -0.754662       -20.5354
 117   2.0000      -0.753093       -20.4927
 118   2.0000      -0.747634       -20.3441
 119   2.0000      -0.744454       -20.2576
 120   2.0000      -0.735091       -20.0028
 121   2.0000      -0.719379       -19.5753
 122   2.0000      -0.718441       -19.5498
 123   2.0000      -0.706182       -19.2162
 124   2.0000      -0.701967       -19.1015
 125   2.0000      -0.697140       -18.9702
 126   2.0000      -0.689016       -18.7491
 127   2.0000      -0.684622       -18.6295
 128   2.0000      -0.675663       -18.3857
 129   2.0000      -0.674490       -18.3538
 130   2.0000      -0.667161       -18.1544
 131   2.0000      -0.664371       -18.0785
 132   2.0000      -0.662728       -18.0338
 133   2.0000      -0.659526       -17.9466
 134   2.0000      -0.657834       -17.9006
 135   2.0000      -0.652414       -17.7531
 136   2.0000      -0.643935       -17.5224
 137   2.0000      -0.643283       -17.5046
 138   2.0000      -0.637212       -17.3394
 139   2.0000      -0.636962       -17.3326
 140   2.0000      -0.634847       -17.2751
 141   2.0000      -0.628981       -17.1154
 142   2.0000      -0.621447       -16.9104
 143   2.0000      -0.617768       -16.8103
 144   2.0000      -0.614163       -16.7122
 145   2.0000      -0.613866       -16.7041
 146   2.0000      -0.608837       -16.5673
 147   2.0000      -0.598994       -16.2995
 148   2.0000      -0.593524       -16.1506
 149   2.0000      -0.587328       -15.9820
 150   2.0000      -0.581064       -15.8115
 151   2.0000      -0.579579       -15.7712
 152   2.0000      -0.578506       -15.7419
 153   2.0000      -0.577841       -15.7238
 154   2.0000      -0.574358       -15.6291
 155   2.0000      -0.572214       -15.5707
 156   2.0000      -0.569804       -15.5051
 157   2.0000      -0.565493       -15.3879
 158   2.0000      -0.560826       -15.2608
 159   2.0000      -0.559647       -15.2288
 160   2.0000      -0.557986       -15.1836
 161   2.0000      -0.554700       -15.0941
 162   2.0000      -0.551586       -15.0094
 163   2.0000      -0.549298       -14.9472
 164   2.0000      -0.545460       -14.8427
 165   2.0000      -0.544290       -14.8109
 166   2.0000      -0.542798       -14.7703
 167   2.0000      -0.540424       -14.7057
 168   2.0000      -0.539552       -14.6820
 169   2.0000      -0.538675       -14.6581
 170   2.0000      -0.535801       -14.5799
 171   2.0000      -0.532638       -14.4938
 172   2.0000      -0.529670       -14.4130
 173   2.0000      -0.529297       -14.4029
 174   2.0000      -0.525958       -14.3120
 175   2.0000      -0.524426       -14.2704
 176   2.0000      -0.523540       -14.2463
 177   2.0000      -0.515419       -14.0253
 178   2.0000      -0.513354       -13.9691
 179   2.0000      -0.508863       -13.8469
 180   2.0000      -0.508660       -13.8413
 181   2.0000      -0.508434       -13.8352
 182   2.0000      -0.504351       -13.7241
 183   2.0000      -0.498199       -13.5567
 184   2.0000      -0.497399       -13.5349
 185   2.0000      -0.496714       -13.5163
 186   2.0000      -0.492612       -13.4047
 187   2.0000      -0.490654       -13.3514
 188   2.0000      -0.489564       -13.3217
 189   2.0000      -0.487044       -13.2531
 190   2.0000      -0.485535       -13.2121
 191   2.0000      -0.484706       -13.1895
 192   2.0000      -0.482401       -13.1268
 193   2.0000      -0.474402       -12.9091
 194   2.0000      -0.470885       -12.8134
 195   2.0000      -0.470231       -12.7956
 196   2.0000      -0.467830       -12.7303
 197   2.0000      -0.466835       -12.7032
 198   2.0000      -0.464475       -12.6390
 199   2.0000      -0.463672       -12.6171
 200   2.0000      -0.460271       -12.5246
 201   2.0000      -0.458382       -12.4732
 202   2.0000      -0.456596       -12.4246
 203   2.0000      -0.455528       -12.3955
 204   2.0000      -0.454134       -12.3576
 205   2.0000      -0.453937       -12.3523
 206   2.0000      -0.449818       -12.2402
 207   2.0000      -0.447052       -12.1649
 208   2.0000      -0.446130       -12.1398
 209   2.0000      -0.444859       -12.1052
 210   2.0000      -0.442408       -12.0385
 211   2.0000      -0.442140       -12.0312
 212   2.0000      -0.441018       -12.0007
 213   2.0000      -0.439858       -11.9691
 214   2.0000      -0.435852       -11.8601
 215   2.0000      -0.434485       -11.8229
 216   2.0000      -0.432858       -11.7787
 217   2.0000      -0.431308       -11.7365
 218   2.0000      -0.428045       -11.6477
 219   2.0000      -0.425894       -11.5892
 220   2.0000      -0.421913       -11.4808
 221   2.0000      -0.411705       -11.2031
 222   2.0000      -0.410144       -11.1606
 223   2.0000      -0.408342       -11.1116
 224   2.0000      -0.408030       -11.1031
 225   2.0000      -0.407758       -11.0956
 226   2.0000      -0.401674       -10.9301
 227   2.0000      -0.394928       -10.7465
 228   2.0000      -0.392801       -10.6887
 229   2.0000      -0.387434       -10.5426
 230   2.0000      -0.380802       -10.3621
 231   2.0000      -0.376291       -10.2394
 232   2.0000      -0.374184       -10.1821
 233   2.0000      -0.372898       -10.1471
 234   2.0000      -0.368205       -10.0194
 235   2.0000      -0.363861        -9.9012
 236   2.0000      -0.362269        -9.8578
 237   2.0000      -0.356926        -9.7124
 238   2.0000      -0.353980        -9.6323
 239   2.0000      -0.350334        -9.5331
 240   2.0000      -0.345201        -9.3934
 241   2.0000      -0.341385        -9.2896
 242   2.0000      -0.339999        -9.2519
 243   2.0000      -0.332985        -9.0610
 244   2.0000      -0.331325        -9.0158
 245   2.0000      -0.324853        -8.8397
 246   2.0000      -0.319400        -8.6913
 247   2.0000      -0.307890        -8.3781
 248   2.0000      -0.305445        -8.3116
 249   2.0000      -0.302001        -8.2179
 250   2.0000      -0.233699        -6.3593
 251   0.0000      -0.079056        -2.1512
 252   0.0000      -0.048618        -1.3230
 253   0.0000      -0.027728        -0.7545
 254   0.0000      -0.016889        -0.4596
 255   0.0000       0.000703         0.0191

MULLIKEN ATOMIC CHARGES
-----------------------
   0 C :    0.023610
   1 C :    0.137457
   2 O :   -0.154305
   3 O :   -0.264162
   4 C :    0.155606
   5 C :   -0.142443
   6 C :    0.098805
   7 C :    0.101297
   8 C :   -0.087885
   9 C :    0.163248
  10 O :   -0.254528
  11 C :    0.170173
  12 O :   -0.150008
  13 C :   -0.052499
  14 C :    0.003327
  15 C :    0.023510
  16 C :    0.104850
  17 C :   -0.073300
  18 C :    0.151566
  19 N :    0.245595
  20 O :   -0.233980
  21 O :   -0.218688
  22 C :    0.048623
  23 C :   -0.023762
  24 C :    0.010472
  25 C :    0.026890
  26 C :   -0.037920
  27 C :    0.125965
  28 N :   -0.264626
  29 C :    0.102920
  30 C :    0.004386
  31 C :    0.145266
  32 O :   -0.203536
  33 C :   -0.046893
  34 C :   -0.056892
  35 C :    0.163893
  36 O :   -0.211741
  37 N :   -0.261201
  38 C :    0.104302
  39 C :   -0.013277
  40 C :    0.115282
  41 C :   -0.041910
  42 C :    0.016156
  43 C :    0.114296
  44 C :   -0.141370
  45 S :    0.155636
  46 C :   -0.092566
  47 C :    0.007872
  48 C :    0.179300
  49 O :   -0.191931
  50 O :   -0.255051
  51 C :    0.148609
  52 C :   -0.000515
  53 C :   -0.082987
  54 C :    0.194309
  55 O :   -0.144495
  56 O :   -0.251251
  57 C :    0.160341
  58 C :   -0.079261
  59 C :    0.113243
  60 C :    0.099930
  61 C :   -0.092128
  62 C :    0.163355
  63 O :   -0.256833
  64 C :    0.170868
  65 O :   -0.149998
  66 C :   -0.052117
  67 C :   -0.012697
  68 C :   -0.001252
  69 H :    0.046057
  70 H :    0.042570
  71 H :    0.018854
  72 H :    0.019828
  73 H :    0.017745
  74 H :    0.012583
  75 H :    0.009011
  76 H :    0.007632
  77 H :    0.022653
  78 H :    0.021812
  79 H :    0.027784
  80 H :   -0.000287
  81 H :   -0.009132
  82 H :    0.000904
  83 H :   -0.012718
  84 H :   -0.012383
  85 H :    0.042597
  86 H :   -0.025098
  87 H :    0.041776
  88 H :    0.022895
  89 H :    0.028971
  90 H :    0.022574
  91 H :    0.007953
  92 H :    0.042132
  93 H :    0.022569
  94 H :    0.012227
  95 H :    0.045410
  96 H :    0.007875
  97 H :    0.000307
  98 H :   -0.002564
  99 H :    0.044595
 100 H :    0.040563
 101 H :    0.036865
 102 H :    0.012215
 103 H :    0.031633
 104 H :    0.024405
 105 H :    0.018795
 106 H :    0.014227
 107 H :    0.005962
 108 H :    0.009519
 109 H :    0.005051
 110 H :    0.019953
 111 H :    0.018957
 112 H :    0.024441
 113 H :    0.006914
 114 H :    0.021396
 115 H :    0.029020
Sum of atomic charges:   -0.0000000

LOEWDIN ATOMIC CHARGES
----------------------
   0 C :   -0.058282
   1 C :    0.074543
   2 O :   -0.144872
   3 O :   -0.076237
   4 C :    0.064027
   5 C :   -0.040081
   6 C :   -0.029409
   7 C :   -0.026129
   8 C :   -0.034492
   9 C :    0.067985
  10 O :   -0.067541
  11 C :    0.077737
  12 O :   -0.141263
  13 C :   -0.053619
  14 C :   -0.008681
  15 C :   -0.019566
  16 C :   -0.024247
  17 C :    0.007312
  18 C :   -0.020999
  19 N :    0.285470
  20 O :   -0.201639
  21 O :   -0.179582
  22 C :   -0.006081
  23 C :   -0.004911
  24 C :    0.006073
  25 C :    0.037084
  26 C :   -0.047722
  27 C :    0.078951
  28 N :   -0.005330
  29 C :    0.036108
  30 C :   -0.061776
  31 C :    0.077728
  32 O :   -0.206628
  33 C :   -0.119783
  34 C :   -0.125077
  35 C :    0.083487
  36 O :   -0.199315
  37 N :    0.000248
  38 C :    0.037041
  39 C :   -0.070080
  40 C :    0.072930
  41 C :   -0.029685
  42 C :   -0.000687
  43 C :   -0.052450
  44 C :   -0.173330
  45 S :    0.483553
  46 C :   -0.145195
  47 C :   -0.106502
  48 C :    0.101680
  49 O :   -0.162350
  50 O :   -0.045161
  51 C :    0.072292
  52 C :   -0.049733
  53 C :   -0.061446
  54 C :    0.079755
  55 O :   -0.140949
  56 O :   -0.063250
  57 C :    0.066819
  58 C :   -0.028977
  59 C :   -0.027676
  60 C :   -0.026131
  61 C :   -0.035032
  62 C :    0.066827
  63 O :   -0.070392
  64 C :    0.079611
  65 O :   -0.140133
  66 C :   -0.055737
  67 C :   -0.017702
  68 C :   -0.037374
  69 H :    0.046533
  70 H :    0.040843
  71 H :    0.025613
  72 H :    0.034926
  73 H :    0.028111
  74 H :    0.033192
  75 H :    0.033407
  76 H :    0.025346
  77 H :    0.038362
  78 H :    0.031569
  79 H :    0.046447
  80 H :    0.018780
  81 H :    0.031956
  82 H :    0.040118
  83 H :    0.034193
  84 H :    0.032302
  85 H :    0.038707
  86 H :    0.026860
  87 H :    0.037378
  88 H :    0.022850
  89 H :    0.032148
  90 H :    0.029882
  91 H :    0.018775
  92 H :    0.037715
  93 H :    0.022329
  94 H :    0.027190
  95 H :    0.031754
  96 H :    0.015152
  97 H :    0.042585
  98 H :    0.027825
  99 H :    0.029390
 100 H :    0.033731
 101 H :    0.023770
 102 H :    0.031344
 103 H :    0.043141
 104 H :    0.029307
 105 H :    0.034753
 106 H :    0.028382
 107 H :    0.032277
 108 H :    0.033935
 109 H :    0.023484
 110 H :    0.037611
 111 H :    0.029872
 112 H :    0.045554
 113 H :    0.022946
 114 H :    0.024778
 115 H :    0.028845

  Mayer bond orders larger than 0.100000
B(  0-C ,  1-C ) :   0.9612 B(  0-C ,  5-C ) :   1.0229 B(  0-C , 69-H ) :   0.9301
B(  0-C , 70-H ) :   0.9281 B(  1-C ,  2-O ) :   2.2409 B(  1-C ,  3-O ) :   1.1170
B(  3-O ,  4-C ) :   0.9597 B(  4-C ,  5-C ) :   1.0201 B(  4-C ,  9-C ) :   0.9683
B(  4-C , 71-H ) :   0.9139 B(  5-C ,  6-C ) :   1.0654 B(  5-C , 72-H ) :   0.9161
B(  6-C ,  7-C ) :   1.0625 B(  6-C , 73-H ) :   0.9303 B(  6-C , 74-H ) :   0.9254
B(  7-C ,  8-C ) :   1.0629 B(  7-C , 75-H ) :   0.9238 B(  7-C , 76-H ) :   0.9367
B(  8-C ,  9-C ) :   1.0114 B(  8-C , 13-C ) :   0.9920 B(  8-C , 77-H ) :   0.9088
B(  9-C , 10-O ) :   0.9630 B(  9-C , 78-H ) :   0.9191 B( 10-O , 11-C ) :   1.1309
B( 11-C , 12-O ) :   2.2509 B( 11-C , 13-C ) :   0.8895 B( 13-C , 14-C ) :   1.0031
B( 13-C , 79-H ) :   0.9144 B( 14-C , 15-C ) :   1.8362 B( 14-C , 80-H ) :   0.9417
B( 15-C , 16-C ) :   1.0472 B( 15-C , 81-H ) :   0.9810 B( 16-C , 17-C ) :   1.2980
B( 16-C , 24-C ) :   1.3346 B( 17-C , 18-C ) :   1.3711 B( 17-C , 82-H ) :   1.0008
B( 18-C , 19-N ) :   0.8799 B( 18-C , 22-C ) :   1.3559 B( 19-N , 20-O ) :   1.5504
B( 19-N , 21-O ) :   1.5381 B( 20-O , 21-O ) :   0.2690 B( 22-C , 23-C ) :   1.3483
B( 22-C , 25-C ) :   1.0364 B( 23-C , 24-C ) :   1.4038 B( 23-C , 83-H ) :   0.9892
B( 24-C , 84-H ) :   0.9902 B( 25-C , 26-C ) :   1.7004 B( 25-C , 85-H ) :   0.9144
B( 26-C , 27-C ) :   1.1363 B( 26-C , 86-H ) :   0.9638 B( 27-C , 28-N ) :   1.1619
B( 27-C , 34-C ) :   1.3650 B( 28-N , 29-C ) :   0.9487 B( 28-N , 31-C ) :   1.0339
B( 29-C , 30-C ) :   1.1198 B( 29-C , 87-H ) :   0.9281 B( 29-C , 88-H ) :   0.9506
B( 30-C , 89-H ) :   0.9640 B( 30-C , 90-H ) :   0.9680 B( 30-C , 91-H ) :   0.9688
B( 31-C , 32-O ) :   2.1166 B( 31-C , 33-C ) :   0.9860 B( 33-C , 34-C ) :   1.2258
B( 33-C , 40-C ) :   1.3556 B( 34-C , 35-C ) :   0.9851 B( 35-C , 36-O ) :   2.0270
B( 35-C , 37-N ) :   1.0587 B( 36-O , 85-H ) :   0.1054 B( 37-N , 38-C ) :   0.9356
B( 37-N , 40-C ) :   1.1733 B( 38-C , 39-C ) :   1.1246 B( 38-C , 92-H ) :   0.9243
B( 38-C , 93-H ) :   0.9487 B( 39-C , 94-H ) :   0.9539 B( 39-C , 95-H ) :   0.9561
B( 39-C , 96-H ) :   0.9636 B( 40-C , 41-C ) :   1.1552 B( 41-C , 42-C ) :   1.6516
B( 41-C , 97-H ) :   0.9487 B( 42-C , 43-C ) :   1.0797 B( 42-C , 98-H ) :   0.9649
B( 43-C , 44-C ) :   1.5346 B( 43-C , 47-C ) :   1.2029 B( 44-C , 45-S ) :   1.1787
B( 44-C , 99-H ) :   0.9550 B( 45-S , 46-C ) :   1.2107 B( 46-C , 47-C ) :   1.5533
B( 46-C ,100-H ) :   0.9677 B( 47-C , 48-C ) :   0.9430 B( 48-C , 49-O ) :   2.1451
B( 48-C , 50-O ) :   1.1142 B( 50-O , 51-C ) :   1.0063 B( 51-C , 52-C ) :   1.8533
B( 51-C ,101-H ) :   0.9665 B( 52-C , 53-C ) :   1.0166 B( 52-C ,102-H ) :   0.9657
B( 53-C , 54-C ) :   0.8887 B( 53-C , 58-C ) :   0.9701 B( 53-C ,103-H ) :   0.8967
B( 54-C , 55-O ) :   2.1922 B( 54-C , 56-O ) :   1.1524 B( 56-O , 57-C ) :   0.9479
B( 57-C , 58-C ) :   1.0111 B( 57-C , 62-C ) :   0.9695 B( 57-C ,104-H ) :   0.9137
B( 58-C , 59-C ) :   1.0699 B( 58-C ,105-H ) :   0.9140 B( 59-C , 60-C ) :   1.0642
B( 59-C ,106-H ) :   0.9268 B( 59-C ,107-H ) :   0.9217 B( 60-C , 61-C ) :   1.0639
B( 60-C ,108-H ) :   0.9228 B( 60-C ,109-H ) :   0.9354 B( 61-C , 62-C ) :   1.0149
B( 61-C , 66-C ) :   0.9962 B( 61-C ,110-H ) :   0.9078 B( 62-C , 63-O ) :   0.9689
B( 62-C ,111-H ) :   0.9182 B( 63-O , 64-C ) :   1.1227 B( 64-C , 65-O ) :   2.2529
B( 64-C , 66-C ) :   0.8936 B( 66-C , 67-C ) :   1.0175 B( 66-C ,112-H ) :   0.9099
B( 67-C , 68-C ) :   2.0128 B( 67-C ,113-H ) :   0.9475 B( 68-C ,114-H ) :   0.9593
B( 68-C ,115-H ) :   0.9517

-----------------------------------------------------------------------------
         ABSORPTION SPECTRUM VIA TRANSITION ELECTRIC DIPOLE MOMENTS
-----------------------------------------------------------------------------
State   Energy  Wavelength   fosc         T2         TX        TY        TZ
        (cm-1)    (nm)                  (au**2)     (au)      (au)      (au)
-----------------------------------------------------------------------------
   0   17506.1    571.2   0.596112489  11.21025  -0.93348  -2.33654  -2.20895
   1   23688.0    422.2   0.131019685   1.82089   1.04569   0.70192   0.48449
   2   27363.4    365.5   0.002774456   0.03338  -0.01472  -0.15951  -0.08786
   3   29284.7    341.5   0.002770240   0.03114   0.10260   0.11720  -0.08295
   4   29920.2    334.2   0.011555199   0.12714  -0.19156  -0.04012   0.29806
   5   31820.9    314.3   0.457147462   4.72955   0.21891  -1.27045  -1.75145
   6   32456.7    308.1   0.231374093   2.34685  -0.68354   0.38575   1.31561
   7   32979.3    303.2   0.009771495   0.09754   0.24998   0.00459   0.18717
   8   33803.2    295.8   0.051476536   0.50133   0.34149  -0.27930  -0.55381
   9   35358.9    282.8   0.485648743   4.52167   0.32002  -0.75604  -1.96155
  10   35793.5    279.4   0.037687466   0.34663  -0.42221  -0.03890  -0.40848
  11   36610.3    273.1   0.039964376   0.35937  -0.08204   0.19843   0.55971
  12   38273.5    261.3   0.021547240   0.18534   0.13670   0.32356  -0.24892
  13   39360.6    254.1   0.006805553   0.05692   0.18313   0.10616  -0.11007
  14   40179.0    248.9   0.012570831   0.10300  -0.32055   0.00671   0.01428

FINAL SINGLE POINT ENERGY     -3583.250849969379

DIPOLE MOMENT
-------------
                                X             Y             Z
Electronic contribution:      8.05020     -24.18729      30.85158
Nuclear contribution   :     -9.52877      25.67436     -30.47157
                        -----------------------------------------
Total Dipole Moment    :     -1.47857       1.48706       0.38001
                        -----------------------------------------
Magnitude (a.u.)       :      2.13118
Magnitude (Debye)      :      5.41703

Rotational constants in cm-1:     0.001040     0.000325     0.000266
Rotational constants in MHz :    31.192030     9.758045     7.970895

                             ****ORCA TERMINATED NORMALLY****
TOTAL RUN TIME: 0 days 0 hours 10 minutes 3 seconds 135 msec
