                         Program Version 4.2.0 -  RELEASE  -
|  1> # ORCA input file
|  2> # SCF done       -164.925020507066          0.000575133307
|  3> ! CAM-B3LYP def2-SVP def2/J RIJCOSX Grid4 TightSCF
|  4> %maxcore 5000
|  5> %tddft
|  6>     Mode sTDDFT
|  7>     Ethresh 5.0
|  8>     maxcore 5000
|  9> end
| 10>
| 11> %pal
| 12>   nprocs 6
| 13>   end
| 14> * xyz 0 1
| 15>    C        1.38756        -0.18087         4.41297
| 16>    C        1.35463         1.05388         5.00434
| 17>    C        1.49901         2.21323         4.24119
| 18>    C        1.67655         2.17906         2.86780
| 19>    C        1.71215         0.90001         2.23273
| 20>    C        1.56938        -0.27277         3.02138
| 21>    N        1.60922        -1.49329         2.44376
| 22>    C        1.77856        -1.57762         1.15175
| 23>    C        1.91745        -0.40198         0.35391
| 24>    N        1.88368         0.78467         0.90155
| 25>    C        2.10651        -0.47448        -1.12306
| 26>    C        1.82311        -2.94032         0.54610
| 27>    C        1.82366         3.39995         2.11788
| 28>    C        1.92024         3.56418         0.75399
| 29>    C        2.05742         4.90419         0.38498
| 30>    C        2.06645         5.77630         1.48350
| 31>    S        1.90381         4.94716         2.96435
| 32>    C        2.20937         7.10531         1.00273
| 33>    C        2.28564         7.06880        -0.39923
| 34>    C        2.19880         5.68283        -0.83340
| 35>    C        2.25309         5.20863        -2.11187
| 36>    C        2.39571         6.05830        -3.22901
| 37>    N        2.51680         6.73629        -4.14598
| 38>    C        2.17726         3.83116        -2.40366
| 39>    N        2.12037         2.71279        -2.65275
| 40>    C        2.42703         8.33416        -0.96967
| 41>    C        2.46491         9.33256        -0.01646
| 42>    S        2.31959         8.69267         1.61732
| 43>    C        2.60499        10.73746        -0.23427
| 44>    C        2.70479        11.65858         0.80672
| 45>    N        2.83995        12.96675         0.67423
| 46>    C        2.88722        13.53398        -0.52245
| 47>    C        2.79544        12.72313        -1.68762
| 48>    C        2.65591        11.30114        -1.53709
| 49>    N        2.58646        10.68647        -2.71681
| 50>    S        2.68746        11.78213        -3.88779
| 51>    N        2.82361        13.09081        -2.96591
| 52>    C        3.03209        14.94972        -0.57516
| 53>    C        3.06647        15.78191        -1.67781
| 54>    C        3.21758        17.11641        -1.30638
| 55>    C        3.30200        17.28855         0.08958
| 56>    S        3.18811        15.81576         0.94131
| 57>    C        3.45751        18.67444         0.35925
| 58>    C        3.46761        19.37131        -0.85845
| 59>    C        3.31416        18.41892        -1.94510
| 60>    C        3.26372        18.69660        -3.28053
| 61>    C        3.36283        20.01230        -3.77762
| 62>    N        3.43766        21.07797        -4.19586
| 63>    C        3.10512        17.69115        -4.25727
| 64>    N        2.97450        16.88630        -5.06370
| 65>    C        3.61602        20.75015        -0.69751
| 66>    C        3.72080        21.11787         0.62610
| 67>    S        3.63262        19.71739         1.69674
| 68>    C        3.88223        22.43746         1.18065
| 69>    C        4.01100        22.61442         2.54866
| 70>    C        4.16808        23.87445         3.12726
| 71>    C        4.19933        25.00147         2.34984
| 72>    C        4.07117        24.87885         0.95466
| 73>    C        3.91345        23.60164         0.35315
| 74>    N        3.79401        23.51224        -0.98575
| 75>    C        3.82367        24.59869        -1.71234
| 76>    C        3.97953        25.88002        -1.10232
| 77>    N        4.09878        25.99415         0.19294
| 78>    C        4.01135        27.13113        -1.91425
| 79>    C        3.68899        24.44470        -3.18891
| 80>    H        1.27929        -1.09313         4.97734
| 81>    H        1.21592         1.14323         6.07142
| 82>    H        1.46804         3.17166         4.74063
| 83>    H        1.27725        -1.00891        -1.58401
| 84>    H        3.02315        -1.01344        -1.35903
| 85>    H        2.16313         0.52686        -1.54123
| 86>    H        1.70981        -3.68526         1.32835
| 87>    H        2.77061        -3.09558         0.03227
| 88>    H        1.02256        -3.05721        -0.18291
| 89>    H        1.89151         2.72477         0.08501
| 90>    H        2.50075         8.54605        -2.02059
| 91>    H        2.67599        11.31118         1.83194
| 92>    H        2.98347        15.40832        -2.68214
| 93>    H        3.64900        21.47910        -1.48538
| 94>    H        3.99053        21.74573         3.19191
| 95>    H        4.26512        23.94986         4.19997
| 96>    H        4.31902        25.98759         2.76900
| 97>    H        3.08682        27.23935        -2.47941
| 98>    H        4.83706        27.10147        -2.62364
| 99>    H        4.13317        27.98507        -1.25426
|100>    H        3.59057        23.39379        -3.44707
|101>    H        4.56249        24.85681        -3.69209
|102>    H        2.81303        24.98482        -3.54555
|103> *
|104>
|105>                          ****END OF INPUT****

CARTESIAN COORDINATES (ANGSTROEM)
---------------------------------
  C      1.387560   -0.180870    4.412970
  C      1.354630    1.053880    5.004340
  C      1.499010    2.213230    4.241190
  C      1.676550    2.179060    2.867800
  C      1.712150    0.900010    2.232730
  C      1.569380   -0.272770    3.021380
  N      1.609220   -1.493290    2.443760
  C      1.778560   -1.577620    1.151750
  C      1.917450   -0.401980    0.353910
  N      1.883680    0.784670    0.901550
  C      2.106510   -0.474480   -1.123060
  C      1.823110   -2.940320    0.546100
  C      1.823660    3.399950    2.117880
  C      1.920240    3.564180    0.753990
  C      2.057420    4.904190    0.384980
  C      2.066450    5.776300    1.483500
  S      1.903810    4.947160    2.964350
  C      2.209370    7.105310    1.002730
  C      2.285640    7.068800   -0.399230
  C      2.198800    5.682830   -0.833400
  C      2.253090    5.208630   -2.111870
  C      2.395710    6.058300   -3.229010
  N      2.516800    6.736290   -4.145980
  C      2.177260    3.831160   -2.403660
  N      2.120370    2.712790   -2.652750
  C      2.427030    8.334160   -0.969670
  C      2.464910    9.332560   -0.016460
  S      2.319590    8.692670    1.617320
  C      2.604990   10.737460   -0.234270
  C      2.704790   11.658580    0.806720
  N      2.839950   12.966750    0.674230
  C      2.887220   13.533980   -0.522450
  C      2.795440   12.723130   -1.687620
  C      2.655910   11.301140   -1.537090
  N      2.586460   10.686470   -2.716810
  S      2.687460   11.782130   -3.887790
  N      2.823610   13.090810   -2.965910
  C      3.032090   14.949720   -0.575160
  C      3.066470   15.781910   -1.677810
  C      3.217580   17.116410   -1.306380
  C      3.302000   17.288550    0.089580
  S      3.188110   15.815760    0.941310
  C      3.457510   18.674440    0.359250
  C      3.467610   19.371310   -0.858450
  C      3.314160   18.418920   -1.945100
  C      3.263720   18.696600   -3.280530
  C      3.362830   20.012300   -3.777620
  N      3.437660   21.077970   -4.195860
  C      3.105120   17.691150   -4.257270
  N      2.974500   16.886300   -5.063700
  C      3.616020   20.750150   -0.697510
  C      3.720800   21.117870    0.626100
  S      3.632620   19.717390    1.696740
  C      3.882230   22.437460    1.180650
  C      4.011000   22.614420    2.548660
  C      4.168080   23.874450    3.127260
  C      4.199330   25.001470    2.349840
  C      4.071170   24.878850    0.954660
  C      3.913450   23.601640    0.353150
  N      3.794010   23.512240   -0.985750
  C      3.823670   24.598690   -1.712340
  C      3.979530   25.880020   -1.102320
  N      4.098780   25.994150    0.192940
  C      4.011350   27.131130   -1.914250
  C      3.688990   24.444700   -3.188910
  H      1.279290   -1.093130    4.977340
  H      1.215920    1.143230    6.071420
  H      1.468040    3.171660    4.740630
  H      1.277250   -1.008910   -1.584010
  H      3.023150   -1.013440   -1.359030
  H      2.163130    0.526860   -1.541230
  H      1.709810   -3.685260    1.328350
  H      2.770610   -3.095580    0.032270
  H      1.022560   -3.057210   -0.182910
  H      1.891510    2.724770    0.085010
  H      2.500750    8.546050   -2.020590
  H      2.675990   11.311180    1.831940
  H      2.983470   15.408320   -2.682140
  H      3.649000   21.479100   -1.485380
  H      3.990530   21.745730    3.191910
  H      4.265120   23.949860    4.199970
  H      4.319020   25.987590    2.769000
  H      3.086820   27.239350   -2.479410
  H      4.837060   27.101470   -2.623640
  H      4.133170   27.985070   -1.254260
  H      3.590570   23.393790   -3.447070
  H      4.562490   24.856810   -3.692090
  H      2.813030   24.984820   -3.545550

 Total Charge           Charge          ....    0
 Multiplicity           Mult            ....    1
 Number of Electrons    NEL             ....  474
 Basis Dimension        Dim             .... 1045

ORBITAL ENERGIES
----------------

  NO   OCC          E(Eh)            E(eV)
   0   2.0000     -89.035699     -2422.7845
   1   2.0000     -88.980724     -2421.2886
   2   2.0000     -88.978863     -2421.2380
   3   2.0000     -88.977607     -2421.2038
   4   2.0000     -88.976523     -2421.1743
   5   2.0000     -14.452246      -393.2656
   6   2.0000     -14.446656      -393.1135
   7   2.0000     -14.424439      -392.5089
   8   2.0000     -14.424294      -392.5050
   9   2.0000     -14.420814      -392.4103
  10   2.0000     -14.420629      -392.4053
  11   2.0000     -14.418641      -392.3512
  12   2.0000     -14.411726      -392.1630
  13   2.0000     -14.410857      -392.1394
  14   2.0000     -14.410847      -392.1391
  15   2.0000     -14.409965      -392.1151
  16   2.0000     -10.354360      -281.7565
  17   2.0000     -10.354193      -281.7519
  18   2.0000     -10.342478      -281.4331
  19   2.0000     -10.342073      -281.4221
  20   2.0000     -10.338669      -281.3295
  21   2.0000     -10.335978      -281.2563
  22   2.0000     -10.332814      -281.1702
  23   2.0000     -10.325868      -280.9811
  24   2.0000     -10.325658      -280.9755
  25   2.0000     -10.324966      -280.9566
  26   2.0000     -10.324077      -280.9324
  27   2.0000     -10.321483      -280.8618
  28   2.0000     -10.321268      -280.8560
  29   2.0000     -10.320161      -280.8258
  30   2.0000     -10.319932      -280.8196
  31   2.0000     -10.318005      -280.7672
  32   2.0000     -10.317319      -280.7485
  33   2.0000     -10.316375      -280.7228
  34   2.0000     -10.315770      -280.7064
  35   2.0000     -10.314915      -280.6831
  36   2.0000     -10.314861      -280.6816
  37   2.0000     -10.311189      -280.5817
  38   2.0000     -10.311052      -280.5780
  39   2.0000     -10.310009      -280.5496
  40   2.0000     -10.308797      -280.5166
  41   2.0000     -10.308678      -280.5134
  42   2.0000     -10.306199      -280.4459
  43   2.0000     -10.305634      -280.4306
  44   2.0000     -10.305248      -280.4200
  45   2.0000     -10.294837      -280.1368
  46   2.0000     -10.293715      -280.1062
  47   2.0000     -10.291629      -280.0495
  48   2.0000     -10.291179      -280.0372
  49   2.0000     -10.291128      -280.0358
  50   2.0000     -10.289865      -280.0015
  51   2.0000     -10.287754      -279.9440
  52   2.0000     -10.286092      -279.8988
  53   2.0000     -10.282199      -279.7929
  54   2.0000     -10.280811      -279.7551
  55   2.0000     -10.278904      -279.7032
  56   2.0000     -10.277990      -279.6783
  57   2.0000     -10.277132      -279.6550
  58   2.0000     -10.276179      -279.6291
  59   2.0000     -10.273082      -279.5448
  60   2.0000     -10.271918      -279.5131
  61   2.0000     -10.265438      -279.3368
  62   2.0000     -10.264842      -279.3206
  63   2.0000     -10.257046      -279.1084
  64   2.0000     -10.256497      -279.0935
  65   2.0000      -8.127078      -221.1490
  66   2.0000      -8.075284      -219.7397
  67   2.0000      -8.072818      -219.6725
  68   2.0000      -8.071926      -219.6483
  69   2.0000      -8.070942      -219.6215
  70   2.0000      -6.098284      -165.9427
  71   2.0000      -6.090374      -165.7275
  72   2.0000      -6.089676      -165.7085
  73   2.0000      -6.044545      -164.4804
  74   2.0000      -6.042036      -164.4121
  75   2.0000      -6.041139      -164.3877
  76   2.0000      -6.040352      -164.3663
  77   2.0000      -6.040164      -164.3612
  78   2.0000      -6.037742      -164.2953
  79   2.0000      -6.037667      -164.2933
  80   2.0000      -6.036981      -164.2746
  81   2.0000      -6.036001      -164.2479
  82   2.0000      -6.035405      -164.2317
  83   2.0000      -6.034447      -164.2057
  84   2.0000      -6.033416      -164.1776
  85   2.0000      -1.136106       -30.9150
  86   2.0000      -1.072566       -29.1860
  87   2.0000      -1.071646       -29.1610
  88   2.0000      -1.055221       -28.7140
  89   2.0000      -1.033531       -28.1238
  90   2.0000      -1.032609       -28.0987
  91   2.0000      -1.013843       -27.5881
  92   2.0000      -1.013496       -27.5786
  93   2.0000      -1.000021       -27.2120
  94   2.0000      -0.999813       -27.2063
  95   2.0000      -0.997092       -27.1323
  96   2.0000      -0.996185       -27.1076
  97   2.0000      -0.993201       -27.0264
  98   2.0000      -0.983486       -26.7620
  99   2.0000      -0.981744       -26.7146
 100   2.0000      -0.956597       -26.0303
 101   2.0000      -0.955279       -25.9945
 102   2.0000      -0.942845       -25.6561
 103   2.0000      -0.942275       -25.6406
 104   2.0000      -0.916716       -24.9451
 105   2.0000      -0.905036       -24.6273
 106   2.0000      -0.896830       -24.4040
 107   2.0000      -0.881183       -23.9782
 108   2.0000      -0.878691       -23.9104
 109   2.0000      -0.875763       -23.8307
 110   2.0000      -0.863400       -23.4943
 111   2.0000      -0.862575       -23.4719
 112   2.0000      -0.851042       -23.1580
 113   2.0000      -0.845015       -22.9940
 114   2.0000      -0.841352       -22.8944
 115   2.0000      -0.839596       -22.8466
 116   2.0000      -0.813623       -22.1398
 117   2.0000      -0.807727       -21.9794
 118   2.0000      -0.803577       -21.8664
 119   2.0000      -0.798424       -21.7262
 120   2.0000      -0.796991       -21.6872
 121   2.0000      -0.772251       -21.0140
 122   2.0000      -0.766901       -20.8684
 123   2.0000      -0.766356       -20.8536
 124   2.0000      -0.760662       -20.6987
 125   2.0000      -0.731958       -19.9176
 126   2.0000      -0.729851       -19.8603
 127   2.0000      -0.715250       -19.4630
 128   2.0000      -0.712623       -19.3914
 129   2.0000      -0.711699       -19.3663
 130   2.0000      -0.710885       -19.3442
 131   2.0000      -0.708968       -19.2920
 132   2.0000      -0.699087       -19.0231
 133   2.0000      -0.692222       -18.8363
 134   2.0000      -0.680681       -18.5223
 135   2.0000      -0.671873       -18.2826
 136   2.0000      -0.670471       -18.2444
 137   2.0000      -0.662306       -18.0223
 138   2.0000      -0.649497       -17.6737
 139   2.0000      -0.639907       -17.4128
 140   2.0000      -0.635022       -17.2798
 141   2.0000      -0.626921       -17.0594
 142   2.0000      -0.623053       -16.9541
 143   2.0000      -0.621614       -16.9150
 144   2.0000      -0.613791       -16.7021
 145   2.0000      -0.606773       -16.5111
 146   2.0000      -0.602747       -16.4016
 147   2.0000      -0.600663       -16.3449
 148   2.0000      -0.598146       -16.2764
 149   2.0000      -0.597711       -16.2645
 150   2.0000      -0.593998       -16.1635
 151   2.0000      -0.573112       -15.5952
 152   2.0000      -0.568303       -15.4643
 153   2.0000      -0.563001       -15.3200
 154   2.0000      -0.555621       -15.1192
 155   2.0000      -0.552331       -15.0297
 156   2.0000      -0.548025       -14.9125
 157   2.0000      -0.546279       -14.8650
 158   2.0000      -0.543963       -14.8020
 159   2.0000      -0.543127       -14.7792
 160   2.0000      -0.536501       -14.5989
 161   2.0000      -0.535998       -14.5852
 162   2.0000      -0.535630       -14.5752
 163   2.0000      -0.527971       -14.3668
 164   2.0000      -0.513797       -13.9811
 165   2.0000      -0.512924       -13.9574
 166   2.0000      -0.508751       -13.8438
 167   2.0000      -0.500685       -13.6243
 168   2.0000      -0.499373       -13.5886
 169   2.0000      -0.498826       -13.5738
 170   2.0000      -0.497987       -13.5509
 171   2.0000      -0.497600       -13.5404
 172   2.0000      -0.493811       -13.4373
 173   2.0000      -0.488162       -13.2836
 174   2.0000      -0.487656       -13.2698
 175   2.0000      -0.487023       -13.2526
 176   2.0000      -0.486604       -13.2412
 177   2.0000      -0.485270       -13.2049
 178   2.0000      -0.484558       -13.1855
 179   2.0000      -0.484102       -13.1731
 180   2.0000      -0.483226       -13.1492
 181   2.0000      -0.482284       -13.1236
 182   2.0000      -0.476177       -12.9574
 183   2.0000      -0.475039       -12.9265
 184   2.0000      -0.473363       -12.8809
 185   2.0000      -0.472782       -12.8651
 186   2.0000      -0.472362       -12.8536
 187   2.0000      -0.471309       -12.8250
 188   2.0000      -0.464366       -12.6360
 189   2.0000      -0.461531       -12.5589
 190   2.0000      -0.460634       -12.5345
 191   2.0000      -0.453658       -12.3447
 192   2.0000      -0.452547       -12.3144
 193   2.0000      -0.451091       -12.2748
 194   2.0000      -0.450786       -12.2665
 195   2.0000      -0.447297       -12.1716
 196   2.0000      -0.446811       -12.1583
 197   2.0000      -0.441176       -12.0050
 198   2.0000      -0.440867       -11.9966
 199   2.0000      -0.438677       -11.9370
 200   2.0000      -0.434680       -11.8282
 201   2.0000      -0.433922       -11.8076
 202   2.0000      -0.433241       -11.7891
 203   2.0000      -0.432941       -11.7809
 204   2.0000      -0.429630       -11.6908
 205   2.0000      -0.429264       -11.6809
 206   2.0000      -0.423684       -11.5290
 207   2.0000      -0.423609       -11.5270
 208   2.0000      -0.422987       -11.5101
 209   2.0000      -0.418228       -11.3806
 210   2.0000      -0.415781       -11.3140
 211   2.0000      -0.415472       -11.3056
 212   2.0000      -0.410558       -11.1718
 213   2.0000      -0.409176       -11.1342
 214   2.0000      -0.404305       -11.0017
 215   2.0000      -0.397440       -10.8149
 216   2.0000      -0.396888       -10.7999
 217   2.0000      -0.377456       -10.2711
 218   2.0000      -0.373067       -10.1517
 219   2.0000      -0.368171       -10.0184
 220   2.0000      -0.367416        -9.9979
 221   2.0000      -0.366703        -9.9785
 222   2.0000      -0.357332        -9.7235
 223   2.0000      -0.347408        -9.4535
 224   2.0000      -0.338851        -9.2206
 225   2.0000      -0.336627        -9.1601
 226   2.0000      -0.336082        -9.1453
 227   2.0000      -0.317848        -8.6491
 228   2.0000      -0.314673        -8.5627
 229   2.0000      -0.313394        -8.5279
 230   2.0000      -0.311481        -8.4758
 231   2.0000      -0.311242        -8.4693
 232   2.0000      -0.310497        -8.4490
 233   2.0000      -0.309995        -8.4354
 234   2.0000      -0.290606        -7.9078
 235   2.0000      -0.258034        -7.0215
 236   2.0000      -0.234692        -6.3863
 237   0.0000      -0.101440        -2.7603
 238   0.0000      -0.094407        -2.5689
 239   0.0000      -0.078193        -2.1277
 240   0.0000      -0.042115        -1.1460
 241   0.0000      -0.041310        -1.1241

MULLIKEN ATOMIC CHARGES
-----------------------
   0 C :   -0.000323
   1 C :    0.040266
   2 C :   -0.076691
   3 C :    0.154703
   4 C :   -0.028807
   5 C :   -0.023210
   6 N :    0.008668
   7 C :   -0.187696
   8 C :   -0.154991
   9 N :   -0.011506
  10 C :    0.122186
  11 C :    0.134596
  12 C :   -0.116386
  13 C :   -0.048668
  14 C :    0.030240
  15 C :   -0.089907
  16 S :    0.149629
  17 C :   -0.089679
  18 C :    0.019368
  19 C :    0.313890
  20 C :   -0.311652
  21 C :   -0.191089
  22 N :    0.174773
  23 C :   -0.181028
  24 N :    0.180536
  25 C :   -0.058476
  26 C :   -0.101208
  27 S :    0.160376
  28 C :    0.081900
  29 C :   -0.064988
  30 N :   -0.058039
  31 C :    0.030116
  32 C :   -0.004563
  33 C :    0.038190
  34 N :   -0.279214
  35 S :    0.550999
  36 N :   -0.255371
  37 C :   -0.125487
  38 C :   -0.048869
  39 C :    0.004467
  40 C :   -0.086178
  41 S :    0.228226
  42 C :   -0.096419
  43 C :    0.033780
  44 C :    0.314914
  45 C :   -0.313011
  46 C :   -0.180248
  47 N :    0.180206
  48 C :   -0.192848
  49 N :    0.175877
  50 C :   -0.051552
  51 C :   -0.116135
  52 S :    0.152993
  53 C :    0.156790
  54 C :   -0.076981
  55 C :    0.039615
  56 C :    0.004178
  57 C :   -0.027355
  58 C :   -0.028903
  59 N :   -0.011942
  60 C :   -0.153283
  61 C :   -0.188089
  62 N :    0.010543
  63 C :    0.133140
  64 C :    0.122204
  65 H :   -0.027402
  66 H :   -0.009254
  67 H :   -0.012629
  68 H :    0.021353
  69 H :    0.021306
  70 H :    0.035387
  71 H :    0.025732
  72 H :    0.023870
  73 H :    0.025556
  74 H :    0.014291
  75 H :    0.019317
  76 H :    0.006064
  77 H :    0.016300
  78 H :    0.015639
  79 H :   -0.011114
  80 H :   -0.008571
  81 H :   -0.027244
  82 H :    0.024743
  83 H :    0.025950
  84 H :    0.025910
  85 H :    0.035017
  86 H :    0.021625
  87 H :    0.021579
Sum of atomic charges:   -0.0000000

LOEWDIN ATOMIC CHARGES
----------------------
   0 C :   -0.014732
   1 C :   -0.019184
   2 C :   -0.028560
   3 C :   -0.037043
   4 C :   -0.006371
   5 C :   -0.012974
   6 N :   -0.046659
   7 C :   -0.003581
   8 C :    0.007278
   9 N :   -0.041084
  10 C :   -0.055926
  11 C :   -0.052648
  12 C :   -0.153360
  13 C :   -0.023997
  14 C :   -0.074902
  15 C :   -0.182948
  16 S :    0.466739
  17 C :   -0.173690
  18 C :   -0.074795
  19 C :    0.087161
  20 C :   -0.107481
  21 C :   -0.017938
  22 N :   -0.035228
  23 C :   -0.003924
  24 N :   -0.036125
  25 C :   -0.020688
  26 C :   -0.164286
  27 S :    0.469174
  28 C :   -0.070837
  29 C :    0.004721
  30 N :   -0.086866
  31 C :   -0.002985
  32 C :   -0.061597
  33 C :   -0.031247
  34 N :   -0.277096
  35 S :    0.676353
  36 N :   -0.264453
  37 C :   -0.183736
  38 C :   -0.008681
  39 C :   -0.079707
  40 C :   -0.167897
  41 S :    0.508010
  42 C :   -0.185410
  43 C :   -0.070548
  44 C :    0.086220
  45 C :   -0.109078
  46 C :   -0.003830
  47 N :   -0.036558
  48 C :   -0.018304
  49 N :   -0.035594
  50 C :   -0.025203
  51 C :   -0.150203
  52 S :    0.469375
  53 C :   -0.037710
  54 C :   -0.027048
  55 C :   -0.019217
  56 C :   -0.013283
  57 C :   -0.013272
  58 C :   -0.005985
  59 N :   -0.041200
  60 C :    0.007914
  61 C :   -0.003409
  62 N :   -0.046159
  63 C :   -0.052765
  64 C :   -0.056057
  65 H :    0.033750
  66 H :    0.032206
  67 H :    0.019003
  68 H :    0.037444
  69 H :    0.037582
  70 H :    0.037908
  71 H :    0.038165
  72 H :    0.037706
  73 H :    0.038190
  74 H :    0.034831
  75 H :    0.038789
  76 H :    0.017106
  77 H :    0.040186
  78 H :    0.034941
  79 H :    0.019310
  80 H :    0.032499
  81 H :    0.033921
  82 H :    0.038028
  83 H :    0.038263
  84 H :    0.038190
  85 H :    0.037768
  86 H :    0.037681
  87 H :    0.037648

  Mayer bond orders larger than 0.100000
B(  0-C ,  1-C ) :   1.4259 B(  0-C ,  3-C ) :   0.1076 B(  0-C ,  5-C ) :   1.2616
B(  0-C , 65-H ) :   1.0092 B(  1-C ,  2-C ) :   1.2706 B(  1-C , 66-H ) :   0.9860
B(  2-C ,  3-C ) :   1.4336 B(  2-C , 67-H ) :   0.9884 B(  3-C ,  4-C ) :   1.2107
B(  3-C , 12-C ) :   1.0885 B(  4-C ,  5-C ) :   1.2624 B(  4-C ,  9-N ) :   1.4325
B(  5-C ,  6-N ) :   1.3873 B(  6-N ,  7-C ) :   1.7242 B(  7-C ,  8-C ) :   1.1606
B(  7-C , 11-C ) :   1.0959 B(  8-C ,  9-N ) :   1.6737 B(  8-C , 10-C ) :   1.0919
B( 10-C , 68-H ) :   0.9360 B( 10-C , 69-H ) :   0.9351 B( 10-C , 70-H ) :   0.9317
B( 11-C , 71-H ) :   0.9414 B( 11-C , 72-H ) :   0.9408 B( 11-C , 73-H ) :   0.9408
B( 12-C , 13-C ) :   1.5089 B( 12-C , 16-S ) :   1.0891 B( 13-C , 14-C ) :   1.2098
B( 13-C , 74-H ) :   0.9790 B( 14-C , 15-C ) :   1.4446 B( 14-C , 19-C ) :   1.0012
B( 15-C , 16-S ) :   1.1240 B( 15-C , 17-C ) :   1.1725 B( 17-C , 18-C ) :   1.4486
B( 17-C , 27-S ) :   1.1245 B( 18-C , 19-C ) :   0.9922 B( 18-C , 25-C ) :   1.2419
B( 19-C , 20-C ) :   1.7042 B( 20-C , 21-C ) :   1.1332 B( 20-C , 23-C ) :   1.1417
B( 21-C , 22-N ) :   2.9924 B( 23-C , 24-N ) :   2.9839 B( 25-C , 26-C ) :   1.4864
B( 25-C , 75-H ) :   0.9860 B( 26-C , 27-S ) :   1.0871 B( 26-C , 28-C ) :   1.1165
B( 28-C , 29-C ) :   1.4086 B( 28-C , 31-C ) :   0.1068 B( 28-C , 33-C ) :   1.2101
B( 29-C , 30-N ) :   1.4570 B( 29-C , 76-H ) :   0.9757 B( 30-N , 31-C ) :   1.6621
B( 31-C , 32-C ) :   1.1678 B( 31-C , 37-C ) :   1.1390 B( 32-C , 33-C ) :   1.1857
B( 32-C , 36-N ) :   1.5508 B( 33-C , 34-N ) :   1.5190 B( 34-N , 35-S ) :   1.2653
B( 34-N , 36-N ) :   0.1453 B( 35-S , 36-N ) :   1.2791 B( 37-C , 38-C ) :   1.4767
B( 37-C , 41-S ) :   1.0824 B( 38-C , 39-C ) :   1.2650 B( 38-C , 77-H ) :   0.9838
B( 39-C , 40-C ) :   1.4281 B( 39-C , 44-C ) :   0.9930 B( 40-C , 41-S ) :   1.1311
B( 40-C , 42-C ) :   1.1805 B( 42-C , 43-C ) :   1.4449 B( 42-C , 52-S ) :   1.1228
B( 43-C , 44-C ) :   1.0003 B( 43-C , 50-C ) :   1.2121 B( 44-C , 45-C ) :   1.7038
B( 45-C , 46-C ) :   1.1400 B( 45-C , 48-C ) :   1.1344 B( 46-C , 47-N ) :   2.9847
B( 48-C , 49-N ) :   2.9944 B( 50-C , 51-C ) :   1.5058 B( 50-C , 78-H ) :   0.9778
B( 51-C , 52-S ) :   1.0938 B( 51-C , 53-C ) :   1.0900 B( 53-C , 54-C ) :   1.4340
B( 53-C , 56-C ) :   0.1076 B( 53-C , 58-C ) :   1.2085 B( 54-C , 55-C ) :   1.2726
B( 54-C , 79-H ) :   0.9880 B( 55-C , 56-C ) :   1.4237 B( 55-C , 80-H ) :   0.9862
B( 56-C , 57-C ) :   1.2637 B( 56-C , 81-H ) :   1.0092 B( 57-C , 58-C ) :   1.2615
B( 57-C , 62-N ) :   1.3887 B( 58-C , 59-N ) :   1.4331 B( 59-N , 60-C ) :   1.6735
B( 60-C , 61-C ) :   1.1599 B( 60-C , 64-C ) :   1.0917 B( 61-C , 62-N ) :   1.7247
B( 61-C , 63-C ) :   1.0959 B( 63-C , 82-H ) :   0.9408 B( 63-C , 83-H ) :   0.9409
B( 63-C , 84-H ) :   0.9415 B( 64-C , 85-H ) :   0.9311 B( 64-C , 86-H ) :   0.9354
B( 64-C , 87-H ) :   0.9350

-----------------------------------------------------------------------------
         ABSORPTION SPECTRUM VIA TRANSITION ELECTRIC DIPOLE MOMENTS
-----------------------------------------------------------------------------
State   Energy  Wavelength   fosc         T2         TX        TY        TZ
        (cm-1)    (nm)                  (au**2)     (au)      (au)      (au)
-----------------------------------------------------------------------------
   0   12072.9    828.3   0.368675303  10.05327   0.32099   3.13288  -0.36787
   1   12908.3    774.7   0.065393156   1.66777   0.12996   1.22664   0.38243
   2   17528.0    570.5   0.924551136  17.36496   0.40548   4.13989  -0.24880
   3   21185.6    472.0   0.027247997   0.42342  -0.06153  -0.52848  -0.37462
   4   22850.8    437.6   0.001159261   0.01670   0.02051   0.12644  -0.01716
   5   25414.9    393.5   0.081660900   1.05780  -0.05922  -0.46420  -0.91587
   6   27373.3    365.3   1.055520638  12.69448   0.35013   3.45689  -0.78855
   7   27955.9    357.7   0.001117063   0.01315   0.00502   0.10628   0.04282
   8   28147.5    355.3   0.214214227   2.50544  -0.13773  -1.13397  -1.09572
   9   28769.6    347.6   0.020428792   0.23377   0.01746   0.08461   0.47571
  10   29617.6    337.6   0.002997801   0.03332   0.17678   0.04241   0.01654
  11   29650.6    337.3   0.000725238   0.00805   0.01189   0.03196   0.08300
  12   30557.4    327.3   0.023237535   0.25035   0.13802   0.04751   0.47858
  13   31044.8    322.1   0.366594640   3.88752  -0.02903  -0.40635   1.92913
  14   31123.5    321.3   0.141157854   1.49311   0.06536   0.16931  -1.20838
  15   31481.0    317.7   0.239267284   2.50213   0.06561   1.57813   0.08566
  16   31795.5    314.5   0.374235426   3.87485   0.06065   1.73015   0.93689
  17   31926.0    313.2   0.013560427   0.13983   0.07742   0.04478  -0.36309
  18   32310.4    309.5   0.014578248   0.14854  -0.22834  -0.11919   0.28669
  19   32456.4    308.1   0.371452364   3.76772   0.01064   0.81179  -1.76312
  20   32517.5    307.5   0.119361457   1.20843  -0.07291  -1.04540  -0.33205
  21   32626.4    306.5   0.013587377   0.13710  -0.13564  -0.26192   0.22384
  22   33117.9    302.0   0.231282454   2.29909  -0.23646  -1.48296  -0.20977
  23   33891.9    295.1   0.046051461   0.44733  -0.01562  -0.12055   0.65768
  24   34626.7    288.8   0.133428572   1.26857   0.01898   0.12363  -1.11934
  25   35149.2    284.5   0.109043321   1.02131   0.05343   1.00797  -0.04954
  26   35321.4    283.1   0.017619010   0.16422   0.07923   0.39601   0.03339
  27   36226.6    276.0   0.039705862   0.36083   0.04728   0.42682  -0.42002
  28   36748.9    272.1   0.018155366   0.16264   0.07247  -0.16950  -0.35869
  29   36874.0    271.2   0.048834815   0.43600  -0.03553   0.02113  -0.65901
  30   37139.5    269.3   0.155334331   1.37691  -0.10039  -1.14277  -0.24682
  31   37476.1    266.8   0.083189451   0.73078  -0.01864  -0.36744   0.77164
  32   37922.1    263.7   0.015254580   0.13243  -0.00502  -0.05183   0.36016
  33   38363.8    260.7   0.002311493   0.01984   0.02236   0.13149  -0.04523
  34   38393.9    260.5   0.047409468   0.40652   0.06357   0.53292  -0.34420
  35   38578.0    259.2   0.025257315   0.21554  -0.04501  -0.45844  -0.05782
  36   38821.4    257.6   0.007467554   0.06333  -0.01558  -0.19242  -0.16143
  37   38868.3    257.3   0.082221166   0.69641  -0.08939  -0.64920  -0.51667
  38   39160.9    255.4   0.008486626   0.07134   0.01875  -0.26143  -0.05146
  39   39239.4    254.8   0.012891750   0.10816   0.04772   0.31377  -0.08620
  40   39286.5    254.5   0.000664032   0.00556  -0.04424  -0.00565  -0.05979
  41   39562.8    252.8   0.064191938   0.53416   0.09090   0.65151  -0.31847
  42   39908.8    250.6   0.015977110   0.13180   0.00766   0.07831  -0.35441
  43   40090.3    249.4   0.003226912   0.02650   0.01495   0.12746  -0.10015
  44   40102.6    249.4   0.038775720   0.31832   0.02269   0.30839  -0.47191
  45   40287.9    248.2   0.000854235   0.00698   0.01768   0.02516  -0.07768

FINAL SINGLE POINT ENERGY     -4470.470713791048

DIPOLE MOMENT
-------------
                                X             Y             Z
Electronic contribution:     -1.18645       0.88900      -1.91675
Nuclear contribution   :      1.21726      -0.62875       4.38834
                        -----------------------------------------
Total Dipole Moment    :      0.03081       0.26025       2.47159
                        -----------------------------------------
Magnitude (a.u.)       :      2.48545
Magnitude (Debye)      :      6.31751

Rotational constants in cm-1:     0.003609     0.000244     0.000228
Rotational constants in MHz :   108.189353     7.300277     6.845088

                             ****ORCA TERMINATED NORMALLY****
TOTAL RUN TIME: 0 days 0 hours 7 minutes 34 seconds 819 msec
