                         Program Version 4.2.0 -  RELEASE  -
|  1> # ORCA input file
|  2> # SCF done       -222.190047349431          0.000426077130
|  3> ! CAM-B3LYP def2-SVP def2/J RIJCOSX Grid4 TightSCF
|  4> %maxcore 5000
|  5> %tddft
|  6>     Mode sTDDFT
|  7>     Ethresh 5.0
|  8>     maxcore 5000
|  9> end
| 10>
| 11> %pal
| 12>   nprocs 6
| 13>   end
| 14> * xyz 0 1
| 15>    C       -0.40531         1.13532         0.77407
| 16>    C        0.95242         1.23897         0.88781
| 17>    F        1.51506         2.41549         1.19058
| 18>    C        1.77730         0.11297         0.68867
| 19>    F        3.10479         0.24419         0.80659
| 20>    C        1.23212        -1.10112         0.37815
| 21>    C       -0.16394        -1.24036         0.25263
| 22>    C       -0.99921        -0.10275         0.45415
| 23>    C       -2.40194        -0.21822         0.33136
| 24>    C       -2.95200        -1.43479         0.01975
| 25>    C       -2.11100        -2.56721        -0.17488
| 26>    C       -0.75272        -2.48302        -0.06996
| 27>    C       -2.94087        -3.74487        -0.49535
| 28>    O       -2.56312        -4.81748        -0.90675
| 29>    C       -4.34786        -3.28916        -0.30930
| 30>    C       -4.33966        -1.84103        -0.17010
| 31>    C       -5.42061        -1.00771        -0.25816
| 32>    C       -6.72758        -1.44383        -0.56184
| 33>    N       -7.79806        -1.75078        -0.84180
| 34>    C       -5.35167         0.39518        -0.12009
| 35>    N       -5.35316         1.53764        -0.01495
| 36>    C       -5.41257        -4.11881        -0.24014
| 37>    C       -5.26505        -5.56122        -0.11967
| 38>    C       -5.91507        -6.53136        -0.86942
| 39>    O       -6.74541        -6.29882        -1.91548
| 40>    C       -7.05848        -5.00231        -2.36765
| 41>    C       -5.69619        -7.92904        -0.61207
| 42>    O       -6.28241        -8.93525        -1.30473
| 43>    C       -6.62979        -8.82506        -2.67111
| 44>    C       -4.91200        -8.35537         0.45264
| 45>    C       -4.22061        -7.38329         1.20816
| 46>    C       -4.39161        -5.99512         0.91335
| 47>    N       -3.66427        -5.21987         1.71532
| 48>    S       -2.81304        -6.16582         2.70349
| 49>    N       -3.33087        -7.58728         2.17364
| 50>    C       -4.74773        -9.75176         0.76677
| 51>    C       -4.54728       -10.32491         1.99511
| 52>    C       -4.58992        -9.92096         3.41042
| 53>    O       -4.90152        -8.87875         3.92974
| 54>    N       -4.22264       -11.06678         4.11031
| 55>    C       -4.09530       -11.10066         5.54556
| 56>    C       -3.98687       -12.17918         3.30980
| 57>    O       -3.58533       -13.23924         3.72111
| 58>    C       -4.28500       -11.71850         1.94251
| 59>    C       -4.29984       -12.23098         0.67134
| 60>    S       -4.65404       -10.96764        -0.47909
| 61>    C       -4.06907       -13.59007         0.25796
| 62>    C       -3.38841       -13.89565        -0.91244
| 63>    O       -2.96060       -12.85230        -1.70875
| 64>    C       -1.70658       -12.32448        -1.29853
| 65>    C       -3.05433       -15.23528        -1.25504
| 66>    O       -2.43711       -15.59998        -2.39423
| 67>    C       -2.47281       -14.78379        -3.55057
| 68>    C       -3.25578       -16.27621        -0.33559
| 69>    C       -3.98579       -15.98540         0.84185
| 70>    C       -4.46262       -14.65816         1.09515
| 71>    N       -5.23774       -14.59513         2.17202
| 72>    S       -5.30988       -16.04640         2.84104
| 73>    N       -4.39568       -16.84250         1.77631
| 74>    C       -2.78005       -17.59394        -0.63156
| 75>    C       -2.38382       -18.53883         0.25550
| 76>    C       -2.30008       -19.96710        -0.15329
| 77>    O       -2.32032       -20.40592        -1.27940
| 78>    C       -2.24417       -20.72560         1.11458
| 79>    C       -2.27701       -22.07672         1.30554
| 80>    C       -2.24682       -22.58548         2.62335
| 81>    C       -2.19089       -21.67866         3.72154
| 82>    C       -2.17161       -22.19343         5.03368
| 83>    C       -2.20182       -23.54306         5.24519
| 84>    C       -2.25386       -24.43857         4.15834
| 85>    C       -2.27608       -23.97119         2.87438
| 86>    F       -2.28262       -25.75774         4.39552
| 87>    F       -2.18241       -24.03008         6.49365
| 88>    C       -2.14923       -20.28436         3.49276
| 89>    C       -2.16724       -19.81405         2.20675
| 90>    C       -2.09936       -18.45682         1.67473
| 91>    C       -1.62629       -17.36183         2.34627
| 92>    C       -1.32174       -16.13235         1.72671
| 93>    N       -1.00252       -15.13552         1.25446
| 94>    C       -1.31328       -17.36400         3.72107
| 95>    N       -1.05726       -17.32185         4.83902
| 96>    H       -1.02167         2.00714         0.92848
| 97>    H        1.87698        -1.95286         0.22857
| 98>    H       -3.00888         0.65830         0.49268
| 99>    H       -0.13594        -3.35479        -0.22655
|100>    H       -6.40467        -3.70671        -0.12360
|101>    H       -6.16668        -4.37445        -2.44149
|102>    H       -7.80075        -4.51677        -1.73040
|103>    H       -7.48505        -5.14214        -3.36137
|104>    H       -5.86523        -8.29509        -3.24073
|105>    H       -7.59423        -8.33168        -2.80201
|106>    H       -6.69565        -9.85487        -3.02313
|107>    H       -3.94167       -10.08254         5.89888
|108>    H       -3.24790       -11.73179         5.81047
|109>    H       -4.99951       -11.50927         6.00173
|110>    H       -0.92499       -13.08920        -1.33452
|111>    H       -1.75754       -11.92854        -0.28044
|112>    H       -1.47948       -11.52018        -1.99516
|113>    H       -3.44087       -14.29618        -3.67258
|114>    H       -2.29430       -15.46567        -4.38259
|115>    H       -1.68598       -14.02748        -3.53366
|116>    H       -2.77693       -17.88066        -1.67750
|117>    H       -2.32704       -22.74940         0.46281
|118>    H       -2.12803       -21.52191         5.87684
|119>    H       -2.31642       -24.66955         2.05315
|120>    H       -2.11389       -19.61949         4.34086
|121> *
|122>
|123>                          ****END OF INPUT****

CARTESIAN COORDINATES (ANGSTROEM)
---------------------------------
  C     -0.405310    1.135320    0.774070
  C      0.952420    1.238970    0.887810
  F      1.515060    2.415490    1.190580
  C      1.777300    0.112970    0.688670
  F      3.104790    0.244190    0.806590
  C      1.232120   -1.101120    0.378150
  C     -0.163940   -1.240360    0.252630
  C     -0.999210   -0.102750    0.454150
  C     -2.401940   -0.218220    0.331360
  C     -2.952000   -1.434790    0.019750
  C     -2.111000   -2.567210   -0.174880
  C     -0.752720   -2.483020   -0.069960
  C     -2.940870   -3.744870   -0.495350
  O     -2.563120   -4.817480   -0.906750
  C     -4.347860   -3.289160   -0.309300
  C     -4.339660   -1.841030   -0.170100
  C     -5.420610   -1.007710   -0.258160
  C     -6.727580   -1.443830   -0.561840
  N     -7.798060   -1.750780   -0.841800
  C     -5.351670    0.395180   -0.120090
  N     -5.353160    1.537640   -0.014950
  C     -5.412570   -4.118810   -0.240140
  C     -5.265050   -5.561220   -0.119670
  C     -5.915070   -6.531360   -0.869420
  O     -6.745410   -6.298820   -1.915480
  C     -7.058480   -5.002310   -2.367650
  C     -5.696190   -7.929040   -0.612070
  O     -6.282410   -8.935250   -1.304730
  C     -6.629790   -8.825060   -2.671110
  C     -4.912000   -8.355370    0.452640
  C     -4.220610   -7.383290    1.208160
  C     -4.391610   -5.995120    0.913350
  N     -3.664270   -5.219870    1.715320
  S     -2.813040   -6.165820    2.703490
  N     -3.330870   -7.587280    2.173640
  C     -4.747730   -9.751760    0.766770
  C     -4.547280  -10.324910    1.995110
  C     -4.589920   -9.920960    3.410420
  O     -4.901520   -8.878750    3.929740
  N     -4.222640  -11.066780    4.110310
  C     -4.095300  -11.100660    5.545560
  C     -3.986870  -12.179180    3.309800
  O     -3.585330  -13.239240    3.721110
  C     -4.285000  -11.718500    1.942510
  C     -4.299840  -12.230980    0.671340
  S     -4.654040  -10.967640   -0.479090
  C     -4.069070  -13.590070    0.257960
  C     -3.388410  -13.895650   -0.912440
  O     -2.960600  -12.852300   -1.708750
  C     -1.706580  -12.324480   -1.298530
  C     -3.054330  -15.235280   -1.255040
  O     -2.437110  -15.599980   -2.394230
  C     -2.472810  -14.783790   -3.550570
  C     -3.255780  -16.276210   -0.335590
  C     -3.985790  -15.985400    0.841850
  C     -4.462620  -14.658160    1.095150
  N     -5.237740  -14.595130    2.172020
  S     -5.309880  -16.046400    2.841040
  N     -4.395680  -16.842500    1.776310
  C     -2.780050  -17.593940   -0.631560
  C     -2.383820  -18.538830    0.255500
  C     -2.300080  -19.967100   -0.153290
  O     -2.320320  -20.405920   -1.279400
  C     -2.244170  -20.725600    1.114580
  C     -2.277010  -22.076720    1.305540
  C     -2.246820  -22.585480    2.623350
  C     -2.190890  -21.678660    3.721540
  C     -2.171610  -22.193430    5.033680
  C     -2.201820  -23.543060    5.245190
  C     -2.253860  -24.438570    4.158340
  C     -2.276080  -23.971190    2.874380
  F     -2.282620  -25.757740    4.395520
  F     -2.182410  -24.030080    6.493650
  C     -2.149230  -20.284360    3.492760
  C     -2.167240  -19.814050    2.206750
  C     -2.099360  -18.456820    1.674730
  C     -1.626290  -17.361830    2.346270
  C     -1.321740  -16.132350    1.726710
  N     -1.002520  -15.135520    1.254460
  C     -1.313280  -17.364000    3.721070
  N     -1.057260  -17.321850    4.839020
  H     -1.021670    2.007140    0.928480
  H      1.876980   -1.952860    0.228570
  H     -3.008880    0.658300    0.492680
  H     -0.135940   -3.354790   -0.226550
  H     -6.404670   -3.706710   -0.123600
  H     -6.166680   -4.374450   -2.441490
  H     -7.800750   -4.516770   -1.730400
  H     -7.485050   -5.142140   -3.361370
  H     -5.865230   -8.295090   -3.240730
  H     -7.594230   -8.331680   -2.802010
  H     -6.695650   -9.854870   -3.023130
  H     -3.941670  -10.082540    5.898880
  H     -3.247900  -11.731790    5.810470
  H     -4.999510  -11.509270    6.001730
  H     -0.924990  -13.089200   -1.334520
  H     -1.757540  -11.928540   -0.280440
  H     -1.479480  -11.520180   -1.995160
  H     -3.440870  -14.296180   -3.672580
  H     -2.294300  -15.465670   -4.382590
  H     -1.685980  -14.027480   -3.533660
  H     -2.776930  -17.880660   -1.677500
  H     -2.327040  -22.749400    0.462810
  H     -2.128030  -21.521910    5.876840
  H     -2.316420  -24.669550    2.053150
  H     -2.113890  -19.619490    4.340860

 Total Charge           Charge          ....    0
 Multiplicity           Mult            ....    1
 Number of Electrons    NEL             ....  578
 Basis Dimension        Dim             .... 1271

ORBITAL ENERGIES
----------------

  NO   OCC          E(Eh)            E(eV)
   0   2.0000     -89.018201     -2422.3084
   1   2.0000     -89.016482     -2422.2616
   2   2.0000     -88.968008     -2420.9426
   3   2.0000     -24.803569      -674.9394
   4   2.0000     -24.802350      -674.9062
   5   2.0000     -24.792883      -674.6487
   6   2.0000     -24.792232      -674.6309
   7   2.0000     -19.275910      -524.5242
   8   2.0000     -19.269941      -524.3617
   9   2.0000     -19.264282      -524.2078
  10   2.0000     -19.253710      -523.9201
  11   2.0000     -19.221916      -523.0549
  12   2.0000     -19.208408      -522.6874
  13   2.0000     -19.196445      -522.3618
  14   2.0000     -19.195087      -522.3249
  15   2.0000     -14.443030      -393.0148
  16   2.0000     -14.435015      -392.7967
  17   2.0000     -14.432140      -392.7185
  18   2.0000     -14.431252      -392.6943
  19   2.0000     -14.430794      -392.6819
  20   2.0000     -14.430212      -392.6660
  21   2.0000     -14.425104      -392.5270
  22   2.0000     -14.409210      -392.0945
  23   2.0000     -14.407198      -392.0398
  24   2.0000     -10.387242      -282.6512
  25   2.0000     -10.386229      -282.6237
  26   2.0000     -10.380703      -282.4733
  27   2.0000     -10.379885      -282.4510
  28   2.0000     -10.375344      -282.3275
  29   2.0000     -10.374929      -282.3162
  30   2.0000     -10.374365      -282.3008
  31   2.0000     -10.373903      -282.2883
  32   2.0000     -10.367464      -282.1130
  33   2.0000     -10.363792      -282.0131
  34   2.0000     -10.359386      -281.8932
  35   2.0000     -10.354082      -281.7489
  36   2.0000     -10.353957      -281.7455
  37   2.0000     -10.352229      -281.6985
  38   2.0000     -10.340756      -281.3863
  39   2.0000     -10.332996      -281.1751
  40   2.0000     -10.332519      -281.1621
  41   2.0000     -10.331627      -281.1379
  42   2.0000     -10.331372      -281.1309
  43   2.0000     -10.329091      -281.0689
  44   2.0000     -10.327759      -281.0326
  45   2.0000     -10.327521      -281.0261
  46   2.0000     -10.324458      -280.9428
  47   2.0000     -10.324424      -280.9419
  48   2.0000     -10.322620      -280.8928
  49   2.0000     -10.322403      -280.8869
  50   2.0000     -10.321883      -280.8727
  51   2.0000     -10.320910      -280.8462
  52   2.0000     -10.320582      -280.8373
  53   2.0000     -10.316865      -280.7362
  54   2.0000     -10.316563      -280.7279
  55   2.0000     -10.314801      -280.6800
  56   2.0000     -10.313397      -280.6418
  57   2.0000     -10.311822      -280.5989
  58   2.0000     -10.310026      -280.5501
  59   2.0000     -10.309852      -280.5453
  60   2.0000     -10.308195      -280.5002
  61   2.0000     -10.308146      -280.4989
  62   2.0000     -10.307481      -280.4808
  63   2.0000     -10.306884      -280.4646
  64   2.0000     -10.306428      -280.4522
  65   2.0000     -10.305937      -280.4388
  66   2.0000     -10.304251      -280.3929
  67   2.0000     -10.304030      -280.3869
  68   2.0000     -10.303719      -280.3785
  69   2.0000     -10.299749      -280.2704
  70   2.0000     -10.299365      -280.2600
  71   2.0000     -10.295861      -280.1646
  72   2.0000     -10.295756      -280.1618
  73   2.0000     -10.295463      -280.1538
  74   2.0000     -10.294440      -280.1260
  75   2.0000     -10.294386      -280.1245
  76   2.0000     -10.292861      -280.0830
  77   2.0000     -10.287831      -279.9461
  78   2.0000     -10.286296      -279.9043
  79   2.0000     -10.286264      -279.9035
  80   2.0000     -10.283328      -279.8236
  81   2.0000      -8.109792      -220.6787
  82   2.0000      -8.108106      -220.6328
  83   2.0000      -8.061972      -219.3774
  84   2.0000      -6.081053      -165.4739
  85   2.0000      -6.079418      -165.4294
  86   2.0000      -6.073324      -165.2636
  87   2.0000      -6.072096      -165.2301
  88   2.0000      -6.071709      -165.2196
  89   2.0000      -6.070335      -165.1822
  90   2.0000      -6.031417      -164.1232
  91   2.0000      -6.026862      -163.9992
  92   2.0000      -6.024241      -163.9279
  93   2.0000      -1.326091       -36.0848
  94   2.0000      -1.315224       -35.7891
  95   2.0000      -1.311180       -35.6790
  96   2.0000      -1.300398       -35.3856
  97   2.0000      -1.187146       -32.3039
  98   2.0000      -1.179753       -32.1027
  99   2.0000      -1.161001       -31.5924
 100   2.0000      -1.151985       -31.3471
 101   2.0000      -1.143616       -31.1194
 102   2.0000      -1.138514       -30.9805
 103   2.0000      -1.123599       -30.5747
 104   2.0000      -1.122115       -30.5343
 105   2.0000      -1.119648       -30.4672
 106   2.0000      -1.116997       -30.3950
 107   2.0000      -1.035570       -28.1793
 108   2.0000      -1.029976       -28.0271
 109   2.0000      -1.012726       -27.5577
 110   2.0000      -1.012221       -27.5439
 111   2.0000      -1.005765       -27.3683
 112   2.0000      -0.998506       -27.1707
 113   2.0000      -0.997006       -27.1299
 114   2.0000      -0.990233       -26.9456
 115   2.0000      -0.987567       -26.8731
 116   2.0000      -0.978904       -26.6373
 117   2.0000      -0.977217       -26.5914
 118   2.0000      -0.972268       -26.4568
 119   2.0000      -0.968218       -26.3465
 120   2.0000      -0.959861       -26.1192
 121   2.0000      -0.938790       -25.5458
 122   2.0000      -0.923528       -25.1305
 123   2.0000      -0.915528       -24.9128
 124   2.0000      -0.904093       -24.6016
 125   2.0000      -0.899769       -24.4840
 126   2.0000      -0.894462       -24.3395
 127   2.0000      -0.888965       -24.1900
 128   2.0000      -0.883362       -24.0375
 129   2.0000      -0.880851       -23.9692
 130   2.0000      -0.873692       -23.7744
 131   2.0000      -0.865934       -23.5633
 132   2.0000      -0.862621       -23.4731
 133   2.0000      -0.848080       -23.0774
 134   2.0000      -0.846793       -23.0424
 135   2.0000      -0.833692       -22.6859
 136   2.0000      -0.829855       -22.5815
 137   2.0000      -0.827193       -22.5091
 138   2.0000      -0.804797       -21.8996
 139   2.0000      -0.797316       -21.6961
 140   2.0000      -0.795283       -21.6408
 141   2.0000      -0.787479       -21.4284
 142   2.0000      -0.786392       -21.3988
 143   2.0000      -0.778350       -21.1800
 144   2.0000      -0.774498       -21.0752
 145   2.0000      -0.758559       -20.6414
 146   2.0000      -0.749794       -20.4029
 147   2.0000      -0.746913       -20.3245
 148   2.0000      -0.735911       -20.0251
 149   2.0000      -0.726264       -19.7627
 150   2.0000      -0.722345       -19.6560
 151   2.0000      -0.717484       -19.5237
 152   2.0000      -0.711442       -19.3593
 153   2.0000      -0.710142       -19.3239
 154   2.0000      -0.702130       -19.1059
 155   2.0000      -0.699893       -19.0451
 156   2.0000      -0.697141       -18.9702
 157   2.0000      -0.695075       -18.9139
 158   2.0000      -0.686208       -18.6727
 159   2.0000      -0.678450       -18.4616
 160   2.0000      -0.675106       -18.3706
 161   2.0000      -0.672123       -18.2894
 162   2.0000      -0.664225       -18.0745
 163   2.0000      -0.654332       -17.8053
 164   2.0000      -0.651421       -17.7261
 165   2.0000      -0.648577       -17.6487
 166   2.0000      -0.646931       -17.6039
 167   2.0000      -0.640333       -17.4243
 168   2.0000      -0.635746       -17.2995
 169   2.0000      -0.634767       -17.2729
 170   2.0000      -0.631893       -17.1947
 171   2.0000      -0.623538       -16.9673
 172   2.0000      -0.622562       -16.9408
 173   2.0000      -0.620346       -16.8805
 174   2.0000      -0.615262       -16.7421
 175   2.0000      -0.608029       -16.5453
 176   2.0000      -0.605931       -16.4882
 177   2.0000      -0.601539       -16.3687
 178   2.0000      -0.598692       -16.2912
 179   2.0000      -0.590524       -16.0690
 180   2.0000      -0.587798       -15.9948
 181   2.0000      -0.581778       -15.8310
 182   2.0000      -0.580730       -15.8025
 183   2.0000      -0.580110       -15.7856
 184   2.0000      -0.579880       -15.7793
 185   2.0000      -0.576685       -15.6924
 186   2.0000      -0.575352       -15.6561
 187   2.0000      -0.566327       -15.4106
 188   2.0000      -0.565832       -15.3971
 189   2.0000      -0.562981       -15.3195
 190   2.0000      -0.560299       -15.2465
 191   2.0000      -0.559341       -15.2205
 192   2.0000      -0.555093       -15.1048
 193   2.0000      -0.551989       -15.0204
 194   2.0000      -0.551479       -15.0065
 195   2.0000      -0.550682       -14.9848
 196   2.0000      -0.549023       -14.9397
 197   2.0000      -0.547841       -14.9075
 198   2.0000      -0.546270       -14.8648
 199   2.0000      -0.545739       -14.8503
 200   2.0000      -0.545386       -14.8407
 201   2.0000      -0.541768       -14.7423
 202   2.0000      -0.537881       -14.6365
 203   2.0000      -0.535654       -14.5759
 204   2.0000      -0.531700       -14.4683
 205   2.0000      -0.530532       -14.4365
 206   2.0000      -0.528266       -14.3748
 207   2.0000      -0.527817       -14.3626
 208   2.0000      -0.526189       -14.3183
 209   2.0000      -0.523417       -14.2429
 210   2.0000      -0.522210       -14.2101
 211   2.0000      -0.521224       -14.1832
 212   2.0000      -0.519096       -14.1253
 213   2.0000      -0.517297       -14.0764
 214   2.0000      -0.512715       -13.9517
 215   2.0000      -0.510962       -13.9040
 216   2.0000      -0.506696       -13.7879
 217   2.0000      -0.505850       -13.7649
 218   2.0000      -0.504001       -13.7146
 219   2.0000      -0.501810       -13.6549
 220   2.0000      -0.500471       -13.6185
 221   2.0000      -0.498713       -13.5707
 222   2.0000      -0.492205       -13.3936
 223   2.0000      -0.489324       -13.3152
 224   2.0000      -0.487965       -13.2782
 225   2.0000      -0.486164       -13.2292
 226   2.0000      -0.481726       -13.1084
 227   2.0000      -0.478876       -13.0309
 228   2.0000      -0.477213       -12.9856
 229   2.0000      -0.475080       -12.9276
 230   2.0000      -0.469968       -12.7885
 231   2.0000      -0.468823       -12.7573
 232   2.0000      -0.467445       -12.7198
 233   2.0000      -0.464329       -12.6350
 234   2.0000      -0.464087       -12.6284
 235   2.0000      -0.463195       -12.6042
 236   2.0000      -0.462425       -12.5832
 237   2.0000      -0.460221       -12.5233
 238   2.0000      -0.458432       -12.4746
 239   2.0000      -0.456425       -12.4200
 240   2.0000      -0.454938       -12.3795
 241   2.0000      -0.452415       -12.3108
 242   2.0000      -0.449429       -12.2296
 243   2.0000      -0.445332       -12.1181
 244   2.0000      -0.444244       -12.0885
 245   2.0000      -0.440934       -11.9984
 246   2.0000      -0.439926       -11.9710
 247   2.0000      -0.439153       -11.9500
 248   2.0000      -0.437863       -11.9149
 249   2.0000      -0.437072       -11.8933
 250   2.0000      -0.434711       -11.8291
 251   2.0000      -0.434297       -11.8178
 252   2.0000      -0.429169       -11.6783
 253   2.0000      -0.423218       -11.5163
 254   2.0000      -0.422592       -11.4993
 255   2.0000      -0.419655       -11.4194
 256   2.0000      -0.418670       -11.3926
 257   2.0000      -0.417103       -11.3499
 258   2.0000      -0.409061       -11.1311
 259   2.0000      -0.406305       -11.0561
 260   2.0000      -0.403798       -10.9879
 261   2.0000      -0.401263       -10.9189
 262   2.0000      -0.400369       -10.8946
 263   2.0000      -0.395295       -10.7565
 264   2.0000      -0.394490       -10.7346
 265   2.0000      -0.389411       -10.5964
 266   2.0000      -0.386454       -10.5160
 267   2.0000      -0.382845       -10.4178
 268   2.0000      -0.377621       -10.2756
 269   2.0000      -0.369325       -10.0499
 270   2.0000      -0.366941        -9.9850
 271   2.0000      -0.359844        -9.7919
 272   2.0000      -0.351866        -9.5747
 273   2.0000      -0.346960        -9.4413
 274   2.0000      -0.341698        -9.2981
 275   2.0000      -0.340364        -9.2618
 276   2.0000      -0.335878        -9.1397
 277   2.0000      -0.332911        -9.0590
 278   2.0000      -0.328189        -8.9305
 279   2.0000      -0.325159        -8.8480
 280   2.0000      -0.322659        -8.7800
 281   2.0000      -0.315529        -8.5860
 282   2.0000      -0.310223        -8.4416
 283   2.0000      -0.308230        -8.3874
 284   2.0000      -0.307392        -8.3646
 285   2.0000      -0.298426        -8.1206
 286   2.0000      -0.291885        -7.9426
 287   2.0000      -0.286533        -7.7970
 288   2.0000      -0.265825        -7.2335
 289   0.0000      -0.099615        -2.7107
 290   0.0000      -0.091381        -2.4866
 291   0.0000      -0.063734        -1.7343
 292   0.0000      -0.059798        -1.6272
 293   0.0000      -0.055615        -1.5134

MULLIKEN ATOMIC CHARGES
-----------------------
   0 C :   -0.106979
   1 C :    0.242057
   2 F :   -0.169246
   3 C :    0.241590
   4 F :   -0.170065
   5 C :   -0.104754
   6 C :    0.115366
   7 C :    0.112901
   8 C :   -0.084491
   9 C :    0.056383
  10 C :    0.006775
  11 C :   -0.084015
  12 C :    0.158702
  13 O :   -0.138307
  14 C :   -0.046016
  15 C :    0.298392
  16 C :   -0.344587
  17 C :   -0.190302
  18 N :    0.154327
  19 C :   -0.183162
  20 N :    0.153579
  21 C :   -0.104983
  22 C :   -0.001066
  23 C :    0.132097
  24 O :   -0.323003
  25 C :    0.173166
  26 C :    0.119188
  27 O :   -0.315302
  28 C :    0.209167
  29 C :   -0.000678
  30 C :    0.040236
  31 C :    0.006073
  32 N :   -0.300264
  33 S :    0.504953
  34 N :   -0.246373
  35 C :   -0.187796
  36 C :    0.030933
  37 C :    0.188155
  38 O :   -0.164580
  39 N :   -0.309987
  40 C :    0.141678
  41 C :    0.185962
  42 O :   -0.163652
  43 C :    0.054562
  44 C :   -0.273505
  45 S :    0.220156
  46 C :    0.130470
  47 C :   -0.001138
  48 O :   -0.360909
  49 C :    0.198383
  50 C :    0.185590
  51 O :   -0.289238
  52 C :    0.197765
  53 C :   -0.051524
  54 C :    0.005093
  55 C :    0.002183
  56 N :   -0.235824
  57 S :    0.518829
  58 N :   -0.293958
  59 C :    0.011988
  60 C :   -0.105951
  61 C :    0.132864
  62 O :   -0.141362
  63 C :    0.011319
  64 C :   -0.085269
  65 C :    0.112563
  66 C :    0.111141
  67 C :   -0.106485
  68 C :    0.238805
  69 C :    0.235343
  70 C :   -0.103209
  71 F :   -0.174752
  72 F :   -0.173495
  73 C :   -0.083197
  74 C :    0.033933
  75 C :    0.336320
  76 C :   -0.343928
  77 C :   -0.174008
  78 N :    0.150857
  79 C :   -0.184442
  80 N :    0.148036
  81 H :    0.009006
  82 H :    0.000500
  83 H :   -0.003809
  84 H :   -0.010069
  85 H :    0.046999
  86 H :    0.054299
  87 H :    0.050033
  88 H :    0.037823
  89 H :    0.020107
  90 H :    0.033694
  91 H :    0.030943
  92 H :    0.042715
  93 H :    0.044267
  94 H :    0.033890
  95 H :    0.035566
  96 H :    0.043341
  97 H :    0.035851
  98 H :    0.032952
  99 H :    0.038443
 100 H :    0.025410
 101 H :    0.023844
 102 H :   -0.010558
 103 H :    0.006121
 104 H :   -0.001870
 105 H :   -0.005575
Sum of atomic charges:   -0.0000000

LOEWDIN ATOMIC CHARGES
----------------------
   0 C :   -0.028711
   1 C :    0.067341
   2 F :   -0.047223
   3 C :    0.069485
   4 F :   -0.047454
   5 C :   -0.033191
   6 C :   -0.006723
   7 C :   -0.006431
   8 C :    0.020137
   9 C :   -0.022498
  10 C :   -0.047361
  11 C :    0.029873
  12 C :    0.086241
  13 O :   -0.135271
  14 C :   -0.072454
  15 C :    0.081962
  16 C :   -0.136159
  17 C :   -0.014581
  18 N :   -0.055501
  19 C :   -0.018841
  20 N :   -0.046759
  21 C :    0.074272
  22 C :   -0.082066
  23 C :    0.060347
  24 O :   -0.083649
  25 C :    0.083767
  26 C :    0.055490
  27 O :   -0.099306
  28 C :    0.080902
  29 C :   -0.065373
  30 C :   -0.042988
  31 C :   -0.034717
  32 N :   -0.298133
  33 S :    0.639436
  34 N :   -0.264445
  35 C :   -0.128228
  36 C :   -0.083863
  37 C :    0.088778
  38 O :   -0.164962
  39 N :   -0.037217
  40 C :    0.036156
  41 C :    0.089117
  42 O :   -0.163240
  43 C :   -0.075077
  44 C :   -0.145556
  45 S :    0.500898
  46 C :   -0.031234
  47 C :    0.019884
  48 O :   -0.137297
  49 C :    0.078884
  50 C :    0.080962
  51 O :   -0.076410
  52 C :    0.084864
  53 C :   -0.079188
  54 C :   -0.042393
  55 C :   -0.048293
  56 N :   -0.254878
  57 S :    0.652221
  58 N :   -0.295137
  59 C :    0.083181
  60 C :   -0.082695
  61 C :    0.084421
  62 O :   -0.142894
  63 C :   -0.052438
  64 C :    0.027859
  65 C :   -0.010254
  66 C :   -0.006026
  67 C :   -0.030922
  68 C :    0.065392
  69 C :    0.065160
  70 C :   -0.033686
  71 F :   -0.051935
  72 F :   -0.051028
  73 C :    0.013261
  74 C :   -0.014449
  75 C :    0.081812
  76 C :   -0.136552
  77 C :   -0.006767
  78 N :   -0.063725
  79 C :   -0.016907
  80 N :   -0.056730
  81 H :    0.048199
  82 H :    0.045288
  83 H :    0.040365
  84 H :    0.040449
  85 H :    0.044179
  86 H :    0.026075
  87 H :    0.025553
  88 H :    0.032174
  89 H :    0.016686
  90 H :    0.018275
  91 H :    0.022352
  92 H :    0.034264
  93 H :    0.035212
  94 H :    0.028951
  95 H :    0.019912
  96 H :    0.021350
  97 H :    0.025292
  98 H :    0.021299
  99 H :    0.027100
 100 H :    0.019118
 101 H :    0.046057
 102 H :    0.039489
 103 H :    0.046892
 104 H :    0.044026
 105 H :    0.039153

  Mayer bond orders larger than 0.100000
B(  0-C ,  1-C ) :   1.4448 B(  0-C ,  5-C ) :   0.1083 B(  0-C ,  7-C ) :   1.1849
B(  0-C , 81-H ) :   1.0070 B(  1-C ,  2-F ) :   1.1364 B(  1-C ,  3-C ) :   1.1878
B(  3-C ,  4-F ) :   1.1354 B(  3-C ,  5-C ) :   1.4439 B(  5-C ,  6-C ) :   1.1920
B(  5-C , 82-H ) :   1.0074 B(  6-C ,  7-C ) :   1.2526 B(  6-C , 11-C ) :   1.1938
B(  7-C ,  8-C ) :   1.2258 B(  8-C ,  9-C ) :   1.4388 B(  8-C , 83-H ) :   0.9910
B(  9-C , 10-C ) :   1.2210 B(  9-C , 15-C ) :   0.9999 B( 10-C , 11-C ) :   1.4727
B( 10-C , 12-C ) :   0.9318 B( 11-C , 84-H ) :   1.0171 B( 12-C , 13-O ) :   2.2593
B( 12-C , 14-C ) :   0.9097 B( 14-C , 15-C ) :   1.0404 B( 14-C , 21-C ) :   1.7434
B( 15-C , 16-C ) :   1.6578 B( 16-C , 17-C ) :   1.1514 B( 16-C , 19-C ) :   1.1348
B( 17-C , 18-N ) :   2.9767 B( 19-C , 20-N ) :   2.9738 B( 21-C , 22-C ) :   0.9922
B( 21-C , 85-H ) :   0.9293 B( 22-C , 23-C ) :   1.3975 B( 22-C , 29-C ) :   0.1103
B( 22-C , 31-C ) :   1.1939 B( 23-C , 24-O ) :   1.1917 B( 23-C , 26-C ) :   1.1005
B( 24-O , 25-C ) :   0.9247 B( 25-C , 86-H ) :   0.9516 B( 25-C , 87-H ) :   0.9727
B( 25-C , 88-H ) :   0.9698 B( 26-C , 27-O ) :   1.2163 B( 26-C , 29-C ) :   1.4991
B( 27-O , 28-C ) :   0.9160 B( 28-C , 89-H ) :   0.9742 B( 28-C , 90-H ) :   0.9776
B( 28-C , 91-H ) :   0.9748 B( 29-C , 30-C ) :   1.2102 B( 29-C , 35-C ) :   1.0465
B( 30-C , 31-C ) :   1.1643 B( 30-C , 34-N ) :   1.5534 B( 31-C , 32-N ) :   1.5357
B( 32-N , 33-S ) :   1.2425 B( 32-N , 34-N ) :   0.1433 B( 33-S , 34-N ) :   1.2686
B( 35-C , 36-C ) :   1.5678 B( 35-C , 45-S ) :   1.1330 B( 36-C , 37-C ) :   0.8852
B( 36-C , 43-C ) :   1.2538 B( 37-C , 38-O ) :   2.2006 B( 37-C , 39-N ) :   1.0676
B( 39-N , 40-C ) :   0.9462 B( 39-N , 41-C ) :   1.0750 B( 40-C , 92-H ) :   0.9642
B( 40-C , 93-H ) :   0.9663 B( 40-C , 94-H ) :   0.9815 B( 41-C , 42-O ) :   2.1916
B( 41-C , 43-C ) :   0.8800 B( 43-C , 44-C ) :   1.5584 B( 44-C , 45-S ) :   1.1404
B( 44-C , 46-C ) :   1.0269 B( 46-C , 47-C ) :   1.4540 B( 46-C , 53-C ) :   0.1162
B( 46-C , 55-C ) :   1.2004 B( 47-C , 48-O ) :   1.1349 B( 47-C , 50-C ) :   1.1334
B( 48-O , 49-C ) :   0.9095 B( 49-C , 95-H ) :   0.9660 B( 49-C , 96-H ) :   0.9657
B( 49-C , 97-H ) :   0.9797 B( 50-C , 51-O ) :   1.2730 B( 50-C , 53-C ) :   1.4031
B( 51-O , 52-C ) :   0.9221 B( 52-C , 98-H ) :   0.9727 B( 52-C , 99-H ) :   0.9773
B( 52-C ,100-H ) :   0.9754 B( 53-C , 54-C ) :   1.1812 B( 53-C , 59-C ) :   1.0866
B( 54-C , 55-C ) :   1.1492 B( 54-C , 58-N ) :   1.5373 B( 55-C , 56-N ) :   1.5545
B( 56-N , 57-S ) :   1.2805 B( 56-N , 58-N ) :   0.1395 B( 57-S , 58-N ) :   1.2408
B( 59-C , 60-C ) :   1.6690 B( 59-C ,101-H ) :   0.9415 B( 60-C , 61-C ) :   0.9437
B( 60-C , 75-C ) :   1.0313 B( 61-C , 62-O ) :   2.2800 B( 61-C , 63-C ) :   0.9133
B( 63-C , 64-C ) :   1.4763 B( 63-C , 74-C ) :   1.2203 B( 64-C , 65-C ) :   1.1955
B( 64-C ,102-H ) :   1.0150 B( 65-C , 66-C ) :   1.2535 B( 65-C , 70-C ) :   1.1945
B( 66-C , 67-C ) :   1.1895 B( 66-C , 73-C ) :   1.2152 B( 67-C , 68-C ) :   1.4443
B( 67-C , 70-C ) :   0.1086 B( 67-C ,103-H ) :   1.0065 B( 68-C , 69-C ) :   1.1908
B( 68-C , 72-F ) :   1.1327 B( 69-C , 70-C ) :   1.4456 B( 69-C , 71-F ) :   1.1300
B( 70-C ,104-H ) :   1.0062 B( 73-C , 74-C ) :   1.4590 B( 73-C ,105-H ) :   0.9936
B( 74-C , 75-C ) :   1.0055 B( 75-C , 76-C ) :   1.6465 B( 76-C , 77-C ) :   1.1644
B( 76-C , 79-C ) :   1.1449 B( 77-C , 78-N ) :   2.9951 B( 79-C , 80-N ) :   2.9825

-----------------------------------------------------------------------------
         ABSORPTION SPECTRUM VIA TRANSITION ELECTRIC DIPOLE MOMENTS
-----------------------------------------------------------------------------
State   Energy  Wavelength   fosc         T2         TX        TY        TZ
        (cm-1)    (nm)                  (au**2)     (au)      (au)      (au)
-----------------------------------------------------------------------------
   0   20238.5    494.1   1.113327976  18.11010   0.71683  -4.12920   0.73887
   1   21657.1    461.7   0.051770754   0.78697   0.71807   0.51782   0.05658
   2   25314.6    395.0   0.046506624   0.60481   0.55290   0.44008   0.32472
   3   25959.3    385.2   0.038622426   0.48980  -0.07439  -0.36480   0.59262
   4   26467.2    377.8   0.103828736   1.29147   0.15014   0.86047   0.72699
   5   27626.9    362.0   0.134893033   1.60743   0.15402  -1.23460   0.24385
   6   28191.5    354.7   0.111541581   1.30255   0.92172   0.62187   0.25740
   7   28468.3    351.3   0.085474418   0.98844  -0.39904  -0.84633   0.33606
   8   28780.8    347.5   0.012809948   0.14653  -0.23670  -0.29870   0.03575
   9   29079.4    343.9   0.006411182   0.07258  -0.03322  -0.20481   0.17184
  10   29371.0    340.5   0.044940183   0.50372   0.02472  -0.14721   0.69386
  11   29434.3    339.7   0.017254465   0.19298  -0.03004   0.05885   0.43430
  12   29753.0    336.1   0.173490916   1.91965   1.04567  -0.90119   0.11871
  13   29864.9    334.8   0.033071568   0.36456   0.59276  -0.02251  -0.11264
  14   30222.6    330.9   0.132226116   1.44033   0.58966   1.03284  -0.16085
  15   31378.0    318.7   0.022688570   0.23804   0.03130  -0.00309   0.48688
  16   31733.8    315.1   0.039800603   0.41290  -0.26557   0.52587  -0.25658
  17   32189.2    310.7   0.018376157   0.18794   0.41629   0.10911   0.05229
  18   32608.2    306.7   0.127124945   1.28345  -0.79815  -0.45577  -0.66234
  19   32927.8    303.7   0.035020263   0.35013  -0.53771   0.22302  -0.10613
  20   33208.4    301.1   0.071225247   0.70609   0.09026  -0.80162  -0.23526
  21   33497.8    298.5   0.015260630   0.14998   0.36772   0.03179  -0.11727
  22   33862.2    295.3   0.099246678   0.96489   0.96053  -0.11462   0.17067
  23   34119.6    293.1   0.397332540   3.83377  -0.20708  -1.93831   0.18395
  24   34257.5    291.9   0.175734928   1.68880   0.23548   1.27759   0.03357
  25   34544.2    289.5   0.120476237   1.14816  -0.50156  -0.94567   0.04807
  26   34741.2    287.8   0.051238979   0.48555  -0.49004   0.46449  -0.17222
  27   34917.9    286.4   0.205787901   1.94020   0.37161   1.24332  -0.50623
  28   35161.9    284.4   0.327283831   3.06428  -1.70856  -0.07131  -0.37421
  29   35310.8    283.2   0.131497790   1.22599  -1.00550   0.41053   0.21547
  30   35397.5    282.5   0.058819622   0.54705   0.02187   0.46877  -0.57168
  31   35530.5    281.4   0.065816325   0.60983   0.55341   0.02829   0.55024
  32   35747.7    279.7   0.030299143   0.27903  -0.27216  -0.41063  -0.19066
  33   35912.9    278.5   0.157658848   1.44525   0.90488   0.08850   0.78652
  34   35999.9    277.8   0.118000722   1.07909   0.99207  -0.00016  -0.30804
  35   36350.1    275.1   0.101686323   0.92094   0.82515   0.33489  -0.35766
  36   36680.3    272.6   0.058003118   0.52059   0.29936  -0.22291   0.61748
  37   37189.0    268.9   0.095104722   0.84191   0.61057   0.59052   0.34699
  38   37428.4    267.2   0.173733511   1.52812  -0.20862  -1.21813  -0.02763
  39   37704.9    265.2   0.061683942   0.53858  -0.34200   0.64808  -0.04002
  40   37857.9    264.1   0.075962144   0.66057  -0.11661   0.77231   0.22472
  41   38124.4    262.3   0.039380975   0.34006   0.42924   0.38003  -0.10677
  42   38255.0    261.4   0.091008585   0.78319   0.50751   0.36907  -0.62403
  43   38612.4    259.0   0.154252296   1.31517   0.03953   0.94316   0.65120
  44   38759.0    258.0   0.027200723   0.23104   0.33480   0.14007   0.31517
  45   38950.6    256.7   0.056908972   0.48100  -0.26945  -0.17565  -0.61445
  46   39265.0    254.7   0.023810763   0.19964   0.09101  -0.33321  -0.28342
  47   39698.1    251.9   0.018419651   0.15275   0.06568  -0.32988   0.19904
  48   39734.6    251.7   0.074496541   0.61722  -0.03004  -0.42285  -0.66145
  49   39844.1    251.0   0.015156894   0.12523  -0.21026   0.28255   0.03451
  50   40031.1    249.8   0.035280175   0.29014  -0.37689   0.36193   0.13077
  51   40121.8    249.2   0.026166150   0.21470   0.27731  -0.31070   0.20314
  52   40162.3    249.0   0.044313324   0.36324  -0.08414   0.57523  -0.15895
  53   40241.0    248.5   0.010666597   0.08726   0.11600   0.22309  -0.15504

FINAL SINGLE POINT ENERGY     -4870.651202239124

DIPOLE MOMENT
-------------
                                X             Y             Z
Electronic contribution:     17.27473      -7.14360      32.44739
Nuclear contribution   :    -17.38307       7.72670     -34.99445
                        -----------------------------------------
Total Dipole Moment    :     -0.10834       0.58310      -2.54706
                        -----------------------------------------
Magnitude (a.u.)       :      2.61520
Magnitude (Debye)      :      6.64731

Rotational constants in cm-1:     0.001822     0.000237     0.000229
Rotational constants in MHz :    54.625342     7.094192     6.875095

                             ****ORCA TERMINATED NORMALLY****
TOTAL RUN TIME: 0 days 0 hours 12 minutes 22 seconds 420 msec
