                         Program Version 4.2.0 -  RELEASE  -
|  1> # ORCA input file
|  2> # SCF done       -168.499002491354          0.000863323067
|  3> ! CAM-B3LYP def2-SVP def2/J RIJCOSX Grid4 TightSCF
|  4> %maxcore 5000
|  5> %tddft
|  6>     Mode sTDDFT
|  7>     Ethresh 5.0
|  8>     maxcore 5000
|  9> end
| 10>
| 11> %pal
| 12>   nprocs 6
| 13>   end
| 14> * xyz 0 1
| 15>    C       -5.03328         8.24919        -6.47768
| 16>    C       -3.86907         8.48766        -5.80388
| 17>    C       -3.76941         8.38309        -4.40191
| 18>    C       -4.83118         8.03404        -3.59109
| 19>    C       -6.06049         7.78180        -4.26397
| 20>    C       -6.15066         7.89063        -5.70109
| 21>    N       -7.39535         7.60024        -6.03432
| 22>    O       -8.03089         7.33255        -4.90051
| 23>    N       -7.25443         7.43418        -3.82592
| 24>    C       -4.73084         7.91549        -2.16710
| 25>    C       -5.73645         7.57370        -1.28233
| 26>    C       -5.28007         7.53299         0.03465
| 27>    C       -3.91154         7.84817         0.15098
| 28>    S       -3.19617         8.19756        -1.35674
| 29>    C       -3.52936         7.75543         1.50869
| 30>    C       -4.66477         7.38095         2.25908
| 31>    C       -5.79956         7.23512         1.35903
| 32>    C       -7.07325         6.88396         1.69501
| 33>    C       -7.44873         6.61282         3.02853
| 34>    N       -7.76440         6.39006         4.10807
| 35>    C       -8.10727         6.76417         0.74135
| 36>    N       -8.95945         6.65731        -0.01765
| 37>    C       -4.39035         7.23098         3.60962
| 38>    C       -3.05321         7.48275         3.90025
| 39>    S       -2.12829         7.92926         2.47414
| 40>    C       -2.42104         7.36690         5.16267
| 41>    C       -1.03850         7.61958         5.31128
| 42>    C       -0.34915         7.42630         6.56152
| 43>    N        0.96374         7.66551         6.63394
| 44>    C        1.61674         8.07755         5.57308
| 45>    C        0.93085         8.27341         4.33159
| 46>    N       -0.35703         8.03935         4.24094
| 47>    C        1.63228         8.72153         3.18568
| 48>    N        2.22213         9.08786         2.27473
| 49>    C        3.00750         8.32563         5.67336
| 50>    N        4.13427         8.52414         5.72705
| 51>    C       -1.00770         6.97068         7.72602
| 52>    C       -2.40282         6.76751         7.59493
| 53>    C       -3.09484         6.96220         6.34043
| 54>    N       -4.39692         6.70210         6.45752
| 55>    S       -4.72475         6.26661         7.96490
| 56>    N       -3.23923         6.37689         8.55653
| 57>    C       -0.28772         6.71083         8.91804
| 58>    C       -0.80006         6.21122        10.11123
| 59>    C        0.18998         6.02644        11.06389
| 60>    C        1.47106         6.39467        10.59945
| 61>    S        1.44978         6.96570         8.98743
| 62>    C        2.40098         6.14922        11.63530
| 63>    C        1.71941         5.62645        12.75235
| 64>    C        0.30561         5.53255        12.42836
| 65>    C       -0.70094         5.06484        13.22002
| 66>    C       -0.48224         4.60017        14.53504
| 67>    N       -0.32540         4.21623        15.60355
| 68>    C       -2.03919         5.00708        12.77458
| 69>    N       -3.12855         4.95179        12.42115
| 70>    C        2.56902         5.33420        13.81872
| 71>    C        3.88726         5.62814        13.52434
| 72>    S        4.07953         6.28180        11.90340
| 73>    C        5.02773         5.44147        14.37069
| 74>    C        6.31612         5.76383        13.99297
| 75>    C        7.43731         5.56791        14.82422
| 76>    C        7.33777         5.03869        16.07975
| 77>    C        6.04645         4.69253        16.51892
| 78>    C        4.89049         4.88999        15.67629
| 79>    N        3.83988         4.47452        16.35598
| 80>    O        4.29885         4.05105        17.52988
| 81>    N        5.61477         4.17043        17.65281
| 82>    H       -5.11775         8.32402        -7.54822
| 83>    H       -2.98241         8.76642        -6.35301
| 84>    H       -2.81232         8.58589        -3.94305
| 85>    H       -6.73921         7.36540        -1.60910
| 86>    H       -5.09272         6.94739         4.37158
| 87>    H       -1.84622         6.00030        10.23532
| 88>    H        2.27251         4.92552        14.76779
| 89>    H        6.47765         6.18618        13.01155
| 90>    H        8.40558         5.85066        14.43976
| 91>    H        8.18873         4.88358        16.72053
| 92> *
| 93>
| 94>                          ****END OF INPUT****

CARTESIAN COORDINATES (ANGSTROEM)
---------------------------------
  C     -5.033280    8.249190   -6.477680
  C     -3.869070    8.487660   -5.803880
  C     -3.769410    8.383090   -4.401910
  C     -4.831180    8.034040   -3.591090
  C     -6.060490    7.781800   -4.263970
  C     -6.150660    7.890630   -5.701090
  N     -7.395350    7.600240   -6.034320
  O     -8.030890    7.332550   -4.900510
  N     -7.254430    7.434180   -3.825920
  C     -4.730840    7.915490   -2.167100
  C     -5.736450    7.573700   -1.282330
  C     -5.280070    7.532990    0.034650
  C     -3.911540    7.848170    0.150980
  S     -3.196170    8.197560   -1.356740
  C     -3.529360    7.755430    1.508690
  C     -4.664770    7.380950    2.259080
  C     -5.799560    7.235120    1.359030
  C     -7.073250    6.883960    1.695010
  C     -7.448730    6.612820    3.028530
  N     -7.764400    6.390060    4.108070
  C     -8.107270    6.764170    0.741350
  N     -8.959450    6.657310   -0.017650
  C     -4.390350    7.230980    3.609620
  C     -3.053210    7.482750    3.900250
  S     -2.128290    7.929260    2.474140
  C     -2.421040    7.366900    5.162670
  C     -1.038500    7.619580    5.311280
  C     -0.349150    7.426300    6.561520
  N      0.963740    7.665510    6.633940
  C      1.616740    8.077550    5.573080
  C      0.930850    8.273410    4.331590
  N     -0.357030    8.039350    4.240940
  C      1.632280    8.721530    3.185680
  N      2.222130    9.087860    2.274730
  C      3.007500    8.325630    5.673360
  N      4.134270    8.524140    5.727050
  C     -1.007700    6.970680    7.726020
  C     -2.402820    6.767510    7.594930
  C     -3.094840    6.962200    6.340430
  N     -4.396920    6.702100    6.457520
  S     -4.724750    6.266610    7.964900
  N     -3.239230    6.376890    8.556530
  C     -0.287720    6.710830    8.918040
  C     -0.800060    6.211220   10.111230
  C      0.189980    6.026440   11.063890
  C      1.471060    6.394670   10.599450
  S      1.449780    6.965700    8.987430
  C      2.400980    6.149220   11.635300
  C      1.719410    5.626450   12.752350
  C      0.305610    5.532550   12.428360
  C     -0.700940    5.064840   13.220020
  C     -0.482240    4.600170   14.535040
  N     -0.325400    4.216230   15.603550
  C     -2.039190    5.007080   12.774580
  N     -3.128550    4.951790   12.421150
  C      2.569020    5.334200   13.818720
  C      3.887260    5.628140   13.524340
  S      4.079530    6.281800   11.903400
  C      5.027730    5.441470   14.370690
  C      6.316120    5.763830   13.992970
  C      7.437310    5.567910   14.824220
  C      7.337770    5.038690   16.079750
  C      6.046450    4.692530   16.518920
  C      4.890490    4.889990   15.676290
  N      3.839880    4.474520   16.355980
  O      4.298850    4.051050   17.529880
  N      5.614770    4.170430   17.652810
  H     -5.117750    8.324020   -7.548220
  H     -2.982410    8.766420   -6.353010
  H     -2.812320    8.585890   -3.943050
  H     -6.739210    7.365400   -1.609100
  H     -5.092720    6.947390    4.371580
  H     -1.846220    6.000300   10.235320
  H      2.272510    4.925520   14.767790
  H      6.477650    6.186180   13.011550
  H      8.405580    5.850660   14.439760
  H      8.188730    4.883580   16.720530

 Total Charge           Charge          ....    0
 Multiplicity           Mult            ....    1
 Number of Electrons    NEL             ....  480
 Basis Dimension        Dim             .... 1008

ORBITAL ENERGIES
----------------

  NO   OCC          E(Eh)            E(eV)
   0   2.0000     -89.056374     -2423.3471
   1   2.0000     -88.992939     -2421.6210
   2   2.0000     -88.992784     -2421.6168
   3   2.0000     -88.989204     -2421.5194
   4   2.0000     -88.989063     -2421.5155
   5   2.0000     -19.359598      -526.8014
   6   2.0000     -19.359571      -526.8007
   7   2.0000     -14.484699      -394.1487
   8   2.0000     -14.484667      -394.1478
   9   2.0000     -14.482525      -394.0895
  10   2.0000     -14.482483      -394.0884
  11   2.0000     -14.482245      -394.0819
  12   2.0000     -14.482097      -394.0779
  13   2.0000     -14.464818      -393.6077
  14   2.0000     -14.464734      -393.6054
  15   2.0000     -14.444234      -393.0476
  16   2.0000     -14.444171      -393.0459
  17   2.0000     -14.430278      -392.6678
  18   2.0000     -14.430236      -392.6667
  19   2.0000     -14.427320      -392.5873
  20   2.0000     -14.427309      -392.5870
  21   2.0000     -10.399325      -282.9800
  22   2.0000     -10.399083      -282.9734
  23   2.0000     -10.364991      -282.0457
  24   2.0000     -10.364919      -282.0438
  25   2.0000     -10.361965      -281.9634
  26   2.0000     -10.361709      -281.9564
  27   2.0000     -10.357015      -281.8287
  28   2.0000     -10.356772      -281.8221
  29   2.0000     -10.351561      -281.6803
  30   2.0000     -10.351549      -281.6800
  31   2.0000     -10.337698      -281.3031
  32   2.0000     -10.337621      -281.3010
  33   2.0000     -10.336081      -281.2591
  34   2.0000     -10.336045      -281.2581
  35   2.0000     -10.333803      -281.1971
  36   2.0000     -10.333643      -281.1927
  37   2.0000     -10.331911      -281.1456
  38   2.0000     -10.331842      -281.1437
  39   2.0000     -10.330479      -281.1066
  40   2.0000     -10.330441      -281.1056
  41   2.0000     -10.329998      -281.0935
  42   2.0000     -10.329744      -281.0866
  43   2.0000     -10.329257      -281.0734
  44   2.0000     -10.329141      -281.0702
  45   2.0000     -10.329121      -281.0697
  46   2.0000     -10.328997      -281.0663
  47   2.0000     -10.328300      -281.0473
  48   2.0000     -10.328285      -281.0469
  49   2.0000     -10.326777      -281.0059
  50   2.0000     -10.326769      -281.0057
  51   2.0000     -10.324059      -280.9319
  52   2.0000     -10.323985      -280.9299
  53   2.0000     -10.306776      -280.4616
  54   2.0000     -10.306738      -280.4606
  55   2.0000     -10.306601      -280.4569
  56   2.0000     -10.306460      -280.4530
  57   2.0000     -10.304962      -280.4123
  58   2.0000     -10.304867      -280.4097
  59   2.0000     -10.303436      -280.3708
  60   2.0000     -10.303427      -280.3705
  61   2.0000     -10.303230      -280.3651
  62   2.0000     -10.303107      -280.3618
  63   2.0000     -10.302174      -280.3364
  64   2.0000     -10.302144      -280.3356
  65   2.0000     -10.300606      -280.2937
  66   2.0000     -10.300470      -280.2900
  67   2.0000      -8.147325      -221.7000
  68   2.0000      -8.087496      -220.0719
  69   2.0000      -8.087398      -220.0693
  70   2.0000      -8.081782      -219.9165
  71   2.0000      -8.081685      -219.9138
  72   2.0000      -6.118388      -166.4898
  73   2.0000      -6.110480      -166.2746
  74   2.0000      -6.110260      -166.2686
  75   2.0000      -6.056706      -164.8113
  76   2.0000      -6.056579      -164.8079
  77   2.0000      -6.052544      -164.6981
  78   2.0000      -6.052464      -164.6959
  79   2.0000      -6.051376      -164.6663
  80   2.0000      -6.051267      -164.6633
  81   2.0000      -6.049947      -164.6274
  82   2.0000      -6.049836      -164.6244
  83   2.0000      -6.046530      -164.5344
  84   2.0000      -6.046435      -164.5319
  85   2.0000      -6.044204      -164.4711
  86   2.0000      -6.044096      -164.4682
  87   2.0000      -1.313749       -35.7489
  88   2.0000      -1.313739       -35.7487
  89   2.0000      -1.154336       -31.4111
  90   2.0000      -1.140669       -31.0392
  91   2.0000      -1.069747       -29.1093
  92   2.0000      -1.046053       -28.4646
  93   2.0000      -1.045523       -28.4501
  94   2.0000      -1.029319       -28.0092
  95   2.0000      -1.021688       -27.8015
  96   2.0000      -1.021618       -27.7996
  97   2.0000      -1.019822       -27.7508
  98   2.0000      -1.017308       -27.6824
  99   2.0000      -1.016910       -27.6715
 100   2.0000      -1.011093       -27.5132
 101   2.0000      -1.009037       -27.4573
 102   2.0000      -1.005838       -27.3702
 103   2.0000      -1.005792       -27.3690
 104   2.0000      -1.005776       -27.3686
 105   2.0000      -1.000630       -27.2285
 106   2.0000      -0.991469       -26.9792
 107   2.0000      -0.983397       -26.7596
 108   2.0000      -0.960161       -26.1273
 109   2.0000      -0.956155       -26.0183
 110   2.0000      -0.928025       -25.2528
 111   2.0000      -0.926736       -25.2178
 112   2.0000      -0.923944       -25.1418
 113   2.0000      -0.920881       -25.0584
 114   2.0000      -0.911698       -24.8086
 115   2.0000      -0.898036       -24.4368
 116   2.0000      -0.881797       -23.9949
 117   2.0000      -0.879100       -23.9215
 118   2.0000      -0.867206       -23.5979
 119   2.0000      -0.862229       -23.4625
 120   2.0000      -0.856449       -23.3052
 121   2.0000      -0.855960       -23.2918
 122   2.0000      -0.849263       -23.1096
 123   2.0000      -0.822091       -22.3702
 124   2.0000      -0.817369       -22.2417
 125   2.0000      -0.792021       -21.5520
 126   2.0000      -0.783980       -21.3332
 127   2.0000      -0.780377       -21.2351
 128   2.0000      -0.779259       -21.2047
 129   2.0000      -0.768641       -20.9158
 130   2.0000      -0.757276       -20.6065
 131   2.0000      -0.752035       -20.4639
 132   2.0000      -0.751917       -20.4607
 133   2.0000      -0.744708       -20.2645
 134   2.0000      -0.725709       -19.7476
 135   2.0000      -0.718998       -19.5649
 136   2.0000      -0.718625       -19.5548
 137   2.0000      -0.702518       -19.1165
 138   2.0000      -0.700402       -19.0589
 139   2.0000      -0.688288       -18.7293
 140   2.0000      -0.685079       -18.6419
 141   2.0000      -0.681158       -18.5352
 142   2.0000      -0.673291       -18.3212
 143   2.0000      -0.668860       -18.2006
 144   2.0000      -0.656487       -17.8639
 145   2.0000      -0.652323       -17.7506
 146   2.0000      -0.641603       -17.4589
 147   2.0000      -0.639632       -17.4053
 148   2.0000      -0.639481       -17.4012
 149   2.0000      -0.637696       -17.3526
 150   2.0000      -0.625009       -17.0074
 151   2.0000      -0.623777       -16.9738
 152   2.0000      -0.616602       -16.7786
 153   2.0000      -0.615427       -16.7466
 154   2.0000      -0.610923       -16.6241
 155   2.0000      -0.610548       -16.6139
 156   2.0000      -0.610547       -16.6138
 157   2.0000      -0.604059       -16.4373
 158   2.0000      -0.597385       -16.2557
 159   2.0000      -0.592373       -16.1193
 160   2.0000      -0.581790       -15.8313
 161   2.0000      -0.579155       -15.7596
 162   2.0000      -0.573301       -15.6003
 163   2.0000      -0.570924       -15.5356
 164   2.0000      -0.565831       -15.3970
 165   2.0000      -0.560185       -15.2434
 166   2.0000      -0.548942       -14.9375
 167   2.0000      -0.548017       -14.9123
 168   2.0000      -0.547575       -14.9003
 169   2.0000      -0.539590       -14.6830
 170   2.0000      -0.536176       -14.5901
 171   2.0000      -0.533010       -14.5039
 172   2.0000      -0.518615       -14.1122
 173   2.0000      -0.516898       -14.0655
 174   2.0000      -0.513821       -13.9818
 175   2.0000      -0.507420       -13.8076
 176   2.0000      -0.507060       -13.7978
 177   2.0000      -0.505507       -13.7555
 178   2.0000      -0.500029       -13.6065
 179   2.0000      -0.499830       -13.6011
 180   2.0000      -0.496909       -13.5216
 181   2.0000      -0.496433       -13.5086
 182   2.0000      -0.494917       -13.4674
 183   2.0000      -0.492564       -13.4034
 184   2.0000      -0.489832       -13.3290
 185   2.0000      -0.489490       -13.3197
 186   2.0000      -0.489264       -13.3136
 187   2.0000      -0.481806       -13.1106
 188   2.0000      -0.479195       -13.0396
 189   2.0000      -0.476356       -12.9623
 190   2.0000      -0.472909       -12.8685
 191   2.0000      -0.471051       -12.8179
 192   2.0000      -0.470500       -12.8030
 193   2.0000      -0.470477       -12.8023
 194   2.0000      -0.468169       -12.7395
 195   2.0000      -0.467602       -12.7241
 196   2.0000      -0.462643       -12.5892
 197   2.0000      -0.460428       -12.5289
 198   2.0000      -0.460275       -12.5247
 199   2.0000      -0.457495       -12.4491
 200   2.0000      -0.453862       -12.3502
 201   2.0000      -0.453774       -12.3478
 202   2.0000      -0.452985       -12.3263
 203   2.0000      -0.445113       -12.1121
 204   2.0000      -0.443558       -12.0698
 205   2.0000      -0.441484       -12.0134
 206   2.0000      -0.438689       -11.9373
 207   2.0000      -0.438640       -11.9360
 208   2.0000      -0.437781       -11.9126
 209   2.0000      -0.437605       -11.9078
 210   2.0000      -0.437483       -11.9045
 211   2.0000      -0.431862       -11.7516
 212   2.0000      -0.426248       -11.5988
 213   2.0000      -0.425760       -11.5855
 214   2.0000      -0.425629       -11.5820
 215   2.0000      -0.424069       -11.5395
 216   2.0000      -0.419796       -11.4232
 217   2.0000      -0.408431       -11.1140
 218   2.0000      -0.407856       -11.0983
 219   2.0000      -0.406600       -11.0641
 220   2.0000      -0.406544       -11.0626
 221   2.0000      -0.399188       -10.8624
 222   2.0000      -0.396311       -10.7842
 223   2.0000      -0.395952       -10.7744
 224   2.0000      -0.389796       -10.6069
 225   2.0000      -0.383647       -10.4396
 226   2.0000      -0.377121       -10.2620
 227   2.0000      -0.370291       -10.0761
 228   2.0000      -0.368540       -10.0285
 229   2.0000      -0.364702        -9.9240
 230   2.0000      -0.363075        -9.8798
 231   2.0000      -0.350406        -9.5350
 232   2.0000      -0.349717        -9.5163
 233   2.0000      -0.346649        -9.4328
 234   2.0000      -0.330029        -8.9805
 235   2.0000      -0.323151        -8.7934
 236   2.0000      -0.321768        -8.7558
 237   2.0000      -0.302302        -8.2260
 238   2.0000      -0.274732        -7.4758
 239   2.0000      -0.241990        -6.5849
 240   0.0000      -0.142081        -3.8662
 241   0.0000      -0.106136        -2.8881
 242   0.0000      -0.101619        -2.7652
 243   0.0000      -0.071623        -1.9490
 244   0.0000      -0.071301        -1.9402

MULLIKEN ATOMIC CHARGES
-----------------------
   0 C :   -0.027058
   1 C :    0.044417
   2 C :   -0.074819
   3 C :    0.168125
   4 C :   -0.071502
   5 C :    0.005897
   6 N :    0.060049
   7 O :   -0.087826
   8 N :    0.043605
   9 C :   -0.119581
  10 C :   -0.052716
  11 C :    0.028347
  12 C :   -0.097558
  13 S :    0.173818
  14 C :   -0.059476
  15 C :    0.037926
  16 C :    0.310053
  17 C :   -0.303204
  18 C :   -0.188312
  19 N :    0.172176
  20 C :   -0.197277
  21 N :    0.192913
  22 C :   -0.062898
  23 C :   -0.176429
  24 S :    0.201943
  25 C :    0.188590
  26 C :   -0.061468
  27 C :   -0.062405
  28 N :   -0.002759
  29 C :   -0.101146
  30 C :   -0.100873
  31 N :   -0.003820
  32 C :   -0.242674
  33 N :    0.252069
  34 C :   -0.244738
  35 N :    0.251353
  36 C :    0.191286
  37 C :   -0.011897
  38 C :   -0.011712
  39 N :   -0.281438
  40 S :    0.587867
  41 N :   -0.283531
  42 C :   -0.175810
  43 C :   -0.067512
  44 C :    0.038131
  45 C :   -0.056596
  46 S :    0.200665
  47 C :   -0.095886
  48 C :    0.025981
  49 C :    0.312115
  50 C :   -0.306072
  51 C :   -0.192906
  52 N :    0.191617
  53 C :   -0.187049
  54 N :    0.170542
  55 C :   -0.054184
  56 C :   -0.115222
  57 S :    0.173365
  58 C :    0.167578
  59 C :   -0.075979
  60 C :    0.043814
  61 C :   -0.020828
  62 C :    0.002064
  63 C :   -0.071666
  64 N :    0.040625
  65 O :   -0.087328
  66 N :    0.061621
  67 H :   -0.003447
  68 H :    0.004668
  69 H :   -0.003130
  70 H :    0.028226
  71 H :    0.022769
  72 H :    0.022288
  73 H :    0.027685
  74 H :   -0.003156
  75 H :    0.004459
  76 H :   -0.004756
Sum of atomic charges:   -0.0000000

LOEWDIN ATOMIC CHARGES
----------------------
   0 C :   -0.015285
   1 C :   -0.005482
   2 C :   -0.019796
   3 C :   -0.034792
   4 C :   -0.047666
   5 C :   -0.056934
   6 N :   -0.018396
   7 O :    0.084542
   8 N :   -0.022977
   9 C :   -0.159781
  10 C :   -0.016631
  11 C :   -0.062963
  12 C :   -0.176081
  13 S :    0.478311
  14 C :   -0.175525
  15 C :   -0.072193
  16 C :    0.077860
  17 C :   -0.097421
  18 C :   -0.015386
  19 N :   -0.033040
  20 C :   -0.022175
  21 N :   -0.020138
  22 C :   -0.005863
  23 C :   -0.168007
  24 S :    0.506246
  25 C :   -0.038278
  26 C :   -0.016021
  27 C :   -0.016104
  28 N :   -0.016293
  29 C :   -0.023686
  30 C :   -0.023665
  31 N :   -0.016450
  32 C :   -0.039248
  33 N :   -0.000687
  34 C :   -0.039203
  35 N :   -0.000794
  36 C :   -0.038286
  37 C :   -0.036863
  38 C :   -0.037089
  39 N :   -0.270059
  40 S :    0.706238
  41 N :   -0.270251
  42 C :   -0.168096
  43 C :   -0.006132
  44 C :   -0.072244
  45 C :   -0.175655
  46 S :    0.506457
  47 C :   -0.176150
  48 C :   -0.062989
  49 C :    0.077992
  50 C :   -0.097418
  51 C :   -0.022061
  52 N :   -0.020226
  53 C :   -0.015327
  54 N :   -0.033120
  55 C :   -0.016751
  56 C :   -0.159700
  57 S :    0.478351
  58 C :   -0.034931
  59 C :   -0.019776
  60 C :   -0.005417
  61 C :   -0.015002
  62 C :   -0.057223
  63 C :   -0.047470
  64 N :   -0.023068
  65 O :    0.084661
  66 N :   -0.018356
  67 H :    0.042103
  68 H :    0.038245
  69 H :    0.026495
  70 H :    0.042671
  71 H :    0.038669
  72 H :    0.038551
  73 H :    0.042611
  74 H :    0.026579
  75 H :    0.038130
  76 H :    0.041908

  Mayer bond orders larger than 0.100000
B(  0-C ,  1-C ) :   1.5285 B(  0-C ,  3-C ) :   0.1066 B(  0-C ,  5-C ) :   1.1630
B(  0-C , 67-H ) :   1.0238 B(  1-C ,  2-C ) :   1.2065 B(  1-C , 68-H ) :   0.9806
B(  2-C ,  3-C ) :   1.5163 B(  2-C , 69-H ) :   0.9860 B(  3-C ,  4-C ) :   1.1469
B(  3-C ,  9-C ) :   1.1092 B(  4-C ,  5-C ) :   1.1494 B(  4-C ,  8-N ) :   1.5923
B(  5-C ,  6-N ) :   1.5912 B(  6-N ,  7-O ) :   1.0769 B(  6-N ,  8-N ) :   0.1848
B(  7-O ,  8-N ) :   1.0642 B(  9-C , 10-C ) :   1.4893 B(  9-C , 13-S ) :   1.0921
B( 10-C , 11-C ) :   1.2496 B( 10-C , 70-H ) :   0.9811 B( 11-C , 12-C ) :   1.4264
B( 11-C , 16-C ) :   0.9935 B( 12-C , 13-S ) :   1.1234 B( 12-C , 14-C ) :   1.2047
B( 14-C , 15-C ) :   1.3971 B( 14-C , 24-S ) :   1.0870 B( 15-C , 16-C ) :   0.9870
B( 15-C , 22-C ) :   1.2881 B( 16-C , 17-C ) :   1.7130 B( 17-C , 18-C ) :   1.1402
B( 17-C , 20-C ) :   1.1364 B( 18-C , 19-N ) :   2.9848 B( 20-C , 21-N ) :   2.9967
B( 22-C , 23-C ) :   1.4042 B( 22-C , 71-H ) :   0.9805 B( 23-C , 24-S ) :   1.0813
B( 23-C , 25-C ) :   1.2200 B( 25-C , 26-C ) :   1.2498 B( 25-C , 36-C ) :   0.1186
B( 25-C , 38-C ) :   1.1925 B( 26-C , 27-C ) :   1.1028 B( 26-C , 31-N ) :   1.4073
B( 27-C , 28-N ) :   1.4086 B( 27-C , 36-C ) :   1.2520 B( 28-N , 29-C ) :   1.6898
B( 29-C , 30-C ) :   1.2205 B( 29-C , 34-C ) :   1.1696 B( 30-C , 31-N ) :   1.6908
B( 30-C , 32-C ) :   1.1676 B( 32-C , 33-N ) :   3.0399 B( 34-C , 35-N ) :   3.0394
B( 36-C , 37-C ) :   1.1914 B( 36-C , 42-C ) :   1.2183 B( 37-C , 38-C ) :   1.0984
B( 37-C , 41-N ) :   1.5193 B( 38-C , 39-N ) :   1.5207 B( 39-N , 40-S ) :   1.2840
B( 39-N , 41-N ) :   0.1454 B( 40-S , 41-N ) :   1.2837 B( 42-C , 43-C ) :   1.4017
B( 42-C , 46-S ) :   1.0827 B( 43-C , 44-C ) :   1.2857 B( 43-C , 72-H ) :   0.9821
B( 44-C , 45-C ) :   1.3975 B( 44-C , 49-C ) :   0.9848 B( 45-C , 46-S ) :   1.0859
B( 45-C , 47-C ) :   1.2030 B( 47-C , 48-C ) :   1.4280 B( 47-C , 57-S ) :   1.1238
B( 48-C , 49-C ) :   0.9944 B( 48-C , 55-C ) :   1.2498 B( 49-C , 50-C ) :   1.7138
B( 50-C , 51-C ) :   1.1344 B( 50-C , 53-C ) :   1.1403 B( 51-C , 52-N ) :   2.9954
B( 53-C , 54-N ) :   2.9836 B( 55-C , 56-C ) :   1.4881 B( 55-C , 73-H ) :   0.9808
B( 56-C , 57-S ) :   1.0921 B( 56-C , 58-C ) :   1.1105 B( 58-C , 59-C ) :   1.5153
B( 58-C , 61-C ) :   0.1064 B( 58-C , 63-C ) :   1.1456 B( 59-C , 60-C ) :   1.2068
B( 59-C , 74-H ) :   0.9861 B( 60-C , 61-C ) :   1.5293 B( 60-C , 75-H ) :   0.9806
B( 61-C , 62-C ) :   1.1634 B( 61-C , 76-H ) :   1.0232 B( 62-C , 63-C ) :   1.1488
B( 62-C , 66-N ) :   1.5933 B( 63-C , 64-N ) :   1.5912 B( 64-N , 65-O ) :   1.0646
B( 64-N , 66-N ) :   0.1849 B( 65-O , 66-N ) :   1.0781

-----------------------------------------------------------------------------
         ABSORPTION SPECTRUM VIA TRANSITION ELECTRIC DIPOLE MOMENTS
-----------------------------------------------------------------------------
State   Energy  Wavelength   fosc         T2         TX        TY        TZ
        (cm-1)    (nm)                  (au**2)     (au)      (au)      (au)
-----------------------------------------------------------------------------
   0    6758.2   1479.7   0.529536703  25.79527  -2.42626   0.65340  -4.41380
   1   13014.6    768.4   0.003856304   0.09755   0.17094  -0.21258  -0.15210
   2   13576.4    736.6   0.041535057   1.00718   0.48203  -0.12452   0.87139
   3   15588.7    641.5   0.005451472   0.11513  -0.14599   0.28107   0.12172
   4   21208.4    471.5   0.158136104   2.45470   0.74662  -0.19167   1.36401
   5   21749.7    459.8   0.023793371   0.36015  -0.43527  -0.38468   0.15071
   6   22468.1    445.1   0.988540716  14.48453  -1.81307   0.48364  -3.31110
   7   23294.0    429.3   0.078029772   1.10279  -0.50374   0.11433  -0.91431
   8   23433.6    426.7   0.006212610   0.08728  -0.22264  -0.14936   0.12411
   9   23996.6    416.7   0.058185537   0.79825  -0.78483  -0.13861   0.40382
  10   24385.9    410.1   0.039455461   0.53265   0.34163  -0.07318   0.64077
  11   24868.1    402.1   0.319651964   4.23166   0.67229  -0.22617   1.93094
  12   24885.0    401.8   0.133834662   1.77054  -1.32266   0.12368   0.07628
  13   25266.5    395.8   0.001528957   0.01992   0.05366  -0.08574  -0.09844
  14   27830.1    359.3   0.073490899   0.86935   0.81693   0.13719  -0.42797
  15   29230.4    342.1   0.106955747   1.20460  -0.51389   0.12538  -0.96166
  16   29406.9    340.1   0.110168465   1.23334   0.97608   0.19377  -0.49301
  17   29805.1    335.5   0.089275619   0.98609   0.49910  -0.14276   0.84653
  18   30239.0    330.7   0.149296292   1.62539  -1.07404  -0.38046   0.57191
  19   30652.3    326.2   0.390695121   4.19615   0.98559  -0.26871   1.77555
  20   30774.3    324.9   0.009768785   0.10450  -0.16541   0.04127  -0.27467
  21   31272.2    319.8   0.050353044   0.53008   0.61821   0.22599  -0.31117
  22   31388.2    318.6   0.167735777   1.75928  -0.63439   0.21412  -1.14498
  23   31803.3    314.4   0.000064591   0.00067   0.00788  -0.00156   0.02458
  24   32223.9    310.3   0.712327117   7.27742   2.28677   0.97506  -1.04756
  25   32236.6    310.2   0.028082976   0.28679  -0.03469  -0.19843   0.49620
  26   32456.0    308.1   0.667890109   6.77463  -2.25431  -0.61680   1.14555
  27   33567.4    297.9   0.414146628   4.06174   0.95040  -0.23497   1.76161
  28   33713.1    296.6   0.001818910   0.01776  -0.00604  -0.01571   0.13221
  29   33850.5    295.4   0.047134040   0.45840   0.60991   0.07237  -0.28491
  30   34115.2    293.1   0.034721391   0.33506  -0.49834  -0.13376   0.26234
  31   34398.1    290.7   0.009094613   0.08704  -0.15078   0.02963  -0.25185
  32   35473.8    281.9   0.003023750   0.02806  -0.12957  -0.05907   0.08823
  33   35653.2    280.5   0.083056862   0.76692   0.41749  -0.10877   0.76210
  34   36941.2    270.7   0.134486089   1.19851   0.58723   0.28274  -0.87962
  35   36950.3    270.6   0.113644712   1.01253  -0.93533  -0.06746  -0.36487
  36   37578.6    266.1   0.190522612   1.66910   1.14389   0.12648  -0.58703
  37   37885.1    264.0   0.024344185   0.21154  -0.13731   0.05347  -0.43570
  38   38060.9    262.7   0.008403275   0.07269   0.02178   0.26859   0.00831
  39   38141.7    262.2   0.251257466   2.16868   1.27430   0.39843  -0.62135
  40   38201.5    261.8   0.001029947   0.00888  -0.02173   0.04637  -0.07907
  41   38677.9    258.5   0.012002746   0.10216  -0.27983  -0.05416   0.14465
  42   38701.6    258.4   0.053578603   0.45576   0.59094   0.10526  -0.30900
  43   38839.2    257.5   0.179628583   1.52258  -1.07056  -0.29579   0.53757
  44   38940.1    256.8   0.001129010   0.00955   0.09390   0.01087  -0.02470
  45   39807.0    251.2   0.000824555   0.00682  -0.02306   0.01491  -0.07788
  46   39988.0    250.1   0.007633380   0.06284   0.10941  -0.19823  -0.10759
  47   40186.4    248.8   0.001053770   0.00863   0.02911   0.08771   0.00957

FINAL SINGLE POINT ENERGY     -4662.547019926763

DIPOLE MOMENT
-------------
                                X             Y             Z
Electronic contribution:     -9.27874       1.12149       5.22787
Nuclear contribution   :     12.27825      -0.06849      -6.71922
                        -----------------------------------------
Total Dipole Moment    :      2.99951       1.05300      -1.49134
                        -----------------------------------------
Magnitude (a.u.)       :      3.51140
Magnitude (Debye)      :      8.92528

Rotational constants in cm-1:     0.002802     0.000304     0.000276
Rotational constants in MHz :    84.003725     9.108540     8.283238

                             ****ORCA TERMINATED NORMALLY****
TOTAL RUN TIME: 0 days 0 hours 7 minutes 40 seconds 196 msec
