                         Program Version 4.2.0 -  RELEASE  -
|  1> # ORCA input file
|  2> # SCF done       -171.751897938141          0.000740941754
|  3> ! CAM-B3LYP def2-SVP def2/J RIJCOSX Grid4 TightSCF
|  4> %maxcore 5000
|  5> %tddft
|  6>     Mode sTDDFT
|  7>     Ethresh 5.0
|  8>     maxcore 5000
|  9> end
| 10>
| 11> %pal
| 12>   nprocs 6
| 13>   end
| 14> * xyz 0 1
| 15>    C       -5.37653         3.68119         2.33184
| 16>    C       -6.54911         3.27868         1.72084
| 17>    C       -7.40198         2.26221         2.19754
| 18>    N       -8.16162         1.45889         2.50979
| 19>    C       -7.07812         3.77978         0.53005
| 20>    N       -7.57333         4.13729        -0.44935
| 21>    C       -4.84902         3.05018         3.54051
| 22>    C       -3.59397         3.62386         3.86079
| 23>    C       -2.84844         3.23335         4.94502
| 24>    C       -3.36685         2.22423         5.76426
| 25>    C       -4.62174         1.65670         5.44127
| 26>    C       -5.37339         2.05134         4.34169
| 27>    S       -5.08109         0.43028         6.58386
| 28>    C       -3.60133         0.69428         7.46769
| 29>    C       -2.80283         1.65061         6.93586
| 30>   Br       -3.25161        -0.31581         9.00882
| 31>    C       -3.28278         4.66456         2.86948
| 32>    O       -2.29507         5.36402         2.81210
| 33>    C       -4.44458         4.70834         1.94069
| 34>    C       -4.38813         5.71131         1.00938
| 35>    N       -5.26350         6.10872         0.07843
| 36>    C       -5.11191         7.20813        -0.71977
| 37>    S       -3.72555         8.24456        -0.58542
| 38>    C       -4.41253         9.28380        -1.79087
| 39>    N       -3.69947        10.41877        -2.16869
| 40>    O       -2.58894        10.57449        -1.68093
| 41>    O       -4.22965        11.18377        -2.96359
| 42>    C       -5.62267         8.84711        -2.26561
| 43>    C       -6.04410         7.64273        -1.66947
| 44>    C       -7.24586         6.92382        -2.00279
| 45>    C       -8.26762         7.47215        -2.68306
| 46>    N       -9.38214         6.78325        -3.06898
| 47>    C      -10.47375         7.36544        -3.69677
| 48>    C      -11.77536         7.03048        -3.46380
| 49>    S      -12.87219         7.99206        -4.37223
| 50>    C      -11.57902         8.85795        -5.09507
| 51>    C      -10.36067         8.41747        -4.67061
| 52>    N       -9.13240         8.87171        -5.13832
| 53>    C       -8.72990        10.17100        -5.17074
| 54>    C       -7.43937        10.53179        -5.38054
| 55>    C       -6.96536        11.85434        -5.28162
| 56>    C       -5.64838        12.20797        -5.38863
| 57>    C       -5.08499        13.48938        -5.16972
| 58>    C       -3.73377        13.53779        -5.30063
| 59>    C       -3.14735        12.30076        -5.65978
| 60>    S       -4.37309        11.06787        -5.78970
| 61>    C       -1.81589        12.05052        -5.91560
| 62>    C       -0.72776        12.94630        -5.81246
| 63>    C        0.47019        12.42512        -6.18918
| 64>    C        0.40272        11.07800        -6.63021
| 65>    S       -1.25735        10.49014        -6.49077
| 66>    C        1.42282        10.32591        -7.12919
| 67>    N        1.25484         9.05254        -7.57907
| 68>    C        2.19458         8.27266        -8.15499
| 69>    S        3.82164         8.84592        -8.36155
| 70>    C        4.23755         7.33952        -9.12443
| 71>    N        5.54574         7.18429        -9.56084
| 72>    O        5.85077         6.13112       -10.10052
| 73>    O        6.30636         8.12541        -9.36912
| 74>    C        3.18340         6.46468        -9.20571
| 75>    C        1.99924         6.97507        -8.65611
| 76>    C        0.73030         6.27796        -8.60418
| 77>    C        0.48844         5.08333        -9.13553
| 78>    H       -1.89591         3.69326         5.15585
| 79>    H       -6.32383         1.58407         4.14848
| 80>    H       -1.85545         1.94067         7.35193
| 81>    H       -3.47912         6.30612         1.06522
| 82>    H       -6.12081         5.57949        -0.06123
| 83>    H       -6.15508         9.38502        -3.02844
| 84>    H       -7.32012         5.89008        -1.70112
| 85>    H       -8.25258         8.51771        -2.94746
| 86>    H       -9.52041         5.87171        -2.65429
| 87>    H      -12.14984         6.28052        -2.79700
| 88>    H      -11.78220         9.62539        -5.81378
| 89>    H       -8.40190         8.17433        -5.20306
| 90>    H       -9.50163        10.90179        -4.97766
| 91>    H       -6.70600         9.76140        -5.58730
| 92>    H       -7.67700        12.63534        -5.04965
| 93>    H       -5.70158        14.33008        -4.90423
| 94>    H       -3.14190        14.42350        -5.15638
| 95>    H       -0.86202        13.95202        -5.45797
| 96>    H        1.40195        12.96111        -6.17927
| 97>    H        2.41885        10.73535        -7.20077
| 98>    H        0.31746         8.67269        -7.50202
| 99>    H        3.29035         5.49283        -9.65001
|100>    H       -0.07321         6.78767        -8.08684
|101>    H        1.23748         4.52425        -9.66707
|102>    H       -0.48200         4.62609        -9.05707
|103> *
|104>
|105>                          ****END OF INPUT****

CARTESIAN COORDINATES (ANGSTROEM)
---------------------------------
  C     -5.376530    3.681190    2.331840
  C     -6.549110    3.278680    1.720840
  C     -7.401980    2.262210    2.197540
  N     -8.161620    1.458890    2.509790
  C     -7.078120    3.779780    0.530050
  N     -7.573330    4.137290   -0.449350
  C     -4.849020    3.050180    3.540510
  C     -3.593970    3.623860    3.860790
  C     -2.848440    3.233350    4.945020
  C     -3.366850    2.224230    5.764260
  C     -4.621740    1.656700    5.441270
  C     -5.373390    2.051340    4.341690
  S     -5.081090    0.430280    6.583860
  C     -3.601330    0.694280    7.467690
  C     -2.802830    1.650610    6.935860
  Br    -3.251610   -0.315810    9.008820
  C     -3.282780    4.664560    2.869480
  O     -2.295070    5.364020    2.812100
  C     -4.444580    4.708340    1.940690
  C     -4.388130    5.711310    1.009380
  N     -5.263500    6.108720    0.078430
  C     -5.111910    7.208130   -0.719770
  S     -3.725550    8.244560   -0.585420
  C     -4.412530    9.283800   -1.790870
  N     -3.699470   10.418770   -2.168690
  O     -2.588940   10.574490   -1.680930
  O     -4.229650   11.183770   -2.963590
  C     -5.622670    8.847110   -2.265610
  C     -6.044100    7.642730   -1.669470
  C     -7.245860    6.923820   -2.002790
  C     -8.267620    7.472150   -2.683060
  N     -9.382140    6.783250   -3.068980
  C    -10.473750    7.365440   -3.696770
  C    -11.775360    7.030480   -3.463800
  S    -12.872190    7.992060   -4.372230
  C    -11.579020    8.857950   -5.095070
  C    -10.360670    8.417470   -4.670610
  N     -9.132400    8.871710   -5.138320
  C     -8.729900   10.171000   -5.170740
  C     -7.439370   10.531790   -5.380540
  C     -6.965360   11.854340   -5.281620
  C     -5.648380   12.207970   -5.388630
  C     -5.084990   13.489380   -5.169720
  C     -3.733770   13.537790   -5.300630
  C     -3.147350   12.300760   -5.659780
  S     -4.373090   11.067870   -5.789700
  C     -1.815890   12.050520   -5.915600
  C     -0.727760   12.946300   -5.812460
  C      0.470190   12.425120   -6.189180
  C      0.402720   11.078000   -6.630210
  S     -1.257350   10.490140   -6.490770
  C      1.422820   10.325910   -7.129190
  N      1.254840    9.052540   -7.579070
  C      2.194580    8.272660   -8.154990
  S      3.821640    8.845920   -8.361550
  C      4.237550    7.339520   -9.124430
  N      5.545740    7.184290   -9.560840
  O      5.850770    6.131120  -10.100520
  O      6.306360    8.125410   -9.369120
  C      3.183400    6.464680   -9.205710
  C      1.999240    6.975070   -8.656110
  C      0.730300    6.277960   -8.604180
  C      0.488440    5.083330   -9.135530
  H     -1.895910    3.693260    5.155850
  H     -6.323830    1.584070    4.148480
  H     -1.855450    1.940670    7.351930
  H     -3.479120    6.306120    1.065220
  H     -6.120810    5.579490   -0.061230
  H     -6.155080    9.385020   -3.028440
  H     -7.320120    5.890080   -1.701120
  H     -8.252580    8.517710   -2.947460
  H     -9.520410    5.871710   -2.654290
  H    -12.149840    6.280520   -2.797000
  H    -11.782200    9.625390   -5.813780
  H     -8.401900    8.174330   -5.203060
  H     -9.501630   10.901790   -4.977660
  H     -6.706000    9.761400   -5.587300
  H     -7.677000   12.635340   -5.049650
  H     -5.701580   14.330080   -4.904230
  H     -3.141900   14.423500   -5.156380
  H     -0.862020   13.952020   -5.457970
  H      1.401950   12.961110   -6.179270
  H      2.418850   10.735350   -7.200770
  H      0.317460    8.672690   -7.502020
  H      3.290350    5.492830   -9.650010
  H     -0.073210    6.787670   -8.086840
  H      1.237480    4.524250   -9.667070
  H     -0.482000    4.626090   -9.057070

 Total Charge           Charge          ....    0
 Multiplicity           Mult            ....    1
 Number of Electrons    NEL             ....  510
 Basis Dimension        Dim             .... 1049

ORBITAL ENERGIES
----------------

  NO   OCC          E(Eh)            E(eV)
   0   2.0000    -482.890425    -13140.1165
   1   2.0000     -88.988451     -2421.4989
   2   2.0000     -88.981378     -2421.3064
   3   2.0000     -88.967811     -2420.9372
   4   2.0000     -88.963145     -2420.8103
   5   2.0000     -88.936743     -2420.0918
   6   2.0000     -88.928102     -2419.8567
   7   2.0000     -62.568113     -1702.5649
   8   2.0000     -56.402077     -1534.7785
   9   2.0000     -56.399339     -1534.7040
  10   2.0000     -56.399312     -1534.7033
  11   2.0000     -19.237392      -523.4761
  12   2.0000     -19.235607      -523.4275
  13   2.0000     -19.220361      -523.0126
  14   2.0000     -19.215376      -522.8770
  15   2.0000     -19.214647      -522.8571
  16   2.0000     -14.646143      -398.5418
  17   2.0000     -14.627083      -398.0232
  18   2.0000     -14.507477      -394.7685
  19   2.0000     -14.474396      -393.8683
  20   2.0000     -14.458077      -393.4243
  21   2.0000     -14.453873      -393.3099
  22   2.0000     -14.444877      -393.0651
  23   2.0000     -14.423714      -392.4892
  24   2.0000     -10.372585      -282.2524
  25   2.0000     -10.371918      -282.2342
  26   2.0000     -10.365728      -282.0658
  27   2.0000     -10.364784      -282.0401
  28   2.0000     -10.359768      -281.9036
  29   2.0000     -10.356187      -281.8062
  30   2.0000     -10.351949      -281.6908
  31   2.0000     -10.350769      -281.6587
  32   2.0000     -10.347281      -281.5638
  33   2.0000     -10.331339      -281.1300
  34   2.0000     -10.328120      -281.0424
  35   2.0000     -10.327362      -281.0218
  36   2.0000     -10.327228      -281.0181
  37   2.0000     -10.325348      -280.9670
  38   2.0000     -10.323160      -280.9075
  39   2.0000     -10.321167      -280.8532
  40   2.0000     -10.317564      -280.7552
  41   2.0000     -10.315764      -280.7062
  42   2.0000     -10.313894      -280.6553
  43   2.0000     -10.312970      -280.6302
  44   2.0000     -10.308280      -280.5026
  45   2.0000     -10.307931      -280.4931
  46   2.0000     -10.307382      -280.4781
  47   2.0000     -10.302640      -280.3491
  48   2.0000     -10.302108      -280.3346
  49   2.0000     -10.299694      -280.2689
  50   2.0000     -10.298782      -280.2441
  51   2.0000     -10.298668      -280.2410
  52   2.0000     -10.297347      -280.2050
  53   2.0000     -10.295585      -280.1571
  54   2.0000     -10.295028      -280.1419
  55   2.0000     -10.292722      -280.0792
  56   2.0000     -10.287501      -279.9371
  57   2.0000     -10.282699      -279.8065
  58   2.0000     -10.281390      -279.7708
  59   2.0000     -10.274880      -279.5937
  60   2.0000     -10.274061      -279.5714
  61   2.0000     -10.272758      -279.5360
  62   2.0000     -10.271282      -279.4958
  63   2.0000     -10.270262      -279.4680
  64   2.0000     -10.269586      -279.4497
  65   2.0000     -10.266439      -279.3640
  66   2.0000     -10.264039      -279.2987
  67   2.0000      -8.797523      -239.3928
  68   2.0000      -8.083590      -219.9657
  69   2.0000      -8.077338      -219.7955
  70   2.0000      -8.063235      -219.4118
  71   2.0000      -8.058964      -219.2956
  72   2.0000      -8.033026      -218.5897
  73   2.0000      -8.024134      -218.3478
  74   2.0000      -6.633872      -180.5168
  75   2.0000      -6.619251      -180.1190
  76   2.0000      -6.619006      -180.1123
  77   2.0000      -6.053256      -164.7175
  78   2.0000      -6.048941      -164.6001
  79   2.0000      -6.047024      -164.5479
  80   2.0000      -6.045014      -164.4932
  81   2.0000      -6.042738      -164.4313
  82   2.0000      -6.038578      -164.3180
  83   2.0000      -6.033027      -164.1670
  84   2.0000      -6.028595      -164.0464
  85   2.0000      -6.028391      -164.0409
  86   2.0000      -6.024484      -163.9345
  87   2.0000      -6.024089      -163.9238
  88   2.0000      -6.021006      -163.8399
  89   2.0000      -6.002914      -163.3476
  90   2.0000      -5.999017      -163.2416
  91   2.0000      -5.993920      -163.1029
  92   2.0000      -5.993627      -163.0949
  93   2.0000      -5.990008      -162.9964
  94   2.0000      -5.984937      -162.8584
  95   2.0000      -2.749715       -74.8235
  96   2.0000      -2.745615       -74.7120
  97   2.0000      -2.745496       -74.7088
  98   2.0000      -2.733844       -74.3917
  99   2.0000      -2.733830       -74.3913
 100   2.0000      -1.313695       -35.7475
 101   2.0000      -1.293663       -35.2024
 102   2.0000      -1.136983       -30.9389
 103   2.0000      -1.132351       -30.8128
 104   2.0000      -1.112436       -30.2709
 105   2.0000      -1.110280       -30.2123
 106   2.0000      -1.081101       -29.4183
 107   2.0000      -1.074735       -29.2450
 108   2.0000      -1.044965       -28.4349
 109   2.0000      -1.039580       -28.2884
 110   2.0000      -1.026209       -27.9246
 111   2.0000      -1.011273       -27.5181
 112   2.0000      -1.009110       -27.4593
 113   2.0000      -0.996286       -27.1103
 114   2.0000      -0.989350       -26.9216
 115   2.0000      -0.979080       -26.6421
 116   2.0000      -0.977723       -26.6052
 117   2.0000      -0.957881       -26.0653
 118   2.0000      -0.949145       -25.8275
 119   2.0000      -0.920317       -25.0431
 120   2.0000      -0.917188       -24.9580
 121   2.0000      -0.901619       -24.5343
 122   2.0000      -0.900164       -24.4947
 123   2.0000      -0.894937       -24.3525
 124   2.0000      -0.893073       -24.3017
 125   2.0000      -0.882567       -24.0159
 126   2.0000      -0.873852       -23.7787
 127   2.0000      -0.857706       -23.3394
 128   2.0000      -0.856178       -23.2978
 129   2.0000      -0.850550       -23.1447
 130   2.0000      -0.837782       -22.7972
 131   2.0000      -0.836870       -22.7724
 132   2.0000      -0.832816       -22.6621
 133   2.0000      -0.821906       -22.3652
 134   2.0000      -0.809896       -22.0384
 135   2.0000      -0.808099       -21.9895
 136   2.0000      -0.806171       -21.9370
 137   2.0000      -0.796924       -21.6854
 138   2.0000      -0.779410       -21.2088
 139   2.0000      -0.777283       -21.1509
 140   2.0000      -0.755367       -20.5546
 141   2.0000      -0.750031       -20.4094
 142   2.0000      -0.737250       -20.0616
 143   2.0000      -0.728330       -19.8189
 144   2.0000      -0.718934       -19.5632
 145   2.0000      -0.709635       -19.3101
 146   2.0000      -0.706500       -19.2249
 147   2.0000      -0.700549       -19.0629
 148   2.0000      -0.695700       -18.9310
 149   2.0000      -0.688954       -18.7474
 150   2.0000      -0.680053       -18.5052
 151   2.0000      -0.671078       -18.2610
 152   2.0000      -0.666351       -18.1323
 153   2.0000      -0.660937       -17.9850
 154   2.0000      -0.658788       -17.9265
 155   2.0000      -0.648128       -17.6365
 156   2.0000      -0.641045       -17.4437
 157   2.0000      -0.640267       -17.4225
 158   2.0000      -0.634055       -17.2535
 159   2.0000      -0.630536       -17.1577
 160   2.0000      -0.628004       -17.0889
 161   2.0000      -0.623948       -16.9785
 162   2.0000      -0.621642       -16.9157
 163   2.0000      -0.612010       -16.6536
 164   2.0000      -0.609935       -16.5972
 165   2.0000      -0.608223       -16.5506
 166   2.0000      -0.606599       -16.5064
 167   2.0000      -0.605369       -16.4729
 168   2.0000      -0.601319       -16.3627
 169   2.0000      -0.596029       -16.2188
 170   2.0000      -0.592692       -16.1280
 171   2.0000      -0.583751       -15.8847
 172   2.0000      -0.577957       -15.7270
 173   2.0000      -0.571035       -15.5386
 174   2.0000      -0.568469       -15.4688
 175   2.0000      -0.567150       -15.4329
 176   2.0000      -0.561187       -15.2707
 177   2.0000      -0.558841       -15.2068
 178   2.0000      -0.554145       -15.0791
 179   2.0000      -0.552692       -15.0395
 180   2.0000      -0.551645       -15.0110
 181   2.0000      -0.542226       -14.7547
 182   2.0000      -0.538929       -14.6650
 183   2.0000      -0.536583       -14.6012
 184   2.0000      -0.532628       -14.4935
 185   2.0000      -0.526019       -14.3137
 186   2.0000      -0.525591       -14.3020
 187   2.0000      -0.525322       -14.2947
 188   2.0000      -0.519675       -14.1411
 189   2.0000      -0.518169       -14.1001
 190   2.0000      -0.516184       -14.0461
 191   2.0000      -0.512872       -13.9559
 192   2.0000      -0.512522       -13.9464
 193   2.0000      -0.506744       -13.7892
 194   2.0000      -0.505344       -13.7511
 195   2.0000      -0.501318       -13.6416
 196   2.0000      -0.499560       -13.5937
 197   2.0000      -0.497700       -13.5431
 198   2.0000      -0.493866       -13.4388
 199   2.0000      -0.483740       -13.1632
 200   2.0000      -0.482493       -13.1293
 201   2.0000      -0.481500       -13.1023
 202   2.0000      -0.479972       -13.0607
 203   2.0000      -0.474749       -12.9186
 204   2.0000      -0.472758       -12.8644
 205   2.0000      -0.470497       -12.8029
 206   2.0000      -0.469147       -12.7661
 207   2.0000      -0.465425       -12.6648
 208   2.0000      -0.463257       -12.6059
 209   2.0000      -0.460877       -12.5411
 210   2.0000      -0.456307       -12.4167
 211   2.0000      -0.454959       -12.3801
 212   2.0000      -0.452873       -12.3233
 213   2.0000      -0.452474       -12.3124
 214   2.0000      -0.450523       -12.2594
 215   2.0000      -0.446901       -12.1608
 216   2.0000      -0.446734       -12.1563
 217   2.0000      -0.444307       -12.0902
 218   2.0000      -0.441540       -12.0149
 219   2.0000      -0.439144       -11.9497
 220   2.0000      -0.435535       -11.8515
 221   2.0000      -0.428891       -11.6707
 222   2.0000      -0.428207       -11.6521
 223   2.0000      -0.422479       -11.4962
 224   2.0000      -0.420547       -11.4437
 225   2.0000      -0.419310       -11.4100
 226   2.0000      -0.413615       -11.2550
 227   2.0000      -0.393557       -10.7092
 228   2.0000      -0.390528       -10.6268
 229   2.0000      -0.388344       -10.5674
 230   2.0000      -0.384822       -10.4715
 231   2.0000      -0.383279       -10.4296
 232   2.0000      -0.380625       -10.3573
 233   2.0000      -0.379701       -10.3322
 234   2.0000      -0.376430       -10.2432
 235   2.0000      -0.373787       -10.1713
 236   2.0000      -0.364773        -9.9260
 237   2.0000      -0.363777        -9.8989
 238   2.0000      -0.356088        -9.6896
 239   2.0000      -0.347998        -9.4695
 240   2.0000      -0.347265        -9.4496
 241   2.0000      -0.344274        -9.3682
 242   2.0000      -0.343554        -9.3486
 243   2.0000      -0.328616        -8.9421
 244   2.0000      -0.326392        -8.8816
 245   2.0000      -0.322242        -8.7686
 246   2.0000      -0.318781        -8.6745
 247   2.0000      -0.312286        -8.4977
 248   2.0000      -0.304403        -8.2832
 249   2.0000      -0.302039        -8.2189
 250   2.0000      -0.296274        -8.0620
 251   2.0000      -0.281388        -7.6569
 252   2.0000      -0.252357        -6.8670
 253   2.0000      -0.249709        -6.7949
 254   2.0000      -0.192448        -5.2368
 255   0.0000      -0.097238        -2.6460
 256   0.0000      -0.065160        -1.7731
 257   0.0000      -0.056922        -1.5489
 258   0.0000      -0.040219        -1.0944
 259   0.0000      -0.029194        -0.7944

MULLIKEN ATOMIC CHARGES
-----------------------
   0 C :    0.365306
   1 C :   -0.370135
   2 C :   -0.184329
   3 N :    0.146372
   4 C :   -0.157855
   5 N :    0.092729
   6 C :   -0.011399
   7 C :    0.001975
   8 C :   -0.064926
   9 C :    0.117076
  10 C :   -0.094897
  11 C :   -0.016410
  12 S :    0.189143
  13 C :   -0.124326
  14 C :    0.041827
  15 Br:    0.028115
  16 C :    0.122788
  17 O :   -0.154245
  18 C :   -0.128287
  19 C :    0.020659
  20 N :    0.017011
  21 C :   -0.142995
  22 S :    0.163732
  23 C :    0.009082
  24 N :    0.281461
  25 O :   -0.263681
  26 O :   -0.237394
  27 C :   -0.009956
  28 C :    0.157979
  29 C :   -0.070389
  30 C :    0.030499
  31 N :   -0.051856
  32 C :    0.123140
  33 C :   -0.185241
  34 S :    0.123773
  35 C :   -0.169519
  36 C :    0.081888
  37 N :   -0.078148
  38 C :    0.047454
  39 C :   -0.016162
  40 C :   -0.015495
  41 C :   -0.013142
  42 C :    0.046238
  43 C :    0.027240
  44 C :   -0.028406
  45 S :    0.038654
  46 C :   -0.052645
  47 C :    0.035695
  48 C :    0.027204
  49 C :   -0.030221
  50 S :    0.019661
  51 C :    0.005581
  52 N :   -0.027417
  53 C :   -0.110674
  54 S :    0.140264
  55 C :   -0.018410
  56 N :    0.280751
  57 O :   -0.268230
  58 O :   -0.282041
  59 C :    0.010088
  60 C :    0.106173
  61 C :   -0.032182
  62 C :   -0.021385
  63 H :   -0.008596
  64 H :   -0.007826
  65 H :   -0.001873
  66 H :    0.049137
  67 H :    0.137676
  68 H :   -0.009082
  69 H :   -0.021125
  70 H :    0.021715
  71 H :    0.136206
  72 H :    0.010273
  73 H :    0.015883
  74 H :    0.132000
  75 H :    0.009506
  76 H :   -0.009385
  77 H :   -0.025109
  78 H :   -0.022483
  79 H :   -0.022121
  80 H :   -0.015768
  81 H :   -0.016075
  82 H :    0.021572
  83 H :    0.145376
  84 H :    0.001539
  85 H :   -0.026613
  86 H :    0.015963
  87 H :    0.022050
Sum of atomic charges:   -0.0000000

LOEWDIN ATOMIC CHARGES
----------------------
   0 C :    0.087729
   1 C :   -0.170923
   2 C :   -0.021146
   3 N :   -0.056600
   4 C :    0.009036
   5 N :   -0.082623
   6 C :   -0.022797
   7 C :   -0.050467
   8 C :    0.024515
   9 C :   -0.030936
  10 C :   -0.145005
  11 C :   -0.008488
  12 S :    0.434641
  13 C :   -0.269644
  14 C :   -0.069428
  15 Br:    0.140266
  16 C :    0.084088
  17 O :   -0.152349
  18 C :   -0.155596
  19 C :    0.107461
  20 N :    0.082288
  21 C :   -0.132413
  22 S :    0.463566
  23 C :   -0.196300
  24 N :    0.274765
  25 O :   -0.231207
  26 O :   -0.208429
  27 C :   -0.006544
  28 C :   -0.066735
  29 C :   -0.123425
  30 C :    0.038886
  31 N :    0.019797
  32 C :   -0.033430
  33 C :   -0.224375
  34 S :    0.444967
  35 C :   -0.208628
  36 C :   -0.042185
  37 N :    0.019598
  38 C :    0.036244
  39 C :   -0.112978
  40 C :   -0.050153
  41 C :   -0.157401
  42 C :   -0.027417
  43 C :   -0.037021
  44 C :   -0.169592
  45 S :    0.360169
  46 C :   -0.185767
  47 C :   -0.032778
  48 C :   -0.042305
  49 C :   -0.176614
  50 S :    0.324116
  51 C :   -0.031055
  52 N :    0.047331
  53 C :   -0.094123
  54 S :    0.443674
  55 C :   -0.220970
  56 N :    0.274391
  57 O :   -0.234005
  58 O :   -0.248598
  59 C :    0.009267
  60 C :   -0.116613
  61 C :   -0.027655
  62 C :   -0.046782
  63 H :    0.042461
  64 H :    0.040882
  65 H :    0.039674
  66 H :    0.038011
  67 H :    0.090681
  68 H :    0.041069
  69 H :    0.018536
  70 H :    0.029129
  71 H :    0.095677
  72 H :    0.022877
  73 H :    0.025272
  74 H :    0.084212
  75 H :    0.029946
  76 H :    0.016737
  77 H :    0.029455
  78 H :    0.030136
  79 H :    0.028918
  80 H :    0.031994
  81 H :    0.031643
  82 H :    0.027767
  83 H :    0.085315
  84 H :    0.042723
  85 H :    0.023187
  86 H :    0.022037
  87 H :    0.026366

  Mayer bond orders larger than 0.100000
B(  0-C ,  1-C ) :   1.5593 B(  0-C ,  6-C ) :   1.0210 B(  0-C , 18-C ) :   1.0553
B(  1-C ,  2-C ) :   1.1323 B(  1-C ,  4-C ) :   1.1954 B(  2-C ,  3-N ) :   2.9631
B(  4-C ,  5-N ) :   2.8728 B(  6-C ,  7-C ) :   1.2687 B(  6-C , 11-C ) :   1.4093
B(  7-C ,  8-C ) :   1.4381 B(  7-C , 16-C ) :   0.9375 B(  8-C ,  9-C ) :   1.2399
B(  8-C , 63-H ) :   1.0167 B(  9-C , 10-C ) :   1.3073 B(  9-C , 14-C ) :   1.1640
B( 10-C , 11-C ) :   1.3364 B( 10-C , 12-S ) :   1.0868 B( 11-C , 64-H ) :   0.9753
B( 12-S , 13-C ) :   1.0887 B( 13-C , 14-C ) :   1.6154 B( 13-C , 15-Br) :   1.0212
B( 14-C , 65-H ) :   1.0004 B( 16-C , 17-O ) :   2.2246 B( 16-C , 18-C ) :   0.9755
B( 18-C , 19-C ) :   1.5383 B( 19-C , 20-N ) :   1.3312 B( 19-C , 66-H ) :   0.8981
B( 20-N , 21-C ) :   1.1561 B( 20-N , 67-H ) :   0.8715 B( 21-C , 22-S ) :   1.1198
B( 21-C , 28-C ) :   1.3972 B( 22-S , 23-C ) :   1.0874 B( 23-C , 24-N ) :   0.9745
B( 23-C , 27-C ) :   1.4973 B( 24-N , 25-O ) :   1.5032 B( 24-N , 26-O ) :   1.5096
B( 25-O , 26-O ) :   0.2593 B( 27-C , 28-C ) :   1.2140 B( 27-C , 68-H ) :   0.9965
B( 28-C , 29-C ) :   1.0908 B( 29-C , 30-C ) :   1.7044 B( 29-C , 69-H ) :   0.9382
B( 30-C , 31-N ) :   1.1569 B( 30-C , 70-H ) :   0.9637 B( 31-N , 32-C ) :   1.0885
B( 31-N , 71-H ) :   0.9179 B( 32-C , 33-C ) :   1.5187 B( 32-C , 36-C ) :   1.2567
B( 33-C , 34-S ) :   1.1545 B( 33-C , 72-H ) :   0.9772 B( 34-S , 35-C ) :   1.1673
B( 35-C , 36-C ) :   1.5428 B( 35-C , 73-H ) :   0.9766 B( 36-C , 37-N ) :   1.0732
B( 37-N , 38-C ) :   1.1557 B( 37-N , 74-H ) :   0.9262 B( 38-C , 39-C ) :   1.6385
B( 38-C , 75-H ) :   0.9747 B( 39-C , 40-C ) :   1.1521 B( 39-C , 76-H ) :   0.9512
B( 40-C , 41-C ) :   1.6101 B( 40-C , 77-H ) :   0.9782 B( 41-C , 42-C ) :   1.1339
B( 41-C , 45-S ) :   1.0113 B( 42-C , 43-C ) :   1.6085 B( 42-C , 78-H ) :   0.9964
B( 43-C , 44-C ) :   1.1806 B( 43-C , 79-H ) :   0.9912 B( 44-C , 45-S ) :   1.0459
B( 44-C , 46-C ) :   1.5345 B( 46-C , 47-C ) :   1.1852 B( 46-C , 50-S ) :   1.0237
B( 47-C , 48-C ) :   1.6167 B( 47-C , 80-H ) :   0.9908 B( 48-C , 49-C ) :   1.1437
B( 48-C , 81-H ) :   0.9953 B( 49-C , 50-S ) :   1.0096 B( 49-C , 51-C ) :   1.6289
B( 51-C , 52-N ) :   1.1130 B( 51-C , 82-H ) :   0.9570 B( 52-N , 53-C ) :   1.2632
B( 52-N , 83-H ) :   0.9055 B( 53-C , 54-S ) :   1.1309 B( 53-C , 60-C ) :   1.3388
B( 54-S , 55-C ) :   1.0538 B( 55-C , 56-N ) :   0.9999 B( 55-C , 59-C ) :   1.4748
B( 56-N , 57-O ) :   1.5148 B( 56-N , 58-O ) :   1.4932 B( 57-O , 58-O ) :   0.2455
B( 59-C , 60-C ) :   1.2550 B( 59-C , 84-H ) :   0.9997 B( 60-C , 61-C ) :   1.0637
B( 61-C , 62-C ) :   1.9700 B( 61-C , 85-H ) :   0.9628 B( 62-C , 86-H ) :   0.9531
B( 62-C , 87-H ) :   0.9471

-----------------------------------------------------------------------------
         ABSORPTION SPECTRUM VIA TRANSITION ELECTRIC DIPOLE MOMENTS
-----------------------------------------------------------------------------
State   Energy  Wavelength   fosc         T2         TX        TY        TZ
        (cm-1)    (nm)                  (au**2)     (au)      (au)      (au)
-----------------------------------------------------------------------------
   0    9091.1   1100.0   0.008800670   0.31869   0.12586   0.20547  -0.51053
   1   15046.8    664.6   0.019411564   0.42471   0.39744   0.03103  -0.51554
   2   15884.4    629.5   1.496563100  31.01701   5.10114  -0.67129  -2.13184
   3   17459.9    572.7   0.460501553   8.68289   1.34645  -2.17876   1.45704
   4   21355.9    468.3   0.002755813   0.04248  -0.12997  -0.12400  -0.10106
   5   22431.0    445.8   0.010046949   0.14746   0.00658  -0.32681   0.20151
   6   22594.7    442.6   0.065171515   0.94957   0.85736   0.45531   0.08487
   7   24528.0    407.7   0.089702638   1.20398  -0.35566   0.68781  -0.77744
   8   26630.7    375.5   0.218576699   2.70207  -0.79040  -0.72591   1.24515
   9   26847.9    372.5   0.304075215   3.72860   0.21096   1.85810  -0.48120
  10   27930.6    358.0   0.209771961   2.47253   0.62434  -0.50873   1.35053
  11   28116.2    355.7   0.051248187   0.60006   0.37627  -0.14967   0.66036
  12   28614.8    349.5   0.177492699   2.04204   0.11475   1.42330  -0.05566
  13   29239.8    342.0   0.077915839   0.87726   0.10600  -0.92994   0.03514
  14   29391.7    340.2   0.253711971   2.84179   0.71365  -1.33353   0.74444
  15   29460.9    339.4   0.074004532   0.82697   0.63452   0.51137   0.40355
  16   29736.3    336.3   0.033972664   0.37611   0.07347   0.59336  -0.13651
  17   29860.4    334.9   0.188115247   2.07398   0.65373   0.66505   1.09741
  18   30939.9    323.2   0.418231414   4.45013  -1.60050  -0.18062  -1.36232
  19   31407.2    318.4   0.004625126   0.04848   0.07135  -0.12507   0.16658
  20   31795.1    314.5   0.089239859   0.92400  -0.73411  -0.61975  -0.03145
  21   32020.3    312.3   0.061854238   0.63595  -0.67791   0.07022  -0.41407
  22   32161.8    310.9   0.079318629   0.81191  -0.76470  -0.38029   0.28727
  23   33427.4    299.2   0.040032521   0.39426   0.38562  -0.30593   0.38983
  24   33585.9    297.7   0.091945235   0.90126  -0.13495  -0.68848   0.63956
  25   33717.2    296.6   0.009589629   0.09363  -0.05287  -0.25413   0.16203
  26   33999.7    294.1   0.132839629   1.28626   0.37134   0.88050  -0.61082
  27   34124.6    293.0   0.100410999   0.96870   0.56694   0.78510  -0.17578
  28   34559.6    289.4   0.055145777   0.52531  -0.27942   0.42403  -0.51714
  29   34774.4    287.6   0.008256644   0.07817  -0.22746  -0.01996  -0.16134
  30   34811.5    287.3   0.232965140   2.20315  -1.15346  -0.07597  -0.93108
  31   35391.6    282.6   0.131297002   1.22132   0.73101   0.79429  -0.23675
  32   35768.5    279.6   0.048935125   0.45040  -0.61308  -0.26968  -0.04243
  33   35873.5    278.8   0.003005763   0.02758   0.12457   0.04457   0.10039
  34   35956.7    278.1   0.020066376   0.18372   0.23063   0.33349  -0.13900
  35   36424.1    274.5   0.003686327   0.03332  -0.16928  -0.06318  -0.02591
  36   37207.0    268.8   0.002136002   0.01890   0.01777  -0.01469   0.13553
  37   37476.4    266.8   0.000551107   0.00484   0.00418  -0.06631   0.02065
  38   37867.4    264.1   0.001676411   0.01457   0.11653   0.02925  -0.01182
  39   38073.9    262.6   0.032581543   0.28172   0.49666  -0.04076   0.18273
  40   38277.7    261.2   0.155682433   1.33896  -1.11214  -0.05598  -0.31462
  41   38540.7    259.5   0.003835879   0.03277  -0.11089   0.01093  -0.14265
  42   38833.8    257.5   0.097223993   0.82421   0.79761   0.02091   0.43312
  43   38977.0    256.6   0.005435900   0.04591  -0.20320   0.02622  -0.06274
  44   39025.4    256.2   0.007468894   0.06301   0.12435   0.08962  -0.19878
  45   39110.2    255.7   0.110910196   0.93359  -0.87709   0.18849  -0.35886
  46   39457.6    253.4   0.004883916   0.04075  -0.15216  -0.09274   0.09484
  47   39702.1    251.9   0.131684402   1.09193  -0.86933  -0.08287  -0.57388
  48   39805.7    251.2   0.128283804   1.06097  -0.79438   0.03887  -0.65453
  49   40061.2    249.6   0.021336466   0.17534  -0.40761   0.02368   0.09290

FINAL SINGLE POINT ENERGY     -7426.749776717285

DIPOLE MOMENT
-------------
                                X             Y             Z
Electronic contribution:     14.82819     -97.14913     149.56138
Nuclear contribution   :    -18.97653      97.00460    -147.05520
                        -----------------------------------------
Total Dipole Moment    :     -4.14834      -0.14453       2.50618
                        -----------------------------------------
Magnitude (a.u.)       :      4.84877
Magnitude (Debye)      :     12.32458

Rotational constants in cm-1:     0.000801     0.000348     0.000268
Rotational constants in MHz :    24.026559    10.427583     8.045449

                             ****ORCA TERMINATED NORMALLY****
TOTAL RUN TIME: 0 days 0 hours 17 minutes 37 seconds 327 msec
