                         Program Version 4.2.0 -  RELEASE  -
|  1> # ORCA input file
|  2> # SCF done       -185.987725858697          0.000676535102
|  3> ! CAM-B3LYP def2-SVP def2/J RIJCOSX Grid4 TightSCF
|  4> %maxcore 5000
|  5> %tddft
|  6>     Mode sTDDFT
|  7>     Ethresh 5.0
|  8>     maxcore 5000
|  9> end
| 10>
| 11> %pal
| 12>   nprocs 6
| 13>   end
| 14> * xyz 0 1
| 15>    C        0.87226         1.46226         3.46750
| 16>    C        2.23173         1.49532         3.60432
| 17>    F        2.86903         2.66965         3.72222
| 18>    C        2.97925         0.30195         3.62271
| 19>    F        4.31300         0.36359         3.75599
| 20>    C        2.35681        -0.90941         3.50618
| 21>    C        0.95756        -0.97649         3.36457
| 22>    C        0.20066         0.22984         3.34287
| 23>    C       -1.20554         0.18767         3.19472
| 24>    C       -1.83360        -1.02263         3.07214
| 25>    C       -1.07010        -2.22249         3.10114
| 26>    C        0.28656        -2.21454         3.24209
| 27>    C       -1.97811        -3.38034         2.95226
| 28>    O       -1.65246        -4.55191         2.94034
| 29>    C       -3.33179        -2.80903         2.81970
| 30>    C       -3.24357        -1.37403         2.89700
| 31>    C       -4.27661        -0.46794         2.81931
| 32>    C       -5.63874        -0.78228         2.64444
| 33>    N       -6.76716        -0.94703         2.49987
| 34>    C       -4.10884         0.92823         2.90586
| 35>    N       -4.04282         2.07371         2.96408
| 36>    C       -4.48063        -3.55241         2.63088
| 37>    C       -4.53729        -4.93965         2.55262
| 38>    C       -5.71262        -5.62571         2.31099
| 39>    C       -5.86655        -7.02598         2.18700
| 40>    C       -7.13881        -7.42559         1.90071
| 41>    C       -8.05461        -6.35721         1.78849
| 42>    S       -7.25074        -4.82897         2.07634
| 43>    C       -9.39778        -6.41359         1.46477
| 44>    C      -10.17021        -7.54567         1.11333
| 45>    C      -11.45586        -7.26036         0.77613
| 46>    C      -11.78033        -5.88152         0.86187
| 47>    S      -10.37065        -4.96728         1.39823
| 48>    C      -12.97720        -5.29253         0.57828
| 49>    N      -13.18680        -3.95832         0.72924
| 50>    C      -14.32477        -3.24088         0.53396
| 51>    S      -14.11412        -1.55808         0.12680
| 52>    C      -15.82814        -1.39611        -0.08005
| 53>    N      -16.33238        -0.13973        -0.43591
| 54>    O      -17.53616        -0.03457        -0.58011
| 55>    O      -15.51677         0.75541        -0.57667
| 56>    C      -16.50655        -2.56002         0.15043
| 57>    C      -15.67337        -3.63077         0.53760
| 58>    C      -16.26950        -4.87342         0.95340
| 59>    C      -15.74855        -5.80290         1.77734
| 60>    C      -16.42420        -7.00508         2.14034
| 61>    C      -15.83140        -8.11345         2.73210
| 62>    C      -14.45156        -8.12182         2.98628
| 63>    N      -13.31508        -8.05283         3.12970
| 64>    C      -16.75345        -9.17195         2.95564
| 65>    C      -18.03004        -8.81925         2.53154
| 66>    S      -18.13123        -7.24285         1.84921
| 67>    S      -19.24858       -10.03069         2.76453
| 68>    C      -18.02244       -11.05018         3.44334
| 69>    C      -16.74827       -10.49437         3.48733
| 70>    C      -15.80707       -11.40552         4.04029
| 71>    C      -14.43248       -11.15965         4.18953
| 72>    N      -13.30821       -10.96130         4.29389
| 73>    C      -16.40006       -12.60682         4.40066
| 74>    S      -18.11064       -12.65175         4.06941
| 75>    C      -15.75819       -13.73741         4.98396
| 76>    O      -14.43616       -13.71192         5.25400
| 77>    C      -14.07000       -14.89157         5.80066
| 78>    C      -15.18763       -15.70331         5.88607
| 79>    C      -16.26632       -14.96787         5.36506
| 80>    F      -17.53465       -15.35911         5.25065
| 81>    F      -15.23775       -16.94343         6.36748
| 82>    C      -12.69254       -15.07910         6.16842
| 83>    C      -12.20275       -16.18768         6.71835
| 84>    H        0.31438         2.38562         3.45459
| 85>    H        2.94375        -1.81443         3.52236
| 86>    H       -1.74750         1.11915         3.18009
| 87>    H        0.84188        -3.14008         3.25849
| 88>    H       -5.41941        -3.02269         2.52352
| 89>    H       -3.62796        -5.51129         2.66918
| 90>    H       -5.03002        -7.69110         2.30691
| 91>    H       -7.43830        -8.44984         1.77068
| 92>    H       -9.75297        -8.53565         1.11438
| 93>    H      -12.18717        -7.99174         0.48577
| 94>    H      -13.79756        -5.88366         0.20546
| 95>    H      -12.35286        -3.41064         0.92073
| 96>    H      -17.57731        -2.62582         0.07656
| 97>    H      -17.28175        -5.01944         0.59600
| 98>    H      -14.76277        -5.69162         2.20699
| 99>    H      -12.06702       -14.22319         5.95798
|100>    H      -12.81984       -17.04314         6.93102
|101>    H      -11.16077       -16.26561         6.97136
|102> *
|103>
|104>                          ****END OF INPUT****

CARTESIAN COORDINATES (ANGSTROEM)
---------------------------------
  C      0.872260    1.462260    3.467500
  C      2.231730    1.495320    3.604320
  F      2.869030    2.669650    3.722220
  C      2.979250    0.301950    3.622710
  F      4.313000    0.363590    3.755990
  C      2.356810   -0.909410    3.506180
  C      0.957560   -0.976490    3.364570
  C      0.200660    0.229840    3.342870
  C     -1.205540    0.187670    3.194720
  C     -1.833600   -1.022630    3.072140
  C     -1.070100   -2.222490    3.101140
  C      0.286560   -2.214540    3.242090
  C     -1.978110   -3.380340    2.952260
  O     -1.652460   -4.551910    2.940340
  C     -3.331790   -2.809030    2.819700
  C     -3.243570   -1.374030    2.897000
  C     -4.276610   -0.467940    2.819310
  C     -5.638740   -0.782280    2.644440
  N     -6.767160   -0.947030    2.499870
  C     -4.108840    0.928230    2.905860
  N     -4.042820    2.073710    2.964080
  C     -4.480630   -3.552410    2.630880
  C     -4.537290   -4.939650    2.552620
  C     -5.712620   -5.625710    2.310990
  C     -5.866550   -7.025980    2.187000
  C     -7.138810   -7.425590    1.900710
  C     -8.054610   -6.357210    1.788490
  S     -7.250740   -4.828970    2.076340
  C     -9.397780   -6.413590    1.464770
  C    -10.170210   -7.545670    1.113330
  C    -11.455860   -7.260360    0.776130
  C    -11.780330   -5.881520    0.861870
  S    -10.370650   -4.967280    1.398230
  C    -12.977200   -5.292530    0.578280
  N    -13.186800   -3.958320    0.729240
  C    -14.324770   -3.240880    0.533960
  S    -14.114120   -1.558080    0.126800
  C    -15.828140   -1.396110   -0.080050
  N    -16.332380   -0.139730   -0.435910
  O    -17.536160   -0.034570   -0.580110
  O    -15.516770    0.755410   -0.576670
  C    -16.506550   -2.560020    0.150430
  C    -15.673370   -3.630770    0.537600
  C    -16.269500   -4.873420    0.953400
  C    -15.748550   -5.802900    1.777340
  C    -16.424200   -7.005080    2.140340
  C    -15.831400   -8.113450    2.732100
  C    -14.451560   -8.121820    2.986280
  N    -13.315080   -8.052830    3.129700
  C    -16.753450   -9.171950    2.955640
  C    -18.030040   -8.819250    2.531540
  S    -18.131230   -7.242850    1.849210
  S    -19.248580  -10.030690    2.764530
  C    -18.022440  -11.050180    3.443340
  C    -16.748270  -10.494370    3.487330
  C    -15.807070  -11.405520    4.040290
  C    -14.432480  -11.159650    4.189530
  N    -13.308210  -10.961300    4.293890
  C    -16.400060  -12.606820    4.400660
  S    -18.110640  -12.651750    4.069410
  C    -15.758190  -13.737410    4.983960
  O    -14.436160  -13.711920    5.254000
  C    -14.070000  -14.891570    5.800660
  C    -15.187630  -15.703310    5.886070
  C    -16.266320  -14.967870    5.365060
  F    -17.534650  -15.359110    5.250650
  F    -15.237750  -16.943430    6.367480
  C    -12.692540  -15.079100    6.168420
  C    -12.202750  -16.187680    6.718350
  H      0.314380    2.385620    3.454590
  H      2.943750   -1.814430    3.522360
  H     -1.747500    1.119150    3.180090
  H      0.841880   -3.140080    3.258490
  H     -5.419410   -3.022690    2.523520
  H     -3.627960   -5.511290    2.669180
  H     -5.030020   -7.691100    2.306910
  H     -7.438300   -8.449840    1.770680
  H     -9.752970   -8.535650    1.114380
  H    -12.187170   -7.991740    0.485770
  H    -13.797560   -5.883660    0.205460
  H    -12.352860   -3.410640    0.920730
  H    -17.577310   -2.625820    0.076560
  H    -17.281750   -5.019440    0.596000
  H    -14.762770   -5.691620    2.206990
  H    -12.067020  -14.223190    5.957980
  H    -12.819840  -17.043140    6.931020
  H    -11.160770  -16.265610    6.971360

 Total Charge           Charge          ....    0
 Multiplicity           Mult            ....    1
 Number of Electrons    NEL             ....  518
 Basis Dimension        Dim             .... 1080

ORBITAL ENERGIES
----------------

  NO   OCC          E(Eh)            E(eV)
   0   2.0000     -89.001643     -2421.8578
   1   2.0000     -89.001338     -2421.8495
   2   2.0000     -89.000281     -2421.8208
   3   2.0000     -88.996602     -2421.7207
   4   2.0000     -88.969822     -2420.9919
   5   2.0000     -88.957343     -2420.6524
   6   2.0000     -24.825687      -675.5413
   7   2.0000     -24.816577      -675.2934
   8   2.0000     -24.785627      -674.4512
   9   2.0000     -24.784405      -674.4179
  10   2.0000     -19.323349      -525.8151
  11   2.0000     -19.245052      -523.6845
  12   2.0000     -19.244220      -523.6619
  13   2.0000     -19.196481      -522.3628
  14   2.0000     -14.656672      -398.8283
  15   2.0000     -14.507471      -394.7684
  16   2.0000     -14.422171      -392.4472
  17   2.0000     -14.411850      -392.1664
  18   2.0000     -14.398513      -391.8035
  19   2.0000     -14.395054      -391.7093
  20   2.0000     -10.389396      -282.7098
  21   2.0000     -10.388030      -282.6727
  22   2.0000     -10.381879      -282.5053
  23   2.0000     -10.369144      -282.1588
  24   2.0000     -10.367174      -282.1051
  25   2.0000     -10.366305      -282.0815
  26   2.0000     -10.360884      -281.9340
  27   2.0000     -10.357718      -281.8478
  28   2.0000     -10.355566      -281.7893
  29   2.0000     -10.353577      -281.7352
  30   2.0000     -10.352472      -281.7051
  31   2.0000     -10.350479      -281.6508
  32   2.0000     -10.350174      -281.6426
  33   2.0000     -10.347144      -281.5601
  34   2.0000     -10.340116      -281.3689
  35   2.0000     -10.337501      -281.2977
  36   2.0000     -10.335896      -281.2540
  37   2.0000     -10.327817      -281.0342
  38   2.0000     -10.325343      -280.9669
  39   2.0000     -10.324774      -280.9514
  40   2.0000     -10.323847      -280.9262
  41   2.0000     -10.322467      -280.8886
  42   2.0000     -10.321979      -280.8753
  43   2.0000     -10.320574      -280.8371
  44   2.0000     -10.319743      -280.8145
  45   2.0000     -10.318926      -280.7923
  46   2.0000     -10.318762      -280.7878
  47   2.0000     -10.318243      -280.7737
  48   2.0000     -10.312742      -280.6240
  49   2.0000     -10.312699      -280.6228
  50   2.0000     -10.309212      -280.5279
  51   2.0000     -10.304135      -280.3898
  52   2.0000     -10.302722      -280.3513
  53   2.0000     -10.299713      -280.2694
  54   2.0000     -10.299325      -280.2589
  55   2.0000     -10.298386      -280.2333
  56   2.0000     -10.295012      -280.1415
  57   2.0000     -10.294504      -280.1277
  58   2.0000     -10.294062      -280.1157
  59   2.0000     -10.289636      -279.9952
  60   2.0000     -10.289216      -279.9838
  61   2.0000     -10.287165      -279.9280
  62   2.0000     -10.286161      -279.9007
  63   2.0000     -10.285515      -279.8831
  64   2.0000     -10.284831      -279.8645
  65   2.0000     -10.284229      -279.8481
  66   2.0000     -10.274928      -279.5950
  67   2.0000     -10.272824      -279.5378
  68   2.0000     -10.269906      -279.4583
  69   2.0000      -8.096666      -220.3215
  70   2.0000      -8.096414      -220.3146
  71   2.0000      -8.095586      -220.2921
  72   2.0000      -8.092473      -220.2074
  73   2.0000      -8.066407      -219.4981
  74   2.0000      -8.053353      -219.1429
  75   2.0000      -6.066414      -165.0755
  76   2.0000      -6.066369      -165.0743
  77   2.0000      -6.065112      -165.0401
  78   2.0000      -6.062181      -164.9603
  79   2.0000      -6.062146      -164.9594
  80   2.0000      -6.062064      -164.9572
  81   2.0000      -6.060986      -164.9278
  82   2.0000      -6.058021      -164.8471
  83   2.0000      -6.057719      -164.8389
  84   2.0000      -6.057228      -164.8255
  85   2.0000      -6.057162      -164.8237
  86   2.0000      -6.053801      -164.7323
  87   2.0000      -6.036194      -164.2532
  88   2.0000      -6.032127      -164.1425
  89   2.0000      -6.027199      -164.0084
  90   2.0000      -6.022939      -163.8925
  91   2.0000      -6.018948      -163.7839
  92   2.0000      -6.014516      -163.6633
  93   2.0000      -1.340717       -36.4828
  94   2.0000      -1.328231       -36.1430
  95   2.0000      -1.325745       -36.0754
  96   2.0000      -1.307290       -35.5732
  97   2.0000      -1.292504       -35.1708
  98   2.0000      -1.244937       -33.8765
  99   2.0000      -1.145193       -31.1623
 100   2.0000      -1.111290       -30.2398
 101   2.0000      -1.110073       -30.2066
 102   2.0000      -1.056050       -28.7366
 103   2.0000      -1.025017       -27.8921
 104   2.0000      -1.021155       -27.7871
 105   2.0000      -1.009951       -27.4822
 106   2.0000      -1.005452       -27.3597
 107   2.0000      -1.000615       -27.2281
 108   2.0000      -0.992715       -27.0131
 109   2.0000      -0.987437       -26.8695
 110   2.0000      -0.987314       -26.8662
 111   2.0000      -0.975911       -26.5559
 112   2.0000      -0.969302       -26.3760
 113   2.0000      -0.963348       -26.2140
 114   2.0000      -0.934964       -25.4417
 115   2.0000      -0.930967       -25.3329
 116   2.0000      -0.922063       -25.0906
 117   2.0000      -0.919686       -25.0259
 118   2.0000      -0.913969       -24.8704
 119   2.0000      -0.907774       -24.7018
 120   2.0000      -0.899432       -24.4748
 121   2.0000      -0.889369       -24.2010
 122   2.0000      -0.882433       -24.0122
 123   2.0000      -0.877994       -23.8914
 124   2.0000      -0.873423       -23.7671
 125   2.0000      -0.868595       -23.6357
 126   2.0000      -0.865051       -23.5392
 127   2.0000      -0.860670       -23.4200
 128   2.0000      -0.841638       -22.9021
 129   2.0000      -0.836394       -22.7594
 130   2.0000      -0.831391       -22.6233
 131   2.0000      -0.824111       -22.4252
 132   2.0000      -0.811421       -22.0799
 133   2.0000      -0.807291       -21.9675
 134   2.0000      -0.787230       -21.4216
 135   2.0000      -0.775632       -21.1060
 136   2.0000      -0.762041       -20.7362
 137   2.0000      -0.748757       -20.3747
 138   2.0000      -0.744460       -20.2578
 139   2.0000      -0.744182       -20.2502
 140   2.0000      -0.738218       -20.0879
 141   2.0000      -0.721124       -19.6228
 142   2.0000      -0.716591       -19.4994
 143   2.0000      -0.713366       -19.4117
 144   2.0000      -0.706184       -19.2162
 145   2.0000      -0.702317       -19.1110
 146   2.0000      -0.696607       -18.9556
 147   2.0000      -0.691939       -18.8286
 148   2.0000      -0.679331       -18.4855
 149   2.0000      -0.676932       -18.4203
 150   2.0000      -0.675958       -18.3938
 151   2.0000      -0.665042       -18.0967
 152   2.0000      -0.660071       -17.9614
 153   2.0000      -0.657038       -17.8789
 154   2.0000      -0.652169       -17.7464
 155   2.0000      -0.645919       -17.5764
 156   2.0000      -0.643894       -17.5213
 157   2.0000      -0.638386       -17.3714
 158   2.0000      -0.637600       -17.3500
 159   2.0000      -0.636026       -17.3071
 160   2.0000      -0.634759       -17.2727
 161   2.0000      -0.627210       -17.0673
 162   2.0000      -0.626808       -17.0563
 163   2.0000      -0.619518       -16.8579
 164   2.0000      -0.617552       -16.8045
 165   2.0000      -0.615138       -16.7387
 166   2.0000      -0.606143       -16.4940
 167   2.0000      -0.598916       -16.2973
 168   2.0000      -0.596981       -16.2447
 169   2.0000      -0.595798       -16.2125
 170   2.0000      -0.584952       -15.9174
 171   2.0000      -0.573963       -15.6183
 172   2.0000      -0.572768       -15.5858
 173   2.0000      -0.572051       -15.5663
 174   2.0000      -0.569379       -15.4936
 175   2.0000      -0.567443       -15.4409
 176   2.0000      -0.564306       -15.3556
 177   2.0000      -0.562935       -15.3182
 178   2.0000      -0.559120       -15.2144
 179   2.0000      -0.552333       -15.0297
 180   2.0000      -0.551980       -15.0201
 181   2.0000      -0.545319       -14.8389
 182   2.0000      -0.542786       -14.7699
 183   2.0000      -0.541586       -14.7373
 184   2.0000      -0.539453       -14.6793
 185   2.0000      -0.538300       -14.6479
 186   2.0000      -0.535380       -14.5684
 187   2.0000      -0.534082       -14.5331
 188   2.0000      -0.531429       -14.4609
 189   2.0000      -0.529862       -14.4183
 190   2.0000      -0.522514       -14.2183
 191   2.0000      -0.519751       -14.1432
 192   2.0000      -0.517673       -14.0866
 193   2.0000      -0.516658       -14.0590
 194   2.0000      -0.515765       -14.0347
 195   2.0000      -0.513351       -13.9690
 196   2.0000      -0.511915       -13.9299
 197   2.0000      -0.510986       -13.9046
 198   2.0000      -0.507550       -13.8112
 199   2.0000      -0.504502       -13.7282
 200   2.0000      -0.501555       -13.6480
 201   2.0000      -0.495749       -13.4900
 202   2.0000      -0.495295       -13.4777
 203   2.0000      -0.488338       -13.2884
 204   2.0000      -0.486460       -13.2372
 205   2.0000      -0.483350       -13.1526
 206   2.0000      -0.479223       -13.0403
 207   2.0000      -0.476695       -12.9715
 208   2.0000      -0.476365       -12.9626
 209   2.0000      -0.472522       -12.8580
 210   2.0000      -0.471079       -12.8187
 211   2.0000      -0.469965       -12.7884
 212   2.0000      -0.467926       -12.7329
 213   2.0000      -0.466753       -12.7010
 214   2.0000      -0.462503       -12.5854
 215   2.0000      -0.453048       -12.3281
 216   2.0000      -0.452109       -12.3025
 217   2.0000      -0.449521       -12.2321
 218   2.0000      -0.449019       -12.2184
 219   2.0000      -0.448517       -12.2048
 220   2.0000      -0.445912       -12.1339
 221   2.0000      -0.443715       -12.0741
 222   2.0000      -0.443238       -12.0611
 223   2.0000      -0.441354       -12.0099
 224   2.0000      -0.437992       -11.9184
 225   2.0000      -0.433583       -11.7984
 226   2.0000      -0.430468       -11.7136
 227   2.0000      -0.430329       -11.7098
 228   2.0000      -0.426333       -11.6011
 229   2.0000      -0.415578       -11.3084
 230   2.0000      -0.413490       -11.2516
 231   2.0000      -0.413020       -11.2388
 232   2.0000      -0.411823       -11.2063
 233   2.0000      -0.406904       -11.0724
 234   2.0000      -0.405855       -11.0439
 235   2.0000      -0.399853       -10.8806
 236   2.0000      -0.399582       -10.8732
 237   2.0000      -0.392237       -10.6733
 238   2.0000      -0.389790       -10.6067
 239   2.0000      -0.388725       -10.5777
 240   2.0000      -0.384606       -10.4657
 241   2.0000      -0.382202       -10.4002
 242   2.0000      -0.373854       -10.1731
 243   2.0000      -0.373333       -10.1589
 244   2.0000      -0.370456       -10.0806
 245   2.0000      -0.359127        -9.7723
 246   2.0000      -0.353612        -9.6223
 247   2.0000      -0.352861        -9.6018
 248   2.0000      -0.340618        -9.2687
 249   2.0000      -0.335223        -9.1219
 250   2.0000      -0.327624        -8.9151
 251   2.0000      -0.324147        -8.8205
 252   2.0000      -0.317080        -8.6282
 253   2.0000      -0.302824        -8.2403
 254   2.0000      -0.297076        -8.0838
 255   2.0000      -0.285357        -7.7649
 256   2.0000      -0.276786        -7.5317
 257   2.0000      -0.274010        -7.4562
 258   2.0000      -0.226406        -6.1608
 259   0.0000      -0.105591        -2.8733
 260   0.0000      -0.069824        -1.9000
 261   0.0000      -0.062997        -1.7142
 262   0.0000      -0.060366        -1.6427
 263   0.0000      -0.047651        -1.2966

MULLIKEN ATOMIC CHARGES
-----------------------
   0 C :   -0.109509
   1 C :    0.238276
   2 F :   -0.176178
   3 C :    0.236007
   4 F :   -0.177646
   5 C :   -0.106954
   6 C :    0.116642
   7 C :    0.111324
   8 C :   -0.089519
   9 C :    0.050260
  10 C :   -0.000828
  11 C :   -0.088601
  12 C :    0.138120
  13 O :   -0.165738
  14 C :   -0.092476
  15 C :    0.336193
  16 C :   -0.366675
  17 C :   -0.187954
  18 N :    0.125618
  19 C :   -0.186706
  20 N :    0.130371
  21 C :   -0.040844
  22 C :   -0.028201
  23 C :    0.008536
  24 C :    0.024224
  25 C :    0.046495
  26 C :   -0.055983
  27 S :    0.103474
  28 C :   -0.024302
  29 C :    0.018907
  30 C :    0.105358
  31 C :   -0.062100
  32 S :    0.077845
  33 C :    0.033742
  34 N :   -0.023991
  35 C :   -0.122174
  36 S :    0.190307
  37 C :   -0.004469
  38 N :    0.277796
  39 O :   -0.247795
  40 O :   -0.258198
  41 C :   -0.001000
  42 C :    0.107178
  43 C :   -0.034533
  44 C :   -0.034743
  45 C :   -0.100206
  46 C :   -0.024227
  47 C :   -0.320511
  48 N :    0.200775
  49 C :    0.161664
  50 C :   -0.237045
  51 S :    0.164772
  52 S :    0.196781
  53 C :   -0.232728
  54 C :    0.131727
  55 C :   -0.025202
  56 C :   -0.331849
  57 N :    0.232499
  58 C :   -0.084938
  59 S :    0.201870
  60 C :    0.052305
  61 O :   -0.186237
  62 C :    0.105693
  63 C :    0.145568
  64 C :    0.148633
  65 F :   -0.161601
  66 F :   -0.160252
  67 C :   -0.008395
  68 C :   -0.011952
  69 H :    0.004805
  70 H :   -0.005756
  71 H :   -0.010700
  72 H :   -0.017140
  73 H :    0.013344
  74 H :    0.015591
  75 H :   -0.000461
  76 H :   -0.002279
  77 H :   -0.002531
  78 H :   -0.000428
  79 H :    0.046663
  80 H :    0.153230
  81 H :    0.014554
  82 H :    0.002113
  83 H :    0.047024
  84 H :    0.022880
  85 H :    0.034407
  86 H :    0.037986
Sum of atomic charges:   -0.0000000

LOEWDIN ATOMIC CHARGES
----------------------
   0 C :   -0.030697
   1 C :    0.062621
   2 F :   -0.053785
   3 C :    0.063948
   4 F :   -0.054654
   5 C :   -0.035538
   6 C :   -0.010614
   7 C :   -0.008646
   8 C :    0.011809
   9 C :   -0.019227
  10 C :   -0.048276
  11 C :    0.021853
  12 C :    0.080342
  13 O :   -0.160453
  14 C :   -0.112172
  15 C :    0.072695
  16 C :   -0.159273
  17 C :   -0.019866
  18 N :   -0.072484
  19 C :   -0.018267
  20 N :   -0.071900
  21 C :    0.050938
  22 C :   -0.077716
  23 C :   -0.099582
  24 C :   -0.045601
  25 C :   -0.002625
  26 C :   -0.200404
  27 S :    0.409571
  28 C :   -0.133723
  29 C :   -0.039037
  30 C :    0.011555
  31 C :   -0.183564
  32 S :    0.374202
  33 C :    0.021090
  34 N :    0.044371
  35 C :   -0.098353
  36 S :    0.466459
  37 C :   -0.208575
  38 N :    0.273664
  39 O :   -0.213806
  40 O :   -0.224121
  41 C :    0.004574
  42 C :   -0.107355
  43 C :   -0.013617
  44 C :   -0.054914
  45 C :   -0.126696
  46 C :   -0.103212
  47 C :   -0.035788
  48 N :   -0.039427
  49 C :   -0.063126
  50 C :   -0.331486
  51 S :    0.450489
  52 S :    0.429944
  53 C :   -0.336236
  54 C :   -0.061014
  55 C :   -0.100301
  56 C :   -0.044902
  57 N :   -0.037868
  58 C :   -0.144117
  59 S :    0.468446
  60 C :   -0.026194
  61 O :    0.042797
  62 C :    0.015773
  63 C :    0.017452
  64 C :    0.023957
  65 F :   -0.039419
  66 F :   -0.036891
  67 C :   -0.037612
  68 C :   -0.017459
  69 H :    0.046476
  70 H :    0.042701
  71 H :    0.038610
  72 H :    0.037273
  73 H :    0.030710
  74 H :    0.038316
  75 H :    0.038569
  76 H :    0.036556
  77 H :    0.037827
  78 H :    0.038892
  79 H :    0.043586
  80 H :    0.087919
  81 H :    0.046975
  82 H :    0.028145
  83 H :    0.043297
  84 H :    0.046975
  85 H :    0.026630
  86 H :    0.032587

  Mayer bond orders larger than 0.100000
B(  0-C ,  1-C ) :   1.4367 B(  0-C ,  5-C ) :   0.1091 B(  0-C ,  7-C ) :   1.1909
B(  0-C , 69-H ) :   1.0078 B(  1-C ,  2-F ) :   1.1305 B(  1-C ,  3-C ) :   1.1960
B(  3-C ,  4-F ) :   1.1268 B(  3-C ,  5-C ) :   1.4399 B(  5-C ,  6-C ) :   1.1940
B(  5-C , 70-H ) :   1.0078 B(  6-C ,  7-C ) :   1.2620 B(  6-C , 11-C ) :   1.1799
B(  7-C ,  8-C ) :   1.2067 B(  8-C ,  9-C ) :   1.4611 B(  8-C , 71-H ) :   0.9897
B(  9-C , 10-C ) :   1.2231 B(  9-C , 15-C ) :   0.9722 B( 10-C , 11-C ) :   1.4816
B( 10-C , 12-C ) :   0.9320 B( 11-C , 72-H ) :   1.0163 B( 12-C , 13-O ) :   2.1890
B( 12-C , 14-C ) :   0.9702 B( 14-C , 15-C ) :   1.1231 B( 14-C , 21-C ) :   1.4570
B( 15-C , 16-C ) :   1.5745 B( 16-C , 17-C ) :   1.1541 B( 16-C , 19-C ) :   1.1537
B( 17-C , 18-N ) :   2.9535 B( 19-C , 20-N ) :   2.9527 B( 21-C , 22-C ) :   1.2766
B( 21-C , 73-H ) :   0.9428 B( 22-C , 23-C ) :   1.4000 B( 22-C , 74-H ) :   0.9796
B( 23-C , 24-C ) :   1.1827 B( 23-C , 27-S ) :   1.0946 B( 24-C , 25-C ) :   1.5380
B( 24-C , 75-H ) :   1.0024 B( 25-C , 26-C ) :   1.2169 B( 25-C , 76-H ) :   0.9958
B( 26-C , 27-S ) :   1.0384 B( 26-C , 28-C ) :   1.4749 B( 28-C , 29-C ) :   1.1953
B( 28-C , 32-S ) :   1.0825 B( 29-C , 30-C ) :   1.6049 B( 29-C , 77-H ) :   0.9935
B( 30-C , 31-C ) :   1.1566 B( 30-C , 78-H ) :   0.9908 B( 31-C , 32-S ) :   1.0100
B( 31-C , 33-C ) :   1.5978 B( 33-C , 34-N ) :   1.1645 B( 33-C , 79-H ) :   0.9582
B( 34-N , 35-C ) :   1.1863 B( 34-N , 80-H ) :   0.8949 B( 35-C , 36-S ) :   1.1486
B( 35-C , 42-C ) :   1.3720 B( 36-S , 37-C ) :   1.0816 B( 37-C , 38-N ) :   0.9673
B( 37-C , 41-C ) :   1.4983 B( 38-N , 39-O ) :   1.5351 B( 38-N , 40-O ) :   1.5131
B( 39-O , 40-O ) :   0.2619 B( 41-C , 42-C ) :   1.2147 B( 41-C , 81-H ) :   1.0056
B( 42-C , 43-C ) :   1.0907 B( 43-C , 44-C ) :   1.6763 B( 43-C , 82-H ) :   0.9636
B( 44-C , 45-C ) :   1.1846 B( 44-C , 83-H ) :   0.9541 B( 45-C , 46-C ) :   1.4895
B( 45-C , 51-S ) :   1.1230 B( 46-C , 47-C ) :   1.1801 B( 46-C , 49-C ) :   1.2389
B( 47-C , 48-N ) :   2.9528 B( 49-C , 50-C ) :   1.4139 B( 49-C , 54-C ) :   1.0688
B( 50-C , 51-S ) :   1.0889 B( 50-C , 52-S ) :   1.0891 B( 52-S , 53-C ) :   1.0847
B( 53-C , 54-C ) :   1.4212 B( 53-C , 59-S ) :   1.0731 B( 54-C , 55-C ) :   1.2478
B( 55-C , 56-C ) :   1.1925 B( 55-C , 58-C ) :   1.4990 B( 56-C , 57-N ) :   2.9852
B( 58-C , 59-S ) :   1.1498 B( 58-C , 60-C ) :   1.1288 B( 60-C , 61-O ) :   1.1649
B( 60-C , 62-C ) :   0.1362 B( 60-C , 64-C ) :   1.3862 B( 61-O , 62-C ) :   1.1168
B( 62-C , 63-C ) :   1.4054 B( 62-C , 67-C ) :   1.1186 B( 63-C , 64-C ) :   1.2110
B( 63-C , 66-F ) :   1.1542 B( 64-C , 65-F ) :   1.1659 B( 67-C , 68-C ) :   1.9241
B( 67-C , 84-H ) :   0.9528 B( 68-C , 85-H ) :   0.9541 B( 68-C , 86-H ) :   0.9475

-----------------------------------------------------------------------------
         ABSORPTION SPECTRUM VIA TRANSITION ELECTRIC DIPOLE MOMENTS
-----------------------------------------------------------------------------
State   Energy  Wavelength   fosc         T2         TX        TY        TZ
        (cm-1)    (nm)                  (au**2)     (au)      (au)      (au)
-----------------------------------------------------------------------------
   0   12114.0    825.5   1.378850113  37.47199  -5.72441  -1.90008  -1.04537
   1   20158.6    496.1   0.074198131   1.21173   0.56578  -0.85652  -0.39749
   2   22825.3    438.1   0.108733004   1.56827   0.14730  -1.08814   0.60209
   3   23312.1    429.0   0.375274098   5.29960   1.30335  -1.89744  -0.02455
   4   23976.9    417.1   0.051612926   0.70866  -0.68360  -0.47450   0.12729
   5   26067.1    383.6   0.178342962   2.25237  -1.26221   0.62267  -0.52103
   6   26695.9    374.6   0.000317595   0.00392  -0.00810   0.05656  -0.02554
   7   26762.7    373.7   0.007958455   0.09790   0.06245   0.30014  -0.06256
   8   26876.6    372.1   0.034441748   0.42188   0.08672   0.63299  -0.11695
   9   27172.2    368.0   0.050527185   0.61217   0.41035   0.66390  -0.05505
  10   28591.0    349.8   0.102327282   1.17825  -0.74663   0.76914  -0.17090
  11   28826.9    346.9   0.142262770   1.62468   0.19320   1.24757  -0.17584
  12   29418.3    339.9   1.757956198  19.67279   1.30985  -3.83811   1.79610
  13   30665.6    326.1   0.109544574   1.17602  -0.93859  -0.53197   0.10990
  14   31158.1    320.9   0.003448096   0.03643   0.18128  -0.01896   0.05667
  15   31444.3    318.0   0.079458730   0.83191   0.34227   0.84439  -0.04201
  16   31854.4    313.9   0.017404133   0.17987   0.10213  -0.39474   0.11671
  17   31921.3    313.3   0.040720081   0.41996  -0.12551   0.62160  -0.13347
  18   32339.6    309.2   0.000049647   0.00051  -0.01080   0.00786   0.01808
  19   32886.7    304.1   0.507735777   5.08269   1.54244   1.64213  -0.08338
  20   33447.1    299.0   0.084284730   0.82960   0.21104   0.88447   0.05266
  21   33905.0    294.9   0.017111675   0.16615   0.40114   0.06800   0.02472
  22   33957.3    294.5   0.463898837   4.49744   2.08360  -0.16915   0.35698
  23   34771.2    287.6   0.101556196   0.96153  -0.46946  -0.82362   0.25057
  24   35850.0    278.9   0.034948025   0.32093   0.28611  -0.48619   0.05188
  25   36264.6    275.8   0.012306723   0.11172  -0.17645  -0.27836   0.05571
  26   36726.7    272.3   0.059248381   0.53109  -0.58892   0.28663  -0.31955
  27   36818.1    271.6   0.016747390   0.14975   0.00819   0.37163  -0.10759
  28   37112.8    269.4   0.032742541   0.29045  -0.25686   0.39250  -0.26534
  29   37500.9    266.7   0.022745879   0.19968  -0.19276   0.35658  -0.18807
  30   37637.3    265.7   0.148924850   1.30264   1.03267  -0.47860   0.08464
  31   38642.0    258.8   0.066565016   0.56710  -0.20030   0.72585   0.01153
  32   38743.9    258.1   0.140171933   1.19106   0.76847  -0.77429   0.03136
  33   39169.8    255.3   0.008225952   0.06914  -0.26235   0.00450   0.01703
  34   39433.1    253.6   0.000794722   0.00663  -0.07528   0.00479  -0.03075
  35   39496.3    253.2   0.042298671   0.35257   0.59360   0.01338   0.00559
  36   39784.5    251.4   0.003452869   0.02857  -0.04894   0.12545  -0.10217
  37   40042.9    249.7   0.038614448   0.31747   0.13860  -0.54603   0.01018
  38   40293.1    248.2   0.007242172   0.05917   0.14459   0.18382  -0.06690

FINAL SINGLE POINT ENERGY     -5291.430288514378

DIPOLE MOMENT
-------------
                                X             Y             Z
Electronic contribution:    -21.18333      -5.31422       7.83148
Nuclear contribution   :     17.23339      -0.42015      -8.40821
                        -----------------------------------------
Total Dipole Moment    :     -3.94994      -5.73437      -0.57673
                        -----------------------------------------
Magnitude (a.u.)       :      6.98696
Magnitude (Debye)      :     17.75944

Rotational constants in cm-1:     0.001068     0.000261     0.000213
Rotational constants in MHz :    32.008668     7.819959     6.385538

                             ****ORCA TERMINATED NORMALLY****
TOTAL RUN TIME: 0 days 0 hours 13 minutes 2 seconds 774 msec
