                         Program Version 4.2.0 -  RELEASE  -
|  1> # ORCA input file
|  2> # SCF done       -185.434019539166          0.000388996766
|  3> ! CAM-B3LYP def2-SVP def2/J RIJCOSX Grid4 TightSCF
|  4> %maxcore 5000
|  5> %tddft
|  6>     Mode sTDDFT
|  7>     Ethresh 5.0
|  8>     maxcore 5000
|  9> end
| 10>
| 11> %pal
| 12>   nprocs 6
| 13>   end
| 14> * xyz 0 1
| 15>    C        4.57051        -0.68858        -2.48523
| 16>    C        5.37139        -1.45110        -1.73006
| 17>    C        6.45812        -1.02502        -0.89305
| 18>    C        7.09539        -2.02683        -0.25115
| 19>    C        6.57016        -3.32361        -0.52357
| 20>    S        5.21923        -3.21274        -1.63410
| 21>    C        7.01609        -4.52392        -0.03144
| 22>    C        8.09871        -4.77095         0.85211
| 23>    C        8.30724        -6.08174         1.13321
| 24>    C        7.39900        -6.96517         0.48788
| 25>    S        6.25310        -6.03704        -0.48559
| 26>    C        7.37352        -8.32429         0.54891
| 27>    N        6.44823        -9.05444        -0.13544
| 28>    C        6.34760       -10.39477        -0.19107
| 29>    S        7.38720       -11.39753         0.77680
| 30>    C        6.53804       -12.80625         0.20860
| 31>    N        6.97052       -14.04194         0.68560
| 32>    O        6.38835       -15.04073         0.30063
| 33>    O        7.91301       -14.02470         1.46441
| 34>    C        5.52434       -12.51174        -0.66079
| 35>    C        5.40284       -11.13457        -0.93035
| 36>    C        4.40840       -10.65014        -1.84671
| 37>    C        4.36670        -9.45136        -2.46315
| 38>    C        3.32513        -8.97510        -3.34426
| 39>    C        3.26505        -7.59760        -3.62576
| 40>    F        4.16902        -6.78205        -3.06537
| 41>    C        2.30172        -7.04982        -4.44676
| 42>    F        2.26662        -5.72238        -4.66747
| 43>    C        1.32662        -7.83975        -5.06975
| 44>    C        1.36703        -9.21033        -4.78799
| 45>    C        2.33570        -9.75528        -3.96020
| 46>    F        2.29515       -11.07922        -3.76606
| 47>    F        0.43333       -10.01868        -5.31389
| 48>    N        0.37282        -7.23686        -5.86790
| 49>    C       -0.36847        -7.82439        -6.85622
| 50>    S       -2.04139        -7.40101        -7.00514
| 51>    C       -2.17406        -8.45563        -8.37663
| 52>    N       -3.42711        -8.52931        -9.01131
| 53>    O       -3.52439        -9.23528        -9.99222
| 54>    O       -4.31868        -7.86031        -8.52118
| 55>    C       -1.00704        -9.08368        -8.69708
| 56>    C        0.06241        -8.71662        -7.84587
| 57>    C        1.42459        -9.11946        -8.02384
| 58>    C        1.91020        -9.74239        -9.12432
| 59>    C        3.27719       -10.09534        -9.21996
| 60>    C        3.93633       -10.73063       -10.22761
| 61>    C        5.42573       -10.66983       -10.23566
| 62>    O        6.13569       -10.32758        -9.31793
| 63>    C        5.82598       -11.04810       -11.60313
| 64>    C        7.07006       -11.03609       -12.16534
| 65>    C        7.21303       -11.39542       -13.52368
| 66>    C        6.05662       -11.75331       -14.27603
| 67>    C        6.20313       -12.09776       -15.63499
| 68>    C        7.43915       -12.09022       -16.21789
| 69>    C        8.58250       -11.73854       -15.47180
| 70>    C        8.47339       -11.39853       -14.15266
| 71>    F        9.78100       -11.73849       -16.06988
| 72>    F        7.57679       -12.41695       -17.50898
| 73>    C        4.78239       -11.76417       -13.66385
| 74>    C        4.66827       -11.42554       -12.34156
| 75>    C        3.50678       -11.37564       -11.45225
| 76>    C        2.31662       -12.00808       -11.69380
| 77>    C        1.27222       -12.16685       -10.75847
| 78>    N        0.39673       -12.35597       -10.04091
| 79>    C        2.01714       -12.67351       -12.90299
| 80>    N        1.71511       -13.21609       -13.86784
| 81>    H        4.69757         0.37916        -2.51626
| 82>    H        3.78296        -1.11306        -3.08055
| 83>    H        6.71169         0.01721        -0.81398
| 84>    H        7.93032        -1.88962         0.41283
| 85>    H        8.69243        -3.96724         1.24858
| 86>    H        9.08295        -6.45448         1.77755
| 87>    H        8.09995        -8.87191         1.12911
| 88>    H        5.73635        -8.51666        -0.61881
| 89>    H        4.90615       -13.27195        -1.10361
| 90>    H        3.63367       -11.37475        -2.04730
| 91>    H        5.16209        -8.73192        -2.33293
| 92>    H        0.12979        -6.28833        -5.61212
| 93>    H       -0.93404        -9.79274        -9.50152
| 94>    H        2.11811        -8.87883        -7.22955
| 95>    H        1.25891        -9.94970        -9.95658
| 96>    H        3.92088        -9.75818        -8.41224
| 97>    H        7.93270       -10.75292       -11.58160
| 98>    H        5.33920       -12.37307       -16.21956
| 99>    H        9.35759       -11.13149       -13.59531
|100>    H        3.92616       -12.03033       -14.26241
|101> *
|102>
|103>                          ****END OF INPUT****

CARTESIAN COORDINATES (ANGSTROEM)
---------------------------------
  C      4.570510   -0.688580   -2.485230
  C      5.371390   -1.451100   -1.730060
  C      6.458120   -1.025020   -0.893050
  C      7.095390   -2.026830   -0.251150
  C      6.570160   -3.323610   -0.523570
  S      5.219230   -3.212740   -1.634100
  C      7.016090   -4.523920   -0.031440
  C      8.098710   -4.770950    0.852110
  C      8.307240   -6.081740    1.133210
  C      7.399000   -6.965170    0.487880
  S      6.253100   -6.037040   -0.485590
  C      7.373520   -8.324290    0.548910
  N      6.448230   -9.054440   -0.135440
  C      6.347600  -10.394770   -0.191070
  S      7.387200  -11.397530    0.776800
  C      6.538040  -12.806250    0.208600
  N      6.970520  -14.041940    0.685600
  O      6.388350  -15.040730    0.300630
  O      7.913010  -14.024700    1.464410
  C      5.524340  -12.511740   -0.660790
  C      5.402840  -11.134570   -0.930350
  C      4.408400  -10.650140   -1.846710
  C      4.366700   -9.451360   -2.463150
  C      3.325130   -8.975100   -3.344260
  C      3.265050   -7.597600   -3.625760
  F      4.169020   -6.782050   -3.065370
  C      2.301720   -7.049820   -4.446760
  F      2.266620   -5.722380   -4.667470
  C      1.326620   -7.839750   -5.069750
  C      1.367030   -9.210330   -4.787990
  C      2.335700   -9.755280   -3.960200
  F      2.295150  -11.079220   -3.766060
  F      0.433330  -10.018680   -5.313890
  N      0.372820   -7.236860   -5.867900
  C     -0.368470   -7.824390   -6.856220
  S     -2.041390   -7.401010   -7.005140
  C     -2.174060   -8.455630   -8.376630
  N     -3.427110   -8.529310   -9.011310
  O     -3.524390   -9.235280   -9.992220
  O     -4.318680   -7.860310   -8.521180
  C     -1.007040   -9.083680   -8.697080
  C      0.062410   -8.716620   -7.845870
  C      1.424590   -9.119460   -8.023840
  C      1.910200   -9.742390   -9.124320
  C      3.277190  -10.095340   -9.219960
  C      3.936330  -10.730630  -10.227610
  C      5.425730  -10.669830  -10.235660
  O      6.135690  -10.327580   -9.317930
  C      5.825980  -11.048100  -11.603130
  C      7.070060  -11.036090  -12.165340
  C      7.213030  -11.395420  -13.523680
  C      6.056620  -11.753310  -14.276030
  C      6.203130  -12.097760  -15.634990
  C      7.439150  -12.090220  -16.217890
  C      8.582500  -11.738540  -15.471800
  C      8.473390  -11.398530  -14.152660
  F      9.781000  -11.738490  -16.069880
  F      7.576790  -12.416950  -17.508980
  C      4.782390  -11.764170  -13.663850
  C      4.668270  -11.425540  -12.341560
  C      3.506780  -11.375640  -11.452250
  C      2.316620  -12.008080  -11.693800
  C      1.272220  -12.166850  -10.758470
  N      0.396730  -12.355970  -10.040910
  C      2.017140  -12.673510  -12.902990
  N      1.715110  -13.216090  -13.867840
  H      4.697570    0.379160   -2.516260
  H      3.782960   -1.113060   -3.080550
  H      6.711690    0.017210   -0.813980
  H      7.930320   -1.889620    0.412830
  H      8.692430   -3.967240    1.248580
  H      9.082950   -6.454480    1.777550
  H      8.099950   -8.871910    1.129110
  H      5.736350   -8.516660   -0.618810
  H      4.906150  -13.271950   -1.103610
  H      3.633670  -11.374750   -2.047300
  H      5.162090   -8.731920   -2.332930
  H      0.129790   -6.288330   -5.612120
  H     -0.934040   -9.792740   -9.501520
  H      2.118110   -8.878830   -7.229550
  H      1.258910   -9.949700   -9.956580
  H      3.920880   -9.758180   -8.412240
  H      7.932700  -10.752920  -11.581600
  H      5.339200  -12.373070  -16.219560
  H      9.357590  -11.131490  -13.595310
  H      3.926160  -12.030330  -14.262410

 Total Charge           Charge          ....    0
 Multiplicity           Mult            ....    1
 Number of Electrons    NEL             ....  490
 Basis Dimension        Dim             .... 1040

ORBITAL ENERGIES
----------------

  NO   OCC          E(Eh)            E(eV)
   0   2.0000     -88.993907     -2421.6473
   1   2.0000     -88.984925     -2421.4029
   2   2.0000     -88.956425     -2420.6274
   3   2.0000     -88.944822     -2420.3117
   4   2.0000     -24.822405      -675.4520
   5   2.0000     -24.818795      -675.3537
   6   2.0000     -24.817546      -675.3198
   7   2.0000     -24.816734      -675.2977
   8   2.0000     -24.799969      -674.8415
   9   2.0000     -24.799000      -674.8151
  10   2.0000     -19.243416      -523.6400
  11   2.0000     -19.243319      -523.6373
  12   2.0000     -19.230888      -523.2991
  13   2.0000     -19.230442      -523.2869
  14   2.0000     -19.218503      -522.9620
  15   2.0000     -14.655066      -398.7846
  16   2.0000     -14.642876      -398.4529
  17   2.0000     -14.496006      -394.4564
  18   2.0000     -14.493295      -394.3826
  19   2.0000     -14.421106      -392.4182
  20   2.0000     -14.419640      -392.3784
  21   2.0000     -10.396932      -282.9149
  22   2.0000     -10.395955      -282.8883
  23   2.0000     -10.395814      -282.8845
  24   2.0000     -10.395343      -282.8717
  25   2.0000     -10.383241      -282.5424
  26   2.0000     -10.382653      -282.5264
  27   2.0000     -10.382453      -282.5209
  28   2.0000     -10.375654      -282.3359
  29   2.0000     -10.372881      -282.2604
  30   2.0000     -10.369185      -282.1599
  31   2.0000     -10.351303      -281.6733
  32   2.0000     -10.349526      -281.6249
  33   2.0000     -10.347733      -281.5761
  34   2.0000     -10.338599      -281.3276
  35   2.0000     -10.337508      -281.2979
  36   2.0000     -10.327673      -281.0303
  37   2.0000     -10.323670      -280.9213
  38   2.0000     -10.322029      -280.8767
  39   2.0000     -10.320213      -280.8273
  40   2.0000     -10.319003      -280.7944
  41   2.0000     -10.318904      -280.7917
  42   2.0000     -10.318797      -280.7888
  43   2.0000     -10.316469      -280.7254
  44   2.0000     -10.315985      -280.7122
  45   2.0000     -10.312684      -280.6224
  46   2.0000     -10.312618      -280.6206
  47   2.0000     -10.312383      -280.6142
  48   2.0000     -10.311752      -280.5970
  49   2.0000     -10.310814      -280.5715
  50   2.0000     -10.309408      -280.5333
  51   2.0000     -10.305525      -280.4276
  52   2.0000     -10.305072      -280.4153
  53   2.0000     -10.304668      -280.4043
  54   2.0000     -10.302922      -280.3568
  55   2.0000     -10.302521      -280.3459
  56   2.0000     -10.302054      -280.3331
  57   2.0000     -10.300828      -280.2998
  58   2.0000     -10.300708      -280.2965
  59   2.0000     -10.298478      -280.2358
  60   2.0000     -10.297048      -280.1969
  61   2.0000     -10.296145      -280.1723
  62   2.0000     -10.296142      -280.1723
  63   2.0000     -10.296036      -280.1694
  64   2.0000     -10.291015      -280.0327
  65   2.0000     -10.275945      -279.6227
  66   2.0000      -8.089863      -220.1364
  67   2.0000      -8.080300      -219.8762
  68   2.0000      -8.052673      -219.1244
  69   2.0000      -8.041534      -218.8213
  70   2.0000      -6.059465      -164.8864
  71   2.0000      -6.055000      -164.7649
  72   2.0000      -6.051408      -164.6672
  73   2.0000      -6.050075      -164.6309
  74   2.0000      -6.045595      -164.5090
  75   2.0000      -6.041634      -164.4012
  76   2.0000      -6.022560      -163.8822
  77   2.0000      -6.018611      -163.7747
  78   2.0000      -6.013263      -163.6292
  79   2.0000      -6.011342      -163.5769
  80   2.0000      -6.007527      -163.4731
  81   2.0000      -6.002006      -163.3229
  82   2.0000      -1.342112       -36.5207
  83   2.0000      -1.341085       -36.4928
  84   2.0000      -1.326060       -36.0839
  85   2.0000      -1.325922       -36.0802
  86   2.0000      -1.324771       -36.0489
  87   2.0000      -1.322625       -35.9905
  88   2.0000      -1.310837       -35.6697
  89   2.0000      -1.307740       -35.5854
  90   2.0000      -1.145677       -31.1754
  91   2.0000      -1.133854       -30.8537
  92   2.0000      -1.130038       -30.7499
  93   2.0000      -1.102445       -29.9990
  94   2.0000      -1.100875       -29.9563
  95   2.0000      -1.023775       -27.8583
  96   2.0000      -1.019589       -27.7444
  97   2.0000      -1.007462       -27.4144
  98   2.0000      -1.007412       -27.4131
  99   2.0000      -0.998986       -27.1838
 100   2.0000      -0.997602       -27.1461
 101   2.0000      -0.995686       -27.0940
 102   2.0000      -0.984100       -26.7787
 103   2.0000      -0.975442       -26.5431
 104   2.0000      -0.943766       -25.6812
 105   2.0000      -0.932806       -25.3829
 106   2.0000      -0.930215       -25.3124
 107   2.0000      -0.910973       -24.7888
 108   2.0000      -0.905453       -24.6386
 109   2.0000      -0.897119       -24.4119
 110   2.0000      -0.894488       -24.3402
 111   2.0000      -0.887271       -24.1439
 112   2.0000      -0.879403       -23.9298
 113   2.0000      -0.872315       -23.7369
 114   2.0000      -0.871276       -23.7086
 115   2.0000      -0.855905       -23.2904
 116   2.0000      -0.853373       -23.2215
 117   2.0000      -0.845347       -23.0031
 118   2.0000      -0.842822       -22.9343
 119   2.0000      -0.838810       -22.8252
 120   2.0000      -0.829014       -22.5586
 121   2.0000      -0.807673       -21.9779
 122   2.0000      -0.802408       -21.8346
 123   2.0000      -0.792412       -21.5626
 124   2.0000      -0.779598       -21.2139
 125   2.0000      -0.769831       -20.9482
 126   2.0000      -0.758898       -20.6507
 127   2.0000      -0.755348       -20.5541
 128   2.0000      -0.740167       -20.1410
 129   2.0000      -0.735426       -20.0119
 130   2.0000      -0.722044       -19.6478
 131   2.0000      -0.720423       -19.6037
 132   2.0000      -0.719247       -19.5717
 133   2.0000      -0.709237       -19.2993
 134   2.0000      -0.701237       -19.0816
 135   2.0000      -0.696908       -18.9638
 136   2.0000      -0.688355       -18.7311
 137   2.0000      -0.687839       -18.7170
 138   2.0000      -0.677860       -18.4455
 139   2.0000      -0.668935       -18.2026
 140   2.0000      -0.666383       -18.1332
 141   2.0000      -0.658450       -17.9173
 142   2.0000      -0.656866       -17.8742
 143   2.0000      -0.652752       -17.7623
 144   2.0000      -0.646221       -17.5846
 145   2.0000      -0.645108       -17.5543
 146   2.0000      -0.637229       -17.3399
 147   2.0000      -0.636288       -17.3143
 148   2.0000      -0.635548       -17.2941
 149   2.0000      -0.633825       -17.2472
 150   2.0000      -0.628254       -17.0957
 151   2.0000      -0.627692       -17.0804
 152   2.0000      -0.624166       -16.9844
 153   2.0000      -0.623393       -16.9634
 154   2.0000      -0.619440       -16.8558
 155   2.0000      -0.617434       -16.8012
 156   2.0000      -0.615311       -16.7435
 157   2.0000      -0.607037       -16.5183
 158   2.0000      -0.599077       -16.3017
 159   2.0000      -0.598053       -16.2739
 160   2.0000      -0.596210       -16.2237
 161   2.0000      -0.593268       -16.1436
 162   2.0000      -0.591301       -16.0901
 163   2.0000      -0.590112       -16.0578
 164   2.0000      -0.587031       -15.9739
 165   2.0000      -0.585180       -15.9236
 166   2.0000      -0.579975       -15.7819
 167   2.0000      -0.574189       -15.6245
 168   2.0000      -0.570950       -15.5363
 169   2.0000      -0.567806       -15.4508
 170   2.0000      -0.563732       -15.3399
 171   2.0000      -0.562538       -15.3074
 172   2.0000      -0.557505       -15.1705
 173   2.0000      -0.554859       -15.0985
 174   2.0000      -0.551345       -15.0028
 175   2.0000      -0.548638       -14.9292
 176   2.0000      -0.544014       -14.8034
 177   2.0000      -0.540175       -14.6989
 178   2.0000      -0.540073       -14.6961
 179   2.0000      -0.539379       -14.6773
 180   2.0000      -0.534388       -14.5414
 181   2.0000      -0.532346       -14.4859
 182   2.0000      -0.530188       -14.4271
 183   2.0000      -0.523455       -14.2439
 184   2.0000      -0.519908       -14.1474
 185   2.0000      -0.519669       -14.1409
 186   2.0000      -0.516031       -14.0419
 187   2.0000      -0.513910       -13.9842
 188   2.0000      -0.511533       -13.9195
 189   2.0000      -0.508718       -13.8429
 190   2.0000      -0.502970       -13.6865
 191   2.0000      -0.502331       -13.6691
 192   2.0000      -0.501957       -13.6589
 193   2.0000      -0.498794       -13.5729
 194   2.0000      -0.497806       -13.5460
 195   2.0000      -0.492067       -13.3898
 196   2.0000      -0.490550       -13.3485
 197   2.0000      -0.487556       -13.2671
 198   2.0000      -0.485100       -13.2002
 199   2.0000      -0.478678       -13.0255
 200   2.0000      -0.476746       -12.9729
 201   2.0000      -0.471667       -12.8347
 202   2.0000      -0.470784       -12.8107
 203   2.0000      -0.466796       -12.7022
 204   2.0000      -0.465898       -12.6777
 205   2.0000      -0.464236       -12.6325
 206   2.0000      -0.458211       -12.4686
 207   2.0000      -0.453887       -12.3509
 208   2.0000      -0.452553       -12.3146
 209   2.0000      -0.450948       -12.2709
 210   2.0000      -0.446376       -12.1465
 211   2.0000      -0.446196       -12.1416
 212   2.0000      -0.442313       -12.0359
 213   2.0000      -0.440023       -11.9736
 214   2.0000      -0.434848       -11.8328
 215   2.0000      -0.432552       -11.7703
 216   2.0000      -0.430544       -11.7157
 217   2.0000      -0.428701       -11.6656
 218   2.0000      -0.424804       -11.5595
 219   2.0000      -0.411817       -11.2061
 220   2.0000      -0.407461       -11.0876
 221   2.0000      -0.403896       -10.9906
 222   2.0000      -0.395475       -10.7614
 223   2.0000      -0.390446       -10.6246
 224   2.0000      -0.390063       -10.6141
 225   2.0000      -0.385644       -10.4939
 226   2.0000      -0.381692       -10.3864
 227   2.0000      -0.379399       -10.3240
 228   2.0000      -0.372511       -10.1365
 229   2.0000      -0.371744       -10.1157
 230   2.0000      -0.361812        -9.8454
 231   2.0000      -0.359761        -9.7896
 232   2.0000      -0.358719        -9.7612
 233   2.0000      -0.348133        -9.4732
 234   2.0000      -0.343269        -9.3408
 235   2.0000      -0.341416        -9.2904
 236   2.0000      -0.338395        -9.2082
 237   2.0000      -0.332620        -9.0510
 238   2.0000      -0.326572        -8.8865
 239   2.0000      -0.319869        -8.7041
 240   2.0000      -0.310344        -8.4449
 241   2.0000      -0.303322        -8.2538
 242   2.0000      -0.286973        -7.8089
 243   2.0000      -0.271928        -7.3995
 244   2.0000      -0.225562        -6.1379
 245   0.0000      -0.100270        -2.7285
 246   0.0000      -0.074040        -2.0147
 247   0.0000      -0.064484        -1.7547
 248   0.0000      -0.060580        -1.6485
 249   0.0000      -0.044718        -1.2168

MULLIKEN ATOMIC CHARGES
-----------------------
   0 C :   -0.030800
   1 C :   -0.063711
   2 C :    0.052955
   3 C :    0.029222
   4 C :   -0.064768
   5 S :    0.076369
   6 C :   -0.048533
   7 C :    0.031193
   8 C :    0.039131
   9 C :   -0.040750
  10 S :    0.036089
  11 C :    0.023512
  12 N :   -0.027781
  13 C :   -0.113193
  14 S :    0.146586
  15 C :   -0.006779
  16 N :    0.279997
  17 O :   -0.256560
  18 O :   -0.273914
  19 C :    0.009132
  20 C :    0.103805
  21 C :    0.006743
  22 C :   -0.056284
  23 C :   -0.021858
  24 C :    0.143974
  25 F :   -0.165630
  26 C :    0.203630
  27 F :   -0.175333
  28 C :   -0.053008
  29 C :    0.191957
  30 C :    0.153449
  31 F :   -0.164677
  32 F :   -0.159783
  33 N :   -0.051035
  34 C :   -0.103996
  35 S :    0.188585
  36 C :    0.000891
  37 N :    0.274670
  38 O :   -0.232862
  39 O :   -0.261112
  40 C :    0.004614
  41 C :    0.122978
  42 C :   -0.007834
  43 C :    0.019962
  44 C :    0.015528
  45 C :   -0.107543
  46 C :    0.141156
  47 O :   -0.145423
  48 C :    0.006623
  49 C :   -0.078580
  50 C :    0.112629
  51 C :    0.110746
  52 C :   -0.104535
  53 C :    0.239886
  54 C :    0.239906
  55 C :   -0.103242
  56 F :   -0.171494
  57 F :   -0.169713
  58 C :   -0.080078
  59 C :    0.038121
  60 C :    0.295424
  61 C :   -0.341551
  62 C :   -0.200159
  63 N :    0.167604
  64 C :   -0.178425
  65 N :    0.153424
  66 H :    0.022645
  67 H :    0.021545
  68 H :   -0.009352
  69 H :   -0.009815
  70 H :   -0.011095
  71 H :   -0.008292
  72 H :    0.025930
  73 H :    0.145912
  74 H :    0.012525
  75 H :    0.009322
  76 H :   -0.007769
  77 H :    0.150573
  78 H :    0.025191
  79 H :    0.013204
  80 H :    0.013584
  81 H :    0.012379
  82 H :   -0.009633
  83 H :    0.006416
  84 H :    0.000213
  85 H :   -0.003024
Sum of atomic charges:   -0.0000000

LOEWDIN ATOMIC CHARGES
----------------------
   0 C :   -0.075923
   1 C :   -0.139064
   2 C :   -0.029316
   3 C :   -0.026271
   4 C :   -0.178776
   5 S :    0.348889
   6 C :   -0.178560
   7 C :   -0.034233
   8 C :   -0.031773
   9 C :   -0.175172
  10 S :    0.340673
  11 C :   -0.020752
  12 N :    0.053466
  13 C :   -0.088124
  14 S :    0.449870
  15 C :   -0.218634
  16 N :    0.273945
  17 O :   -0.222020
  18 O :   -0.240802
  19 C :    0.009307
  20 C :   -0.115791
  21 C :    0.006807
  22 C :   -0.061632
  23 C :   -0.071053
  24 C :    0.065513
  25 F :   -0.042011
  26 C :    0.035623
  27 F :   -0.055241
  28 C :   -0.030832
  29 C :    0.031053
  30 C :    0.068217
  31 F :   -0.036077
  32 F :   -0.037219
  33 N :    0.016225
  34 C :   -0.100325
  35 S :    0.466790
  36 C :   -0.200185
  37 N :    0.272673
  38 O :   -0.199946
  39 O :   -0.226666
  40 C :    0.015761
  41 C :   -0.099382
  42 C :    0.034584
  43 C :   -0.030226
  44 C :    0.069204
  45 C :   -0.096035
  46 C :    0.082863
  47 O :   -0.145028
  48 C :   -0.054042
  49 C :    0.030641
  50 C :   -0.009054
  51 C :   -0.005705
  52 C :   -0.029351
  53 C :    0.067024
  54 C :    0.067660
  55 C :   -0.033073
  56 F :   -0.048876
  57 F :   -0.047850
  58 C :    0.015512
  59 C :   -0.020308
  60 C :    0.072029
  61 C :   -0.136870
  62 C :   -0.020896
  63 N :   -0.048485
  64 C :   -0.018444
  65 N :   -0.047781
  66 H :    0.029609
  67 H :    0.026247
  68 H :    0.034308
  69 H :    0.032858
  70 H :    0.033304
  71 H :    0.035041
  72 H :    0.030132
  73 H :    0.081533
  74 H :    0.047494
  75 H :    0.033982
  76 H :    0.020688
  77 H :    0.095185
  78 H :    0.050346
  79 H :    0.034331
  80 H :    0.031692
  81 H :    0.043468
  82 H :    0.040658
  83 H :    0.047689
  84 H :    0.044965
  85 H :    0.039945

  Mayer bond orders larger than 0.100000
B(  0-C ,  1-C ) :   1.8681 B(  0-C , 66-H ) :   0.9507 B(  0-C , 67-H ) :   0.9417
B(  1-C ,  2-C ) :   1.0781 B(  1-C ,  5-S ) :   1.0059 B(  2-C ,  3-C ) :   1.6676
B(  2-C , 68-H ) :   0.9932 B(  3-C ,  4-C ) :   1.1463 B(  3-C , 69-H ) :   0.9924
B(  4-C ,  5-S ) :   1.0417 B(  4-C ,  6-C ) :   1.5763 B(  6-C ,  7-C ) :   1.1616
B(  6-C , 10-S ) :   1.0318 B(  7-C ,  8-C ) :   1.6372 B(  7-C , 70-H ) :   0.9914
B(  8-C ,  9-C ) :   1.1367 B(  8-C , 71-H ) :   0.9947 B(  9-C , 10-S ) :   1.0123
B(  9-C , 11-C ) :   1.6310 B( 11-C , 12-N ) :   1.1139 B( 11-C , 72-H ) :   0.9601
B( 12-N , 13-C ) :   1.2692 B( 12-N , 73-H ) :   0.8959 B( 13-C , 14-S ) :   1.1395
B( 13-C , 20-C ) :   1.3209 B( 14-S , 15-C ) :   1.0530 B( 15-C , 16-N ) :   0.9859
B( 15-C , 19-C ) :   1.4828 B( 16-N , 17-O ) :   1.5277 B( 16-N , 18-O ) :   1.5002
B( 17-O , 18-O ) :   0.2519 B( 19-C , 20-C ) :   1.2264 B( 19-C , 74-H ) :   1.0073
B( 20-C , 21-C ) :   1.1062 B( 21-C , 22-C ) :   1.6774 B( 21-C , 75-H ) :   0.9621
B( 22-C , 23-C ) :   1.1152 B( 22-C , 76-H ) :   0.9521 B( 23-C , 24-C ) :   1.2818
B( 23-C , 28-C ) :   0.1160 B( 23-C , 30-C ) :   1.2924 B( 24-C , 25-F ) :   1.1555
B( 24-C , 26-C ) :   1.2984 B( 26-C , 27-F ) :   1.1792 B( 26-C , 28-C ) :   1.2917
B( 28-C , 29-C ) :   1.2915 B( 28-C , 33-N ) :   1.1088 B( 29-C , 30-C ) :   1.2971
B( 29-C , 32-F ) :   1.1541 B( 30-C , 31-F ) :   1.1363 B( 33-N , 34-C ) :   1.1563
B( 33-N , 77-H ) :   0.9059 B( 34-C , 35-S ) :   1.1591 B( 34-C , 41-C ) :   1.3834
B( 35-S , 36-C ) :   1.0801 B( 36-C , 37-N ) :   0.9525 B( 36-C , 40-C ) :   1.5153
B( 37-N , 38-O ) :   1.5506 B( 37-N , 39-O ) :   1.5151 B( 38-O , 39-O ) :   0.2650
B( 40-C , 41-C ) :   1.2121 B( 40-C , 78-H ) :   0.9941 B( 41-C , 42-C ) :   1.0670
B( 42-C , 43-C ) :   1.6729 B( 42-C , 79-H ) :   0.9761 B( 43-C , 44-C ) :   1.1357
B( 43-C , 80-H ) :   0.9607 B( 44-C , 45-C ) :   1.6093 B( 44-C , 81-H ) :   0.9487
B( 45-C , 46-C ) :   0.9430 B( 45-C , 60-C ) :   1.0282 B( 46-C , 47-O ) :   2.2556
B( 46-C , 48-C ) :   0.9222 B( 48-C , 49-C ) :   1.4767 B( 48-C , 59-C ) :   1.2208
B( 49-C , 50-C ) :   1.1937 B( 49-C , 82-H ) :   1.0154 B( 50-C , 51-C ) :   1.2573
B( 50-C , 55-C ) :   1.1924 B( 51-C , 52-C ) :   1.1889 B( 51-C , 58-C ) :   1.2183
B( 52-C , 53-C ) :   1.4429 B( 52-C , 55-C ) :   0.1087 B( 52-C , 83-H ) :   1.0063
B( 53-C , 54-C ) :   1.1918 B( 53-C , 57-F ) :   1.1360 B( 54-C , 55-C ) :   1.4432
B( 54-C , 56-F ) :   1.1334 B( 55-C , 84-H ) :   1.0068 B( 58-C , 59-C ) :   1.4539
B( 58-C , 85-H ) :   0.9914 B( 59-C , 60-C ) :   0.9958 B( 60-C , 61-C ) :   1.6513
B( 61-C , 62-C ) :   1.1627 B( 61-C , 64-C ) :   1.1296 B( 62-C , 63-N ) :   2.9855
B( 64-C , 65-N ) :   2.9820

-----------------------------------------------------------------------------
         ABSORPTION SPECTRUM VIA TRANSITION ELECTRIC DIPOLE MOMENTS
-----------------------------------------------------------------------------
State   Energy  Wavelength   fosc         T2         TX        TY        TZ
        (cm-1)    (nm)                  (au**2)     (au)      (au)      (au)
-----------------------------------------------------------------------------
   0   17420.8    574.0   0.352686649   6.66495   0.15426   2.42101   0.88310
   1   18774.2    532.6   0.754909028  13.23759   0.01720   3.59051  -0.58783
   2   21790.2    458.9   0.645501867   9.75242   1.01857  -0.94383  -2.79716
   3   23458.0    426.3   0.470144116   6.59806   1.32456  -1.93834   1.04233
   4   26458.3    378.0   0.007853904   0.09772  -0.29697  -0.08152   0.05371
   5   27013.8    370.2   0.099387865   1.21122  -0.72794   0.79112  -0.23548
   6   27218.8    367.4   0.077463239   0.93692   0.43366  -0.76333   0.40766
   7   27715.7    360.8   0.211712272   2.51476   1.55265  -0.32116   0.02991
   8   27918.6    358.2   0.084916420   1.00132  -0.22262   0.73004   0.64715
   9   28666.8    348.8   0.070776997   0.81281  -0.56370   0.09062  -0.69774
  10   29020.4    344.6   0.663565335   7.52759  -1.52307   0.42158  -2.24279
  11   29791.7    335.7   0.005659453   0.06254   0.12483   0.13492  -0.16957
  12   29822.1    335.3   0.037313367   0.41191  -0.49245   0.25314  -0.32454
  13   30843.1    324.2   0.323432761   3.45224  -1.76186  -0.02068   0.58964
  14   31636.7    316.1   0.005450415   0.05672   0.19887  -0.07007   0.11071
  15   32388.2    308.8   0.176326577   1.79228  -0.82235   0.04231   1.05557
  16   33066.1    302.4   0.439073594   4.37149  -1.49689   1.32504  -0.61244
  17   33121.3    301.9   0.019901796   0.19782  -0.31907   0.30793  -0.03443
  18   33526.0    298.3   0.337915138   3.31819   1.74356  -0.16999  -0.49931
  19   33965.0    294.4   0.150210505   1.45594  -0.21216   1.15512  -0.27680
  20   34678.3    288.4   0.688811411   6.53911  -2.23858   0.03046   1.23570
  21   35090.2    285.0   0.011906487   0.11171   0.33350  -0.02146  -0.00484
  22   35148.5    284.5   0.022070081   0.20672  -0.42994   0.11905   0.08774
  23   35799.7    279.3   0.014084563   0.12952  -0.14485   0.30959   0.11265
  24   36045.7    277.4   0.009417068   0.08601   0.17031   0.23870   0.00499
  25   36351.1    275.1   0.044737658   0.40516   0.13409   0.53814  -0.31238
  26   36570.2    273.4   0.015511382   0.13964  -0.18292  -0.32430   0.03174
  27   37015.4    270.2   0.005883326   0.05233   0.10398  -0.07264  -0.19036
  28   37126.5    269.3   0.024681953   0.21886  -0.18134  -0.03171   0.43008
  29   37801.5    264.5   0.020800272   0.18115  -0.37413  -0.10334  -0.17462
  30   38712.2    258.3   0.232884459   1.98047   1.21453  -0.47653   0.52754
  31   38874.7    257.2   0.161247037   1.36553   0.29260  -0.93898   0.63105
  32   39426.5    253.6   0.124018975   1.03556  -0.45301   0.74260   0.52810
  33   39716.8    251.8   0.063580981   0.52702   0.60434  -0.40218  -0.00700
  34   40193.8    248.8   0.034504832   0.28262  -0.34411  -0.23269  -0.33175

FINAL SINGLE POINT ENERGY     -4618.823889241082

DIPOLE MOMENT
-------------
                                X             Y             Z
Electronic contribution:    -14.23675     -23.73978     -26.86913
Nuclear contribution   :     16.41814      28.35793      28.54516
                        -----------------------------------------
Total Dipole Moment    :      2.18139       4.61814       1.67602
                        -----------------------------------------
Magnitude (a.u.)       :      5.37538
Magnitude (Debye)      :     13.66314

Rotational constants in cm-1:     0.000908     0.000430     0.000385
Rotational constants in MHz :    27.207095    12.886324    11.531073

                             ****ORCA TERMINATED NORMALLY****
TOTAL RUN TIME: 0 days 0 hours 6 minutes 48 seconds 923 msec
