                         Program Version 4.2.0 -  RELEASE  -
|  1> # ORCA input file
|  2> # SCF done       -128.442508399375          0.000189261869
|  3> ! CAM-B3LYP def2-SVP def2/J RIJCOSX Grid4 TightSCF
|  4> %maxcore 5000
|  5> %tddft
|  6>     Mode sTDDFT
|  7>     Ethresh 5.0
|  8>     maxcore 5000
|  9> end
| 10>
| 11> %pal
| 12>   nprocs 6
| 13>   end
| 14> * xyz 0 1
| 15>    C       -4.91338        -7.64804         2.22681
| 16>    C       -3.88554        -7.36663         3.03978
| 17>    C       -3.93685        -6.81005         4.36070
| 18>    C       -2.72990        -6.65544         4.95028
| 19>    C       -1.62725        -7.06724         4.15320
| 20>    S       -2.19530        -7.65957         2.60244
| 21>    C       -0.29374        -7.04527         4.48681
| 22>    C        0.28797        -6.62293         5.70765
| 23>    C        1.64137        -6.74610         5.74475
| 24>    C        2.21388        -7.27067         4.55889
| 25>    S        0.95424        -7.59151         3.38035
| 26>    C        3.54154        -7.52512         4.32539
| 27>    C        4.03121        -8.05902         3.12241
| 28>    O        3.17071        -8.30919         2.10753
| 29>    C        3.87527        -8.83001         1.07381
| 30>    C        5.21887        -8.91590         1.43656
| 31>    C        5.32000        -8.42423         2.73209
| 32>    C        3.21459        -9.17186        -0.12351
| 33>    C        1.88005        -8.94821        -0.30718
| 34>    C        1.14691        -9.25324        -1.46053
| 35>    C       -0.21347        -8.96603        -1.69903
| 36>    C       -0.66067        -9.40556        -2.97729
| 37>    C       -1.99552        -9.18117        -3.35784
| 38>    C       -2.84270        -8.53880        -2.49607
| 39>    C       -2.39790        -8.10241        -1.23669
| 40>    C       -1.10676        -8.30968        -0.83530
| 41>    C        0.35137       -10.04136        -3.72694
| 42>    S        1.84248       -10.06620        -2.83058
| 43>    C        0.24064       -10.60216        -5.00687
| 44>    C        1.24423       -11.24185        -5.67512
| 45>    C        1.09558       -11.80696        -6.95789
| 46>    O       -0.07790       -11.71957        -7.63015
| 47>    C        0.07088       -12.35774        -8.81964
| 48>    C        1.36797       -12.86390        -8.90816
| 49>    C        2.01572       -12.51309        -7.73151
| 50>    C       -1.02065       -12.39888        -9.70843
| 51>    C       -1.01179       -13.02893       -10.92153
| 52>    C       -2.10656       -13.05016       -11.79318
| 53>    C       -2.12221       -13.69607       -13.00583
| 54>    C       -3.19208       -13.74807       -13.93152
| 55>    C       -2.93207       -14.47159       -15.05419
| 56>    C       -1.63654       -15.04122       -15.08397
| 57>    S       -0.75685       -14.61152       -13.62930
| 58>    C       -1.08159       -15.83046       -16.06447
| 59>    C       -1.68371       -16.25119       -17.28117
| 60>    C       -0.89780       -17.03675       -18.05188
| 61>    C        0.39909       -17.30170       -17.49996
| 62>    S        0.54425       -16.47692       -15.93963
| 63>    C        1.38159       -18.04498       -18.02830
| 64>    H       -5.92536        -7.45282         2.53476
| 65>    H       -4.76547        -8.08037         1.25429
| 66>    H       -4.87963        -6.55547         4.81175
| 67>    H       -2.58614        -6.25739         5.93934
| 68>    H       -0.30675        -6.24824         6.52155
| 69>    H        2.25533        -6.48174         6.58805
| 70>    H        4.25866        -7.31742         5.10467
| 71>    H        6.01007        -9.28968         0.81848
| 72>    H        6.20380        -8.33771         3.33127
| 73>    H        3.81448        -9.61314        -0.90600
| 74>    H        1.33150        -8.48759         0.50308
| 75>    H       -2.34303        -9.51268        -4.32428
| 76>    H       -3.86865        -8.36062        -2.78325
| 77>    H       -3.08540        -7.59226        -0.57888
| 78>    H       -0.77506        -7.97458         0.13447
| 79>    H       -0.72299       -10.52384        -5.49073
| 80>    H        2.21801       -11.34606        -5.21833
| 81>    H        1.77443       -13.41383        -9.73205
| 82>    H        3.02592       -12.73454        -7.45197
| 83>    H       -1.91655       -11.88951        -9.37969
| 84>    H       -0.11777       -13.54703       -11.24115
| 85>    H       -3.00729       -12.52583       -11.50090
| 86>    H       -4.12327       -13.24583       -13.73464
| 87>    H       -3.63255       -14.61390       -15.85759
| 88>    H       -2.68433       -15.95417       -17.54184
| 89>    H       -1.18349       -17.44925       -19.00332
| 90>    H        1.25124       -18.53138       -18.97883
| 91>    H        2.32098       -18.18053       -17.52483
| 92> *
| 93>
| 94>                          ****END OF INPUT****

CARTESIAN COORDINATES (ANGSTROEM)
---------------------------------
  C     -4.913380   -7.648040    2.226810
  C     -3.885540   -7.366630    3.039780
  C     -3.936850   -6.810050    4.360700
  C     -2.729900   -6.655440    4.950280
  C     -1.627250   -7.067240    4.153200
  S     -2.195300   -7.659570    2.602440
  C     -0.293740   -7.045270    4.486810
  C      0.287970   -6.622930    5.707650
  C      1.641370   -6.746100    5.744750
  C      2.213880   -7.270670    4.558890
  S      0.954240   -7.591510    3.380350
  C      3.541540   -7.525120    4.325390
  C      4.031210   -8.059020    3.122410
  O      3.170710   -8.309190    2.107530
  C      3.875270   -8.830010    1.073810
  C      5.218870   -8.915900    1.436560
  C      5.320000   -8.424230    2.732090
  C      3.214590   -9.171860   -0.123510
  C      1.880050   -8.948210   -0.307180
  C      1.146910   -9.253240   -1.460530
  C     -0.213470   -8.966030   -1.699030
  C     -0.660670   -9.405560   -2.977290
  C     -1.995520   -9.181170   -3.357840
  C     -2.842700   -8.538800   -2.496070
  C     -2.397900   -8.102410   -1.236690
  C     -1.106760   -8.309680   -0.835300
  C      0.351370  -10.041360   -3.726940
  S      1.842480  -10.066200   -2.830580
  C      0.240640  -10.602160   -5.006870
  C      1.244230  -11.241850   -5.675120
  C      1.095580  -11.806960   -6.957890
  O     -0.077900  -11.719570   -7.630150
  C      0.070880  -12.357740   -8.819640
  C      1.367970  -12.863900   -8.908160
  C      2.015720  -12.513090   -7.731510
  C     -1.020650  -12.398880   -9.708430
  C     -1.011790  -13.028930  -10.921530
  C     -2.106560  -13.050160  -11.793180
  C     -2.122210  -13.696070  -13.005830
  C     -3.192080  -13.748070  -13.931520
  C     -2.932070  -14.471590  -15.054190
  C     -1.636540  -15.041220  -15.083970
  S     -0.756850  -14.611520  -13.629300
  C     -1.081590  -15.830460  -16.064470
  C     -1.683710  -16.251190  -17.281170
  C     -0.897800  -17.036750  -18.051880
  C      0.399090  -17.301700  -17.499960
  S      0.544250  -16.476920  -15.939630
  C      1.381590  -18.044980  -18.028300
  H     -5.925360   -7.452820    2.534760
  H     -4.765470   -8.080370    1.254290
  H     -4.879630   -6.555470    4.811750
  H     -2.586140   -6.257390    5.939340
  H     -0.306750   -6.248240    6.521550
  H      2.255330   -6.481740    6.588050
  H      4.258660   -7.317420    5.104670
  H      6.010070   -9.289680    0.818480
  H      6.203800   -8.337710    3.331270
  H      3.814480   -9.613140   -0.906000
  H      1.331500   -8.487590    0.503080
  H     -2.343030   -9.512680   -4.324280
  H     -3.868650   -8.360620   -2.783250
  H     -3.085400   -7.592260   -0.578880
  H     -0.775060   -7.974580    0.134470
  H     -0.722990  -10.523840   -5.490730
  H      2.218010  -11.346060   -5.218330
  H      1.774430  -13.413830   -9.732050
  H      3.025920  -12.734540   -7.451970
  H     -1.916550  -11.889510   -9.379690
  H     -0.117770  -13.547030  -11.241150
  H     -3.007290  -12.525830  -11.500900
  H     -4.123270  -13.245830  -13.734640
  H     -3.632550  -14.613900  -15.857590
  H     -2.684330  -15.954170  -17.541840
  H     -1.183490  -17.449250  -19.003320
  H      1.251240  -18.531380  -18.978830
  H      2.320980  -18.180530  -17.524830

 Total Charge           Charge          ....    0
 Multiplicity           Mult            ....    1
 Number of Electrons    NEL             ....  376
 Basis Dimension        Dim             ....  846

ORBITAL ENERGIES
----------------

  NO   OCC          E(Eh)            E(eV)
   0   2.0000     -88.950079     -2420.4547
   1   2.0000     -88.934392     -2420.0278
   2   2.0000     -88.934019     -2420.0177
   3   2.0000     -88.933362     -2419.9998
   4   2.0000     -88.930111     -2419.9114
   5   2.0000     -19.280324      -524.6443
   6   2.0000     -19.277452      -524.5661
   7   2.0000     -10.322430      -280.8876
   8   2.0000     -10.321361      -280.8585
   9   2.0000     -10.319369      -280.8043
  10   2.0000     -10.319217      -280.8002
  11   2.0000     -10.301607      -280.3210
  12   2.0000     -10.301170      -280.3091
  13   2.0000     -10.300875      -280.3011
  14   2.0000     -10.300550      -280.2922
  15   2.0000     -10.299478      -280.2631
  16   2.0000     -10.298828      -280.2454
  17   2.0000     -10.297706      -280.2148
  18   2.0000     -10.296806      -280.1903
  19   2.0000     -10.292007      -280.0597
  20   2.0000     -10.291090      -280.0348
  21   2.0000     -10.283228      -279.8208
  22   2.0000     -10.282052      -279.7889
  23   2.0000     -10.279510      -279.7197
  24   2.0000     -10.278619      -279.6954
  25   2.0000     -10.277602      -279.6678
  26   2.0000     -10.277014      -279.6518
  27   2.0000     -10.276554      -279.6392
  28   2.0000     -10.276515      -279.6382
  29   2.0000     -10.276354      -279.6338
  30   2.0000     -10.272903      -279.5399
  31   2.0000     -10.272264      -279.5225
  32   2.0000     -10.270674      -279.4792
  33   2.0000     -10.270586      -279.4768
  34   2.0000     -10.270345      -279.4703
  35   2.0000     -10.269858      -279.4571
  36   2.0000     -10.269832      -279.4563
  37   2.0000     -10.268987      -279.4333
  38   2.0000     -10.267887      -279.4034
  39   2.0000     -10.265565      -279.3402
  40   2.0000     -10.264471      -279.3104
  41   2.0000     -10.263541      -279.2852
  42   2.0000     -10.263413      -279.2817
  43   2.0000     -10.263124      -279.2738
  44   2.0000     -10.262750      -279.2636
  45   2.0000     -10.261893      -279.2403
  46   2.0000     -10.260962      -279.2150
  47   2.0000     -10.260522      -279.2030
  48   2.0000     -10.259376      -279.1718
  49   2.0000      -8.045070      -218.9175
  50   2.0000      -8.030324      -218.5162
  51   2.0000      -8.029639      -218.4976
  52   2.0000      -8.029388      -218.4907
  53   2.0000      -8.026883      -218.4226
  54   2.0000      -6.014012      -163.6496
  55   2.0000      -6.010165      -163.5449
  56   2.0000      -6.007760      -163.4795
  57   2.0000      -6.000069      -163.2702
  58   2.0000      -5.999583      -163.2569
  59   2.0000      -5.999220      -163.2471
  60   2.0000      -5.996696      -163.1784
  61   2.0000      -5.996156      -163.1637
  62   2.0000      -5.995340      -163.1415
  63   2.0000      -5.995279      -163.1398
  64   2.0000      -5.992823      -163.0730
  65   2.0000      -5.991111      -163.0264
  66   2.0000      -5.990462      -163.0088
  67   2.0000      -5.990025      -162.9969
  68   2.0000      -5.987377      -162.9248
  69   2.0000      -1.200386       -32.6642
  70   2.0000      -1.194347       -32.4998
  71   2.0000      -0.984072       -26.7780
  72   2.0000      -0.983787       -26.7702
  73   2.0000      -0.981965       -26.7206
  74   2.0000      -0.962080       -26.1795
  75   2.0000      -0.961014       -26.1505
  76   2.0000      -0.918939       -25.0056
  77   2.0000      -0.912076       -24.8188
  78   2.0000      -0.905501       -24.6399
  79   2.0000      -0.894694       -24.3458
  80   2.0000      -0.888166       -24.1682
  81   2.0000      -0.883694       -24.0465
  82   2.0000      -0.878359       -23.9014
  83   2.0000      -0.867713       -23.6117
  84   2.0000      -0.858517       -23.3614
  85   2.0000      -0.846631       -23.0380
  86   2.0000      -0.837389       -22.7865
  87   2.0000      -0.836343       -22.7581
  88   2.0000      -0.834660       -22.7123
  89   2.0000      -0.816374       -22.2147
  90   2.0000      -0.813849       -22.1460
  91   2.0000      -0.811321       -22.0772
  92   2.0000      -0.808085       -21.9891
  93   2.0000      -0.801108       -21.7993
  94   2.0000      -0.781780       -21.2733
  95   2.0000      -0.769356       -20.9352
  96   2.0000      -0.749701       -20.4004
  97   2.0000      -0.733318       -19.9546
  98   2.0000      -0.716005       -19.4835
  99   2.0000      -0.701609       -19.0917
 100   2.0000      -0.693646       -18.8751
 101   2.0000      -0.691293       -18.8110
 102   2.0000      -0.690466       -18.7885
 103   2.0000      -0.678610       -18.4659
 104   2.0000      -0.674232       -18.3468
 105   2.0000      -0.668103       -18.1800
 106   2.0000      -0.648450       -17.6452
 107   2.0000      -0.643912       -17.5217
 108   2.0000      -0.639846       -17.4111
 109   2.0000      -0.632844       -17.2206
 110   2.0000      -0.625972       -17.0336
 111   2.0000      -0.624846       -17.0029
 112   2.0000      -0.619976       -16.8704
 113   2.0000      -0.615475       -16.7479
 114   2.0000      -0.609341       -16.5810
 115   2.0000      -0.606443       -16.5022
 116   2.0000      -0.598369       -16.2825
 117   2.0000      -0.591854       -16.1052
 118   2.0000      -0.590049       -16.0561
 119   2.0000      -0.579977       -15.7820
 120   2.0000      -0.572812       -15.5870
 121   2.0000      -0.571353       -15.5473
 122   2.0000      -0.555617       -15.1191
 123   2.0000      -0.548433       -14.9236
 124   2.0000      -0.547888       -14.9088
 125   2.0000      -0.542880       -14.7725
 126   2.0000      -0.537092       -14.6150
 127   2.0000      -0.533987       -14.5305
 128   2.0000      -0.528386       -14.3781
 129   2.0000      -0.526592       -14.3293
 130   2.0000      -0.524671       -14.2770
 131   2.0000      -0.510539       -13.8925
 132   2.0000      -0.506574       -13.7846
 133   2.0000      -0.506115       -13.7721
 134   2.0000      -0.501414       -13.6442
 135   2.0000      -0.496958       -13.5229
 136   2.0000      -0.493489       -13.4285
 137   2.0000      -0.492036       -13.3890
 138   2.0000      -0.490143       -13.3375
 139   2.0000      -0.486804       -13.2466
 140   2.0000      -0.486512       -13.2387
 141   2.0000      -0.485595       -13.2137
 142   2.0000      -0.484625       -13.1873
 143   2.0000      -0.479684       -13.0529
 144   2.0000      -0.476036       -12.9536
 145   2.0000      -0.474406       -12.9092
 146   2.0000      -0.473752       -12.8914
 147   2.0000      -0.468491       -12.7483
 148   2.0000      -0.465550       -12.6683
 149   2.0000      -0.463266       -12.6061
 150   2.0000      -0.454736       -12.3740
 151   2.0000      -0.453597       -12.3430
 152   2.0000      -0.452917       -12.3245
 153   2.0000      -0.451122       -12.2757
 154   2.0000      -0.445353       -12.1187
 155   2.0000      -0.442270       -12.0348
 156   2.0000      -0.438447       -11.9308
 157   2.0000      -0.434884       -11.8338
 158   2.0000      -0.422330       -11.4922
 159   2.0000      -0.419443       -11.4136
 160   2.0000      -0.417638       -11.3645
 161   2.0000      -0.417049       -11.3485
 162   2.0000      -0.414471       -11.2783
 163   2.0000      -0.412331       -11.2201
 164   2.0000      -0.410862       -11.1801
 165   2.0000      -0.405086       -11.0229
 166   2.0000      -0.404581       -11.0092
 167   2.0000      -0.395582       -10.7643
 168   2.0000      -0.390148       -10.6165
 169   2.0000      -0.388140       -10.5618
 170   2.0000      -0.383671       -10.4402
 171   2.0000      -0.373068       -10.1517
 172   2.0000      -0.362871        -9.8742
 173   2.0000      -0.357825        -9.7369
 174   2.0000      -0.352409        -9.5895
 175   2.0000      -0.340056        -9.2534
 176   2.0000      -0.329738        -8.9726
 177   2.0000      -0.329316        -8.9611
 178   2.0000      -0.324827        -8.8390
 179   2.0000      -0.318574        -8.6688
 180   2.0000      -0.309928        -8.4336
 181   2.0000      -0.304269        -8.2796
 182   2.0000      -0.303902        -8.2696
 183   2.0000      -0.280522        -7.6334
 184   2.0000      -0.261436        -7.1140
 185   2.0000      -0.227783        -6.1983
 186   2.0000      -0.206362        -5.6154
 187   2.0000      -0.185654        -5.0519
 188   0.0000      -0.077451        -2.1076
 189   0.0000      -0.060179        -1.6375
 190   0.0000      -0.041350        -1.1252
 191   0.0000      -0.001832        -0.0499
 192   0.0000       0.011687         0.3180

MULLIKEN ATOMIC CHARGES
-----------------------
   0 C :   -0.037953
   1 C :   -0.049362
   2 C :    0.043795
   3 C :    0.031351
   4 C :   -0.061981
   5 S :    0.063765
   6 C :   -0.037116
   7 C :    0.022711
   8 C :    0.030861
   9 C :   -0.015077
  10 S :    0.081097
  11 C :   -0.041779
  12 C :    0.172966
  13 O :   -0.232559
  14 C :    0.184414
  15 C :   -0.029788
  16 C :   -0.028394
  17 C :   -0.036844
  18 C :   -0.010490
  19 C :   -0.071972
  20 C :    0.112633
  21 C :    0.115363
  22 C :   -0.036846
  23 C :    0.028737
  24 C :    0.018374
  25 C :   -0.025726
  26 C :   -0.076270
  27 S :    0.115807
  28 C :   -0.013023
  29 C :   -0.038084
  30 C :    0.177731
  31 O :   -0.211884
  32 C :    0.187205
  33 C :   -0.045425
  34 C :   -0.024421
  35 C :   -0.003378
  36 C :   -0.000804
  37 C :   -0.012906
  38 C :   -0.020838
  39 C :    0.038146
  40 C :    0.021896
  41 C :   -0.046276
  42 S :    0.063541
  43 C :   -0.068496
  44 C :    0.030045
  45 C :    0.048658
  46 C :   -0.062457
  47 S :    0.074685
  48 C :   -0.032257
  49 H :    0.017816
  50 H :    0.021056
  51 H :   -0.014506
  52 H :   -0.013757
  53 H :   -0.019072
  54 H :   -0.016252
  55 H :   -0.014444
  56 H :   -0.017927
  57 H :   -0.018057
  58 H :   -0.011412
  59 H :    0.004152
  60 H :   -0.030570
  61 H :   -0.020616
  62 H :   -0.022451
  63 H :   -0.028846
  64 H :   -0.005381
  65 H :   -0.009510
  66 H :   -0.012010
  67 H :   -0.017995
  68 H :   -0.012378
  69 H :   -0.002504
  70 H :   -0.019899
  71 H :   -0.016250
  72 H :   -0.016240
  73 H :   -0.014611
  74 H :   -0.015169
  75 H :    0.016756
  76 H :    0.018705
Sum of atomic charges:    0.0000000

LOEWDIN ATOMIC CHARGES
----------------------
   0 C :   -0.083388
   1 C :   -0.137291
   2 C :   -0.036325
   3 C :   -0.025606
   4 C :   -0.180235
   5 S :    0.359454
   6 C :   -0.183560
   7 C :   -0.036682
   8 C :   -0.036122
   9 C :   -0.145941
  10 S :    0.384375
  11 C :   -0.077545
  12 C :    0.026554
  13 O :    0.000651
  14 C :    0.036402
  15 C :   -0.060445
  16 C :   -0.058703
  17 C :   -0.056651
  18 C :   -0.034666
  19 C :   -0.170859
  20 C :   -0.041446
  21 C :   -0.042295
  22 C :   -0.017184
  23 C :   -0.026946
  24 C :   -0.030451
  25 C :   -0.011000
  26 C :   -0.171306
  27 S :    0.454460
  28 C :   -0.037399
  29 C :   -0.054749
  30 C :    0.032109
  31 O :    0.005157
  32 C :    0.027468
  33 C :   -0.054645
  34 C :   -0.057983
  35 C :   -0.036370
  36 C :   -0.028204
  37 C :   -0.057530
  38 C :   -0.148133
  39 C :   -0.035142
  40 C :   -0.035774
  41 C :   -0.178568
  42 S :    0.360451
  43 C :   -0.181532
  44 C :   -0.026827
  45 C :   -0.036094
  46 C :   -0.138854
  47 S :    0.347202
  48 C :   -0.082546
  49 H :    0.027800
  50 H :    0.023569
  51 H :    0.032206
  52 H :    0.031733
  53 H :    0.029080
  54 H :    0.031827
  55 H :    0.040078
  56 H :    0.029697
  57 H :    0.029358
  58 H :    0.028771
  59 H :    0.033267
  60 H :    0.026329
  61 H :    0.026929
  62 H :    0.023329
  63 H :    0.018570
  64 H :    0.034170
  65 H :    0.028615
  66 H :    0.029601
  67 H :    0.029492
  68 H :    0.034696
  69 H :    0.021867
  70 H :    0.031769
  71 H :    0.032265
  72 H :    0.030174
  73 H :    0.031301
  74 H :    0.031915
  75 H :    0.027299
  76 H :    0.025004

  Mayer bond orders larger than 0.100000
B(  0-C ,  1-C ) :   1.8581 B(  0-C , 49-H ) :   0.9505 B(  0-C , 50-H ) :   0.9387
B(  1-C ,  2-C ) :   1.0830 B(  1-C ,  5-S ) :   1.0096 B(  2-C ,  3-C ) :   1.6558
B(  2-C , 51-H ) :   0.9933 B(  3-C ,  4-C ) :   1.1605 B(  3-C , 52-H ) :   0.9902
B(  4-C ,  5-S ) :   1.0388 B(  4-C ,  6-C ) :   1.5444 B(  6-C ,  7-C ) :   1.1787
B(  6-C , 10-S ) :   1.0218 B(  7-C ,  8-C ) :   1.6017 B(  7-C , 53-H ) :   0.9927
B(  8-C ,  9-C ) :   1.1464 B(  8-C , 54-H ) :   0.9979 B(  9-C , 10-S ) :   1.0452
B(  9-C , 11-C ) :   1.5495 B( 11-C , 12-C ) :   1.1911 B( 11-C , 55-H ) :   0.9668
B( 12-C , 13-O ) :   1.1119 B( 12-C , 16-C ) :   1.3837 B( 13-O , 14-C ) :   1.1256
B( 14-C , 15-C ) :   1.3895 B( 14-C , 17-C ) :   1.1981 B( 15-C , 16-C ) :   1.2739
B( 15-C , 56-H ) :   1.0111 B( 16-C , 57-H ) :   1.0117 B( 17-C , 18-C ) :   1.5669
B( 17-C , 58-H ) :   0.9623 B( 18-C , 19-C ) :   1.2231 B( 18-C , 59-H ) :   0.9709
B( 19-C , 20-C ) :   1.2981 B( 19-C , 26-C ) :   0.1010 B( 19-C , 27-S ) :   1.1200
B( 20-C , 21-C ) :   1.2137 B( 20-C , 25-C ) :   1.2249 B( 21-C , 22-C ) :   1.2235
B( 21-C , 26-C ) :   1.2952 B( 22-C , 23-C ) :   1.5402 B( 22-C , 60-H ) :   0.9908
B( 23-C , 24-C ) :   1.2201 B( 23-C , 61-H ) :   0.9849 B( 24-C , 25-C ) :   1.5424
B( 24-C , 62-H ) :   0.9789 B( 25-C , 63-H ) :   0.9867 B( 26-C , 27-S ) :   1.1228
B( 26-C , 28-C ) :   1.2143 B( 28-C , 29-C ) :   1.5717 B( 28-C , 64-H ) :   0.9727
B( 29-C , 30-C ) :   1.1951 B( 29-C , 65-H ) :   0.9615 B( 30-C , 31-O ) :   1.1452
B( 30-C , 34-C ) :   1.3851 B( 31-O , 32-C ) :   1.1130 B( 32-C , 33-C ) :   1.4286
B( 32-C , 35-C ) :   1.1419 B( 33-C , 34-C ) :   1.2725 B( 33-C , 66-H ) :   1.0039
B( 34-C , 67-H ) :   1.0100 B( 35-C , 36-C ) :   1.5977 B( 35-C , 68-H ) :   0.9735
B( 36-C , 37-C ) :   1.1850 B( 36-C , 69-H ) :   0.9698 B( 37-C , 38-C ) :   1.5489
B( 37-C , 70-H ) :   0.9829 B( 38-C , 39-C ) :   1.1454 B( 38-C , 42-S ) :   1.0283
B( 39-C , 40-C ) :   1.5954 B( 39-C , 71-H ) :   0.9982 B( 40-C , 41-C ) :   1.1799
B( 40-C , 72-H ) :   0.9925 B( 41-C , 42-S ) :   1.0393 B( 41-C , 43-C ) :   1.5458
B( 43-C , 44-C ) :   1.1601 B( 43-C , 47-S ) :   1.0414 B( 44-C , 45-C ) :   1.6549
B( 44-C , 73-H ) :   0.9913 B( 45-C , 46-C ) :   1.0828 B( 45-C , 74-H ) :   0.9930
B( 46-C , 47-S ) :   1.0090 B( 46-C , 48-C ) :   1.8608 B( 48-C , 75-H ) :   0.9503
B( 48-C , 76-H ) :   0.9415

-----------------------------------------------------------------------------
         ABSORPTION SPECTRUM VIA TRANSITION ELECTRIC DIPOLE MOMENTS
-----------------------------------------------------------------------------
State   Energy  Wavelength   fosc         T2         TX        TY        TZ
        (cm-1)    (nm)                  (au**2)     (au)      (au)      (au)
-----------------------------------------------------------------------------
   0   10790.0    926.8   1.786236902  54.49983  -0.36320   2.92993   6.76634
   1   15629.3    639.8   0.704915901  14.84822  -1.80940  -1.63416  -2.98393
   2   16358.5    611.3   0.077570453   1.56109  -0.22010  -0.63364  -1.05411
   3   18836.9    530.9   0.031329962   0.54755   0.73744  -0.05557   0.02533
   4   20869.9    479.2   0.591680769   9.33345  -2.96970   0.71096   0.09417
   5   22968.9    435.4   0.034386856   0.49286  -0.44359   0.30618   0.44983
   6   25002.9    400.0   0.277938181   3.65960  -1.65103  -0.38284  -0.88721
   7   25220.3    396.5   0.002285640   0.02984   0.11958  -0.08160  -0.09422
   8   27177.3    368.0   0.003105682   0.03762   0.09840  -0.15269  -0.06800
   9   27532.0    363.2   0.022110004   0.26438  -0.45122  -0.01651  -0.24597
  10   28889.3    346.1   0.006195397   0.07060   0.01132   0.25349   0.07883
  11   29964.9    333.7   0.186434008   2.04827   1.35417  -0.05789   0.45949
  12   30616.2    326.6   0.211729844   2.27670   0.59203   0.46220   1.30865
  13   31336.0    319.1   0.431465260   4.53291   1.78830   0.02798   1.15503
  14   32126.3    311.3   0.000877013   0.00899  -0.07770   0.04957  -0.02219
  15   33118.3    301.9   0.040698643   0.40456  -0.57662   0.26271   0.05530
  16   33560.0    298.0   0.096872603   0.95029   0.86353  -0.42203  -0.16278
  17   33701.3    296.7   0.030412069   0.29708   0.52602  -0.14189   0.01588
  18   34124.3    293.0   0.011279049   0.10881  -0.29694   0.12684   0.06747
  19   34289.0    291.6   0.173613121   1.66688   1.24437  -0.28975   0.18567
  20   34447.5    290.3   0.029999865   0.28671   0.47528  -0.06108   0.23892
  21   35059.4    285.2   0.121081388   1.13697  -0.89355   0.42090   0.40172
  22   35607.2    280.8   0.026016730   0.24054   0.35468  -0.21297  -0.26342
  23   35649.7    280.5   0.166303762   1.53575   0.90178  -0.56216  -0.63760
  24   37122.8    269.4   0.174650375   1.54883   1.19155  -0.24596   0.26182
  25   38052.7    262.8   0.015887844   0.13745  -0.36474   0.03007  -0.05929
  26   38121.2    262.3   0.048990412   0.42308  -0.61961   0.06349  -0.18744
  27   38259.2    261.4   0.012481484   0.10740   0.22932  -0.09741  -0.21289
  28   38897.3    257.1   0.098834028   0.83649  -0.50980  -0.36772  -0.66436
  29   38978.9    256.5   0.017458876   0.14746   0.18128  -0.17859  -0.28758
  30   39012.3    256.3   0.005920853   0.04996  -0.01712   0.17629   0.13636
  31   39467.0    253.4   0.378473044   3.15701   1.58739  -0.64293  -0.47312
  32   40208.6    248.7   0.049876201   0.40837   0.48287  -0.34585  -0.23579

FINAL SINGLE POINT ENERGY     -3755.714944397429

DIPOLE MOMENT
-------------
                                X             Y             Z
Electronic contribution:     10.45559       0.74059       6.08563
Nuclear contribution   :    -10.90958      -0.44612      -5.63792
                        -----------------------------------------
Total Dipole Moment    :     -0.45399       0.29447       0.44771
                        -----------------------------------------
Magnitude (a.u.)       :      0.70233
Magnitude (Debye)      :      1.78518

Rotational constants in cm-1:     0.004293     0.000331     0.000308
Rotational constants in MHz :   128.689551     9.911359     9.241845

                             ****ORCA TERMINATED NORMALLY****
TOTAL RUN TIME: 0 days 0 hours 4 minutes 59 seconds 623 msec
