                         Program Version 4.2.0 -  RELEASE  -
|  1> # ORCA input file
|  2> # SCF done       -205.468369682409          0.000494165587
|  3> ! CAM-B3LYP def2-SVP def2/J RIJCOSX Grid4 TightSCF
|  4> %maxcore 5000
|  5> %tddft
|  6>     Mode sTDDFT
|  7>     Ethresh 5.0
|  8>     maxcore 5000
|  9> end
| 10>
| 11> %pal
| 12>   nprocs 6
| 13>   end
| 14> * xyz 0 1
| 15>    C      -11.53184         1.59313         1.21078
| 16>    C      -12.55022         2.30419         0.59312
| 17>    C      -12.90864         2.04612        -0.72192
| 18>    C      -12.25155         1.07404        -1.46142
| 19>    C      -11.23268         0.35863        -0.85514
| 20>    C      -10.87284         0.61187         0.48742
| 21>    C       -9.79876        -0.29848         0.86709
| 22>    C       -9.11784        -0.27605         2.05636
| 23>    C       -9.36108         0.65361         3.08943
| 24>    N       -9.50143         1.37463         3.97179
| 25>    C       -8.05891        -1.13428         2.41910
| 26>    N       -7.19146        -1.78892         2.79108
| 27>    C       -9.61386        -1.21905        -0.24656
| 28>    C      -10.35618        -0.68030        -1.37517
| 29>    C      -10.08917        -0.89684        -2.70253
| 30>    C       -9.01939        -1.68330        -3.17580
| 31>    N       -8.13539        -2.26621        -3.61923
| 32>    C      -10.79500        -0.28480        -3.75764
| 33>    N      -11.34985         0.16258        -4.65773
| 34>    C       -8.93215        -2.40694        -0.15536
| 35>    C       -9.03589        -3.54368        -0.97715
| 36>    S       -7.79556        -4.77028        -0.87004
| 37>    C       -8.62044        -5.77604        -2.01092
| 38>    C       -9.81496        -5.19300        -2.41408
| 39>    C      -10.04196        -3.95303        -1.84610
| 40>    C       -8.08065        -7.01162        -2.43569
| 41>    C       -6.91420        -7.62549        -2.02017
| 42>    C       -6.67074        -8.83918        -2.65318
| 43>    C       -7.64265        -9.18419        -3.57376
| 44>    S       -8.88934        -7.97301        -3.64521
| 45>    C       -7.69753       -10.33111        -4.40302
| 46>    S       -6.47341       -11.56800        -4.31661
| 47>    C       -7.24435       -12.48278        -5.58324
| 48>    C       -8.38631       -11.83751        -6.02164
| 49>    C       -8.64172       -10.63977        -5.36190
| 50>    C       -6.72237       -13.70737        -6.07202
| 51>    C       -5.61672       -14.32619        -5.59288
| 52>    C       -5.07325       -15.53823        -6.08824
| 53>    C       -3.90976       -16.12429        -5.68160
| 54>    C       -3.64109       -17.33256        -6.41950
| 55>    C       -4.65820       -17.48567        -7.32231
| 56>    C       -5.61615       -16.33493        -7.24765
| 57>    C       -6.99071       -16.99944        -7.22445
| 58>    C       -6.92967       -18.04578        -8.33352
| 59>    S       -5.25610       -18.80980        -8.24371
| 60>    C       -2.54358       -18.21938        -6.20165
| 61>    S       -1.50183       -18.04835        -4.82334
| 62>    C       -0.56446       -19.43430        -5.30232
| 63>    C       -1.05209       -19.97112        -6.47672
| 64>    C       -2.16201       -19.29213        -6.97741
| 65>    C        0.52962       -19.89870        -4.52447
| 66>    C        1.41507       -20.91367        -4.83749
| 67>    C        2.36377       -21.14524        -3.84728
| 68>    C        2.22860       -20.31778        -2.74942
| 69>    S        0.89255       -19.21961        -2.96650
| 70>    C        3.00392       -20.30639        -1.56634
| 71>    S        4.33249       -21.40075        -1.35275
| 72>    C        4.66107       -20.76845         0.24282
| 73>    C        3.76375       -19.75687         0.55586
| 74>    C        2.84561       -19.49929        -0.44954
| 75>    C        5.74168       -21.28629         0.98137
| 76>    C        6.04650       -20.95637         2.27017
| 77>    C        7.11659       -21.49613         3.01339
| 78>    C        8.28503       -22.05717         2.55690
| 79>    C        9.10086       -22.98417         3.32913
| 80>    C        9.02330       -23.25118         4.67190
| 81>    C        8.14589       -22.64086         5.59195
| 82>    N        7.47104       -22.19714         6.40911
| 83>    C        9.85420       -24.17190         5.34439
| 84>    N       10.49374       -24.90100         5.95909
| 85>    C       10.02634       -23.61445         2.39507
| 86>    C        9.88579       -23.00023         1.13092
| 87>    C       10.63345       -23.43232         0.04822
| 88>    C       11.52690       -24.47648         0.23442
| 89>    C       11.67552       -25.07336         1.47775
| 90>    C       10.92926       -24.65151         2.56818
| 91>    C        8.90720       -21.92856         1.24693
| 92>    C        8.81203       -20.86128         0.39101
| 93>    C        9.52256       -20.75805        -0.82177
| 94>    N       10.05314       -20.62389        -1.83120
| 95>    C        8.05799       -19.69666         0.63879
| 96>    N        7.50559       -18.70210         0.79289
| 97>    H      -11.27113         1.80564         2.23432
| 98>    H      -13.07236         3.06781         1.14913
| 99>    H      -13.70967         2.60724        -1.17839
|100>    H      -12.54232         0.87803        -2.48080
|101>    H       -8.27300        -2.53033         0.69387
|102>    H      -10.48304        -5.67391        -3.10649
|103>    H      -10.93537        -3.37901        -2.01845
|104>    H       -6.26945        -7.18907        -1.27797
|105>    H       -5.81378        -9.46065        -2.46324
|106>    H       -9.01140       -12.23484        -6.80163
|107>    H       -9.48144        -9.99958        -5.56803
|108>    H       -7.27160       -14.13881        -6.89755
|109>    H       -5.08319       -13.86964        -4.76843
|110>    H       -3.26832       -15.76536        -4.89617
|111>    H       -5.52955       -15.72683        -8.15795
|112>    H       -7.80801       -16.30285        -7.40632
|113>    H       -7.14718       -17.47812        -6.25603
|114>    H       -7.02985       -17.59049        -9.31952
|115>    H       -7.66652       -18.83826        -8.22466
|116>    H       -0.62056       -20.83416        -6.94955
|117>    H       -2.67535       -19.56597        -7.88170
|118>    H        1.37175       -21.46238        -5.76014
|119>    H        3.13412       -21.89345        -3.91106
|120>    H        3.79541       -19.21909         1.48532
|121>    H        2.07580       -18.74995        -0.39228
|122>    H        6.34023       -22.03392         0.47517
|123>    H        5.37046       -20.31159         2.81297
|124>    H        6.95471       -21.51954         4.08311
|125>    H       10.52117       -22.98157        -0.92441
|126>    H       12.11219       -24.82783        -0.60160
|127>    H       12.37925       -25.88231         1.60153
|128>    H       11.05522       -25.13210         3.52408
|129> *
|130>
|131>                          ****END OF INPUT****

CARTESIAN COORDINATES (ANGSTROEM)
---------------------------------
  C    -11.531840    1.593130    1.210780
  C    -12.550220    2.304190    0.593120
  C    -12.908640    2.046120   -0.721920
  C    -12.251550    1.074040   -1.461420
  C    -11.232680    0.358630   -0.855140
  C    -10.872840    0.611870    0.487420
  C     -9.798760   -0.298480    0.867090
  C     -9.117840   -0.276050    2.056360
  C     -9.361080    0.653610    3.089430
  N     -9.501430    1.374630    3.971790
  C     -8.058910   -1.134280    2.419100
  N     -7.191460   -1.788920    2.791080
  C     -9.613860   -1.219050   -0.246560
  C    -10.356180   -0.680300   -1.375170
  C    -10.089170   -0.896840   -2.702530
  C     -9.019390   -1.683300   -3.175800
  N     -8.135390   -2.266210   -3.619230
  C    -10.795000   -0.284800   -3.757640
  N    -11.349850    0.162580   -4.657730
  C     -8.932150   -2.406940   -0.155360
  C     -9.035890   -3.543680   -0.977150
  S     -7.795560   -4.770280   -0.870040
  C     -8.620440   -5.776040   -2.010920
  C     -9.814960   -5.193000   -2.414080
  C    -10.041960   -3.953030   -1.846100
  C     -8.080650   -7.011620   -2.435690
  C     -6.914200   -7.625490   -2.020170
  C     -6.670740   -8.839180   -2.653180
  C     -7.642650   -9.184190   -3.573760
  S     -8.889340   -7.973010   -3.645210
  C     -7.697530  -10.331110   -4.403020
  S     -6.473410  -11.568000   -4.316610
  C     -7.244350  -12.482780   -5.583240
  C     -8.386310  -11.837510   -6.021640
  C     -8.641720  -10.639770   -5.361900
  C     -6.722370  -13.707370   -6.072020
  C     -5.616720  -14.326190   -5.592880
  C     -5.073250  -15.538230   -6.088240
  C     -3.909760  -16.124290   -5.681600
  C     -3.641090  -17.332560   -6.419500
  C     -4.658200  -17.485670   -7.322310
  C     -5.616150  -16.334930   -7.247650
  C     -6.990710  -16.999440   -7.224450
  C     -6.929670  -18.045780   -8.333520
  S     -5.256100  -18.809800   -8.243710
  C     -2.543580  -18.219380   -6.201650
  S     -1.501830  -18.048350   -4.823340
  C     -0.564460  -19.434300   -5.302320
  C     -1.052090  -19.971120   -6.476720
  C     -2.162010  -19.292130   -6.977410
  C      0.529620  -19.898700   -4.524470
  C      1.415070  -20.913670   -4.837490
  C      2.363770  -21.145240   -3.847280
  C      2.228600  -20.317780   -2.749420
  S      0.892550  -19.219610   -2.966500
  C      3.003920  -20.306390   -1.566340
  S      4.332490  -21.400750   -1.352750
  C      4.661070  -20.768450    0.242820
  C      3.763750  -19.756870    0.555860
  C      2.845610  -19.499290   -0.449540
  C      5.741680  -21.286290    0.981370
  C      6.046500  -20.956370    2.270170
  C      7.116590  -21.496130    3.013390
  C      8.285030  -22.057170    2.556900
  C      9.100860  -22.984170    3.329130
  C      9.023300  -23.251180    4.671900
  C      8.145890  -22.640860    5.591950
  N      7.471040  -22.197140    6.409110
  C      9.854200  -24.171900    5.344390
  N     10.493740  -24.901000    5.959090
  C     10.026340  -23.614450    2.395070
  C      9.885790  -23.000230    1.130920
  C     10.633450  -23.432320    0.048220
  C     11.526900  -24.476480    0.234420
  C     11.675520  -25.073360    1.477750
  C     10.929260  -24.651510    2.568180
  C      8.907200  -21.928560    1.246930
  C      8.812030  -20.861280    0.391010
  C      9.522560  -20.758050   -0.821770
  N     10.053140  -20.623890   -1.831200
  C      8.057990  -19.696660    0.638790
  N      7.505590  -18.702100    0.792890
  H    -11.271130    1.805640    2.234320
  H    -13.072360    3.067810    1.149130
  H    -13.709670    2.607240   -1.178390
  H    -12.542320    0.878030   -2.480800
  H     -8.273000   -2.530330    0.693870
  H    -10.483040   -5.673910   -3.106490
  H    -10.935370   -3.379010   -2.018450
  H     -6.269450   -7.189070   -1.277970
  H     -5.813780   -9.460650   -2.463240
  H     -9.011400  -12.234840   -6.801630
  H     -9.481440   -9.999580   -5.568030
  H     -7.271600  -14.138810   -6.897550
  H     -5.083190  -13.869640   -4.768430
  H     -3.268320  -15.765360   -4.896170
  H     -5.529550  -15.726830   -8.157950
  H     -7.808010  -16.302850   -7.406320
  H     -7.147180  -17.478120   -6.256030
  H     -7.029850  -17.590490   -9.319520
  H     -7.666520  -18.838260   -8.224660
  H     -0.620560  -20.834160   -6.949550
  H     -2.675350  -19.565970   -7.881700
  H      1.371750  -21.462380   -5.760140
  H      3.134120  -21.893450   -3.911060
  H      3.795410  -19.219090    1.485320
  H      2.075800  -18.749950   -0.392280
  H      6.340230  -22.033920    0.475170
  H      5.370460  -20.311590    2.812970
  H      6.954710  -21.519540    4.083110
  H     10.521170  -22.981570   -0.924410
  H     12.112190  -24.827830   -0.601600
  H     12.379250  -25.882310    1.601530
  H     11.055220  -25.132100    3.524080

 Total Charge           Charge          ....    0
 Multiplicity           Mult            ....    1
 Number of Electrons    NEL             ....  602
 Basis Dimension        Dim             .... 1336

ORBITAL ENERGIES
----------------

  NO   OCC          E(Eh)            E(eV)
   0   2.0000     -88.975861     -2421.1563
   1   2.0000     -88.972842     -2421.0741
   2   2.0000     -88.971540     -2421.0387
   3   2.0000     -88.969631     -2420.9867
   4   2.0000     -88.963517     -2420.8204
   5   2.0000     -88.963459     -2420.8188
   6   2.0000     -88.944392     -2420.2999
   7   2.0000     -14.420074      -392.3901
   8   2.0000     -14.419441      -392.3729
   9   2.0000     -14.417838      -392.3293
  10   2.0000     -14.417119      -392.3097
  11   2.0000     -14.416219      -392.2853
  12   2.0000     -14.416135      -392.2830
  13   2.0000     -14.415840      -392.2749
  14   2.0000     -14.414049      -392.2262
  15   2.0000     -10.347862      -281.5796
  16   2.0000     -10.346113      -281.5320
  17   2.0000     -10.345397      -281.5126
  18   2.0000     -10.345150      -281.5058
  19   2.0000     -10.344486      -281.4878
  20   2.0000     -10.343531      -281.4618
  21   2.0000     -10.342909      -281.4449
  22   2.0000     -10.342675      -281.4385
  23   2.0000     -10.334899      -281.2269
  24   2.0000     -10.329658      -281.0843
  25   2.0000     -10.328847      -281.0622
  26   2.0000     -10.324004      -280.9304
  27   2.0000     -10.322448      -280.8881
  28   2.0000     -10.322063      -280.8776
  29   2.0000     -10.321009      -280.8489
  30   2.0000     -10.320935      -280.8469
  31   2.0000     -10.319630      -280.8114
  32   2.0000     -10.319409      -280.8054
  33   2.0000     -10.319231      -280.8006
  34   2.0000     -10.319205      -280.7998
  35   2.0000     -10.319090      -280.7967
  36   2.0000     -10.319064      -280.7960
  37   2.0000     -10.317464      -280.7525
  38   2.0000     -10.317235      -280.7462
  39   2.0000     -10.316841      -280.7355
  40   2.0000     -10.316797      -280.7343
  41   2.0000     -10.315304      -280.6937
  42   2.0000     -10.314756      -280.6788
  43   2.0000     -10.314270      -280.6656
  44   2.0000     -10.314247      -280.6649
  45   2.0000     -10.312087      -280.6061
  46   2.0000     -10.310636      -280.5667
  47   2.0000     -10.310585      -280.5653
  48   2.0000     -10.310430      -280.5611
  49   2.0000     -10.310322      -280.5581
  50   2.0000     -10.308793      -280.5165
  51   2.0000     -10.308579      -280.5107
  52   2.0000     -10.308243      -280.5016
  53   2.0000     -10.305937      -280.4388
  54   2.0000     -10.304128      -280.3896
  55   2.0000     -10.299348      -280.2595
  56   2.0000     -10.298701      -280.2419
  57   2.0000     -10.298135      -280.2265
  58   2.0000     -10.297323      -280.2044
  59   2.0000     -10.297191      -280.2008
  60   2.0000     -10.296921      -280.1935
  61   2.0000     -10.296682      -280.1870
  62   2.0000     -10.296451      -280.1807
  63   2.0000     -10.296382      -280.1788
  64   2.0000     -10.296283      -280.1761
  65   2.0000     -10.295599      -280.1575
  66   2.0000     -10.293625      -280.1038
  67   2.0000     -10.293257      -280.0938
  68   2.0000     -10.292783      -280.0809
  69   2.0000     -10.290338      -280.0143
  70   2.0000     -10.290145      -280.0091
  71   2.0000     -10.288085      -279.9530
  72   2.0000     -10.287585      -279.9394
  73   2.0000     -10.287074      -279.9255
  74   2.0000     -10.286296      -279.9043
  75   2.0000     -10.285339      -279.8783
  76   2.0000     -10.284698      -279.8609
  77   2.0000     -10.284243      -279.8485
  78   2.0000     -10.282765      -279.8083
  79   2.0000     -10.282276      -279.7950
  80   2.0000     -10.281553      -279.7753
  81   2.0000     -10.277596      -279.6676
  82   2.0000      -8.071371      -219.6332
  83   2.0000      -8.068504      -219.5552
  84   2.0000      -8.066940      -219.5126
  85   2.0000      -8.065194      -219.4651
  86   2.0000      -8.059098      -219.2992
  87   2.0000      -8.058982      -219.2961
  88   2.0000      -8.040280      -218.7872
  89   2.0000      -6.040647      -164.3744
  90   2.0000      -6.037729      -164.2950
  91   2.0000      -6.036546      -164.2628
  92   2.0000      -6.036339      -164.2571
  93   2.0000      -6.034545      -164.2083
  94   2.0000      -6.033735      -164.1863
  95   2.0000      -6.033446      -164.1784
  96   2.0000      -6.032225      -164.1452
  97   2.0000      -6.030600      -164.1010
  98   2.0000      -6.030433      -164.0964
  99   2.0000      -6.028841      -164.0531
 100   2.0000      -6.028401      -164.0411
 101   2.0000      -6.028280      -164.0378
 102   2.0000      -6.027173      -164.0077
 103   2.0000      -6.024302      -163.9296
 104   2.0000      -6.024288      -163.9292
 105   2.0000      -6.021193      -163.8450
 106   2.0000      -6.020965      -163.8388
 107   2.0000      -6.010330      -163.5494
 108   2.0000      -6.006303      -163.4398
 109   2.0000      -6.000614      -163.2850
 110   2.0000      -1.034289       -28.1444
 111   2.0000      -1.031024       -28.0556
 112   2.0000      -1.016579       -27.6625
 113   2.0000      -1.014174       -27.5971
 114   2.0000      -1.013500       -27.5787
 115   2.0000      -1.011942       -27.5363
 116   2.0000      -1.005329       -27.3564
 117   2.0000      -1.003864       -27.3165
 118   2.0000      -1.002890       -27.2900
 119   2.0000      -1.000876       -27.2352
 120   2.0000      -0.996245       -27.1092
 121   2.0000      -0.995651       -27.0930
 122   2.0000      -0.994975       -27.0747
 123   2.0000      -0.993758       -27.0415
 124   2.0000      -0.993352       -27.0305
 125   2.0000      -0.981415       -26.7057
 126   2.0000      -0.976901       -26.5828
 127   2.0000      -0.956772       -26.0351
 128   2.0000      -0.956534       -26.0286
 129   2.0000      -0.937541       -25.5118
 130   2.0000      -0.935090       -25.4451
 131   2.0000      -0.929135       -25.2831
 132   2.0000      -0.925306       -25.1789
 133   2.0000      -0.911458       -24.8020
 134   2.0000      -0.903357       -24.5816
 135   2.0000      -0.891997       -24.2725
 136   2.0000      -0.890972       -24.2446
 137   2.0000      -0.887208       -24.1421
 138   2.0000      -0.877178       -23.8692
 139   2.0000      -0.866846       -23.5881
 140   2.0000      -0.864347       -23.5201
 141   2.0000      -0.862278       -23.4638
 142   2.0000      -0.857540       -23.3349
 143   2.0000      -0.856708       -23.3122
 144   2.0000      -0.850577       -23.1454
 145   2.0000      -0.846062       -23.0225
 146   2.0000      -0.843095       -22.9418
 147   2.0000      -0.840125       -22.8610
 148   2.0000      -0.835827       -22.7440
 149   2.0000      -0.824998       -22.4493
 150   2.0000      -0.824330       -22.4311
 151   2.0000      -0.808983       -22.0136
 152   2.0000      -0.803586       -21.8667
 153   2.0000      -0.794352       -21.6154
 154   2.0000      -0.789444       -21.4819
 155   2.0000      -0.787375       -21.4256
 156   2.0000      -0.781196       -21.2574
 157   2.0000      -0.772821       -21.0295
 158   2.0000      -0.756731       -20.5917
 159   2.0000      -0.731480       -19.9046
 160   2.0000      -0.725790       -19.7497
 161   2.0000      -0.719317       -19.5736
 162   2.0000      -0.714360       -19.4387
 163   2.0000      -0.711520       -19.3615
 164   2.0000      -0.709238       -19.2994
 165   2.0000      -0.708883       -19.2897
 166   2.0000      -0.703753       -19.1501
 167   2.0000      -0.694798       -18.9064
 168   2.0000      -0.690454       -18.7882
 169   2.0000      -0.683147       -18.5894
 170   2.0000      -0.674674       -18.3588
 171   2.0000      -0.669412       -18.2156
 172   2.0000      -0.665596       -18.1118
 173   2.0000      -0.664176       -18.0731
 174   2.0000      -0.662737       -18.0340
 175   2.0000      -0.661210       -17.9924
 176   2.0000      -0.659190       -17.9375
 177   2.0000      -0.651735       -17.7346
 178   2.0000      -0.641618       -17.4593
 179   2.0000      -0.641136       -17.4462
 180   2.0000      -0.637906       -17.3583
 181   2.0000      -0.633544       -17.2396
 182   2.0000      -0.629413       -17.1272
 183   2.0000      -0.626038       -17.0354
 184   2.0000      -0.625515       -17.0211
 185   2.0000      -0.621283       -16.9060
 186   2.0000      -0.618506       -16.8304
 187   2.0000      -0.610178       -16.6038
 188   2.0000      -0.608268       -16.5518
 189   2.0000      -0.597160       -16.2496
 190   2.0000      -0.591457       -16.0944
 191   2.0000      -0.588404       -16.0113
 192   2.0000      -0.583760       -15.8849
 193   2.0000      -0.581426       -15.8214
 194   2.0000      -0.581224       -15.8159
 195   2.0000      -0.576014       -15.6741
 196   2.0000      -0.574073       -15.6213
 197   2.0000      -0.561840       -15.2885
 198   2.0000      -0.552763       -15.0415
 199   2.0000      -0.551583       -15.0093
 200   2.0000      -0.545459       -14.8427
 201   2.0000      -0.543929       -14.8011
 202   2.0000      -0.540377       -14.7044
 203   2.0000      -0.538560       -14.6550
 204   2.0000      -0.536323       -14.5941
 205   2.0000      -0.536283       -14.5930
 206   2.0000      -0.535858       -14.5814
 207   2.0000      -0.533618       -14.5205
 208   2.0000      -0.532920       -14.5015
 209   2.0000      -0.522318       -14.2130
 210   2.0000      -0.519700       -14.1417
 211   2.0000      -0.517363       -14.0782
 212   2.0000      -0.515767       -14.0347
 213   2.0000      -0.514152       -13.9908
 214   2.0000      -0.513052       -13.9608
 215   2.0000      -0.511514       -13.9190
 216   2.0000      -0.509147       -13.8546
 217   2.0000      -0.506464       -13.7816
 218   2.0000      -0.504733       -13.7345
 219   2.0000      -0.503380       -13.6977
 220   2.0000      -0.501451       -13.6452
 221   2.0000      -0.499836       -13.6012
 222   2.0000      -0.497303       -13.5323
 223   2.0000      -0.496428       -13.5085
 224   2.0000      -0.494814       -13.4646
 225   2.0000      -0.492884       -13.4121
 226   2.0000      -0.487843       -13.2749
 227   2.0000      -0.486441       -13.2367
 228   2.0000      -0.484279       -13.1779
 229   2.0000      -0.481778       -13.1098
 230   2.0000      -0.481243       -13.0953
 231   2.0000      -0.479265       -13.0415
 232   2.0000      -0.475329       -12.9344
 233   2.0000      -0.474180       -12.9031
 234   2.0000      -0.472708       -12.8630
 235   2.0000      -0.468901       -12.7595
 236   2.0000      -0.465431       -12.6650
 237   2.0000      -0.463372       -12.6090
 238   2.0000      -0.462346       -12.5811
 239   2.0000      -0.460527       -12.5316
 240   2.0000      -0.457251       -12.4424
 241   2.0000      -0.456649       -12.4260
 242   2.0000      -0.454923       -12.3791
 243   2.0000      -0.454012       -12.3543
 244   2.0000      -0.451954       -12.2983
 245   2.0000      -0.450773       -12.2662
 246   2.0000      -0.450418       -12.2565
 247   2.0000      -0.448618       -12.2075
 248   2.0000      -0.446883       -12.1603
 249   2.0000      -0.446165       -12.1408
 250   2.0000      -0.445879       -12.1330
 251   2.0000      -0.444774       -12.1029
 252   2.0000      -0.443485       -12.0678
 253   2.0000      -0.443107       -12.0576
 254   2.0000      -0.442149       -12.0315
 255   2.0000      -0.440083       -11.9753
 256   2.0000      -0.438600       -11.9349
 257   2.0000      -0.436046       -11.8654
 258   2.0000      -0.432784       -11.7767
 259   2.0000      -0.432305       -11.7636
 260   2.0000      -0.429885       -11.6978
 261   2.0000      -0.429673       -11.6920
 262   2.0000      -0.428434       -11.6583
 263   2.0000      -0.428080       -11.6486
 264   2.0000      -0.427390       -11.6299
 265   2.0000      -0.425778       -11.5860
 266   2.0000      -0.425221       -11.5708
 267   2.0000      -0.423643       -11.5279
 268   2.0000      -0.421283       -11.4637
 269   2.0000      -0.415579       -11.3085
 270   2.0000      -0.415023       -11.2933
 271   2.0000      -0.414056       -11.2670
 272   2.0000      -0.412760       -11.2318
 273   2.0000      -0.410707       -11.1759
 274   2.0000      -0.409820       -11.1518
 275   2.0000      -0.408900       -11.1267
 276   2.0000      -0.406289       -11.0557
 277   2.0000      -0.402294       -10.9470
 278   2.0000      -0.393165       -10.6986
 279   2.0000      -0.385372       -10.4865
 280   2.0000      -0.383043       -10.4231
 281   2.0000      -0.380916       -10.3653
 282   2.0000      -0.368360       -10.0236
 283   2.0000      -0.362461        -9.8631
 284   2.0000      -0.345781        -9.4092
 285   2.0000      -0.344966        -9.3870
 286   2.0000      -0.343061        -9.3352
 287   2.0000      -0.339467        -9.2374
 288   2.0000      -0.337546        -9.1851
 289   2.0000      -0.334358        -9.0983
 290   2.0000      -0.332379        -9.0445
 291   2.0000      -0.331009        -9.0072
 292   2.0000      -0.330107        -8.9827
 293   2.0000      -0.327885        -8.9222
 294   2.0000      -0.317308        -8.6344
 295   2.0000      -0.310222        -8.4416
 296   2.0000      -0.297602        -8.0982
 297   2.0000      -0.282767        -7.6945
 298   2.0000      -0.263418        -7.1680
 299   2.0000      -0.244999        -6.6668
 300   2.0000      -0.226601        -6.1661
 301   0.0000      -0.103482        -2.8159
 302   0.0000      -0.101994        -2.7754
 303   0.0000      -0.085846        -2.3360
 304   0.0000      -0.083846        -2.2816
 305   0.0000      -0.059247        -1.6122

MULLIKEN ATOMIC CHARGES
-----------------------
   0 C :   -0.033113
   1 C :    0.045131
   2 C :    0.046668
   3 C :   -0.034260
   4 C :    0.002820
   5 C :    0.011291
   6 C :    0.303210
   7 C :   -0.348062
   8 C :   -0.189017
   9 N :    0.156411
  10 C :   -0.180352
  11 N :    0.148380
  12 C :   -0.079135
  13 C :    0.229416
  14 C :   -0.341976
  15 C :   -0.207901
  16 N :    0.185655
  17 C :   -0.181640
  18 N :    0.161787
  19 C :    0.096233
  20 C :   -0.146850
  21 S :    0.171254
  22 C :   -0.010156
  23 C :   -0.028617
  24 C :    0.076500
  25 C :   -0.041671
  26 C :    0.005471
  27 C :   -0.008173
  28 C :   -0.026511
  29 S :    0.129406
  30 C :   -0.047745
  31 S :    0.112192
  32 C :   -0.029468
  33 C :    0.006202
  34 C :    0.002189
  35 C :    0.008625
  36 C :    0.020132
  37 C :    0.033807
  38 C :   -0.064033
  39 C :    0.107895
  40 C :   -0.175882
  41 C :   -0.003374
  42 C :    0.067964
  43 C :   -0.042965
  44 S :    0.022294
  45 C :   -0.077017
  46 S :    0.116372
  47 C :   -0.038050
  48 C :   -0.000972
  49 C :   -0.001487
  50 C :   -0.029588
  51 C :    0.000613
  52 C :   -0.001010
  53 C :   -0.040997
  54 S :    0.132386
  55 C :   -0.030956
  56 S :    0.140532
  57 C :   -0.107201
  58 C :    0.060447
  59 C :   -0.016157
  60 C :    0.104310
  61 C :   -0.021370
  62 C :    0.037013
  63 C :   -0.070203
  64 C :    0.303576
  65 C :   -0.351708
  66 C :   -0.181064
  67 N :    0.150397
  68 C :   -0.189133
  69 N :    0.154010
  70 C :    0.014373
  71 C :   -0.003446
  72 C :   -0.031285
  73 C :    0.046114
  74 C :    0.043600
  75 C :   -0.032947
  76 C :    0.232994
  77 C :   -0.348827
  78 C :   -0.180498
  79 N :    0.157805
  80 C :   -0.197289
  81 N :    0.179257
  82 H :    0.005849
  83 H :    0.003934
  84 H :    0.003802
  85 H :    0.004799
  86 H :    0.015372
  87 H :   -0.000665
  88 H :    0.008643
  89 H :    0.000318
  90 H :   -0.005208
  91 H :   -0.020098
  92 H :   -0.009254
  93 H :   -0.026692
  94 H :   -0.021247
  95 H :   -0.020518
  96 H :    0.046956
  97 H :    0.023427
  98 H :    0.028010
  99 H :    0.054130
 100 H :    0.059851
 101 H :   -0.018577
 102 H :   -0.016107
 103 H :   -0.016547
 104 H :   -0.005265
 105 H :    0.000234
 106 H :   -0.001837
 107 H :    0.012464
 108 H :    0.003936
 109 H :    0.023646
 110 H :    0.003486
 111 H :    0.002740
 112 H :    0.003617
 113 H :    0.004176
Sum of atomic charges:    0.0000000

LOEWDIN ATOMIC CHARGES
----------------------
   0 C :    0.004592
   1 C :    0.000549
   2 C :    0.002803
   3 C :   -0.000198
   4 C :   -0.011142
   5 C :   -0.013136
   6 C :    0.078727
   7 C :   -0.138318
   8 C :   -0.019155
   9 N :   -0.050424
  10 C :   -0.022008
  11 N :   -0.048204
  12 C :   -0.069518
  13 C :    0.066128
  14 C :   -0.137337
  15 C :   -0.020923
  16 N :   -0.038126
  17 C :   -0.021522
  18 N :   -0.049482
  19 C :    0.043045
  20 C :   -0.189297
  21 S :    0.474668
  22 C :   -0.144568
  23 C :   -0.060839
  24 C :   -0.003453
  25 C :   -0.194696
  26 C :   -0.035870
  27 C :   -0.062252
  28 C :   -0.163609
  29 S :    0.444639
  30 C :   -0.189227
  31 S :    0.431657
  32 C :   -0.156925
  33 C :   -0.059374
  34 C :   -0.053884
  35 C :   -0.057016
  36 C :   -0.020238
  37 C :   -0.036684
  38 C :   -0.004545
  39 C :   -0.088190
  40 C :   -0.149082
  41 C :   -0.028197
  42 C :   -0.022524
  43 C :   -0.111489
  44 S :    0.314163
  45 C :   -0.161932
  46 S :    0.426513
  47 C :   -0.194179
  48 C :   -0.044529
  49 C :   -0.060482
  50 C :   -0.169091
  51 C :   -0.056190
  52 C :   -0.043903
  53 C :   -0.195878
  54 S :    0.436138
  55 C :   -0.156435
  56 S :    0.448411
  57 C :   -0.182907
  58 C :   -0.009414
  59 C :   -0.061521
  60 C :    0.026964
  61 C :   -0.045971
  62 C :    0.061323
  63 C :   -0.069987
  64 C :    0.078141
  65 C :   -0.138485
  66 C :   -0.022142
  67 N :   -0.048692
  68 C :   -0.018702
  69 N :   -0.052068
  70 C :   -0.013073
  71 C :   -0.011655
  72 C :   -0.000245
  73 C :    0.002013
  74 C :    0.000181
  75 C :    0.004018
  76 C :    0.064263
  77 C :   -0.139662
  78 C :   -0.021143
  79 N :   -0.052189
  80 C :   -0.018251
  81 N :   -0.041598
  82 H :    0.041483
  83 H :    0.037411
  84 H :    0.037224
  85 H :    0.040375
  86 H :    0.045609
  87 H :    0.030986
  88 H :    0.036803
  89 H :    0.032333
  90 H :    0.029973
  91 H :    0.029568
  92 H :    0.027219
  93 H :    0.028535
  94 H :    0.024896
  95 H :    0.020546
  96 H :    0.054339
  97 H :    0.028200
  98 H :    0.035158
  99 H :    0.024134
 100 H :    0.028886
 101 H :    0.030166
 102 H :    0.024035
 103 H :    0.031328
 104 H :    0.029634
 105 H :    0.037829
 106 H :    0.030741
 107 H :    0.034349
 108 H :    0.037238
 109 H :    0.048542
 110 H :    0.040145
 111 H :    0.036878
 112 H :    0.037134
 113 H :    0.041140

  Mayer bond orders larger than 0.100000
B(  0-C ,  1-C ) :   1.3689 B(  0-C ,  5-C ) :   1.3862 B(  0-C , 82-H ) :   0.9822
B(  1-C ,  2-C ) :   1.3765 B(  1-C , 83-H ) :   0.9869 B(  2-C ,  3-C ) :   1.3644
B(  2-C , 84-H ) :   0.9875 B(  3-C ,  4-C ) :   1.3838 B(  3-C , 85-H ) :   0.9864
B(  4-C ,  5-C ) :   1.3116 B(  4-C , 13-C ) :   1.0072 B(  5-C ,  6-C ) :   0.9929
B(  6-C ,  7-C ) :   1.6214 B(  6-C , 12-C ) :   1.0773 B(  7-C ,  8-C ) :   1.1511
B(  7-C , 10-C ) :   1.1362 B(  8-C ,  9-N ) :   2.9733 B( 10-C , 11-N ) :   2.9617
B( 12-C , 13-C ) :   1.0330 B( 12-C , 19-C ) :   1.5778 B( 13-C , 14-C ) :   1.6379
B( 14-C , 15-C ) :   1.1601 B( 14-C , 17-C ) :   1.1389 B( 15-C , 16-N ) :   3.0145
B( 17-C , 18-N ) :   2.9920 B( 19-C , 20-C ) :   1.2131 B( 19-C , 86-H ) :   0.9101
B( 20-C , 21-S ) :   1.1014 B( 20-C , 24-C ) :   1.3951 B( 21-S , 22-C ) :   1.1697
B( 22-C , 23-C ) :   1.4160 B( 22-C , 25-C ) :   1.1781 B( 23-C , 24-C ) :   1.3577
B( 23-C , 87-H ) :   0.9934 B( 24-C , 88-H ) :   0.9891 B( 25-C , 26-C ) :   1.4751
B( 25-C , 29-S ) :   1.1065 B( 26-C , 27-C ) :   1.2907 B( 26-C , 89-H ) :   0.9935
B( 27-C , 28-C ) :   1.4779 B( 27-C , 90-H ) :   0.9932 B( 28-C , 29-S ) :   1.1367
B( 28-C , 30-C ) :   1.1664 B( 30-C , 31-S ) :   1.1141 B( 30-C , 34-C ) :   1.4908
B( 31-S , 32-C ) :   1.1113 B( 32-C , 33-C ) :   1.4683 B( 32-C , 35-C ) :   1.1579
B( 33-C , 34-C ) :   1.2691 B( 33-C , 91-H ) :   1.0012 B( 34-C , 92-H ) :   0.9920
B( 35-C , 36-C ) :   1.6169 B( 35-C , 93-H ) :   0.9719 B( 36-C , 37-C ) :   1.1654
B( 36-C , 94-H ) :   0.9702 B( 37-C , 38-C ) :   1.6214 B( 37-C , 41-C ) :   1.0209
B( 38-C , 39-C ) :   1.0766 B( 38-C , 95-H ) :   1.0039 B( 39-C , 40-C ) :   1.6826
B( 39-C , 45-C ) :   1.0816 B( 40-C , 41-C ) :   0.9955 B( 40-C , 44-S ) :   1.0778
B( 41-C , 42-C ) :   1.0412 B( 41-C , 96-H ) :   0.8530 B( 42-C , 43-C ) :   1.0653
B( 42-C , 97-H ) :   0.9366 B( 42-C , 98-H ) :   0.9359 B( 43-C , 44-S ) :   0.9718
B( 43-C , 99-H ) :   0.9482 B( 43-C ,100-H ) :   0.9533 B( 45-C , 46-S ) :   1.1243
B( 45-C , 47-C ) :   0.1098 B( 45-C , 49-C ) :   1.5131 B( 46-S , 47-C ) :   1.1065
B( 47-C , 48-C ) :   1.5191 B( 47-C , 50-C ) :   1.1140 B( 48-C , 49-C ) :   1.2617
B( 48-C ,101-H ) :   0.9958 B( 49-C ,102-H ) :   0.9916 B( 50-C , 51-C ) :   1.5053
B( 50-C , 53-C ) :   0.1052 B( 50-C , 54-S ) :   1.1300 B( 51-C , 52-C ) :   1.2858
B( 51-C ,103-H ) :   0.9964 B( 52-C , 53-C ) :   1.4782 B( 52-C ,104-H ) :   0.9923
B( 53-C , 54-S ) :   1.1105 B( 53-C , 55-C ) :   1.1734 B( 55-C , 56-S ) :   1.1595
B( 55-C , 59-C ) :   1.4353 B( 56-S , 57-C ) :   1.0907 B( 57-C , 58-C ) :   1.4385
B( 57-C , 60-C ) :   1.2079 B( 58-C , 59-C ) :   1.3307 B( 58-C ,105-H ) :   0.9897
B( 59-C ,106-H ) :   0.9926 B( 60-C , 61-C ) :   1.5866 B( 60-C ,107-H ) :   0.9497
B( 61-C , 62-C ) :   1.2406 B( 61-C ,108-H ) :   0.9559 B( 62-C , 63-C ) :   1.5438
B( 62-C ,109-H ) :   0.9236 B( 63-C , 64-C ) :   1.0788 B( 63-C , 76-C ) :   1.0328
B( 64-C , 65-C ) :   1.6188 B( 64-C , 70-C ) :   0.9919 B( 65-C , 66-C ) :   1.1382
B( 65-C , 68-C ) :   1.1507 B( 66-C , 67-N ) :   2.9652 B( 68-C , 69-N ) :   2.9728
B( 70-C , 71-C ) :   1.3157 B( 70-C , 75-C ) :   1.3819 B( 71-C , 72-C ) :   1.3829
B( 71-C , 76-C ) :   1.0034 B( 72-C , 73-C ) :   1.3640 B( 72-C ,110-H ) :   0.9870
B( 73-C , 74-C ) :   1.3781 B( 73-C ,111-H ) :   0.9868 B( 74-C , 75-C ) :   1.3687
B( 74-C ,112-H ) :   0.9870 B( 75-C ,113-H ) :   0.9835 B( 76-C , 77-C ) :   1.6350
B( 77-C , 78-C ) :   1.1408 B( 77-C , 80-C ) :   1.1580 B( 78-C , 79-N ) :   2.9893
B( 80-C , 81-N ) :   3.0060

-----------------------------------------------------------------------------
         ABSORPTION SPECTRUM VIA TRANSITION ELECTRIC DIPOLE MOMENTS
-----------------------------------------------------------------------------
State   Energy  Wavelength   fosc         T2         TX        TY        TZ
        (cm-1)    (nm)                  (au**2)     (au)      (au)      (au)
-----------------------------------------------------------------------------
   0   14519.7    688.7   1.592419183  36.10563   4.61286  -3.34911   1.90017
   1   15403.0    649.2   1.170661545  25.02091   0.25149   4.22618   2.66404
   2   19755.1    506.2   0.095983026   1.59952  -0.39855   0.74035  -0.94475
   3   20102.5    497.4   0.216463063   3.54494   0.03131   0.64351   1.76914
   4   20461.6    488.7   0.135915940   2.18678   0.80004  -0.59873   1.09007
   5   21194.4    471.8   0.042677629   0.66291  -0.26961  -0.62329  -0.44914
   6   23476.5    426.0   0.619910813   8.69304  -1.20921   2.59949   0.68812
   7   24586.1    406.7   0.084236868   1.12795   0.37763  -0.05138   0.99131
   8   25123.7    398.0   0.039933313   0.52327  -0.49073   0.32752   0.41855
   9   25277.3    395.6   0.346657604   4.51487  -1.63887   0.11458  -1.34753
  10   25845.3    386.9   0.157925641   2.01163  -0.54053   0.29821  -1.27692
  11   25867.8    386.6   0.032196817   0.40976   0.04015   0.34243   0.53934
  12   27411.4    364.8   0.123389116   1.48191  -0.90135   0.74395  -0.34061
  13   27767.1    360.1   0.106713790   1.26522  -0.59528   0.87496   0.38118
  14   28195.5    354.7   0.114087531   1.33209   0.78341  -0.77780   0.33673
  15   29266.5    341.7   0.139303158   1.56699  -0.35438  -0.46646  -1.10627
  16   29533.6    338.6   0.132391659   1.47577  -0.19478  -0.44755   1.11244
  17   29775.1    335.9   0.094817499   1.04836   0.29375   0.03178   0.98034
  18   30331.2    329.7   0.068495851   0.74345   0.51725  -0.40709   0.55694
  19   30860.0    324.0   0.053736996   0.57326  -0.25954   0.65292   0.28212
  20   31092.8    321.6   0.002698373   0.02857  -0.03415  -0.13472  -0.09621
  21   31513.3    317.3   0.001163805   0.01216  -0.07012   0.08509   0.00025
  22   31827.5    314.2   0.071729063   0.74194  -0.15108  -0.21919  -0.81919
  23   32772.9    305.1   0.087947177   0.88345  -0.58896   0.72886  -0.07306
  24   33036.9    302.7   0.606738470   6.04614   0.13981  -1.25897   2.10751
  25   33301.7    300.3   0.006511576   0.06437   0.17862  -0.02503  -0.17844
  26   33657.9    297.1   0.446198889   4.36433   0.18757   0.38204   2.04528
  27   33774.1    296.1   0.125845558   1.22667   0.21672  -0.14422   1.07653
  28   33999.0    294.1   0.125526948   1.21548  -1.03435   0.37595  -0.06531
  29   34247.0    292.0   0.058578979   0.56311  -0.03642   0.59425   0.45678
  30   34426.6    290.5   0.110042330   1.05231   0.71637  -0.66702  -0.30693
  31   34809.7    287.3   0.046245147   0.43736   0.33808  -0.56828  -0.01100
  32   34896.9    286.6   0.066953226   0.63163   0.13475  -0.04871  -0.78173
  33   35008.0    285.6   0.079259216   0.74535   0.13272  -0.39485  -0.75619
  34   35459.5    282.0   0.186697174   1.73333  -0.73391   0.84402   0.69451
  35   35545.8    281.3   0.228795906   2.11902   1.17141  -0.80785   0.30692
  36   35763.3    279.6   0.010339698   0.09518  -0.20286  -0.18355  -0.14260
  37   36342.2    275.2   0.000536500   0.00486   0.05056  -0.02915   0.03814
  38   36570.2    273.4   0.033342504   0.30016   0.37443  -0.37490   0.13932
  39   36814.1    271.6   0.003818445   0.03415   0.18471  -0.00347  -0.00407
  40   37485.7    266.8   0.003349024   0.02941  -0.01088   0.10830   0.13253
  41   38049.8    262.8   0.026483489   0.22914   0.43172  -0.18290   0.09643
  42   38239.8    261.5   0.109982950   0.94686  -0.35147   0.57519   0.70177
  43   38524.3    259.6   0.008324980   0.07114   0.07257   0.00987  -0.25647
  44   38664.7    258.6   0.019690257   0.16765   0.38152   0.00204   0.14864
  45   38811.4    257.7   0.003944908   0.03346   0.05012   0.07162   0.16069
  46   39058.4    256.0   0.132459186   1.11646   0.79345  -0.69416  -0.07099
  47   39154.6    255.4   0.005566348   0.04680   0.11720   0.10651   0.14738
  48   39252.7    254.8   0.004511219   0.03784  -0.11643   0.13858   0.07124
  49   39339.8    254.2   0.052192718   0.43677   0.46913  -0.40136  -0.23579
  50   39883.6    250.7   0.367254456   3.03144   1.34242  -1.10503   0.09083
  51   40283.2    248.2   0.207611957   1.69669   0.87615  -0.86262  -0.43005

FINAL SINGLE POINT ENERGY     -5792.767344696454

DIPOLE MOMENT
-------------
                                X             Y             Z
Electronic contribution:     14.92707      24.61682      25.52996
Nuclear contribution   :    -19.13175     -27.56079     -29.64164
                        -----------------------------------------
Total Dipole Moment    :     -4.20468      -2.94397      -4.11168
                        -----------------------------------------
Magnitude (a.u.)       :      6.57665
Magnitude (Debye)      :     16.71651

Rotational constants in cm-1:     0.000709     0.000112     0.000099
Rotational constants in MHz :    21.251033     3.365496     2.959737

                             ****ORCA TERMINATED NORMALLY****
TOTAL RUN TIME: 0 days 0 hours 13 minutes 22 seconds 879 msec
