                         Program Version 4.2.0 -  RELEASE  -
|  1> # ORCA input file
|  2> # SCF done       -184.307326110369          0.000600746617
|  3> ! CAM-B3LYP def2-SVP def2/J RIJCOSX Grid4 TightSCF
|  4> %maxcore 5000
|  5> %tddft
|  6>     Mode sTDDFT
|  7>     Ethresh 5.0
|  8>     maxcore 5000
|  9> end
| 10>
| 11> %pal
| 12>   nprocs 6
| 13>   end
| 14> * xyz 0 1
| 15>    C       -9.37320        -4.61873        -1.56245
| 16>    C       -8.44650        -5.40322        -2.20447
| 17>    C       -8.06469        -5.24283        -3.55199
| 18>    N       -7.66545        -5.13489        -4.62302
| 19>    C       -7.79377        -6.49471        -1.59712
| 20>    N       -7.26225        -7.41138        -1.15530
| 21>    C      -10.26491        -3.67198        -2.22872
| 22>    C      -11.34525        -3.38530        -1.37458
| 23>    C      -12.36357        -2.53710        -1.75751
| 24>    C      -12.29603        -1.95149        -3.01666
| 25>    C      -11.22300        -2.23157        -3.87007
| 26>    C      -10.20713        -3.10073        -3.48767
| 27>   Cl      -11.14563        -1.49447        -5.41608
| 28>   Cl      -13.53831        -0.88206        -3.52495
| 29>    C      -11.16902        -4.11157        -0.09792
| 30>    O      -11.92395        -4.15540         0.84439
| 31>    C       -9.82522        -4.74568        -0.19566
| 32>    C       -9.24852        -5.23824         0.94159
| 33>    C       -7.88209        -5.50842         1.20252
| 34>    C       -6.84457        -4.90548         0.52188
| 35>    C       -5.49575        -5.14678         0.74217
| 36>    C       -5.05575        -6.01723         1.84387
| 37>    C       -5.90080        -6.68038         2.66645
| 38>    S       -7.60404        -6.62074         2.53637
| 39>    C       -3.63858        -5.95814         1.82733
| 40>    C       -3.21589        -5.12070         0.78679
| 41>    C       -1.80660        -5.04177         0.70561
| 42>    C       -1.21095        -5.79367         1.66590
| 43>    S       -2.32292        -6.63174         2.69992
| 44>    C       -4.36104        -4.62462         0.08819
| 45>    C       -4.27335        -3.80638        -1.07594
| 46>    C       -5.21480        -3.68811        -2.03407
| 47>    C       -5.11539        -2.81098        -3.16422
| 48>    C       -3.90364        -2.51413        -4.02838
| 49>    N       -4.10498        -1.53748        -4.88645
| 50>    C       -5.39684        -1.15972        -4.69502
| 51>    C       -6.41796        -0.29207        -4.94169
| 52>    S       -7.57625        -1.03847        -3.81568
| 53>    C       -6.03536        -1.98037        -3.68553
| 54>    C       -2.67429        -3.24029        -4.04842
| 55>    C       -1.56357        -2.67042        -4.63880
| 56>    C       -0.33378        -3.29743        -4.78906
| 57>    C       -0.17086        -4.71105        -4.42843
| 58>    C       -1.12971        -5.45644        -3.82926
| 59>    S       -2.68264        -4.87228        -3.41239
| 60>    C        1.13920        -5.06827        -4.84550
| 61>    C        1.76481        -3.96211        -5.42229
| 62>    C        3.07466        -4.25847        -5.85816
| 63>    C        3.40011        -5.55410        -5.60956
| 64>    S        2.14418        -6.46218        -4.83677
| 65>    C        0.87589        -2.83019        -5.36517
| 66>    C        1.24792        -1.54281        -5.78928
| 67>    C        0.61242        -0.36322        -5.50322
| 68>    C        1.08438         0.86434        -5.98588
| 69>    C        0.50769         2.08380        -5.71100
| 70>    C        0.94773         3.37453        -6.18741
| 71>    C        2.05398         3.64936        -6.95306
| 72>    C        2.42248         4.94270        -7.37708
| 73>    N        2.78233         5.96404        -7.75924
| 74>    C        2.98927         2.70186        -7.41670
| 75>    N        3.80133         2.00118        -7.82869
| 76>    C        0.00331         4.37540        -5.68851
| 77>    C       -0.97220         3.72932        -4.91123
| 78>    C       -0.69742         2.27462        -4.87846
| 79>    O       -1.34435         1.43990        -4.27776
| 80>    C       -1.99721         4.42316        -4.30342
| 81>    C       -2.05306         5.80059        -4.47579
| 82>    C       -1.08814         6.45263        -5.24880
| 83>    C       -0.05551         5.74834        -5.85926
| 84>   Cl       -1.16850         8.15678        -5.45575
| 85>   Cl       -3.31423         6.70225        -3.73435
| 86>    H      -13.19022        -2.33409        -1.09530
| 87>    H       -9.39758        -3.29658        -4.17082
| 88>    H       -9.93561        -5.38520         1.76952
| 89>    H       -7.12342        -4.14518        -0.19359
| 90>    H       -5.54765        -7.31497         3.46437
| 91>    H       -1.26227        -4.46093        -0.01690
| 92>    H       -0.16077        -5.91889         1.84417
| 93>    H       -3.34360        -3.26184        -1.18867
| 94>    H       -6.14203        -4.23555        -1.95802
| 95>    H       -6.56116         0.58657        -5.53810
| 96>    H       -1.71894        -1.67014        -5.01405
| 97>    H       -0.97225        -6.48910        -3.55963
| 98>    H        3.74137        -3.56131        -6.33174
| 99>    H        4.32212        -6.05353        -5.83454
|100>    H        2.16784        -1.48995        -6.36160
|101>    H       -0.25284        -0.34572        -4.86268
|102>    H        1.95717         0.83807        -6.62557
|103>    H       -2.73459         3.90628        -3.70988
|104>    H        0.66881         6.28687        -6.44772
|105> *
|106>
|107>                          ****END OF INPUT****

CARTESIAN COORDINATES (ANGSTROEM)
---------------------------------
  C     -9.373200   -4.618730   -1.562450
  C     -8.446500   -5.403220   -2.204470
  C     -8.064690   -5.242830   -3.551990
  N     -7.665450   -5.134890   -4.623020
  C     -7.793770   -6.494710   -1.597120
  N     -7.262250   -7.411380   -1.155300
  C    -10.264910   -3.671980   -2.228720
  C    -11.345250   -3.385300   -1.374580
  C    -12.363570   -2.537100   -1.757510
  C    -12.296030   -1.951490   -3.016660
  C    -11.223000   -2.231570   -3.870070
  C    -10.207130   -3.100730   -3.487670
  Cl   -11.145630   -1.494470   -5.416080
  Cl   -13.538310   -0.882060   -3.524950
  C    -11.169020   -4.111570   -0.097920
  O    -11.923950   -4.155400    0.844390
  C     -9.825220   -4.745680   -0.195660
  C     -9.248520   -5.238240    0.941590
  C     -7.882090   -5.508420    1.202520
  C     -6.844570   -4.905480    0.521880
  C     -5.495750   -5.146780    0.742170
  C     -5.055750   -6.017230    1.843870
  C     -5.900800   -6.680380    2.666450
  S     -7.604040   -6.620740    2.536370
  C     -3.638580   -5.958140    1.827330
  C     -3.215890   -5.120700    0.786790
  C     -1.806600   -5.041770    0.705610
  C     -1.210950   -5.793670    1.665900
  S     -2.322920   -6.631740    2.699920
  C     -4.361040   -4.624620    0.088190
  C     -4.273350   -3.806380   -1.075940
  C     -5.214800   -3.688110   -2.034070
  C     -5.115390   -2.810980   -3.164220
  C     -3.903640   -2.514130   -4.028380
  N     -4.104980   -1.537480   -4.886450
  C     -5.396840   -1.159720   -4.695020
  C     -6.417960   -0.292070   -4.941690
  S     -7.576250   -1.038470   -3.815680
  C     -6.035360   -1.980370   -3.685530
  C     -2.674290   -3.240290   -4.048420
  C     -1.563570   -2.670420   -4.638800
  C     -0.333780   -3.297430   -4.789060
  C     -0.170860   -4.711050   -4.428430
  C     -1.129710   -5.456440   -3.829260
  S     -2.682640   -4.872280   -3.412390
  C      1.139200   -5.068270   -4.845500
  C      1.764810   -3.962110   -5.422290
  C      3.074660   -4.258470   -5.858160
  C      3.400110   -5.554100   -5.609560
  S      2.144180   -6.462180   -4.836770
  C      0.875890   -2.830190   -5.365170
  C      1.247920   -1.542810   -5.789280
  C      0.612420   -0.363220   -5.503220
  C      1.084380    0.864340   -5.985880
  C      0.507690    2.083800   -5.711000
  C      0.947730    3.374530   -6.187410
  C      2.053980    3.649360   -6.953060
  C      2.422480    4.942700   -7.377080
  N      2.782330    5.964040   -7.759240
  C      2.989270    2.701860   -7.416700
  N      3.801330    2.001180   -7.828690
  C      0.003310    4.375400   -5.688510
  C     -0.972200    3.729320   -4.911230
  C     -0.697420    2.274620   -4.878460
  O     -1.344350    1.439900   -4.277760
  C     -1.997210    4.423160   -4.303420
  C     -2.053060    5.800590   -4.475790
  C     -1.088140    6.452630   -5.248800
  C     -0.055510    5.748340   -5.859260
  Cl    -1.168500    8.156780   -5.455750
  Cl    -3.314230    6.702250   -3.734350
  H    -13.190220   -2.334090   -1.095300
  H     -9.397580   -3.296580   -4.170820
  H     -9.935610   -5.385200    1.769520
  H     -7.123420   -4.145180   -0.193590
  H     -5.547650   -7.314970    3.464370
  H     -1.262270   -4.460930   -0.016900
  H     -0.160770   -5.918890    1.844170
  H     -3.343600   -3.261840   -1.188670
  H     -6.142030   -4.235550   -1.958020
  H     -6.561160    0.586570   -5.538100
  H     -1.718940   -1.670140   -5.014050
  H     -0.972250   -6.489100   -3.559630
  H      3.741370   -3.561310   -6.331740
  H      4.322120   -6.053530   -5.834540
  H      2.167840   -1.489950   -6.361600
  H     -0.252840   -0.345720   -4.862680
  H      1.957170    0.838070   -6.625570
  H     -2.734590    3.906280   -3.709880
  H      0.668810    6.286870   -6.447720

 Total Charge           Charge          ....    0
 Multiplicity           Mult            ....    1
 Number of Electrons    NEL             ....  548
 Basis Dimension        Dim             .... 1125

ORBITAL ENERGIES
----------------

  NO   OCC          E(Eh)            E(eV)
   0   2.0000    -101.605232     -2764.8189
   1   2.0000    -101.604263     -2764.7925
   2   2.0000    -101.594419     -2764.5247
   3   2.0000    -101.591924     -2764.4568
   4   2.0000     -88.993837     -2421.6454
   5   2.0000     -88.988515     -2421.5006
   6   2.0000     -88.970711     -2421.0161
   7   2.0000     -88.964469     -2420.8463
   8   2.0000     -88.958126     -2420.6737
   9   2.0000     -19.227020      -523.1938
  10   2.0000     -19.210319      -522.7394
  11   2.0000     -14.427201      -392.5841
  12   2.0000     -14.427079      -392.5808
  13   2.0000     -14.412223      -392.1765
  14   2.0000     -14.409051      -392.0902
  15   2.0000     -14.406125      -392.0106
  16   2.0000     -10.378472      -282.4126
  17   2.0000     -10.361573      -281.9527
  18   2.0000     -10.361031      -281.9380
  19   2.0000     -10.360839      -281.9328
  20   2.0000     -10.355864      -281.7974
  21   2.0000     -10.355305      -281.7822
  22   2.0000     -10.348407      -281.5945
  23   2.0000     -10.347715      -281.5756
  24   2.0000     -10.343370      -281.4574
  25   2.0000     -10.342598      -281.4364
  26   2.0000     -10.339740      -281.3586
  27   2.0000     -10.335417      -281.2410
  28   2.0000     -10.334271      -281.2098
  29   2.0000     -10.333749      -281.1956
  30   2.0000     -10.333677      -281.1936
  31   2.0000     -10.333099      -281.1779
  32   2.0000     -10.332820      -281.1703
  33   2.0000     -10.329229      -281.0726
  34   2.0000     -10.328019      -281.0397
  35   2.0000     -10.322386      -280.8864
  36   2.0000     -10.320567      -280.8369
  37   2.0000     -10.315248      -280.6922
  38   2.0000     -10.314001      -280.6582
  39   2.0000     -10.312398      -280.6146
  40   2.0000     -10.311523      -280.5908
  41   2.0000     -10.311396      -280.5874
  42   2.0000     -10.311110      -280.5796
  43   2.0000     -10.309841      -280.5450
  44   2.0000     -10.309545      -280.5370
  45   2.0000     -10.309384      -280.5326
  46   2.0000     -10.308542      -280.5097
  47   2.0000     -10.308468      -280.5077
  48   2.0000     -10.306850      -280.4636
  49   2.0000     -10.306166      -280.4450
  50   2.0000     -10.304928      -280.4114
  51   2.0000     -10.304895      -280.4104
  52   2.0000     -10.304707      -280.4053
  53   2.0000     -10.304094      -280.3886
  54   2.0000     -10.303786      -280.3803
  55   2.0000     -10.301455      -280.3168
  56   2.0000     -10.301202      -280.3100
  57   2.0000     -10.300703      -280.2964
  58   2.0000     -10.300234      -280.2836
  59   2.0000     -10.298655      -280.2406
  60   2.0000     -10.297250      -280.2024
  61   2.0000     -10.296081      -280.1706
  62   2.0000     -10.295849      -280.1643
  63   2.0000     -10.291874      -280.0561
  64   2.0000     -10.289470      -279.9907
  65   2.0000     -10.289147      -279.9819
  66   2.0000     -10.286266      -279.9035
  67   2.0000     -10.283587      -279.8306
  68   2.0000     -10.283358      -279.8244
  69   2.0000     -10.282092      -279.7900
  70   2.0000     -10.271637      -279.5054
  71   2.0000      -9.560223      -260.1469
  72   2.0000      -9.559326      -260.1225
  73   2.0000      -9.549453      -259.8538
  74   2.0000      -9.546935      -259.7853
  75   2.0000      -8.088102      -220.0884
  76   2.0000      -8.083975      -219.9762
  77   2.0000      -8.066131      -219.4906
  78   2.0000      -8.059846      -219.3196
  79   2.0000      -8.052467      -219.1188
  80   2.0000      -7.330621      -199.4763
  81   2.0000      -7.329718      -199.4518
  82   2.0000      -7.320489      -199.2006
  83   2.0000      -7.319814      -199.1823
  84   2.0000      -7.319744      -199.1804
  85   2.0000      -7.319617      -199.1769
  86   2.0000      -7.318807      -199.1549
  87   2.0000      -7.317323      -199.1145
  88   2.0000      -7.309715      -198.9074
  89   2.0000      -7.309022      -198.8886
  90   2.0000      -7.307175      -198.8383
  91   2.0000      -7.306498      -198.8199
  92   2.0000      -6.057410      -164.8305
  93   2.0000      -6.053459      -164.7230
  94   2.0000      -6.052756      -164.7039
  95   2.0000      -6.050684      -164.6475
  96   2.0000      -6.048980      -164.6011
  97   2.0000      -6.045922      -164.5179
  98   2.0000      -6.035592      -164.2368
  99   2.0000      -6.031317      -164.1205
 100   2.0000      -6.029342      -164.0667
 101   2.0000      -6.028118      -164.0334
 102   2.0000      -6.025051      -163.9500
 103   2.0000      -6.023233      -163.9005
 104   2.0000      -6.021815      -163.8619
 105   2.0000      -6.019296      -163.7934
 106   2.0000      -6.011410      -163.5788
 107   2.0000      -1.142673       -31.0937
 108   2.0000      -1.124057       -30.5871
 109   2.0000      -1.074518       -29.2391
 110   2.0000      -1.038359       -28.2552
 111   2.0000      -1.026442       -27.9309
 112   2.0000      -1.022845       -27.8330
 113   2.0000      -1.021115       -27.7860
 114   2.0000      -1.016681       -27.6653
 115   2.0000      -1.007279       -27.4095
 116   2.0000      -1.005644       -27.3650
 117   2.0000      -1.000250       -27.2182
 118   2.0000      -0.987367       -26.8676
 119   2.0000      -0.986405       -26.8415
 120   2.0000      -0.986201       -26.8359
 121   2.0000      -0.981394       -26.7051
 122   2.0000      -0.968857       -26.3639
 123   2.0000      -0.967145       -26.3174
 124   2.0000      -0.954718       -25.9792
 125   2.0000      -0.948632       -25.8136
 126   2.0000      -0.941752       -25.6264
 127   2.0000      -0.939383       -25.5619
 128   2.0000      -0.926962       -25.2239
 129   2.0000      -0.923903       -25.1407
 130   2.0000      -0.913297       -24.8521
 131   2.0000      -0.908338       -24.7171
 132   2.0000      -0.898609       -24.4524
 133   2.0000      -0.896643       -24.3989
 134   2.0000      -0.880926       -23.9712
 135   2.0000      -0.868805       -23.6414
 136   2.0000      -0.867125       -23.5957
 137   2.0000      -0.862557       -23.4714
 138   2.0000      -0.859339       -23.3838
 139   2.0000      -0.852347       -23.1935
 140   2.0000      -0.841988       -22.9117
 141   2.0000      -0.833992       -22.6941
 142   2.0000      -0.825130       -22.4529
 143   2.0000      -0.822478       -22.3808
 144   2.0000      -0.799278       -21.7495
 145   2.0000      -0.795727       -21.6528
 146   2.0000      -0.780995       -21.2520
 147   2.0000      -0.779376       -21.2079
 148   2.0000      -0.769363       -20.9354
 149   2.0000      -0.759820       -20.6757
 150   2.0000      -0.755402       -20.5555
 151   2.0000      -0.749430       -20.3930
 152   2.0000      -0.742845       -20.2138
 153   2.0000      -0.736457       -20.0400
 154   2.0000      -0.731703       -19.9107
 155   2.0000      -0.713333       -19.4108
 156   2.0000      -0.705064       -19.1858
 157   2.0000      -0.698360       -19.0033
 158   2.0000      -0.692143       -18.8342
 159   2.0000      -0.686504       -18.6807
 160   2.0000      -0.684594       -18.6287
 161   2.0000      -0.677391       -18.4327
 162   2.0000      -0.673594       -18.3294
 163   2.0000      -0.664151       -18.0725
 164   2.0000      -0.663088       -18.0435
 165   2.0000      -0.652987       -17.7687
 166   2.0000      -0.648665       -17.6511
 167   2.0000      -0.641720       -17.4621
 168   2.0000      -0.632751       -17.2180
 169   2.0000      -0.631405       -17.1814
 170   2.0000      -0.625482       -17.0202
 171   2.0000      -0.622435       -16.9373
 172   2.0000      -0.618462       -16.8292
 173   2.0000      -0.608879       -16.5684
 174   2.0000      -0.606689       -16.5088
 175   2.0000      -0.602244       -16.3879
 176   2.0000      -0.598990       -16.2993
 177   2.0000      -0.591081       -16.0841
 178   2.0000      -0.587694       -15.9920
 179   2.0000      -0.581569       -15.8253
 180   2.0000      -0.579325       -15.7642
 181   2.0000      -0.575035       -15.6475
 182   2.0000      -0.570299       -15.5186
 183   2.0000      -0.563026       -15.3207
 184   2.0000      -0.562052       -15.2942
 185   2.0000      -0.560471       -15.2512
 186   2.0000      -0.553463       -15.0605
 187   2.0000      -0.549517       -14.9531
 188   2.0000      -0.547486       -14.8978
 189   2.0000      -0.545594       -14.8464
 190   2.0000      -0.542024       -14.7492
 191   2.0000      -0.537857       -14.6358
 192   2.0000      -0.535658       -14.5760
 193   2.0000      -0.535149       -14.5621
 194   2.0000      -0.533350       -14.5132
 195   2.0000      -0.528453       -14.3799
 196   2.0000      -0.525920       -14.3110
 197   2.0000      -0.525561       -14.3012
 198   2.0000      -0.523802       -14.2534
 199   2.0000      -0.521078       -14.1793
 200   2.0000      -0.520233       -14.1562
 201   2.0000      -0.515406       -14.0249
 202   2.0000      -0.514044       -13.9878
 203   2.0000      -0.509969       -13.8770
 204   2.0000      -0.506859       -13.7923
 205   2.0000      -0.505153       -13.7459
 206   2.0000      -0.499850       -13.6016
 207   2.0000      -0.497847       -13.5471
 208   2.0000      -0.491374       -13.3710
 209   2.0000      -0.489418       -13.3177
 210   2.0000      -0.485962       -13.2237
 211   2.0000      -0.484225       -13.1764
 212   2.0000      -0.481767       -13.1095
 213   2.0000      -0.480224       -13.0676
 214   2.0000      -0.479132       -13.0378
 215   2.0000      -0.475531       -12.9399
 216   2.0000      -0.475147       -12.9294
 217   2.0000      -0.472930       -12.8691
 218   2.0000      -0.468463       -12.7475
 219   2.0000      -0.463319       -12.6076
 220   2.0000      -0.461236       -12.5509
 221   2.0000      -0.460110       -12.5202
 222   2.0000      -0.459246       -12.4967
 223   2.0000      -0.453351       -12.3363
 224   2.0000      -0.453065       -12.3285
 225   2.0000      -0.451765       -12.2931
 226   2.0000      -0.449164       -12.2224
 227   2.0000      -0.444533       -12.0964
 228   2.0000      -0.442194       -12.0327
 229   2.0000      -0.440643       -11.9905
 230   2.0000      -0.439942       -11.9714
 231   2.0000      -0.438762       -11.9393
 232   2.0000      -0.436627       -11.8812
 233   2.0000      -0.435813       -11.8591
 234   2.0000      -0.433936       -11.8080
 235   2.0000      -0.431740       -11.7482
 236   2.0000      -0.429823       -11.6961
 237   2.0000      -0.429353       -11.6833
 238   2.0000      -0.427320       -11.6280
 239   2.0000      -0.425608       -11.5814
 240   2.0000      -0.424832       -11.5603
 241   2.0000      -0.421245       -11.4627
 242   2.0000      -0.420679       -11.4473
 243   2.0000      -0.419220       -11.4075
 244   2.0000      -0.418573       -11.3899
 245   2.0000      -0.415475       -11.3057
 246   2.0000      -0.414588       -11.2815
 247   2.0000      -0.410021       -11.1572
 248   2.0000      -0.405265       -11.0278
 249   2.0000      -0.404438       -11.0053
 250   2.0000      -0.399090       -10.8598
 251   2.0000      -0.389756       -10.6058
 252   2.0000      -0.386700       -10.5226
 253   2.0000      -0.385606       -10.4929
 254   2.0000      -0.378404       -10.2969
 255   2.0000      -0.375316       -10.2129
 256   2.0000      -0.372327       -10.1315
 257   2.0000      -0.355977        -9.6866
 258   2.0000      -0.350934        -9.5494
 259   2.0000      -0.348589        -9.4856
 260   2.0000      -0.347768        -9.4633
 261   2.0000      -0.345755        -9.4085
 262   2.0000      -0.335278        -9.1234
 263   2.0000      -0.333579        -9.0772
 264   2.0000      -0.329482        -8.9657
 265   2.0000      -0.323054        -8.7908
 266   2.0000      -0.317198        -8.6314
 267   2.0000      -0.312958        -8.5160
 268   2.0000      -0.300798        -8.1851
 269   2.0000      -0.296410        -8.0657
 270   2.0000      -0.291236        -7.9249
 271   2.0000      -0.275045        -7.4844
 272   2.0000      -0.250555        -6.8180
 273   2.0000      -0.239758        -6.5241
 274   0.0000      -0.108967        -2.9651
 275   0.0000      -0.102163        -2.7800
 276   0.0000      -0.078773        -2.1435
 277   0.0000      -0.070804        -1.9267
 278   0.0000      -0.061140        -1.6637

MULLIKEN ATOMIC CHARGES
-----------------------
   0 C :    0.271475
   1 C :   -0.356047
   2 C :   -0.196039
   3 N :    0.171860
   4 C :   -0.214863
   5 N :    0.191654
   6 C :    0.015050
   7 C :    0.009532
   8 C :   -0.038029
   9 C :    0.063426
  10 C :    0.049098
  11 C :   -0.017917
  12 Cl:   -0.033715
  13 Cl:   -0.041399
  14 C :    0.133667
  15 O :   -0.133648
  16 C :   -0.126061
  17 C :    0.081192
  18 C :   -0.130590
  19 C :   -0.017430
  20 C :    0.047943
  21 C :    0.064639
  22 C :   -0.115662
  23 S :    0.167042
  24 C :   -0.102883
  25 C :    0.050916
  26 C :    0.007813
  27 C :   -0.067226
  28 S :    0.140002
  29 C :    0.073686
  30 C :   -0.008058
  31 C :   -0.026407
  32 C :   -0.055312
  33 C :   -0.000135
  34 N :   -0.058490
  35 C :    0.183026
  36 C :   -0.135143
  37 S :    0.047589
  38 C :    0.008838
  39 C :   -0.126689
  40 C :   -0.037845
  41 C :    0.090124
  42 C :    0.053443
  43 C :   -0.125429
  44 S :    0.179303
  45 C :   -0.104934
  46 C :    0.058610
  47 C :    0.007830
  48 C :   -0.063929
  49 S :    0.132235
  50 C :    0.089412
  51 C :    0.003787
  52 C :   -0.035806
  53 C :   -0.025368
  54 C :   -0.088108
  55 C :    0.329476
  56 C :   -0.357268
  57 C :   -0.189916
  58 N :    0.150055
  59 C :   -0.191318
  60 N :    0.139702
  61 C :    0.027493
  62 C :   -0.008042
  63 C :    0.145003
  64 O :   -0.154414
  65 C :   -0.038667
  66 C :    0.060569
  67 C :    0.047312
  68 C :   -0.017751
  69 Cl:   -0.041777
  70 Cl:   -0.052081
  71 H :    0.001170
  72 H :    0.005784
  73 H :    0.030531
  74 H :    0.002343
  75 H :    0.042664
  76 H :   -0.012830
  77 H :    0.034027
  78 H :   -0.000123
  79 H :   -0.007989
  80 H :    0.035297
  81 H :    0.024271
  82 H :    0.044941
  83 H :   -0.007213
  84 H :    0.031283
  85 H :   -0.004944
  86 H :    0.025195
  87 H :    0.004744
  88 H :   -0.006812
  89 H :   -0.000745
Sum of atomic charges:   -0.0000000

LOEWDIN ATOMIC CHARGES
----------------------
   0 C :    0.063094
   1 C :   -0.148455
   2 C :   -0.027518
   3 N :   -0.042919
   4 C :   -0.021385
   5 N :   -0.037998
   6 C :   -0.016016
   7 C :   -0.045044
   8 C :    0.000973
   9 C :   -0.133819
  10 C :   -0.130453
  11 C :   -0.019045
  12 Cl:    0.164805
  13 Cl:    0.160781
  14 C :    0.083469
  15 O :   -0.135304
  16 C :   -0.097778
  17 C :    0.049339
  18 C :   -0.190504
  19 C :    0.021938
  20 C :   -0.020009
  21 C :   -0.050441
  22 C :   -0.126971
  23 S :    0.475154
  24 C :   -0.189743
  25 C :   -0.041353
  26 C :   -0.063477
  27 C :   -0.157981
  28 S :    0.429558
  29 C :   -0.030407
  30 C :   -0.015502
  31 C :   -0.041918
  32 C :   -0.061375
  33 C :    0.029003
  34 N :   -0.088806
  35 C :   -0.063189
  36 C :   -0.062405
  37 S :    0.299455
  38 C :   -0.112666
  39 C :   -0.181570
  40 C :    0.020039
  41 C :    0.002736
  42 C :   -0.045989
  43 C :   -0.142130
  44 S :    0.523641
  45 C :   -0.205419
  46 C :   -0.033858
  47 C :   -0.061667
  48 C :   -0.157376
  49 S :    0.423369
  50 C :   -0.060371
  51 C :    0.045390
  52 C :   -0.050778
  53 C :    0.069479
  54 C :   -0.114847
  55 C :    0.074571
  56 C :   -0.146552
  57 C :   -0.020712
  58 N :   -0.057340
  59 C :   -0.019065
  60 N :   -0.059433
  61 C :   -0.012506
  62 C :   -0.041570
  63 C :    0.083062
  64 O :   -0.151181
  65 C :   -0.004061
  66 C :   -0.136770
  67 C :   -0.132996
  68 C :   -0.014078
  69 Cl:    0.156257
  70 Cl:    0.151314
  71 H :    0.046615
  72 H :    0.036155
  73 H :    0.044944
  74 H :    0.040871
  75 H :    0.039990
  76 H :    0.031500
  77 H :    0.026397
  78 H :    0.028549
  79 H :    0.029351
  80 H :    0.026934
  81 H :    0.050493
  82 H :    0.040030
  83 H :    0.033893
  84 H :    0.025735
  85 H :    0.036618
  86 H :    0.029858
  87 H :    0.040304
  88 H :    0.043180
  89 H :    0.043905

  Mayer bond orders larger than 0.100000
B(  0-C ,  1-C ) :   1.6364 B(  0-C ,  6-C ) :   1.0138 B(  0-C , 16-C ) :   1.0505
B(  1-C ,  2-C ) :   1.1263 B(  1-C ,  4-C ) :   1.1692 B(  2-C ,  3-N ) :   2.9588
B(  4-C ,  5-N ) :   3.0001 B(  6-C ,  7-C ) :   1.3263 B(  6-C , 11-C ) :   1.3432
B(  7-C ,  8-C ) :   1.3483 B(  7-C , 14-C ) :   0.9192 B(  8-C ,  9-C ) :   1.3367
B(  8-C , 71-H ) :   1.0172 B(  9-C , 10-C ) :   1.4121 B(  9-C , 13-Cl) :   1.0492
B( 10-C , 11-C ) :   1.3552 B( 10-C , 12-Cl) :   1.0782 B( 11-C , 72-H ) :   0.9818
B( 14-C , 15-O ) :   2.2744 B( 14-C , 16-C ) :   0.9461 B( 16-C , 17-C ) :   1.6490
B( 17-C , 18-C ) :   1.1392 B( 17-C , 73-H ) :   0.9246 B( 18-C , 19-C ) :   1.4612
B( 18-C , 23-S ) :   1.0486 B( 19-C , 20-C ) :   1.2964 B( 19-C , 74-H ) :   0.9633
B( 20-C , 21-C ) :   1.0540 B( 20-C , 29-C ) :   1.3690 B( 21-C , 22-C ) :   1.5851
B( 21-C , 24-C ) :   1.2048 B( 22-C , 23-S ) :   1.1638 B( 22-C , 75-H ) :   0.9394
B( 24-C , 25-C ) :   1.4063 B( 24-C , 28-S ) :   1.0828 B( 25-C , 26-C ) :   1.2072
B( 25-C , 29-C ) :   1.1417 B( 26-C , 27-C ) :   1.5981 B( 26-C , 76-H ) :   0.9980
B( 27-C , 28-S ) :   1.1459 B( 27-C , 77-H ) :   0.9656 B( 29-C , 30-C ) :   1.1442
B( 30-C , 31-C ) :   1.7077 B( 30-C , 78-H ) :   0.9520 B( 31-C , 32-C ) :   1.0454
B( 31-C , 79-H ) :   0.9638 B( 32-C , 33-C ) :   0.9873 B( 32-C , 38-C ) :   1.7905
B( 33-C , 34-N ) :   1.7656 B( 33-C , 36-C ) :   0.1008 B( 33-C , 39-C ) :   1.0807
B( 34-N , 35-C ) :   1.2303 B( 35-C , 36-C ) :   1.5348 B( 35-C , 38-C ) :   1.0741
B( 36-C , 37-S ) :   0.9945 B( 36-C , 80-H ) :   1.0135 B( 37-S , 38-C ) :   0.9128
B( 39-C , 40-C ) :   1.4974 B( 39-C , 44-S ) :   1.0878 B( 40-C , 41-C ) :   1.2287
B( 40-C , 81-H ) :   0.9674 B( 41-C , 42-C ) :   1.0781 B( 41-C , 50-C ) :   1.3046
B( 42-C , 43-C ) :   1.5539 B( 42-C , 45-C ) :   1.1905 B( 43-C , 44-S ) :   1.1734
B( 43-C , 82-H ) :   0.9423 B( 45-C , 46-C ) :   1.4310 B( 45-C , 49-S ) :   1.0734
B( 46-C , 47-C ) :   1.2228 B( 46-C , 50-C ) :   1.1019 B( 47-C , 48-C ) :   1.5882
B( 47-C , 83-H ) :   0.9981 B( 48-C , 49-S ) :   1.1548 B( 48-C , 84-H ) :   0.9659
B( 50-C , 51-C ) :   1.1885 B( 51-C , 52-C ) :   1.4606 B( 51-C , 85-H ) :   0.9757
B( 52-C , 53-C ) :   1.2330 B( 52-C , 86-H ) :   0.9786 B( 53-C , 54-C ) :   1.4518
B( 53-C , 87-H ) :   0.9642 B( 54-C , 55-C ) :   1.0975 B( 54-C , 63-C ) :   0.9691
B( 55-C , 56-C ) :   1.6109 B( 55-C , 61-C ) :   0.9807 B( 56-C , 57-C ) :   1.1422
B( 56-C , 59-C ) :   1.1530 B( 57-C , 58-N ) :   2.9691 B( 59-C , 60-N ) :   2.9595
B( 61-C , 62-C ) :   1.3361 B( 61-C , 68-C ) :   1.3455 B( 62-C , 63-C ) :   0.9404
B( 62-C , 65-C ) :   1.3480 B( 63-C , 64-O ) :   2.1863 B( 65-C , 66-C ) :   1.3351
B( 65-C , 88-H ) :   1.0173 B( 66-C , 67-C ) :   1.4170 B( 66-C , 70-Cl) :   1.0375
B( 67-C , 68-C ) :   1.3543 B( 67-C , 69-Cl) :   1.0706 B( 68-C , 89-H ) :   0.9858

-----------------------------------------------------------------------------
         ABSORPTION SPECTRUM VIA TRANSITION ELECTRIC DIPOLE MOMENTS
-----------------------------------------------------------------------------
State   Energy  Wavelength   fosc         T2         TX        TY        TZ
        (cm-1)    (nm)                  (au**2)     (au)      (au)      (au)
-----------------------------------------------------------------------------
   0   12878.5    776.5   0.281983100   7.20830  -2.51951  -0.92014  -0.11720
   1   14099.2    709.3   0.474309638  11.07501   2.00688   2.36321  -1.20941
   2   16243.6    615.6   0.062281946   1.26228   0.72816   0.84854  -0.10975
   3   17987.8    555.9   0.043590153   0.79779   0.18433   0.81984   0.30277
   4   19598.7    510.2   0.161792528   2.71773  -0.34679   1.56972  -0.36530
   5   20659.0    484.1   0.111994353   1.78469  -0.08754   1.31593  -0.21294
   6   21107.0    473.8   0.158438868   2.47122   1.43539   0.32229  -0.55408
   7   21914.5    456.3   0.070275849   1.05572  -0.48518   0.83483  -0.35126
   8   22442.1    445.6   0.021258255   0.31185  -0.26887  -0.46191  -0.16184
   9   22570.0    443.1   0.176987156   2.58158   0.71491  -0.58213   1.31591
  10   22788.3    438.8   0.032986981   0.47655  -0.41785   0.06668  -0.54544
  11   23930.8    417.9   0.004214165   0.05797  -0.01322   0.23875   0.02820
  12   24483.9    408.4   0.035185489   0.47311   0.11413  -0.51569  -0.44061
  13   25151.4    397.6   0.241193719   3.15704   0.01751   1.76337   0.21742
  14   25479.7    392.5   0.476477633   6.15635  -1.21831   1.94370  -0.94557
  15   27105.5    368.9   0.019343270   0.23494   0.48073   0.01191   0.06080
  16   27503.6    363.6   0.244094790   2.92176   1.18504  -1.17989   0.35399
  17   27836.7    359.2   0.005450813   0.06446  -0.20307   0.12984   0.07980
  18   27941.3    357.9   0.013983618   0.16476  -0.32780   0.10889  -0.21319
  19   28020.7    356.9   0.034443133   0.40467   0.46948  -0.36577  -0.22465
  20   28238.1    354.1   0.019227668   0.22416   0.39872  -0.07716  -0.24338
  21   28437.8    351.6   0.017960558   0.20792   0.35816  -0.08792  -0.26817
  22   29390.9    340.2   0.007269238   0.08142   0.19525  -0.20694   0.02186
  23   29815.5    335.4   0.011908511   0.13149   0.25345  -0.11665   0.23162
  24   30083.1    332.4   0.047114131   0.51559  -0.41990   0.35616  -0.46090
  25   30263.2    330.4   0.025369888   0.27598  -0.49249  -0.07537   0.16659
  26   30550.5    327.3   0.168903259   1.82010  -0.41910   1.26899   0.18472
  27   30576.5    327.0   0.011189563   0.12048  -0.14930   0.30068   0.08817
  28   30709.7    325.6   0.084582493   0.90674   0.20654  -0.82294   0.43225
  29   31232.5    320.2   0.002636660   0.02779  -0.07486   0.14884   0.00584
  30   31794.4    314.5   0.264662440   2.74042  -1.17523   0.60545   0.99634
  31   32015.3    312.4   0.046777449   0.48101   0.04003   0.10675  -0.68411
  32   32028.0    312.2   0.093608731   0.96219   0.25202  -0.69192   0.64802
  33   32287.3    309.7   0.094532453   0.96388   0.43201  -0.48405   0.73684
  34   32601.3    306.7   0.043954778   0.44386   0.63773  -0.07017   0.17954
  35   32642.4    306.4   0.084054561   0.84772  -0.53466   0.70884  -0.24375
  36   33022.2    302.8   0.155397465   1.54922   0.99999  -0.67925   0.29643
  37   33124.6    301.9   0.035951893   0.35731  -0.44262   0.34993  -0.19734
  38   33215.9    301.1   0.005643696   0.05594   0.17538  -0.00868   0.15844
  39   33783.3    296.0   0.138562803   1.35027  -0.98054  -0.40462   0.47444
  40   33892.6    295.0   0.255423724   2.48103   1.30121  -0.79734   0.39005
  41   34201.6    292.4   0.001173089   0.01129  -0.07631  -0.04558   0.05824
  42   34424.0    290.5   0.189141977   1.80885   1.20036  -0.55310  -0.24913
  43   34542.4    289.5   0.142849330   1.36145   0.70791  -0.89603  -0.23968
  44   35097.9    284.9   0.006832693   0.06409  -0.16212   0.19319   0.02200
  45   35244.0    283.7   0.088372057   0.82548  -0.33342   0.72817  -0.42905
  46   35280.6    283.4   0.401181457   3.74352   1.53439  -0.67527  -0.96601
  47   35484.3    281.8   0.066308822   0.61519  -0.70309   0.33673  -0.08645
  48   35625.7    280.7   0.063313640   0.58507   0.60861  -0.44921   0.11346
  49   35869.0    278.8   0.407796398   3.74283  -1.47498  -0.22718   1.23111
  50   35935.3    278.3   0.232538344   2.13034   1.39386  -0.22079  -0.37250
  51   36135.4    276.7   0.104039800   0.94786   0.72725   0.12635  -0.63483
  52   36322.4    275.3   0.027243954   0.24693   0.48405   0.09107  -0.06584
  53   36575.3    273.4   0.141533416   1.27393   0.30305  -0.29637   1.04607
  54   36762.8    272.0   0.006491765   0.05813   0.06641   0.02778  -0.23011
  55   37101.8    269.5   0.139404108   1.23696  -1.04710  -0.10054   0.36117
  56   37255.0    268.4   0.014645299   0.12942  -0.31375   0.11602  -0.13235
  57   37608.6    265.9   0.115597558   1.01190   0.90486   0.13358  -0.41867
  58   37646.2    265.6   0.158635972   1.38725  -0.77800  -0.41352   0.78165
  59   37905.1    263.8   0.085023423   0.73844  -0.17205  -0.35286   0.76441
  60   38225.8    261.6   0.221313702   1.90602  -1.18477   0.65719  -0.26540
  61   38429.4    260.2   0.018553356   0.15894   0.27583   0.18708  -0.21877
  62   38464.9    260.0   0.101312643   0.86711  -0.50865  -0.56538   0.53734
  63   38583.8    259.2   0.087078759   0.74299   0.74950  -0.40099   0.14300
  64   39065.1    256.0   0.037979096   0.32006  -0.16474   0.34024  -0.42090
  65   39173.3    255.3   0.075500568   0.63451   0.53975  -0.52922  -0.25121
  66   39400.3    253.8   0.199212449   1.66453   0.76954  -0.92471   0.46611
  67   39500.3    253.2   0.133197082   1.11012   0.98357  -0.20638  -0.31641
  68   39810.7    251.2   0.035152881   0.29069  -0.46511  -0.10826   0.25030
  69   39888.0    250.7   0.015573439   0.12853  -0.27065   0.22548  -0.06665
  70   40070.1    249.6   0.025749773   0.21156  -0.45038  -0.00710  -0.09308
  71   40148.4    249.1   0.026132309   0.21428  -0.33825  -0.07213   0.30768
  72   40216.0    248.7   0.250582109   2.05129  -0.62411   1.28904   0.01223
  73   40320.2    248.0   0.086307968   0.70470  -0.26155   0.27476   0.74886

FINAL SINGLE POINT ENERGY     -6358.616686260685

DIPOLE MOMENT
-------------
                                X             Y             Z
Electronic contribution:    -40.01195      36.34844      -7.74392
Nuclear contribution   :     38.76207     -39.14490      10.65459
                        -----------------------------------------
Total Dipole Moment    :     -1.24988      -2.79646       2.91066
                        -----------------------------------------
Magnitude (a.u.)       :      4.22544
Magnitude (Debye)      :     10.74022

Rotational constants in cm-1:     0.000860     0.000454     0.000344
Rotational constants in MHz :    25.780299    13.619044    10.308900

                             ****ORCA TERMINATED NORMALLY****
TOTAL RUN TIME: 0 days 0 hours 10 minutes 27 seconds 599 msec
