                         Program Version 4.2.0 -  RELEASE  -
|  1> # ORCA input file
|  2> # SCF done       -165.534316604628          0.000374053384
|  3> ! CAM-B3LYP def2-SVP def2/J RIJCOSX Grid4 TightSCF
|  4> %maxcore 5000
|  5> %tddft
|  6>     Mode sTDDFT
|  7>     Ethresh 5.0
|  8>     maxcore 5000
|  9> end
| 10>
| 11> %pal
| 12>   nprocs 6
| 13>   end
| 14> * xyz 0 1
| 15>    C        0.02450        -6.00406         5.88187
| 16>    N        0.72590        -6.30162         4.82276
| 17>    N        0.17437        -6.54761         3.66308
| 18>    C       -1.13178        -6.51627         3.46564
| 19>    C       -1.99964        -6.20058         4.54963
| 20>    C       -1.38353        -5.93273         5.81589
| 21>    N       -2.28315        -5.64848         6.75774
| 22>    S       -3.74784        -5.71458         6.10587
| 23>    N       -3.32487        -6.10457         4.60395
| 24>    C       -1.60367        -6.81091         2.14980
| 25>    C       -2.90795        -6.86244         1.69886
| 26>    C       -2.96341        -7.19570         0.34685
| 27>    C       -1.68491        -7.39272        -0.21825
| 28>    S       -0.42401        -7.17104         0.90818
| 29>    C       -1.84431        -7.73413        -1.58498
| 30>    C       -3.22452        -7.75601        -1.88034
| 31>    C       -3.96867        -7.41344        -0.67660
| 32>    C       -5.32304        -7.31766        -0.54348
| 33>    C       -6.19899        -7.55549        -1.62362
| 34>    N       -6.91149        -7.74708        -2.50138
| 35>    C       -5.93892        -6.97443         0.67879
| 36>    N       -6.45067        -6.69733         1.66666
| 37>    C       -3.48759        -8.09568        -3.20044
| 38>    C       -2.31433        -8.32851        -3.90872
| 39>    S       -0.86743        -8.12109        -2.93112
| 40>    C       -2.16880        -8.70478        -5.25410
| 41>    C       -0.94444        -8.90563        -5.90102
| 42>    C       -1.08933        -9.30443        -7.27076
| 43>    N       -0.02785        -9.54100        -8.03997
| 44>    C        1.15553        -9.38746        -7.48348
| 45>    C        2.33950        -9.64634        -8.33967
| 46>    O        2.24411        -9.99109        -9.49892
| 47>    C        3.64071        -9.45226        -7.67769
| 48>    C        3.77585        -9.07739        -6.40119
| 49>    C        2.64003        -8.81400        -5.50140
| 50>    O        2.79014        -8.47959        -4.34493
| 51>    C        1.30034        -8.98711        -6.11536
| 52>    N        0.25716        -8.75461        -5.34630
| 53>    C       -2.42480        -9.41049        -7.67464
| 54>    S       -3.48275        -9.00694        -6.35371
| 55>    C       -2.84790        -9.80249        -8.95528
| 56>    C       -4.14721        -9.93695        -9.43080
| 57>    C       -4.16261       -10.36624       -10.75093
| 58>    C       -2.86783       -10.55845       -11.27949
| 59>    S       -1.62966       -10.20725       -10.15723
| 60>    C       -2.99363       -11.00654       -12.61861
| 61>    C       -4.36651       -11.09637       -12.93453
| 62>    C       -5.14283       -10.69437       -11.77635
| 63>    C       -6.50143       -10.63477       -11.66770
| 64>    C       -7.13893       -10.22324       -10.47824
| 65>    N       -7.65843        -9.88878        -9.51232
| 66>    C       -7.35984       -10.97782       -12.73379
| 67>    N       -8.06734       -11.25475       -13.59250
| 68>    C       -4.59060       -11.54131       -14.23600
| 69>    C       -3.40137       -11.78470       -14.89464
| 70>    S       -1.98637       -11.46486       -13.91607
| 71>    C       -3.20743       -12.25458       -16.22978
| 72>    N       -1.96211       -12.40948       -16.64334
| 73>    N       -1.65673       -12.83466       -17.84155
| 74>    C       -2.56427       -13.14268       -18.72675
| 75>    C       -3.93714       -13.02661       -18.42043
| 76>    C       -4.28415       -12.55952       -17.11041
| 77>    N       -5.60023       -12.49032       -16.93270
| 78>    S       -6.32457       -12.96800       -18.28675
| 79>    N       -5.01603       -13.28434       -19.15979
| 80>    H        0.56598        -5.81767         6.79596
| 81>    H       -3.74896        -6.66609         2.33924
| 82>    H       -4.46201        -8.17788        -3.64787
| 83>    H        4.50312        -9.63684        -8.30396
| 84>    H        4.75197        -8.94644        -5.95389
| 85>    H       -5.01143        -9.72915        -8.82551
| 86>    H       -5.54907       -11.68965       -14.69996
| 87>    H       -2.21853       -13.48553       -19.68923
| 88> *
| 89>
| 90>                          ****END OF INPUT****

CARTESIAN COORDINATES (ANGSTROEM)
---------------------------------
  C      0.024500   -6.004060    5.881870
  N      0.725900   -6.301620    4.822760
  N      0.174370   -6.547610    3.663080
  C     -1.131780   -6.516270    3.465640
  C     -1.999640   -6.200580    4.549630
  C     -1.383530   -5.932730    5.815890
  N     -2.283150   -5.648480    6.757740
  S     -3.747840   -5.714580    6.105870
  N     -3.324870   -6.104570    4.603950
  C     -1.603670   -6.810910    2.149800
  C     -2.907950   -6.862440    1.698860
  C     -2.963410   -7.195700    0.346850
  C     -1.684910   -7.392720   -0.218250
  S     -0.424010   -7.171040    0.908180
  C     -1.844310   -7.734130   -1.584980
  C     -3.224520   -7.756010   -1.880340
  C     -3.968670   -7.413440   -0.676600
  C     -5.323040   -7.317660   -0.543480
  C     -6.198990   -7.555490   -1.623620
  N     -6.911490   -7.747080   -2.501380
  C     -5.938920   -6.974430    0.678790
  N     -6.450670   -6.697330    1.666660
  C     -3.487590   -8.095680   -3.200440
  C     -2.314330   -8.328510   -3.908720
  S     -0.867430   -8.121090   -2.931120
  C     -2.168800   -8.704780   -5.254100
  C     -0.944440   -8.905630   -5.901020
  C     -1.089330   -9.304430   -7.270760
  N     -0.027850   -9.541000   -8.039970
  C      1.155530   -9.387460   -7.483480
  C      2.339500   -9.646340   -8.339670
  O      2.244110   -9.991090   -9.498920
  C      3.640710   -9.452260   -7.677690
  C      3.775850   -9.077390   -6.401190
  C      2.640030   -8.814000   -5.501400
  O      2.790140   -8.479590   -4.344930
  C      1.300340   -8.987110   -6.115360
  N      0.257160   -8.754610   -5.346300
  C     -2.424800   -9.410490   -7.674640
  S     -3.482750   -9.006940   -6.353710
  C     -2.847900   -9.802490   -8.955280
  C     -4.147210   -9.936950   -9.430800
  C     -4.162610  -10.366240  -10.750930
  C     -2.867830  -10.558450  -11.279490
  S     -1.629660  -10.207250  -10.157230
  C     -2.993630  -11.006540  -12.618610
  C     -4.366510  -11.096370  -12.934530
  C     -5.142830  -10.694370  -11.776350
  C     -6.501430  -10.634770  -11.667700
  C     -7.138930  -10.223240  -10.478240
  N     -7.658430   -9.888780   -9.512320
  C     -7.359840  -10.977820  -12.733790
  N     -8.067340  -11.254750  -13.592500
  C     -4.590600  -11.541310  -14.236000
  C     -3.401370  -11.784700  -14.894640
  S     -1.986370  -11.464860  -13.916070
  C     -3.207430  -12.254580  -16.229780
  N     -1.962110  -12.409480  -16.643340
  N     -1.656730  -12.834660  -17.841550
  C     -2.564270  -13.142680  -18.726750
  C     -3.937140  -13.026610  -18.420430
  C     -4.284150  -12.559520  -17.110410
  N     -5.600230  -12.490320  -16.932700
  S     -6.324570  -12.968000  -18.286750
  N     -5.016030  -13.284340  -19.159790
  H      0.565980   -5.817670    6.795960
  H     -3.748960   -6.666090    2.339240
  H     -4.462010   -8.177880   -3.647870
  H      4.503120   -9.636840   -8.303960
  H      4.751970   -8.946440   -5.953890
  H     -5.011430   -9.729150   -8.825510
  H     -5.549070  -11.689650  -14.699960
  H     -2.218530  -13.485530  -19.689230

 Total Charge           Charge          ....    0
 Multiplicity           Mult            ....    1
 Number of Electrons    NEL             ....  486
 Basis Dimension        Dim             ....  978

ORBITAL ENERGIES
----------------

  NO   OCC          E(Eh)            E(eV)
   0   2.0000     -89.048060     -2423.1209
   1   2.0000     -89.047972     -2423.1185
   2   2.0000     -89.006143     -2421.9803
   3   2.0000     -88.987922     -2421.4845
   4   2.0000     -88.987751     -2421.4798
   5   2.0000     -88.986265     -2421.4394
   6   2.0000     -88.986085     -2421.4345
   7   2.0000     -19.233625      -523.3736
   8   2.0000     -19.233596      -523.3727
   9   2.0000     -14.463140      -393.5621
  10   2.0000     -14.463126      -393.5617
  11   2.0000     -14.460747      -393.4969
  12   2.0000     -14.460693      -393.4955
  13   2.0000     -14.460680      -393.4951
  14   2.0000     -14.460604      -393.4930
  15   2.0000     -14.445782      -393.0897
  16   2.0000     -14.445748      -393.0888
  17   2.0000     -14.444281      -393.0489
  18   2.0000     -14.444261      -393.0483
  19   2.0000     -14.429223      -392.6391
  20   2.0000     -14.429213      -392.6388
  21   2.0000     -14.428189      -392.6110
  22   2.0000     -14.428161      -392.6102
  23   2.0000     -10.383449      -282.5480
  24   2.0000     -10.383340      -282.5450
  25   2.0000     -10.362688      -281.9831
  26   2.0000     -10.362671      -281.9826
  27   2.0000     -10.351040      -281.6661
  28   2.0000     -10.350880      -281.6618
  29   2.0000     -10.350857      -281.6611
  30   2.0000     -10.350786      -281.6592
  31   2.0000     -10.347290      -281.5641
  32   2.0000     -10.347279      -281.5638
  33   2.0000     -10.345827      -281.5243
  34   2.0000     -10.345783      -281.5231
  35   2.0000     -10.342760      -281.4408
  36   2.0000     -10.342736      -281.4402
  37   2.0000     -10.342030      -281.4209
  38   2.0000     -10.341921      -281.4180
  39   2.0000     -10.340160      -281.3700
  40   2.0000     -10.339883      -281.3625
  41   2.0000     -10.333122      -281.1785
  42   2.0000     -10.333033      -281.1761
  43   2.0000     -10.332362      -281.1579
  44   2.0000     -10.332336      -281.1571
  45   2.0000     -10.329737      -281.0864
  46   2.0000     -10.329709      -281.0857
  47   2.0000     -10.328524      -281.0534
  48   2.0000     -10.328478      -281.0522
  49   2.0000     -10.328330      -281.0482
  50   2.0000     -10.328214      -281.0450
  51   2.0000     -10.325218      -280.9635
  52   2.0000     -10.325214      -280.9633
  53   2.0000     -10.318289      -280.7749
  54   2.0000     -10.318208      -280.7727
  55   2.0000     -10.315755      -280.7060
  56   2.0000     -10.315055      -280.6869
  57   2.0000     -10.307327      -280.4766
  58   2.0000     -10.307263      -280.4749
  59   2.0000     -10.305176      -280.4181
  60   2.0000     -10.305172      -280.4180
  61   2.0000     -10.300932      -280.3026
  62   2.0000     -10.300904      -280.3018
  63   2.0000     -10.300494      -280.2907
  64   2.0000     -10.300472      -280.2901
  65   2.0000      -8.139702      -221.4926
  66   2.0000      -8.139650      -221.4911
  67   2.0000      -8.100154      -220.4164
  68   2.0000      -8.081257      -219.9022
  69   2.0000      -8.081139      -219.8990
  70   2.0000      -8.080111      -219.8710
  71   2.0000      -8.080004      -219.8681
  72   2.0000      -6.110774      -166.2826
  73   2.0000      -6.110740      -166.2817
  74   2.0000      -6.102916      -166.0688
  75   2.0000      -6.102835      -166.0666
  76   2.0000      -6.102443      -166.0559
  77   2.0000      -6.102387      -166.0544
  78   2.0000      -6.069287      -165.1537
  79   2.0000      -6.065186      -165.0421
  80   2.0000      -6.062732      -164.9753
  81   2.0000      -6.050655      -164.6467
  82   2.0000      -6.050534      -164.6434
  83   2.0000      -6.049344      -164.6110
  84   2.0000      -6.049229      -164.6079
  85   2.0000      -6.046154      -164.5242
  86   2.0000      -6.046038      -164.5210
  87   2.0000      -6.044985      -164.4924
  88   2.0000      -6.044875      -164.4894
  89   2.0000      -6.043571      -164.4539
  90   2.0000      -6.043441      -164.4504
  91   2.0000      -6.042717      -164.4307
  92   2.0000      -6.042587      -164.4271
  93   2.0000      -1.151309       -31.3287
  94   2.0000      -1.150597       -31.3093
  95   2.0000      -1.150535       -31.3076
  96   2.0000      -1.146455       -31.1966
  97   2.0000      -1.121339       -30.5132
  98   2.0000      -1.121296       -30.5120
  99   2.0000      -1.111086       -30.2342
 100   2.0000      -1.045034       -28.4368
 101   2.0000      -1.043829       -28.4040
 102   2.0000      -1.038538       -28.2601
 103   2.0000      -1.021885       -27.8069
 104   2.0000      -1.020447       -27.7678
 105   2.0000      -1.016631       -27.6639
 106   2.0000      -1.006652       -27.3924
 107   2.0000      -1.006241       -27.3812
 108   2.0000      -1.004906       -27.3449
 109   2.0000      -1.003068       -27.2949
 110   2.0000      -0.994372       -27.0582
 111   2.0000      -0.988711       -26.9042
 112   2.0000      -0.962578       -26.1931
 113   2.0000      -0.958276       -26.0760
 114   2.0000      -0.946557       -25.7571
 115   2.0000      -0.936635       -25.4871
 116   2.0000      -0.936453       -25.4822
 117   2.0000      -0.919518       -25.0214
 118   2.0000      -0.919292       -25.0152
 119   2.0000      -0.913600       -24.8603
 120   2.0000      -0.901585       -24.5334
 121   2.0000      -0.883973       -24.0541
 122   2.0000      -0.877346       -23.8738
 123   2.0000      -0.866266       -23.5723
 124   2.0000      -0.864356       -23.5203
 125   2.0000      -0.853806       -23.2333
 126   2.0000      -0.853564       -23.2267
 127   2.0000      -0.824075       -22.4242
 128   2.0000      -0.816119       -22.2077
 129   2.0000      -0.802128       -21.8270
 130   2.0000      -0.799566       -21.7573
 131   2.0000      -0.795222       -21.6391
 132   2.0000      -0.776425       -21.1276
 133   2.0000      -0.774800       -21.0834
 134   2.0000      -0.774684       -21.0802
 135   2.0000      -0.756357       -20.5815
 136   2.0000      -0.754930       -20.5427
 137   2.0000      -0.742638       -20.2082
 138   2.0000      -0.740281       -20.1441
 139   2.0000      -0.720950       -19.6180
 140   2.0000      -0.716470       -19.4961
 141   2.0000      -0.697122       -18.9697
 142   2.0000      -0.693177       -18.8623
 143   2.0000      -0.689787       -18.7701
 144   2.0000      -0.682957       -18.5842
 145   2.0000      -0.681276       -18.5385
 146   2.0000      -0.677624       -18.4391
 147   2.0000      -0.675460       -18.3802
 148   2.0000      -0.655365       -17.8334
 149   2.0000      -0.651301       -17.7228
 150   2.0000      -0.646562       -17.5938
 151   2.0000      -0.646190       -17.5837
 152   2.0000      -0.632757       -17.2182
 153   2.0000      -0.630137       -17.1469
 154   2.0000      -0.617566       -16.8048
 155   2.0000      -0.615199       -16.7404
 156   2.0000      -0.613733       -16.7005
 157   2.0000      -0.612523       -16.6676
 158   2.0000      -0.611824       -16.6486
 159   2.0000      -0.608825       -16.5670
 160   2.0000      -0.596288       -16.2258
 161   2.0000      -0.578403       -15.7392
 162   2.0000      -0.578065       -15.7300
 163   2.0000      -0.577940       -15.7266
 164   2.0000      -0.575412       -15.6578
 165   2.0000      -0.575398       -15.6574
 166   2.0000      -0.566887       -15.4258
 167   2.0000      -0.562308       -15.3012
 168   2.0000      -0.562137       -15.2965
 169   2.0000      -0.550477       -14.9793
 170   2.0000      -0.550145       -14.9702
 171   2.0000      -0.547041       -14.8857
 172   2.0000      -0.546503       -14.8711
 173   2.0000      -0.546216       -14.8633
 174   2.0000      -0.532502       -14.4901
 175   2.0000      -0.529055       -14.3963
 176   2.0000      -0.525643       -14.3035
 177   2.0000      -0.515242       -14.0205
 178   2.0000      -0.515214       -14.0197
 179   2.0000      -0.514964       -14.0129
 180   2.0000      -0.513702       -13.9785
 181   2.0000      -0.508522       -13.8376
 182   2.0000      -0.502282       -13.6678
 183   2.0000      -0.500685       -13.6243
 184   2.0000      -0.500460       -13.6182
 185   2.0000      -0.500435       -13.6175
 186   2.0000      -0.498497       -13.5648
 187   2.0000      -0.496367       -13.5068
 188   2.0000      -0.494117       -13.4456
 189   2.0000      -0.493774       -13.4363
 190   2.0000      -0.492299       -13.3961
 191   2.0000      -0.487129       -13.2555
 192   2.0000      -0.484632       -13.1875
 193   2.0000      -0.483151       -13.1472
 194   2.0000      -0.475317       -12.9340
 195   2.0000      -0.461421       -12.5559
 196   2.0000      -0.461057       -12.5460
 197   2.0000      -0.460184       -12.5223
 198   2.0000      -0.460164       -12.5217
 199   2.0000      -0.457623       -12.4526
 200   2.0000      -0.456414       -12.4197
 201   2.0000      -0.454144       -12.3579
 202   2.0000      -0.453077       -12.3288
 203   2.0000      -0.446555       -12.1514
 204   2.0000      -0.445110       -12.1121
 205   2.0000      -0.442282       -12.0351
 206   2.0000      -0.439616       -11.9626
 207   2.0000      -0.439586       -11.9617
 208   2.0000      -0.439255       -11.9527
 209   2.0000      -0.438175       -11.9234
 210   2.0000      -0.436420       -11.8756
 211   2.0000      -0.436374       -11.8743
 212   2.0000      -0.434365       -11.8197
 213   2.0000      -0.433837       -11.8053
 214   2.0000      -0.425932       -11.5902
 215   2.0000      -0.425174       -11.5696
 216   2.0000      -0.411185       -11.1889
 217   2.0000      -0.407569       -11.0905
 218   2.0000      -0.402319       -10.9477
 219   2.0000      -0.393237       -10.7005
 220   2.0000      -0.393087       -10.6964
 221   2.0000      -0.391217       -10.6456
 222   2.0000      -0.389735       -10.6052
 223   2.0000      -0.389705       -10.6044
 224   2.0000      -0.381692       -10.3864
 225   2.0000      -0.379718       -10.3326
 226   2.0000      -0.374600       -10.1934
 227   2.0000      -0.373208       -10.1555
 228   2.0000      -0.371405       -10.1064
 229   2.0000      -0.361436        -9.8352
 230   2.0000      -0.357596        -9.7307
 231   2.0000      -0.354344        -9.6422
 232   2.0000      -0.346464        -9.4278
 233   2.0000      -0.345951        -9.4138
 234   2.0000      -0.343506        -9.3473
 235   2.0000      -0.343261        -9.3406
 236   2.0000      -0.323042        -8.7904
 237   2.0000      -0.319476        -8.6934
 238   2.0000      -0.308572        -8.3967
 239   2.0000      -0.308544        -8.3959
 240   2.0000      -0.307624        -8.3709
 241   2.0000      -0.277125        -7.5409
 242   2.0000      -0.238441        -6.4883
 243   0.0000      -0.120197        -3.2707
 244   0.0000      -0.106307        -2.8928
 245   0.0000      -0.093949        -2.5565
 246   0.0000      -0.092617        -2.5202
 247   0.0000      -0.085099        -2.3157

MULLIKEN ATOMIC CHARGES
-----------------------
   0 C :   -0.016529
   1 N :   -0.036359
   2 N :   -0.076609
   3 C :    0.023152
   4 C :    0.007188
   5 C :    0.048929
   6 N :   -0.255948
   7 S :    0.547456
   8 N :   -0.253696
   9 C :   -0.129832
  10 C :   -0.045398
  11 C :    0.006800
  12 C :   -0.086040
  13 S :    0.254989
  14 C :   -0.094340
  15 C :    0.034462
  16 C :    0.304336
  17 C :   -0.300274
  18 C :   -0.193753
  19 N :    0.172129
  20 C :   -0.187070
  21 N :    0.174725
  22 C :   -0.084765
  23 C :   -0.072810
  24 S :    0.243212
  25 C :   -0.119820
  26 C :    0.022975
  27 C :    0.025783
  28 N :    0.034825
  29 C :   -0.112894
  30 C :    0.137847
  31 O :   -0.103375
  32 C :   -0.017053
  33 C :   -0.017601
  34 C :    0.137688
  35 O :   -0.104195
  36 C :   -0.111031
  37 N :    0.035024
  38 C :   -0.119507
  39 S :    0.236526
  40 C :   -0.074328
  41 C :   -0.083183
  42 C :    0.031419
  43 C :   -0.095238
  44 S :    0.243310
  45 C :   -0.085150
  46 C :    0.009294
  47 C :    0.305581
  48 C :   -0.301000
  49 C :   -0.191594
  50 N :    0.173489
  51 C :   -0.189148
  52 N :    0.173586
  53 C :   -0.048701
  54 C :   -0.129569
  55 S :    0.255625
  56 C :    0.025762
  57 N :   -0.077647
  58 N :   -0.035888
  59 C :   -0.016765
  60 C :    0.051222
  61 C :    0.005144
  62 N :   -0.253830
  63 S :    0.547870
  64 N :   -0.256191
  65 H :    0.005378
  66 H :    0.019207
  67 H :    0.009222
  68 H :    0.020214
  69 H :    0.019854
  70 H :    0.010104
  71 H :    0.018200
  72 H :    0.004604
Sum of atomic charges:   -0.0000000

LOEWDIN ATOMIC CHARGES
----------------------
   0 C :    0.001681
   1 N :   -0.033087
   2 N :   -0.078102
   3 C :   -0.016355
   4 C :   -0.059939
   5 C :   -0.067592
   6 N :   -0.269745
   7 S :    0.681786
   8 N :   -0.268121
   9 C :   -0.184681
  10 C :   -0.007582
  11 C :   -0.076540
  12 C :   -0.168610
  13 S :    0.527217
  14 C :   -0.183034
  15 C :   -0.064983
  16 C :    0.080875
  17 C :   -0.104606
  18 C :   -0.017193
  19 N :   -0.034648
  20 C :   -0.017516
  21 N :   -0.032304
  22 C :   -0.028538
  23 C :   -0.180980
  24 S :    0.531447
  25 C :   -0.189532
  26 C :   -0.055678
  27 C :   -0.055569
  28 N :   -0.008710
  29 C :   -0.039004
  30 C :    0.054947
  31 O :   -0.101519
  32 C :   -0.011449
  33 C :   -0.011407
  34 C :    0.054990
  35 O :   -0.101595
  36 C :   -0.038981
  37 N :   -0.008677
  38 C :   -0.189561
  39 S :    0.521535
  40 C :   -0.181015
  41 C :   -0.028573
  42 C :   -0.065007
  43 C :   -0.183187
  44 S :    0.531514
  45 C :   -0.168567
  46 C :   -0.076496
  47 C :    0.080917
  48 C :   -0.104594
  49 C :   -0.017239
  50 N :   -0.034610
  51 C :   -0.017502
  52 N :   -0.032259
  53 C :   -0.007602
  54 C :   -0.184715
  55 S :    0.527237
  56 C :   -0.016270
  57 N :   -0.078256
  58 N :   -0.032952
  59 C :    0.001759
  60 C :   -0.067582
  61 C :   -0.060014
  62 N :   -0.268184
  63 S :    0.681873
  64 N :   -0.269783
  65 H :    0.035371
  66 H :    0.041366
  67 H :    0.037744
  68 H :    0.046868
  69 H :    0.046789
  70 H :    0.037846
  71 H :    0.041269
  72 H :    0.035217

  Mayer bond orders larger than 0.100000
B(  0-C ,  1-N ) :   1.7360 B(  0-C ,  3-C ) :   0.1032 B(  0-C ,  5-C ) :   1.1259
B(  0-C , 65-H ) :   1.0152 B(  1-N ,  2-N ) :   1.2013 B(  2-N ,  3-C ) :   1.7433
B(  3-C ,  4-C ) :   1.1167 B(  3-C ,  9-C ) :   1.1480 B(  4-C ,  5-C ) :   1.1995
B(  4-C ,  8-N ) :   1.5509 B(  5-C ,  6-N ) :   1.4993 B(  6-N ,  7-S ) :   1.2981
B(  6-N ,  8-N ) :   0.1461 B(  7-S ,  8-N ) :   1.2709 B(  9-C , 10-C ) :   1.4860
B(  9-C , 13-S ) :   1.0846 B( 10-C , 11-C ) :   1.2675 B( 10-C , 66-H ) :   0.9824
B( 11-C , 12-C ) :   1.4178 B( 11-C , 16-C ) :   1.0023 B( 12-C , 13-S ) :   1.1343
B( 12-C , 14-C ) :   1.1978 B( 14-C , 15-C ) :   1.4125 B( 14-C , 24-S ) :   1.1014
B( 15-C , 16-C ) :   0.9870 B( 15-C , 22-C ) :   1.3229 B( 16-C , 17-C ) :   1.7103
B( 17-C , 18-C ) :   1.1341 B( 17-C , 20-C ) :   1.1357 B( 18-C , 19-N ) :   2.9927
B( 20-C , 21-N ) :   2.9912 B( 22-C , 23-C ) :   1.3847 B( 22-C , 67-H ) :   0.9964
B( 23-C , 24-S ) :   1.1169 B( 23-C , 25-C ) :   1.2376 B( 25-C , 26-C ) :   1.3218
B( 25-C , 38-C ) :   0.1169 B( 25-C , 39-S ) :   1.1547 B( 26-C , 27-C ) :   1.1837
B( 26-C , 37-N ) :   1.4188 B( 27-C , 28-N ) :   1.4169 B( 27-C , 38-C ) :   1.3213
B( 28-N , 29-C ) :   1.6990 B( 29-C , 30-C ) :   0.8977 B( 29-C , 36-C ) :   1.1056
B( 30-C , 31-O ) :   2.2499 B( 30-C , 32-C ) :   1.0227 B( 32-C , 33-C ) :   1.6753
B( 32-C , 68-H ) :   0.9991 B( 33-C , 34-C ) :   1.0235 B( 33-C , 69-H ) :   0.9991
B( 34-C , 35-O ) :   2.2488 B( 34-C , 36-C ) :   0.8979 B( 36-C , 37-N ) :   1.6974
B( 38-C , 39-S ) :   1.1545 B( 38-C , 40-C ) :   1.2380 B( 40-C , 41-C ) :   1.3858
B( 40-C , 44-S ) :   1.1167 B( 41-C , 42-C ) :   1.3244 B( 41-C , 70-H ) :   0.9952
B( 42-C , 43-C ) :   1.4131 B( 42-C , 47-C ) :   0.9871 B( 43-C , 44-S ) :   1.1014
B( 43-C , 45-C ) :   1.1977 B( 45-C , 46-C ) :   1.4171 B( 45-C , 55-S ) :   1.1345
B( 46-C , 47-C ) :   1.0010 B( 46-C , 53-C ) :   1.2655 B( 47-C , 48-C ) :   1.7104
B( 48-C , 49-C ) :   1.1329 B( 48-C , 51-C ) :   1.1369 B( 49-C , 50-N ) :   2.9933
B( 51-C , 52-N ) :   2.9905 B( 53-C , 54-C ) :   1.4838 B( 53-C , 71-H ) :   0.9839
B( 54-C , 55-S ) :   1.0853 B( 54-C , 56-C ) :   1.1485 B( 56-C , 57-N ) :   1.7425
B( 56-C , 59-C ) :   0.1034 B( 56-C , 61-C ) :   1.1167 B( 57-N , 58-N ) :   1.2018
B( 58-N , 59-C ) :   1.7362 B( 59-C , 60-C ) :   1.1255 B( 59-C , 72-H ) :   1.0155
B( 60-C , 61-C ) :   1.1997 B( 60-C , 64-N ) :   1.4992 B( 61-C , 62-N ) :   1.5514
B( 62-N , 63-S ) :   1.2704 B( 62-N , 64-N ) :   0.1461 B( 63-S , 64-N ) :   1.2982

-----------------------------------------------------------------------------
         ABSORPTION SPECTRUM VIA TRANSITION ELECTRIC DIPOLE MOMENTS
-----------------------------------------------------------------------------
State   Energy  Wavelength   fosc         T2         TX        TY        TZ
        (cm-1)    (nm)                  (au**2)     (au)      (au)      (au)
-----------------------------------------------------------------------------
   0   10070.2    993.0   0.786575091  25.71440  -0.50977  -1.41734  -4.84207
   1   12489.2    800.7   0.013433403   0.35410   0.58808   0.05183  -0.07469
   2   13915.8    718.6   0.024080952   0.56969   0.07496   0.21206   0.72049
   3   16213.0    616.8   0.099799306   2.02647   1.41577  -0.01175  -0.14810
   4   19915.9    502.1   0.021926042   0.36244  -0.59341  -0.04950   0.08861
   5   20301.5    492.6   0.965403900  15.65510   0.40170   1.10305   3.77849
   6   20835.4    480.0   0.000332645   0.00526   0.04845  -0.04587  -0.02836
   7   20854.5    479.5   0.000198277   0.00313  -0.05363   0.01501  -0.00538
   8   20865.8    479.3   0.007218041   0.11388   0.29041  -0.17180   0.00555
   9   22837.3    437.9   0.056999916   0.82169  -0.09156  -0.25453  -0.86517
  10   24712.4    404.7   0.001395793   0.01859  -0.01820   0.13194  -0.02923
  11   25050.0    399.2   0.019225077   0.25266   0.49978   0.00019  -0.05364
  12   25576.9    391.0   0.000020786   0.00027  -0.00334   0.00366   0.01559
  13   26495.8    377.4   0.001551453   0.01928  -0.01077  -0.12543  -0.05856
  14   26546.3    376.7   0.128010797   1.58752  -0.12807  -0.34682  -1.20451
  15   26937.9    371.2   0.300700102   3.67490   0.19456   0.53728   1.82986
  16   28265.8    353.8   0.114825432   1.33737  -0.11300  -0.32163  -1.10506
  17   28399.4    352.1   0.098525849   1.14213   1.06321  -0.03845  -0.10121
  18   28443.5    351.6   0.002760938   0.03196   0.16645  -0.06505   0.00413
  19   28477.0    351.2   0.000236546   0.00273   0.01718   0.04752  -0.01345
  20   29167.5    342.8   0.020197263   0.22797   0.04088   0.15133   0.45099
  21   29614.2    337.7   0.105406003   1.17177   1.07610  -0.10992  -0.04116
  22   29977.3    333.6   0.412921947   4.53472   0.19879   0.59447   2.03514
  23   30709.3    325.6   0.000033691   0.00036   0.01540   0.00146   0.01105
  24   30812.1    324.5   0.002548476   0.02723  -0.16171   0.03241   0.00522
  25   31541.6    317.0   0.286330588   2.98854   1.71967  -0.12151  -0.12850
  26   31710.7    315.4   0.326792911   3.39267   0.16080   0.50331   1.76451
  27   32580.4    306.9   0.023149220   0.23391   0.04328   0.15724   0.45532
  28   32639.0    306.4   0.086479569   0.87227  -0.92552   0.10078   0.07440
  29   33102.9    302.1   0.645163165   6.41622  -2.52029   0.11529   0.22600
  30   33714.9    296.6   0.000302081   0.00295  -0.05065  -0.00875   0.01754
  31   33718.6    296.6   0.000165881   0.00162   0.01646   0.02853  -0.02312
  32   33748.8    296.3   0.000039778   0.00039  -0.00929  -0.00039  -0.01737
  33   33911.6    294.9   0.028626072   0.27790   0.06732   0.15538   0.49922
  34   33932.5    294.7   0.030210477   0.29310   0.53180   0.05638  -0.08434
  35   34651.8    288.6   0.001377424   0.01309   0.08239   0.07074  -0.03597
  36   34714.8    288.1   0.061596884   0.58414   0.16112   0.19334   0.72167
  37   34728.3    287.9   0.000251195   0.00238  -0.03688   0.02218   0.02301
  38   34753.7    287.7   0.558076845   5.28650  -2.28486   0.08195   0.24330
  39   35212.3    284.0   0.004942425   0.04621   0.21203   0.02074  -0.02867
  40   35245.4    283.7   0.000874831   0.00817   0.00848   0.03001   0.08485
  41   36054.3    277.4   0.000918501   0.00839  -0.07437  -0.03816  -0.03740
  42   36056.7    277.3   0.013134014   0.11992   0.02799   0.08898   0.33349
  43   36508.4    273.9   0.031323416   0.28246  -0.05549  -0.15713  -0.50467
  44   36557.3    273.5   0.001665190   0.01500  -0.00057  -0.05986   0.10683
  45   36599.7    273.2   0.000002150   0.00002   0.00115  -0.00052  -0.00421
  46   36710.1    272.4   0.000298983   0.00268  -0.05108   0.00129   0.00839
  47   37072.0    269.7   0.004883032   0.04336  -0.06250   0.16653  -0.10828
  48   37124.2    269.4   0.007784827   0.06903  -0.01540  -0.23560   0.11528
  49   37250.6    268.5   0.192588902   1.70205  -0.13950  -0.36689  -1.24418
  50   37670.6    265.5   0.001206168   0.01054   0.05765  -0.03133  -0.07897
  51   37694.3    265.3   0.204868719   1.78927  -0.14209  -0.37990  -1.27466
  52   37900.8    263.8   0.174609126   1.51668   1.22229  -0.10388  -0.10912
  53   38303.6    261.1   0.024489894   0.21049  -0.23073  -0.09435  -0.38516
  54   38339.3    260.8   0.049958978   0.42899   0.62690  -0.09754  -0.16268
  55   38635.5    258.8   0.011099927   0.09458   0.30190  -0.03613  -0.04621
  56   38805.0    257.7   0.030319467   0.25722  -0.05760  -0.13856  -0.48446
  57   39181.2    255.2   0.003968824   0.03335  -0.17397   0.05502   0.00749
  58   39378.9    253.9   0.002683822   0.02244   0.00173  -0.14118   0.05002
  59   39619.8    252.4   0.000015138   0.00013   0.00891  -0.00393   0.00556
  60   39650.2    252.2   0.000403876   0.00335  -0.00297   0.05420  -0.02016
  61   39721.8    251.8   0.004352578   0.03607  -0.18909   0.00491   0.01712

FINAL SINGLE POINT ENERGY     -5305.365583965422

DIPOLE MOMENT
-------------
                                X             Y             Z
Electronic contribution:     -7.75305       0.34619       0.72481
Nuclear contribution   :      8.91017      -0.45509      -0.81159
                        -----------------------------------------
Total Dipole Moment    :      1.15712      -0.10890      -0.08678
                        -----------------------------------------
Magnitude (a.u.)       :      1.16547
Magnitude (Debye)      :      2.96239

Rotational constants in cm-1:     0.002479     0.000288     0.000259
Rotational constants in MHz :    74.327088     8.648518     7.754081

                             ****ORCA TERMINATED NORMALLY****
TOTAL RUN TIME: 0 days 0 hours 13 minutes 47 seconds 926 msec
