                         Program Version 4.2.0 -  RELEASE  -
|  1> # ORCA input file
|  2> # SCF done       -174.968167805214          0.000290942134
|  3> ! CAM-B3LYP def2-SVP def2/J RIJCOSX Grid4 TightSCF
|  4> %maxcore 5000
|  5> %tddft
|  6>     Mode sTDDFT
|  7>     Ethresh 5.0
|  8>     maxcore 5000
|  9> end
| 10>
| 11> %pal
| 12>   nprocs 6
| 13>   end
| 14> * xyz 0 1
| 15>    C        7.23945        -1.16284        -4.22546
| 16>    C        6.18540        -1.00783        -3.37196
| 17>    C        6.10975         0.34234        -2.86758
| 18>    C        5.25165         0.89823        -1.92256
| 19>    C        5.39282         2.23628        -1.58067
| 20>    C        6.38690         3.03824        -2.16453
| 21>    C        7.26194         2.49487        -3.07604
| 22>    C        7.12501         1.15466        -3.41367
| 23>    S        8.15300         0.26612        -4.49879
| 24>    C        4.52886         2.80479        -0.61459
| 25>    N        3.83891         3.27027         0.17282
| 26>    C        5.28152        -2.07958        -3.05044
| 27>    C        3.94917        -2.00999        -2.70794
| 28>    C        3.39375        -3.27614        -2.49891
| 29>    C        4.31602        -4.31837        -2.69352
| 30>    S        5.86126        -3.73780        -3.12943
| 31>    C        3.66491        -5.55680        -2.47614
| 32>    C        2.32214        -5.29125        -2.13345
| 33>    C        2.10922        -3.85188        -2.13937
| 34>    C        0.95000        -3.18519        -1.87019
| 35>    C        0.87697        -1.77697        -1.91596
| 36>    N        0.82859        -0.63212        -1.95798
| 37>    C       -0.24561        -3.85611        -1.53672
| 38>    N       -1.22220        -4.39355        -1.26847
| 39>    C        1.58787        -6.44440        -1.90170
| 40>    C        2.35484        -7.59217        -2.07172
| 41>    S        4.01533        -7.22919        -2.52158
| 42>    C        1.91976        -8.93386        -1.94097
| 43>    C        2.79441       -10.01276        -2.20212
| 44>    C        2.36582       -11.38668        -2.13359
| 45>    N        3.23633       -12.36303        -2.40935
| 46>    C        4.47293       -12.06889        -2.73423
| 47>    C        4.90002       -10.70361        -2.79764
| 48>    N        4.05789        -9.73217        -2.53498
| 49>    C        6.23532       -10.38395        -3.14466
| 50>    N        7.32077       -10.15302        -3.42837
| 51>    C        5.37932       -13.11901        -3.02013
| 52>    N        6.13246       -13.94905        -3.25630
| 53>    C        1.04530       -11.75114        -1.78859
| 54>    C        0.17602       -10.67480        -1.48817
| 55>    C        0.60293        -9.29565        -1.56703
| 56>    N       -0.38704        -8.46080        -1.25093
| 57>    S       -1.70465        -9.30057        -0.89325
| 58>    N       -1.10166       -10.76860        -1.11990
| 59>    C        0.64164       -13.10953        -1.77704
| 60>    C       -0.61505       -13.60547        -1.44734
| 61>    C       -0.68053       -14.98407        -1.58417
| 62>    C        0.53536       -15.54851        -2.02470
| 63>    S        1.76165       -14.37846        -2.25099
| 64>    C        0.34909       -16.94448        -2.15888
| 65>    C       -0.97413       -17.26688        -1.80380
| 66>    C       -1.66324       -16.04490        -1.42388
| 67>    C       -2.95621       -15.91751        -1.00936
| 68>    C       -3.51791       -14.66866        -0.66791
| 69>    N       -3.98415       -13.65913        -0.38860
| 70>    C       -3.81920       -17.02792        -0.89447
| 71>    N       -4.52225       -17.92884        -0.80125
| 72>    C       -1.25361       -18.62774        -1.93095
| 73>    C       -0.15931       -19.33932        -2.38221
| 74>    S        1.24349       -18.31478        -2.64646
| 75>    C       -0.08488       -20.73494        -2.65053
| 76>    C        0.97938       -21.44142        -3.13444
| 77>    C        0.70340       -22.82176        -3.30375
| 78>    C        1.54106       -23.83094        -3.77840
| 79>    C        1.05186       -25.12525        -3.86651
| 80>    C       -0.26659       -25.43269        -3.48492
| 81>    C       -1.10387       -24.44654        -3.01436
| 82>    C       -0.61881       -23.14870        -2.92660
| 83>    S       -1.48935       -21.75285        -2.37389
| 84>    C        1.88856       -26.15843        -4.34990
| 85>    N        2.56531       -26.99603        -4.74241
| 86>    H        7.52077        -2.06358        -4.73707
| 87>    H        4.49408         0.30300        -1.43819
| 88>    H        6.46391         4.07625        -1.87971
| 89>    H        8.04569         3.08884        -3.51887
| 90>    H        3.39531        -1.09121        -2.65793
| 91>    H        0.55029        -6.49006        -1.62655
| 92>    H       -1.41568       -12.96108        -1.13414
| 93>    H       -2.19999       -19.09111        -1.71635
| 94>    H        1.92844       -20.99118        -3.36661
| 95>    H        2.55446       -23.60427        -4.07362
| 96>    H       -0.61365       -26.45135        -3.56668
| 97>    H       -2.11677       -24.67160        -2.71997
| 98> *
| 99>
|100>                          ****END OF INPUT****

CARTESIAN COORDINATES (ANGSTROEM)
---------------------------------
  C      7.239450   -1.162840   -4.225460
  C      6.185400   -1.007830   -3.371960
  C      6.109750    0.342340   -2.867580
  C      5.251650    0.898230   -1.922560
  C      5.392820    2.236280   -1.580670
  C      6.386900    3.038240   -2.164530
  C      7.261940    2.494870   -3.076040
  C      7.125010    1.154660   -3.413670
  S      8.153000    0.266120   -4.498790
  C      4.528860    2.804790   -0.614590
  N      3.838910    3.270270    0.172820
  C      5.281520   -2.079580   -3.050440
  C      3.949170   -2.009990   -2.707940
  C      3.393750   -3.276140   -2.498910
  C      4.316020   -4.318370   -2.693520
  S      5.861260   -3.737800   -3.129430
  C      3.664910   -5.556800   -2.476140
  C      2.322140   -5.291250   -2.133450
  C      2.109220   -3.851880   -2.139370
  C      0.950000   -3.185190   -1.870190
  C      0.876970   -1.776970   -1.915960
  N      0.828590   -0.632120   -1.957980
  C     -0.245610   -3.856110   -1.536720
  N     -1.222200   -4.393550   -1.268470
  C      1.587870   -6.444400   -1.901700
  C      2.354840   -7.592170   -2.071720
  S      4.015330   -7.229190   -2.521580
  C      1.919760   -8.933860   -1.940970
  C      2.794410  -10.012760   -2.202120
  C      2.365820  -11.386680   -2.133590
  N      3.236330  -12.363030   -2.409350
  C      4.472930  -12.068890   -2.734230
  C      4.900020  -10.703610   -2.797640
  N      4.057890   -9.732170   -2.534980
  C      6.235320  -10.383950   -3.144660
  N      7.320770  -10.153020   -3.428370
  C      5.379320  -13.119010   -3.020130
  N      6.132460  -13.949050   -3.256300
  C      1.045300  -11.751140   -1.788590
  C      0.176020  -10.674800   -1.488170
  C      0.602930   -9.295650   -1.567030
  N     -0.387040   -8.460800   -1.250930
  S     -1.704650   -9.300570   -0.893250
  N     -1.101660  -10.768600   -1.119900
  C      0.641640  -13.109530   -1.777040
  C     -0.615050  -13.605470   -1.447340
  C     -0.680530  -14.984070   -1.584170
  C      0.535360  -15.548510   -2.024700
  S      1.761650  -14.378460   -2.250990
  C      0.349090  -16.944480   -2.158880
  C     -0.974130  -17.266880   -1.803800
  C     -1.663240  -16.044900   -1.423880
  C     -2.956210  -15.917510   -1.009360
  C     -3.517910  -14.668660   -0.667910
  N     -3.984150  -13.659130   -0.388600
  C     -3.819200  -17.027920   -0.894470
  N     -4.522250  -17.928840   -0.801250
  C     -1.253610  -18.627740   -1.930950
  C     -0.159310  -19.339320   -2.382210
  S      1.243490  -18.314780   -2.646460
  C     -0.084880  -20.734940   -2.650530
  C      0.979380  -21.441420   -3.134440
  C      0.703400  -22.821760   -3.303750
  C      1.541060  -23.830940   -3.778400
  C      1.051860  -25.125250   -3.866510
  C     -0.266590  -25.432690   -3.484920
  C     -1.103870  -24.446540   -3.014360
  C     -0.618810  -23.148700   -2.926600
  S     -1.489350  -21.752850   -2.373890
  C      1.888560  -26.158430   -4.349900
  N      2.565310  -26.996030   -4.742410
  H      7.520770   -2.063580   -4.737070
  H      4.494080    0.303000   -1.438190
  H      6.463910    4.076250   -1.879710
  H      8.045690    3.088840   -3.518870
  H      3.395310   -1.091210   -2.657930
  H      0.550290   -6.490060   -1.626550
  H     -1.415680  -12.961080   -1.134140
  H     -2.199990  -19.091110   -1.716350
  H      1.928440  -20.991180   -3.366610
  H      2.554460  -23.604270   -4.073620
  H     -0.613650  -26.451350   -3.566680
  H     -2.116770  -24.671600   -2.719970

 Total Charge           Charge          ....    0
 Multiplicity           Mult            ....    1
 Number of Electrons    NEL             ....  520
 Basis Dimension        Dim             .... 1082

ORBITAL ENERGIES
----------------

  NO   OCC          E(Eh)            E(eV)
   0   2.0000     -89.057980     -2423.3908
   1   2.0000     -88.997642     -2421.7490
   2   2.0000     -88.995113     -2421.6801
   3   2.0000     -88.991311     -2421.5767
   4   2.0000     -88.991109     -2421.5712
   5   2.0000     -88.975436     -2421.1447
   6   2.0000     -88.971710     -2421.0433
   7   2.0000     -14.483641      -394.1199
   8   2.0000     -14.483402      -394.1134
   9   2.0000     -14.466726      -393.6596
  10   2.0000     -14.466368      -393.6499
  11   2.0000     -14.445366      -393.0784
  12   2.0000     -14.445059      -393.0700
  13   2.0000     -14.434746      -392.7894
  14   2.0000     -14.434135      -392.7728
  15   2.0000     -14.433371      -392.7520
  16   2.0000     -14.433178      -392.7467
  17   2.0000     -14.402849      -391.9214
  18   2.0000     -14.402539      -391.9130
  19   2.0000     -10.400845      -283.0214
  20   2.0000     -10.400262      -283.0055
  21   2.0000     -10.369290      -282.1627
  22   2.0000     -10.368166      -282.1321
  23   2.0000     -10.363308      -281.9999
  24   2.0000     -10.363051      -281.9930
  25   2.0000     -10.358679      -281.8740
  26   2.0000     -10.358402      -281.8664
  27   2.0000     -10.356563      -281.8164
  28   2.0000     -10.355247      -281.7806
  29   2.0000     -10.339214      -281.3443
  30   2.0000     -10.338701      -281.3304
  31   2.0000     -10.338506      -281.3251
  32   2.0000     -10.336680      -281.2754
  33   2.0000     -10.336206      -281.2625
  34   2.0000     -10.335860      -281.2531
  35   2.0000     -10.334962      -281.2286
  36   2.0000     -10.334560      -281.2177
  37   2.0000     -10.334551      -281.2174
  38   2.0000     -10.334336      -281.2116
  39   2.0000     -10.333555      -281.1903
  40   2.0000     -10.333395      -281.1860
  41   2.0000     -10.332703      -281.1671
  42   2.0000     -10.332583      -281.1639
  43   2.0000     -10.332283      -281.1557
  44   2.0000     -10.330793      -281.1152
  45   2.0000     -10.330215      -281.0994
  46   2.0000     -10.325658      -280.9754
  47   2.0000     -10.322760      -280.8966
  48   2.0000     -10.322084      -280.8782
  49   2.0000     -10.319876      -280.8181
  50   2.0000     -10.317210      -280.7456
  51   2.0000     -10.313225      -280.6371
  52   2.0000     -10.311979      -280.6032
  53   2.0000     -10.310260      -280.5564
  54   2.0000     -10.310020      -280.5499
  55   2.0000     -10.308589      -280.5110
  56   2.0000     -10.306178      -280.4454
  57   2.0000     -10.306016      -280.4410
  58   2.0000     -10.305420      -280.4247
  59   2.0000     -10.304656      -280.4039
  60   2.0000     -10.304145      -280.3900
  61   2.0000     -10.304113      -280.3892
  62   2.0000     -10.303297      -280.3670
  63   2.0000     -10.302786      -280.3531
  64   2.0000     -10.302408      -280.3428
  65   2.0000     -10.302130      -280.3352
  66   2.0000     -10.302087      -280.3340
  67   2.0000     -10.302027      -280.3324
  68   2.0000     -10.299628      -280.2671
  69   2.0000     -10.299139      -280.2538
  70   2.0000     -10.296586      -280.1844
  71   2.0000      -8.149001      -221.7456
  72   2.0000      -8.092205      -220.2001
  73   2.0000      -8.089762      -220.1336
  74   2.0000      -8.083923      -219.9747
  75   2.0000      -8.083692      -219.9685
  76   2.0000      -8.071719      -219.6426
  77   2.0000      -8.067424      -219.5258
  78   2.0000      -6.120075      -166.5357
  79   2.0000      -6.112137      -166.3197
  80   2.0000      -6.111918      -166.3137
  81   2.0000      -6.061470      -164.9410
  82   2.0000      -6.058996      -164.8737
  83   2.0000      -6.057264      -164.8265
  84   2.0000      -6.054792      -164.7593
  85   2.0000      -6.054542      -164.7525
  86   2.0000      -6.053501      -164.7241
  87   2.0000      -6.053280      -164.7181
  88   2.0000      -6.052181      -164.6882
  89   2.0000      -6.048664      -164.5925
  90   2.0000      -6.048414      -164.5857
  91   2.0000      -6.046356      -164.5297
  92   2.0000      -6.046134      -164.5237
  93   2.0000      -6.041181      -164.3889
  94   2.0000      -6.037037      -164.2761
  95   2.0000      -6.036978      -164.2745
  96   2.0000      -6.033381      -164.1767
  97   2.0000      -6.032951      -164.1649
  98   2.0000      -6.028720      -164.0498
  99   2.0000      -1.156040       -31.4575
 100   2.0000      -1.142098       -31.0781
 101   2.0000      -1.071089       -29.1458
 102   2.0000      -1.049744       -28.5650
 103   2.0000      -1.048347       -28.5270
 104   2.0000      -1.030549       -28.0427
 105   2.0000      -1.026578       -27.9346
 106   2.0000      -1.025512       -27.9056
 107   2.0000      -1.021255       -27.7898
 108   2.0000      -1.019496       -27.7419
 109   2.0000      -1.017147       -27.6780
 110   2.0000      -1.012000       -27.5379
 111   2.0000      -1.011614       -27.5274
 112   2.0000      -1.010678       -27.5019
 113   2.0000      -1.006111       -27.3777
 114   2.0000      -0.997515       -27.1438
 115   2.0000      -0.990961       -26.9654
 116   2.0000      -0.988843       -26.9078
 117   2.0000      -0.985698       -26.8222
 118   2.0000      -0.964976       -26.2583
 119   2.0000      -0.960559       -26.1381
 120   2.0000      -0.950927       -25.8760
 121   2.0000      -0.948562       -25.8117
 122   2.0000      -0.926793       -25.2193
 123   2.0000      -0.925773       -25.1916
 124   2.0000      -0.916165       -24.9301
 125   2.0000      -0.900374       -24.5004
 126   2.0000      -0.889008       -24.1911
 127   2.0000      -0.885431       -24.0938
 128   2.0000      -0.877235       -23.8708
 129   2.0000      -0.870641       -23.6914
 130   2.0000      -0.861729       -23.4488
 131   2.0000      -0.860635       -23.4191
 132   2.0000      -0.858154       -23.3516
 133   2.0000      -0.853682       -23.2299
 134   2.0000      -0.850551       -23.1447
 135   2.0000      -0.843146       -22.9432
 136   2.0000      -0.831133       -22.6163
 137   2.0000      -0.821191       -22.3457
 138   2.0000      -0.814962       -22.1762
 139   2.0000      -0.787886       -21.4395
 140   2.0000      -0.782980       -21.3060
 141   2.0000      -0.780251       -21.2317
 142   2.0000      -0.765114       -20.8198
 143   2.0000      -0.750050       -20.4099
 144   2.0000      -0.739819       -20.1315
 145   2.0000      -0.735671       -20.0186
 146   2.0000      -0.724345       -19.7104
 147   2.0000      -0.722119       -19.6499
 148   2.0000      -0.717896       -19.5349
 149   2.0000      -0.711915       -19.3722
 150   2.0000      -0.706092       -19.2137
 151   2.0000      -0.704075       -19.1589
 152   2.0000      -0.702781       -19.1236
 153   2.0000      -0.689281       -18.7563
 154   2.0000      -0.687662       -18.7122
 155   2.0000      -0.682775       -18.5792
 156   2.0000      -0.674890       -18.3647
 157   2.0000      -0.669443       -18.2165
 158   2.0000      -0.659794       -17.9539
 159   2.0000      -0.648978       -17.6596
 160   2.0000      -0.641680       -17.4610
 161   2.0000      -0.638292       -17.3688
 162   2.0000      -0.633919       -17.2498
 163   2.0000      -0.629739       -17.1361
 164   2.0000      -0.621780       -16.9195
 165   2.0000      -0.620887       -16.8952
 166   2.0000      -0.619689       -16.8626
 167   2.0000      -0.615251       -16.7418
 168   2.0000      -0.607030       -16.5181
 169   2.0000      -0.600706       -16.3460
 170   2.0000      -0.598758       -16.2930
 171   2.0000      -0.593066       -16.1381
 172   2.0000      -0.579027       -15.7561
 173   2.0000      -0.573330       -15.6011
 174   2.0000      -0.572347       -15.5744
 175   2.0000      -0.567770       -15.4498
 176   2.0000      -0.561777       -15.2867
 177   2.0000      -0.557644       -15.1743
 178   2.0000      -0.552764       -15.0415
 179   2.0000      -0.551417       -15.0048
 180   2.0000      -0.544172       -14.8077
 181   2.0000      -0.541367       -14.7313
 182   2.0000      -0.540870       -14.7178
 183   2.0000      -0.538978       -14.6663
 184   2.0000      -0.532926       -14.5017
 185   2.0000      -0.528784       -14.3890
 186   2.0000      -0.521357       -14.1869
 187   2.0000      -0.521158       -14.1814
 188   2.0000      -0.518967       -14.1218
 189   2.0000      -0.515750       -14.0343
 190   2.0000      -0.512013       -13.9326
 191   2.0000      -0.509685       -13.8692
 192   2.0000      -0.504915       -13.7394
 193   2.0000      -0.504307       -13.7229
 194   2.0000      -0.502520       -13.6743
 195   2.0000      -0.501601       -13.6492
 196   2.0000      -0.499431       -13.5902
 197   2.0000      -0.499171       -13.5831
 198   2.0000      -0.494121       -13.4457
 199   2.0000      -0.491796       -13.3824
 200   2.0000      -0.489038       -13.3074
 201   2.0000      -0.486102       -13.2275
 202   2.0000      -0.482658       -13.1338
 203   2.0000      -0.477737       -12.9999
 204   2.0000      -0.475965       -12.9517
 205   2.0000      -0.475138       -12.9292
 206   2.0000      -0.471111       -12.8196
 207   2.0000      -0.468590       -12.7510
 208   2.0000      -0.468467       -12.7476
 209   2.0000      -0.465994       -12.6803
 210   2.0000      -0.465541       -12.6680
 211   2.0000      -0.464206       -12.6317
 212   2.0000      -0.464050       -12.6274
 213   2.0000      -0.462322       -12.5804
 214   2.0000      -0.461464       -12.5571
 215   2.0000      -0.460250       -12.5240
 216   2.0000      -0.459352       -12.4996
 217   2.0000      -0.456869       -12.4320
 218   2.0000      -0.453468       -12.3395
 219   2.0000      -0.448359       -12.2005
 220   2.0000      -0.446879       -12.1602
 221   2.0000      -0.444520       -12.0960
 222   2.0000      -0.443684       -12.0732
 223   2.0000      -0.443399       -12.0655
 224   2.0000      -0.442680       -12.0459
 225   2.0000      -0.441928       -12.0255
 226   2.0000      -0.438598       -11.9349
 227   2.0000      -0.436689       -11.8829
 228   2.0000      -0.434198       -11.8151
 229   2.0000      -0.432670       -11.7735
 230   2.0000      -0.431365       -11.7381
 231   2.0000      -0.430664       -11.7190
 232   2.0000      -0.430255       -11.7078
 233   2.0000      -0.427805       -11.6412
 234   2.0000      -0.421913       -11.4808
 235   2.0000      -0.421125       -11.4594
 236   2.0000      -0.417438       -11.3591
 237   2.0000      -0.408105       -11.1051
 238   2.0000      -0.408041       -11.1034
 239   2.0000      -0.407869       -11.0987
 240   2.0000      -0.407323       -11.0838
 241   2.0000      -0.400703       -10.9037
 242   2.0000      -0.392228       -10.6731
 243   2.0000      -0.391582       -10.6555
 244   2.0000      -0.381554       -10.3826
 245   2.0000      -0.379351       -10.3227
 246   2.0000      -0.370134       -10.0719
 247   2.0000      -0.366142        -9.9632
 248   2.0000      -0.364645        -9.9225
 249   2.0000      -0.353768        -9.6265
 250   2.0000      -0.352426        -9.5900
 251   2.0000      -0.344059        -9.3623
 252   2.0000      -0.328031        -8.9262
 253   2.0000      -0.326600        -8.8872
 254   2.0000      -0.324593        -8.8326
 255   2.0000      -0.320450        -8.7199
 256   2.0000      -0.307652        -8.3716
 257   2.0000      -0.298195        -8.1143
 258   2.0000      -0.274835        -7.4786
 259   2.0000      -0.243598        -6.6286
 260   0.0000      -0.142915        -3.8889
 261   0.0000      -0.108606        -2.9553
 262   0.0000      -0.104331        -2.8390
 263   0.0000      -0.068909        -1.8751
 264   0.0000      -0.056370        -1.5339

MULLIKEN ATOMIC CHARGES
-----------------------
   0 C :   -0.130966
   1 C :    0.122881
   2 C :    0.131046
   3 C :   -0.047734
   4 C :   -0.090009
   5 C :    0.038311
   6 C :    0.007251
   7 C :   -0.093996
   8 S :    0.149425
   9 C :   -0.145479
  10 N :    0.107308
  11 C :   -0.100247
  12 C :   -0.037061
  13 C :    0.005144
  14 C :   -0.105556
  15 S :    0.191124
  16 C :   -0.057390
  17 C :    0.033802
  18 C :    0.303585
  19 C :   -0.295527
  20 C :   -0.191400
  21 N :    0.173528
  22 C :   -0.184573
  23 N :    0.174401
  24 C :   -0.061166
  25 C :   -0.183564
  26 S :    0.203189
  27 C :    0.192750
  28 C :   -0.060651
  29 C :   -0.057294
  30 N :   -0.006568
  31 C :   -0.099361
  32 C :   -0.101095
  33 N :   -0.003525
  34 C :   -0.245535
  35 N :    0.255189
  36 C :   -0.243730
  37 N :    0.252057
  38 C :    0.186940
  39 C :   -0.012841
  40 C :   -0.008445
  41 N :   -0.284581
  42 S :    0.587417
  43 N :   -0.281310
  44 C :   -0.179815
  45 C :   -0.061529
  46 C :    0.034263
  47 C :   -0.058671
  48 S :    0.202830
  49 C :   -0.104474
  50 C :    0.015857
  51 C :    0.306997
  52 C :   -0.299866
  53 C :   -0.184662
  54 N :    0.174810
  55 C :   -0.193223
  56 N :    0.175487
  57 C :   -0.061729
  58 C :   -0.034469
  59 S :    0.197345
  60 C :   -0.040700
  61 C :   -0.053151
  62 C :    0.136367
  63 C :   -0.023180
  64 C :   -0.095613
  65 C :    0.036364
  66 C :    0.007289
  67 C :   -0.050183
  68 S :    0.140050
  69 C :   -0.141801
  70 N :    0.099217
  71 H :    0.033629
  72 H :   -0.004855
  73 H :    0.003050
  74 H :   -0.008999
  75 H :    0.013514
  76 H :    0.022685
  77 H :    0.020915
  78 H :    0.016938
  79 H :   -0.009684
  80 H :   -0.008508
  81 H :    0.001561
  82 H :   -0.009799
Sum of atomic charges:   -0.0000000

LOEWDIN ATOMIC CHARGES
----------------------
   0 C :   -0.167378
   1 C :   -0.078965
   2 C :   -0.036393
   3 C :    0.016575
   4 C :   -0.067501
   5 C :    0.007984
   6 C :   -0.028186
   7 C :   -0.143396
   8 S :    0.436122
   9 C :   -0.030346
  10 N :   -0.052229
  11 C :   -0.148055
  12 C :   -0.037467
  13 C :   -0.061314
  14 C :   -0.184335
  15 S :    0.481586
  16 C :   -0.171968
  17 C :   -0.076777
  18 C :    0.080387
  19 C :   -0.100481
  20 C :   -0.017310
  21 N :   -0.029719
  22 C :   -0.016415
  23 N :   -0.031235
  24 C :   -0.003849
  25 C :   -0.170789
  26 S :    0.508045
  27 C :   -0.036096
  28 C :   -0.016849
  29 C :   -0.015398
  30 N :   -0.017374
  31 C :   -0.022307
  32 C :   -0.024022
  33 N :   -0.016080
  34 C :   -0.039771
  35 N :   -0.000045
  36 C :   -0.039391
  37 N :    0.000758
  38 C :   -0.040458
  39 C :   -0.036582
  40 C :   -0.037399
  41 N :   -0.270052
  42 S :    0.705472
  43 N :   -0.271087
  44 C :   -0.168098
  45 C :   -0.006604
  46 C :   -0.074950
  47 C :   -0.176086
  48 S :    0.508487
  49 C :   -0.177659
  50 C :   -0.062583
  51 C :    0.080694
  52 C :   -0.100698
  53 C :   -0.016390
  54 N :   -0.031118
  55 C :   -0.017318
  56 N :   -0.031468
  57 C :   -0.031940
  58 C :   -0.174680
  59 S :    0.485710
  60 C :   -0.163712
  61 C :   -0.057531
  62 C :   -0.042716
  63 C :    0.017130
  64 C :   -0.072366
  65 C :    0.005563
  66 C :   -0.030108
  67 C :   -0.141777
  68 S :    0.423148
  69 C :   -0.029897
  70 N :   -0.058128
  71 H :    0.023729
  72 H :    0.040507
  73 H :    0.041907
  74 H :    0.036643
  75 H :    0.040364
  76 H :    0.038698
  77 H :    0.038399
  78 H :    0.038133
  79 H :    0.028786
  80 H :    0.040509
  81 H :    0.041003
  82 H :    0.036505

  Mayer bond orders larger than 0.100000
B(  0-C ,  1-C ) :   1.5922 B(  0-C ,  8-S ) :   1.1265 B(  0-C , 71-H ) :   0.9616
B(  1-C ,  2-C ) :   1.1367 B(  1-C , 11-C ) :   1.0570 B(  2-C ,  3-C ) :   1.3016
B(  2-C ,  7-C ) :   1.3112 B(  3-C ,  4-C ) :   1.4232 B(  3-C , 72-H ) :   0.9924
B(  4-C ,  5-C ) :   1.3270 B(  4-C ,  9-C ) :   1.0587 B(  5-C ,  6-C ) :   1.4345
B(  5-C , 73-H ) :   0.9928 B(  6-C ,  7-C ) :   1.3368 B(  6-C , 74-H ) :   0.9961
B(  7-C ,  8-S ) :   1.0889 B(  9-C , 10-N ) :   3.0542 B( 11-C , 12-C ) :   1.4827
B( 11-C , 15-S ) :   1.1176 B( 12-C , 13-C ) :   1.2759 B( 12-C , 75-H ) :   0.9915
B( 13-C , 14-C ) :   1.4418 B( 13-C , 18-C ) :   0.9926 B( 14-C , 15-S ) :   1.1119
B( 14-C , 16-C ) :   1.1996 B( 16-C , 17-C ) :   1.3984 B( 16-C , 26-S ) :   1.0930
B( 17-C , 18-C ) :   0.9901 B( 17-C , 24-C ) :   1.2862 B( 18-C , 19-C ) :   1.7126
B( 19-C , 20-C ) :   1.1316 B( 19-C , 22-C ) :   1.1386 B( 20-C , 21-N ) :   2.9877
B( 22-C , 23-N ) :   2.9859 B( 24-C , 25-C ) :   1.4045 B( 24-C , 76-H ) :   0.9817
B( 25-C , 26-S ) :   1.0800 B( 25-C , 27-C ) :   1.2196 B( 27-C , 28-C ) :   1.2496
B( 27-C , 38-C ) :   0.1209 B( 27-C , 40-C ) :   1.1888 B( 28-C , 29-C ) :   1.1049
B( 28-C , 33-N ) :   1.4086 B( 29-C , 30-N ) :   1.4022 B( 29-C , 38-C ) :   1.2517
B( 30-N , 31-C ) :   1.6921 B( 31-C , 32-C ) :   1.2209 B( 31-C , 36-C ) :   1.1680
B( 32-C , 33-N ) :   1.6881 B( 32-C , 34-C ) :   1.1704 B( 34-C , 35-N ) :   3.0404
B( 36-C , 37-N ) :   3.0387 B( 38-C , 39-C ) :   1.1921 B( 38-C , 44-C ) :   1.2157
B( 39-C , 40-C ) :   1.1003 B( 39-C , 43-N ) :   1.5213 B( 40-C , 41-N ) :   1.5173
B( 41-N , 42-S ) :   1.2850 B( 41-N , 43-N ) :   0.1455 B( 42-S , 43-N ) :   1.2821
B( 44-C , 45-C ) :   1.4087 B( 44-C , 48-S ) :   1.0819 B( 45-C , 46-C ) :   1.2839
B( 45-C , 77-H ) :   0.9814 B( 46-C , 47-C ) :   1.3999 B( 46-C , 51-C ) :   0.9916
B( 47-C , 48-S ) :   1.0896 B( 47-C , 49-C ) :   1.2023 B( 49-C , 50-C ) :   1.4318
B( 49-C , 59-S ) :   1.1209 B( 50-C , 51-C ) :   0.9938 B( 50-C , 57-C ) :   1.2947
B( 51-C , 52-C ) :   1.7109 B( 52-C , 53-C ) :   1.1385 B( 52-C , 55-C ) :   1.1340
B( 53-C , 54-N ) :   2.9865 B( 55-C , 56-N ) :   2.9937 B( 57-C , 58-C ) :   1.4641
B( 57-C , 78-H ) :   0.9887 B( 58-C , 59-S ) :   1.1099 B( 58-C , 60-C ) :   1.1519
B( 60-C , 61-C ) :   1.5671 B( 60-C , 68-S ) :   1.0874 B( 61-C , 62-C ) :   1.1516
B( 61-C , 79-H ) :   0.9949 B( 62-C , 63-C ) :   1.2786 B( 62-C , 67-C ) :   1.3112
B( 63-C , 64-C ) :   1.4209 B( 63-C , 80-H ) :   1.0019 B( 64-C , 65-C ) :   1.3225
B( 64-C , 69-C ) :   1.0596 B( 65-C , 66-C ) :   1.4308 B( 65-C , 81-H ) :   0.9920
B( 66-C , 67-C ) :   1.3420 B( 66-C , 82-H ) :   0.9951 B( 67-C , 68-S ) :   1.0667
B( 69-C , 70-N ) :   3.0526

-----------------------------------------------------------------------------
         ABSORPTION SPECTRUM VIA TRANSITION ELECTRIC DIPOLE MOMENTS
-----------------------------------------------------------------------------
State   Energy  Wavelength   fosc         T2         TX        TY        TZ
        (cm-1)    (nm)                  (au**2)     (au)      (au)      (au)
-----------------------------------------------------------------------------
   0    6789.3   1472.9   0.521413914  25.28309   1.40238   4.82636  -0.15050
   1   12578.3    795.0   0.005897987   0.15437  -0.02393   0.34102   0.19366
   2   13264.8    753.9   0.021590224   0.53583  -0.22157  -0.69539   0.05635
   3   15607.8    640.7   0.003109109   0.06558   0.05449  -0.05430  -0.24426
   4   20848.5    479.7   0.168957304   2.66795   0.38766   1.58671   0.00488
   5   21904.9    456.5   0.058772674   0.88330   0.88481   0.29843  -0.10656
   6   22774.7    439.1   0.302733398   4.37606   0.44010   2.04480  -0.03396
   7   23379.0    427.7   0.010664050   0.15017  -0.02775  -0.38644  -0.00794
   8   23494.4    425.6   0.171648030   2.40519  -0.40898  -1.49596   0.00510
   9   24117.3    414.6   0.012275847   0.16757   0.37598  -0.14139  -0.07886
  10   24505.2    408.1   0.006134417   0.08241  -0.01256  -0.27336  -0.08677
  11   25339.1    394.6   0.001830180   0.02378   0.08002   0.03632  -0.12671
  12   25739.9    388.5   0.023153542   0.29613   0.51442   0.13775  -0.11191
  13   26892.7    371.8   0.034361665   0.42064   0.61872   0.05383  -0.18689
  14   27840.8    359.2   1.646560202  19.47028   0.60457   4.36322   0.25908
  15   28711.8    348.3   0.023157658   0.26553  -0.09267   0.50538   0.03916
  16   28993.0    344.9   0.001849692   0.02100   0.12376  -0.07238   0.02114
  17   29337.2    340.9   0.005073011   0.05693  -0.18179  -0.15336  -0.01904
  18   29913.9    334.3   0.045659280   0.50249  -0.49549   0.50601   0.03061
  19   30226.7    330.8   0.133696325   1.45614  -0.39180   1.11566   0.24073
  20   30511.5    327.7   0.077396357   0.83509  -0.68197   0.45105   0.40812
  21   30739.2    325.3   0.173011132   1.85292   0.94679   0.86629  -0.45393
  22   31052.4    322.0   0.006202954   0.06576   0.23641   0.01857  -0.09760
  23   31177.2    320.7   0.089208646   0.94199   0.52638   0.79305  -0.18968
  24   31383.9    318.6   0.171288699   1.79679  -1.26025  -0.17572   0.42151
  25   31767.8    314.8   0.329511251   3.41475  -1.72031  -0.17777   0.65091
  26   32206.1    310.5   0.087316868   0.89255   0.48814   0.80081  -0.11393
  27   32379.4    308.8   0.933031662   9.48643  -2.80047   1.09762   0.66257
  28   33207.3    301.1   0.268112860   2.65803  -1.56967   0.30031   0.32246
  29   33503.4    298.5   0.138051136   1.35652  -0.95487   0.57304   0.34114
  30   33743.3    296.4   0.157785879   1.53942  -0.78738   0.89554   0.34271
  31   33869.9    295.2   0.025494916   0.24781  -0.33984   0.33827   0.13374
  32   33983.6    294.3   0.022157448   0.21465  -0.32525  -0.32990   0.00480
  33   34271.6    291.8   0.013757116   0.13215   0.23486  -0.23986  -0.13948
  34   35091.9    285.0   0.240107456   2.25255   0.90872   1.17242  -0.22851
  35   35705.0    280.1   0.256982066   2.36946   0.64436  -1.34562  -0.37892
  36   36159.1    276.6   0.116676363   1.06228   0.96390  -0.18777  -0.31292
  37   36443.1    274.4   0.018794528   0.16978  -0.28778   0.04460   0.29150
  38   36943.9    270.7   0.198900064   1.77242   0.84032  -0.90479  -0.49764
  39   37471.8    266.9   0.013641874   0.11985  -0.33380  -0.05192   0.07571
  40   37805.1    264.5   0.018732663   0.16313  -0.33059  -0.23200   0.00397
  41   37875.3    264.0   0.031152989   0.27078  -0.35938  -0.37490   0.03287
  42   37892.6    263.9   0.013329220   0.11580  -0.32015   0.00133   0.11536
  43   38259.9    261.4   0.256705889   2.20886  -1.44510   0.06967   0.34013
  44   38543.6    259.4   0.123955461   1.05874  -0.99210  -0.08164   0.26040
  45   38717.3    258.3   0.000278299   0.00237  -0.03148   0.02800  -0.02432
  46   38960.8    256.7   0.134261033   1.13448   0.10148   1.05688   0.08482
  47   39473.3    253.3   0.035739979   0.29808   0.47495  -0.25862  -0.07494
  48   39589.8    252.6   0.023853417   0.19836   0.40877   0.01323  -0.17631
  49   39731.2    251.7   0.007937524   0.06577   0.04669  -0.10353   0.22994
  50   39912.5    250.5   0.008653732   0.07138  -0.21896   0.15039   0.02860
  51   40322.6    248.0   0.002806089   0.02291   0.03274  -0.12199  -0.08341

FINAL SINGLE POINT ENERGY     -5428.748116089226

DIPOLE MOMENT
-------------
                                X             Y             Z
Electronic contribution:     -2.39800       3.16432       2.95796
Nuclear contribution   :      3.63754      -2.43067      -3.92806
                        -----------------------------------------
Total Dipole Moment    :      1.23955       0.73365      -0.97011
                        -----------------------------------------
Magnitude (a.u.)       :      1.73661
Magnitude (Debye)      :      4.41412

Rotational constants in cm-1:     0.002328     0.000231     0.000211
Rotational constants in MHz :    69.791364     6.925816     6.337574

                             ****ORCA TERMINATED NORMALLY****
TOTAL RUN TIME: 0 days 0 hours 8 minutes 37 seconds 687 msec
