                         Program Version 4.2.0 -  RELEASE  -
|  1> # ORCA input file
|  2> # SCF done       -203.878646790747          0.000958320254
|  3> ! CAM-B3LYP def2-SVP def2/J RIJCOSX Grid4 TightSCF
|  4> %maxcore 5000
|  5> %tddft
|  6>     Mode sTDDFT
|  7>     Ethresh 5.0
|  8>     maxcore 5000
|  9> end
| 10>
| 11> %pal
| 12>   nprocs 6
| 13>   end
| 14> * xyz 0 1
| 15>    C        0.03772         1.58459         3.83945
| 16>    C        0.82172         1.00756         2.87508
| 17>    C        2.07918         0.41807         3.12750
| 18>    N        3.10597        -0.07570         3.26611
| 19>    C        0.51148         0.91907         1.50126
| 20>    N        0.33676         0.80641         0.37191
| 21>    C        0.38195         1.68539         5.25442
| 22>    C       -0.65644         2.37486         5.92893
| 23>    C       -0.62749         2.63017         7.27855
| 24>    C        0.48148         2.18015         8.00208
| 25>    C        1.51427         1.49025         7.32235
| 26>    C        1.48422         1.23479         5.95661
| 27>    S        2.78789         1.01953         8.40515
| 28>    C        1.92907         1.74521         9.73797
| 29>    C        0.74839         2.31208         9.39183
| 30>   Br        2.67084         1.68576        11.45883
| 31>    C       -1.70331         2.73218         4.96041
| 32>    O       -2.73387         3.33870         5.20127
| 33>    C       -1.26130         2.21178         3.66222
| 34>    C       -1.97374         2.28026         2.49341
| 35>    C       -3.23541         2.83737         2.22896
| 36>    C       -3.81986         2.76068         0.95838
| 37>    C       -5.06927         3.34883         0.91373
| 38>    C       -5.44531         3.89485         2.16285
| 39>    S       -4.27505         3.67658         3.37915
| 40>    C       -6.74023         4.45418         2.01866
| 41>    C       -7.18276         4.26234         0.69923
| 42>    C       -6.14309         3.57187        -0.04527
| 43>    C       -6.16395         3.21374        -1.36029
| 44>    C       -5.08572         2.53848        -1.97211
| 45>    N       -4.21432         1.98945        -2.47508
| 46>    C       -7.25858         3.49856        -2.20481
| 47>    N       -8.13951         3.73241        -2.89995
| 48>    C       -8.47037         4.75919         0.47885
| 49>    C       -9.00386         5.33400         1.61384
| 50>    S       -7.89377         5.26276         2.97642
| 51>    C      -10.30017         5.93399         1.80516
| 52>    C      -10.55065         6.76145         2.90487
| 53>    C      -11.78989         7.31773         3.11760
| 54>    F      -11.93839         8.08826         4.20855
| 55>    C      -12.87933         7.08622         2.26374
| 56>    C      -12.62874         6.25776         1.16435
| 57>    C      -11.38621         5.71103         0.94525
| 58>    F      -11.24412         4.91265        -0.12651
| 59>    C      -14.19617         7.62062         2.50160
| 60>    C      -14.58404         8.63346         3.35453
| 61>    C      -15.96654         8.83505         3.33615
| 62>    C      -16.63527         7.96073         2.46385
| 63>    S      -15.56576         6.91121         1.65530
| 64>    C      -18.03062         8.20434         2.55312
| 65>    C      -18.23777         9.23973         3.48439
| 66>    C      -16.94955         9.67318         4.00224
| 67>    C      -16.73469        10.63998         4.93931
| 68>    C      -15.44344        11.00191         5.37898
| 69>    N      -14.39670        11.31043         5.72954
| 70>    C      -17.80941        11.34515         5.52212
| 71>    N      -18.69450        11.90772         5.98585
| 72>    C      -19.58279         9.51272         3.69759
| 73>    C      -20.40990         8.69230         2.94482
| 74>    S      -19.48828         7.59717         1.92216
| 75>    C      -21.82202         8.65971         2.89798
| 76>    C      -22.71266         9.12654         3.81460
| 77>    C      -22.59040         9.56042         5.19209
| 78>    C      -21.68958         9.11063         6.12209
| 79>    C      -21.72113         9.47322         7.48562
| 80>    N      -21.70581         9.72784         8.60434
| 81>    C      -20.68829         8.15600         5.85858
| 82>    N      -19.87715         7.35779         5.70464
| 83>    C      -23.77992        10.34650         5.50234
| 84>    C      -24.71829        10.19022         4.45048
| 85>    C      -24.12444         9.35531         3.38994
| 86>    O      -24.63916         8.96730         2.36744
| 87>    C      -25.96229        10.77291         4.48122
| 88>    C      -26.28815        11.55685         5.59300
| 89>    C      -25.33423        11.72544         6.62641
| 90>    C      -24.07982        11.12840         6.60109
| 91>    S      -25.93872        12.74592         7.89434
| 92>    C      -27.44651        12.92523         7.03688
| 93>    C      -27.49567        12.25820         5.85899
| 94>   Br      -28.81165        13.97601         7.77619
| 95>    H       -1.43484         3.15870         7.76066
| 96>    H        2.29619         0.70416         5.48877
| 97>    H        0.09194         2.80276        10.08697
| 98>    H       -1.52412         1.82798         1.61770
| 99>    H       -3.32677         2.28325         0.13002
|100>    H       -8.98423         4.70993        -0.46299
|101>    H       -9.76401         6.97784         3.61123
|102>    H      -13.41840         6.03153         0.46439
|103>    H      -13.90107         9.20211         3.95750
|104>    H      -19.95666        10.29045         4.33824
|105>    H      -22.26625         8.25933         1.99162
|106>    H      -26.66248        10.62932         3.67340
|107>    H      -23.38114        11.29065         7.40509
|108>    H      -28.34750        12.25954         5.20382
|109> *
|110>
|111>                          ****END OF INPUT****

CARTESIAN COORDINATES (ANGSTROEM)
---------------------------------
  C      0.037720    1.584590    3.839450
  C      0.821720    1.007560    2.875080
  C      2.079180    0.418070    3.127500
  N      3.105970   -0.075700    3.266110
  C      0.511480    0.919070    1.501260
  N      0.336760    0.806410    0.371910
  C      0.381950    1.685390    5.254420
  C     -0.656440    2.374860    5.928930
  C     -0.627490    2.630170    7.278550
  C      0.481480    2.180150    8.002080
  C      1.514270    1.490250    7.322350
  C      1.484220    1.234790    5.956610
  S      2.787890    1.019530    8.405150
  C      1.929070    1.745210    9.737970
  C      0.748390    2.312080    9.391830
  Br     2.670840    1.685760   11.458830
  C     -1.703310    2.732180    4.960410
  O     -2.733870    3.338700    5.201270
  C     -1.261300    2.211780    3.662220
  C     -1.973740    2.280260    2.493410
  C     -3.235410    2.837370    2.228960
  C     -3.819860    2.760680    0.958380
  C     -5.069270    3.348830    0.913730
  C     -5.445310    3.894850    2.162850
  S     -4.275050    3.676580    3.379150
  C     -6.740230    4.454180    2.018660
  C     -7.182760    4.262340    0.699230
  C     -6.143090    3.571870   -0.045270
  C     -6.163950    3.213740   -1.360290
  C     -5.085720    2.538480   -1.972110
  N     -4.214320    1.989450   -2.475080
  C     -7.258580    3.498560   -2.204810
  N     -8.139510    3.732410   -2.899950
  C     -8.470370    4.759190    0.478850
  C     -9.003860    5.334000    1.613840
  S     -7.893770    5.262760    2.976420
  C    -10.300170    5.933990    1.805160
  C    -10.550650    6.761450    2.904870
  C    -11.789890    7.317730    3.117600
  F    -11.938390    8.088260    4.208550
  C    -12.879330    7.086220    2.263740
  C    -12.628740    6.257760    1.164350
  C    -11.386210    5.711030    0.945250
  F    -11.244120    4.912650   -0.126510
  C    -14.196170    7.620620    2.501600
  C    -14.584040    8.633460    3.354530
  C    -15.966540    8.835050    3.336150
  C    -16.635270    7.960730    2.463850
  S    -15.565760    6.911210    1.655300
  C    -18.030620    8.204340    2.553120
  C    -18.237770    9.239730    3.484390
  C    -16.949550    9.673180    4.002240
  C    -16.734690   10.639980    4.939310
  C    -15.443440   11.001910    5.378980
  N    -14.396700   11.310430    5.729540
  C    -17.809410   11.345150    5.522120
  N    -18.694500   11.907720    5.985850
  C    -19.582790    9.512720    3.697590
  C    -20.409900    8.692300    2.944820
  S    -19.488280    7.597170    1.922160
  C    -21.822020    8.659710    2.897980
  C    -22.712660    9.126540    3.814600
  C    -22.590400    9.560420    5.192090
  C    -21.689580    9.110630    6.122090
  C    -21.721130    9.473220    7.485620
  N    -21.705810    9.727840    8.604340
  C    -20.688290    8.156000    5.858580
  N    -19.877150    7.357790    5.704640
  C    -23.779920   10.346500    5.502340
  C    -24.718290   10.190220    4.450480
  C    -24.124440    9.355310    3.389940
  O    -24.639160    8.967300    2.367440
  C    -25.962290   10.772910    4.481220
  C    -26.288150   11.556850    5.593000
  C    -25.334230   11.725440    6.626410
  C    -24.079820   11.128400    6.601090
  S    -25.938720   12.745920    7.894340
  C    -27.446510   12.925230    7.036880
  C    -27.495670   12.258200    5.858990
  Br   -28.811650   13.976010    7.776190
  H     -1.434840    3.158700    7.760660
  H      2.296190    0.704160    5.488770
  H      0.091940    2.802760   10.086970
  H     -1.524120    1.827980    1.617700
  H     -3.326770    2.283250    0.130020
  H     -8.984230    4.709930   -0.462990
  H     -9.764010    6.977840    3.611230
  H    -13.418400    6.031530    0.464390
  H    -13.901070    9.202110    3.957500
  H    -19.956660   10.290450    4.338240
  H    -22.266250    8.259330    1.991620
  H    -26.662480   10.629320    3.673400
  H    -23.381140   11.290650    7.405090
  H    -28.347500   12.259540    5.203820

 Total Charge           Charge          ....    0
 Multiplicity           Mult            ....    1
 Number of Electrons    NEL             ....  630
 Basis Dimension        Dim             .... 1250

ORBITAL ENERGIES
----------------

  NO   OCC          E(Eh)            E(eV)
   0   2.0000    -482.889438    -13140.0896
   1   2.0000    -482.887754    -13140.0438
   2   2.0000     -89.001459     -2421.8528
   3   2.0000     -89.000890     -2421.8373
   4   2.0000     -89.000240     -2421.8197
   5   2.0000     -88.995186     -2421.6821
   6   2.0000     -88.980391     -2421.2795
   7   2.0000     -88.978339     -2421.2237
   8   2.0000     -62.567175     -1702.5394
   9   2.0000     -62.565476     -1702.4932
  10   2.0000     -56.401132     -1534.7528
  11   2.0000     -56.399431     -1534.7065
  12   2.0000     -56.398402     -1534.6786
  13   2.0000     -56.398370     -1534.6777
  14   2.0000     -56.396705     -1534.6324
  15   2.0000     -56.396676     -1534.6316
  16   2.0000     -24.806794      -675.0272
  17   2.0000     -24.806627      -675.0226
  18   2.0000     -19.230969      -523.3013
  19   2.0000     -19.220515      -523.0168
  20   2.0000     -14.437546      -392.8656
  21   2.0000     -14.435574      -392.8119
  22   2.0000     -14.434667      -392.7873
  23   2.0000     -14.433916      -392.7668
  24   2.0000     -14.422263      -392.4497
  25   2.0000     -14.421279      -392.4229
  26   2.0000     -14.418780      -392.3550
  27   2.0000     -14.418163      -392.3382
  28   2.0000     -10.385794      -282.6118
  29   2.0000     -10.385474      -282.6031
  30   2.0000     -10.378372      -282.4099
  31   2.0000     -10.372351      -282.2460
  32   2.0000     -10.371673      -282.2276
  33   2.0000     -10.370752      -282.2025
  34   2.0000     -10.363581      -282.0074
  35   2.0000     -10.361577      -281.9528
  36   2.0000     -10.359251      -281.8896
  37   2.0000     -10.358428      -281.8672
  38   2.0000     -10.348904      -281.6080
  39   2.0000     -10.348259      -281.5904
  40   2.0000     -10.347659      -281.5741
  41   2.0000     -10.347493      -281.5696
  42   2.0000     -10.347070      -281.5581
  43   2.0000     -10.342796      -281.4418
  44   2.0000     -10.340989      -281.3926
  45   2.0000     -10.339849      -281.3616
  46   2.0000     -10.338925      -281.3364
  47   2.0000     -10.338725      -281.3310
  48   2.0000     -10.337704      -281.3032
  49   2.0000     -10.335336      -281.2388
  50   2.0000     -10.334573      -281.2180
  51   2.0000     -10.333501      -281.1889
  52   2.0000     -10.332848      -281.1711
  53   2.0000     -10.332344      -281.1574
  54   2.0000     -10.331885      -281.1449
  55   2.0000     -10.330894      -281.1179
  56   2.0000     -10.329847      -281.0894
  57   2.0000     -10.329346      -281.0758
  58   2.0000     -10.328760      -281.0599
  59   2.0000     -10.328252      -281.0460
  60   2.0000     -10.323831      -280.9257
  61   2.0000     -10.323629      -280.9202
  62   2.0000     -10.321714      -280.8681
  63   2.0000     -10.320506      -280.8352
  64   2.0000     -10.317852      -280.7630
  65   2.0000     -10.316699      -280.7317
  66   2.0000     -10.315150      -280.6895
  67   2.0000     -10.314068      -280.6601
  68   2.0000     -10.313961      -280.6572
  69   2.0000     -10.313081      -280.6332
  70   2.0000     -10.313060      -280.6326
  71   2.0000     -10.312497      -280.6173
  72   2.0000     -10.311596      -280.5928
  73   2.0000     -10.311500      -280.5902
  74   2.0000     -10.311081      -280.5788
  75   2.0000     -10.310881      -280.5733
  76   2.0000     -10.310579      -280.5651
  77   2.0000     -10.309474      -280.5351
  78   2.0000     -10.309463      -280.5347
  79   2.0000     -10.309401      -280.5331
  80   2.0000     -10.307822      -280.4901
  81   2.0000     -10.305880      -280.4373
  82   2.0000     -10.305541      -280.4280
  83   2.0000     -10.304974      -280.4126
  84   2.0000     -10.301400      -280.3153
  85   2.0000     -10.299405      -280.2611
  86   2.0000     -10.298948      -280.2486
  87   2.0000     -10.297390      -280.2062
  88   2.0000      -8.796626      -239.3684
  89   2.0000      -8.794914      -239.3218
  90   2.0000      -8.096045      -220.3046
  91   2.0000      -8.095401      -220.2871
  92   2.0000      -8.094797      -220.2706
  93   2.0000      -8.087391      -220.0691
  94   2.0000      -8.076417      -219.7705
  95   2.0000      -8.074392      -219.7154
  96   2.0000      -6.632977      -180.4925
  97   2.0000      -6.631243      -180.4453
  98   2.0000      -6.618336      -180.0941
  99   2.0000      -6.618133      -180.0886
 100   2.0000      -6.616650      -180.0482
 101   2.0000      -6.616414      -180.0418
 102   2.0000      -6.065235      -165.0434
 103   2.0000      -6.064608      -165.0264
 104   2.0000      -6.063987      -165.0095
 105   2.0000      -6.060999      -164.9282
 106   2.0000      -6.060459      -164.9135
 107   2.0000      -6.059816      -164.8960
 108   2.0000      -6.058599      -164.8629
 109   2.0000      -6.057848      -164.8424
 110   2.0000      -6.057277      -164.8269
 111   2.0000      -6.056820      -164.8145
 112   2.0000      -6.052035      -164.6842
 113   2.0000      -6.049992      -164.6286
 114   2.0000      -6.046099      -164.5227
 115   2.0000      -6.044081      -164.4678
 116   2.0000      -6.041805      -164.4059
 117   2.0000      -6.039788      -164.3510
 118   2.0000      -6.037645      -164.2927
 119   2.0000      -6.035605      -164.2372
 120   2.0000      -2.748788       -74.7983
 121   2.0000      -2.747090       -74.7521
 122   2.0000      -2.744761       -74.6887
 123   2.0000      -2.744594       -74.6842
 124   2.0000      -2.743010       -74.6411
 125   2.0000      -2.742880       -74.6376
 126   2.0000      -2.732963       -74.3677
 127   2.0000      -2.732933       -74.3669
 128   2.0000      -2.731255       -74.3212
 129   2.0000      -2.731237       -74.3207
 130   2.0000      -1.322235       -35.9798
 131   2.0000      -1.321981       -35.9729
 132   2.0000      -1.146438       -31.1962
 133   2.0000      -1.136210       -30.9178
 134   2.0000      -1.055312       -28.7165
 135   2.0000      -1.052811       -28.6485
 136   2.0000      -1.029099       -28.0032
 137   2.0000      -1.028585       -27.9892
 138   2.0000      -1.027651       -27.9638
 139   2.0000      -1.026788       -27.9403
 140   2.0000      -1.018610       -27.7178
 141   2.0000      -1.018454       -27.7135
 142   2.0000      -1.014446       -27.6045
 143   2.0000      -1.013446       -27.5773
 144   2.0000      -1.011684       -27.5293
 145   2.0000      -1.008443       -27.4411
 146   2.0000      -0.998889       -27.1811
 147   2.0000      -0.998582       -27.1728
 148   2.0000      -0.996105       -27.1054
 149   2.0000      -0.994496       -27.0616
 150   2.0000      -0.991076       -26.9686
 151   2.0000      -0.970037       -26.3961
 152   2.0000      -0.964045       -26.2330
 153   2.0000      -0.948067       -25.7982
 154   2.0000      -0.947083       -25.7714
 155   2.0000      -0.932461       -25.3735
 156   2.0000      -0.924578       -25.1590
 157   2.0000      -0.914068       -24.8730
 158   2.0000      -0.912723       -24.8365
 159   2.0000      -0.909597       -24.7514
 160   2.0000      -0.899739       -24.4831
 161   2.0000      -0.891832       -24.2680
 162   2.0000      -0.891258       -24.2524
 163   2.0000      -0.889735       -24.2109
 164   2.0000      -0.879589       -23.9348
 165   2.0000      -0.879143       -23.9227
 166   2.0000      -0.869388       -23.6573
 167   2.0000      -0.865812       -23.5599
 168   2.0000      -0.865042       -23.5390
 169   2.0000      -0.862123       -23.4596
 170   2.0000      -0.855520       -23.2799
 171   2.0000      -0.834966       -22.7206
 172   2.0000      -0.833153       -22.6712
 173   2.0000      -0.822856       -22.3911
 174   2.0000      -0.804587       -21.8939
 175   2.0000      -0.793449       -21.5908
 176   2.0000      -0.785043       -21.3621
 177   2.0000      -0.783489       -21.3198
 178   2.0000      -0.771408       -20.9911
 179   2.0000      -0.767782       -20.8924
 180   2.0000      -0.761127       -20.7113
 181   2.0000      -0.748500       -20.3677
 182   2.0000      -0.741459       -20.1761
 183   2.0000      -0.724929       -19.7263
 184   2.0000      -0.719235       -19.5714
 185   2.0000      -0.710024       -19.3207
 186   2.0000      -0.706246       -19.2179
 187   2.0000      -0.703112       -19.1326
 188   2.0000      -0.700015       -19.0484
 189   2.0000      -0.697178       -18.9712
 190   2.0000      -0.694756       -18.9053
 191   2.0000      -0.691700       -18.8221
 192   2.0000      -0.686255       -18.6739
 193   2.0000      -0.680268       -18.5110
 194   2.0000      -0.673955       -18.3392
 195   2.0000      -0.664697       -18.0873
 196   2.0000      -0.662243       -18.0205
 197   2.0000      -0.655510       -17.8373
 198   2.0000      -0.647554       -17.6208
 199   2.0000      -0.644766       -17.5450
 200   2.0000      -0.639294       -17.3961
 201   2.0000      -0.638973       -17.3873
 202   2.0000      -0.631550       -17.1854
 203   2.0000      -0.629097       -17.1186
 204   2.0000      -0.626439       -17.0463
 205   2.0000      -0.624815       -17.0021
 206   2.0000      -0.621581       -16.9141
 207   2.0000      -0.620272       -16.8785
 208   2.0000      -0.607419       -16.5287
 209   2.0000      -0.603307       -16.4168
 210   2.0000      -0.600199       -16.3322
 211   2.0000      -0.593454       -16.1487
 212   2.0000      -0.588384       -16.0108
 213   2.0000      -0.585909       -15.9434
 214   2.0000      -0.582400       -15.8479
 215   2.0000      -0.572051       -15.5663
 216   2.0000      -0.571142       -15.5416
 217   2.0000      -0.564518       -15.3613
 218   2.0000      -0.558587       -15.1999
 219   2.0000      -0.557052       -15.1582
 220   2.0000      -0.556743       -15.1497
 221   2.0000      -0.555512       -15.1163
 222   2.0000      -0.551978       -15.0201
 223   2.0000      -0.549925       -14.9642
 224   2.0000      -0.548323       -14.9206
 225   2.0000      -0.546608       -14.8740
 226   2.0000      -0.544503       -14.8167
 227   2.0000      -0.540860       -14.7175
 228   2.0000      -0.539670       -14.6852
 229   2.0000      -0.536704       -14.6045
 230   2.0000      -0.528369       -14.3777
 231   2.0000      -0.526007       -14.3134
 232   2.0000      -0.524915       -14.2837
 233   2.0000      -0.522387       -14.2149
 234   2.0000      -0.520428       -14.1616
 235   2.0000      -0.515589       -14.0299
 236   2.0000      -0.514075       -13.9887
 237   2.0000      -0.513580       -13.9752
 238   2.0000      -0.511831       -13.9276
 239   2.0000      -0.510309       -13.8862
 240   2.0000      -0.508406       -13.8344
 241   2.0000      -0.505649       -13.7594
 242   2.0000      -0.504026       -13.7153
 243   2.0000      -0.502492       -13.6735
 244   2.0000      -0.502429       -13.6718
 245   2.0000      -0.500887       -13.6298
 246   2.0000      -0.498772       -13.5723
 247   2.0000      -0.496432       -13.5086
 248   2.0000      -0.494822       -13.4648
 249   2.0000      -0.493039       -13.4163
 250   2.0000      -0.489364       -13.3163
 251   2.0000      -0.486988       -13.2516
 252   2.0000      -0.478919       -13.0321
 253   2.0000      -0.476144       -12.9565
 254   2.0000      -0.472150       -12.8478
 255   2.0000      -0.469487       -12.7754
 256   2.0000      -0.468845       -12.7579
 257   2.0000      -0.467402       -12.7187
 258   2.0000      -0.464946       -12.6518
 259   2.0000      -0.464339       -12.6353
 260   2.0000      -0.463911       -12.6236
 261   2.0000      -0.461596       -12.5607
 262   2.0000      -0.460969       -12.5436
 263   2.0000      -0.457261       -12.4427
 264   2.0000      -0.455291       -12.3891
 265   2.0000      -0.454504       -12.3677
 266   2.0000      -0.453065       -12.3285
 267   2.0000      -0.452048       -12.3009
 268   2.0000      -0.450694       -12.2640
 269   2.0000      -0.447720       -12.1831
 270   2.0000      -0.446911       -12.1611
 271   2.0000      -0.446314       -12.1448
 272   2.0000      -0.445015       -12.1095
 273   2.0000      -0.444732       -12.1018
 274   2.0000      -0.444110       -12.0848
 275   2.0000      -0.444051       -12.0833
 276   2.0000      -0.443385       -12.0651
 277   2.0000      -0.442200       -12.0329
 278   2.0000      -0.440298       -11.9811
 279   2.0000      -0.439104       -11.9486
 280   2.0000      -0.432672       -11.7736
 281   2.0000      -0.432131       -11.7589
 282   2.0000      -0.431809       -11.7501
 283   2.0000      -0.430641       -11.7183
 284   2.0000      -0.430317       -11.7095
 285   2.0000      -0.426720       -11.6116
 286   2.0000      -0.421682       -11.4745
 287   2.0000      -0.418024       -11.3750
 288   2.0000      -0.414546       -11.2804
 289   2.0000      -0.414182       -11.2705
 290   2.0000      -0.411478       -11.1969
 291   2.0000      -0.402377       -10.9492
 292   2.0000      -0.396206       -10.7813
 293   2.0000      -0.393210       -10.6998
 294   2.0000      -0.390582       -10.6283
 295   2.0000      -0.384934       -10.4746
 296   2.0000      -0.378828       -10.3084
 297   2.0000      -0.377161       -10.2631
 298   2.0000      -0.368613       -10.0305
 299   2.0000      -0.360721        -9.8157
 300   2.0000      -0.356960        -9.7134
 301   2.0000      -0.356471        -9.7001
 302   2.0000      -0.347187        -9.4474
 303   2.0000      -0.346610        -9.4317
 304   2.0000      -0.342823        -9.3287
 305   2.0000      -0.337655        -9.1881
 306   2.0000      -0.330327        -8.9886
 307   2.0000      -0.328496        -8.9388
 308   2.0000      -0.321652        -8.7526
 309   2.0000      -0.318759        -8.6739
 310   2.0000      -0.317008        -8.6262
 311   2.0000      -0.298957        -8.1350
 312   2.0000      -0.297557        -8.0969
 313   2.0000      -0.280919        -7.6442
 314   2.0000      -0.262177        -7.1342
 315   0.0000      -0.119133        -3.2418
 316   0.0000      -0.113499        -3.0885
 317   0.0000      -0.093287        -2.5385
 318   0.0000      -0.092064        -2.5052
 319   0.0000      -0.070036        -1.9058

MULLIKEN ATOMIC CHARGES
-----------------------
   0 C :    0.331048
   1 C :   -0.352267
   2 C :   -0.184792
   3 N :    0.153391
   4 C :   -0.189290
   5 N :    0.150830
   6 C :    0.010564
   7 C :   -0.010309
   8 C :   -0.073170
   9 C :    0.117599
  10 C :   -0.091209
  11 C :   -0.019576
  12 S :    0.191136
  13 C :   -0.124396
  14 C :    0.040280
  15 Br:    0.027778
  16 C :    0.166663
  17 O :   -0.191842
  18 C :   -0.089406
  19 C :   -0.031482
  20 C :   -0.054496
  21 C :   -0.060662
  22 C :    0.048304
  23 C :   -0.069035
  24 S :    0.244328
  25 C :   -0.101667
  26 C :    0.015207
  27 C :    0.305685
  28 C :   -0.295787
  29 C :   -0.193892
  30 N :    0.186166
  31 C :   -0.190036
  32 N :    0.178688
  33 C :   -0.040205
  34 C :   -0.073840
  35 S :    0.184415
  36 C :    0.083562
  37 C :   -0.110654
  38 C :    0.230907
  39 F :   -0.176795
  40 C :    0.089422
  41 C :   -0.112855
  42 C :    0.234405
  43 F :   -0.177169
  44 C :   -0.077300
  45 C :   -0.035454
  46 C :    0.013209
  47 C :   -0.099505
  48 S :    0.180175
  49 C :   -0.070873
  50 C :   -0.002736
  51 C :    0.303610
  52 C :   -0.287269
  53 C :   -0.188779
  54 N :    0.183506
  55 C :   -0.186892
  56 N :    0.172365
  57 C :   -0.003144
  58 C :   -0.113998
  59 S :    0.217337
  60 C :    0.079448
  61 C :   -0.128849
  62 C :    0.266038
  63 C :   -0.331354
  64 C :   -0.172363
  65 N :    0.161008
  66 C :   -0.199578
  67 N :    0.166552
  68 C :   -0.004219
  69 C :    0.009604
  70 C :    0.131167
  71 O :   -0.142166
  72 C :   -0.075097
  73 C :    0.115638
  74 C :   -0.089028
  75 C :   -0.017592
  76 S :    0.190730
  77 C :   -0.126002
  78 C :    0.040561
  79 Br:    0.026255
  80 H :   -0.010003
  81 H :   -0.004953
  82 H :   -0.002556
  83 H :    0.015497
  84 H :    0.029313
  85 H :    0.018078
  86 H :    0.006091
  87 H :    0.005695
  88 H :    0.019598
  89 H :    0.024791
  90 H :    0.022713
  91 H :   -0.007305
  92 H :    0.004104
  93 H :   -0.001614
Sum of atomic charges:   -0.0000000

LOEWDIN ATOMIC CHARGES
----------------------
   0 C :    0.076315
   1 C :   -0.139515
   2 C :   -0.018002
   3 N :   -0.051064
   4 C :   -0.023130
   5 N :   -0.045993
   6 C :   -0.019856
   7 C :   -0.051918
   8 C :    0.023016
   9 C :   -0.032630
  10 C :   -0.143251
  11 C :   -0.008208
  12 S :    0.436812
  13 C :   -0.270798
  14 C :   -0.070212
  15 Br:    0.139933
  16 C :    0.086708
  17 O :   -0.175453
  18 C :   -0.110404
  19 C :    0.056852
  20 C :   -0.183733
  21 C :    0.012463
  22 C :   -0.076426
  23 C :   -0.168621
  24 S :    0.549328
  25 C :   -0.184009
  26 C :   -0.057407
  27 C :    0.076693
  28 C :   -0.097460
  29 C :   -0.019854
  30 N :   -0.022516
  31 C :   -0.018205
  32 N :   -0.026799
  33 C :   -0.024177
  34 C :   -0.150947
  35 S :    0.487720
  36 C :   -0.059167
  37 C :   -0.040246
  38 C :    0.090251
  39 F :   -0.050806
  40 C :   -0.056446
  41 C :   -0.041919
  42 C :    0.090901
  43 F :   -0.051440
  44 C :   -0.154796
  45 C :   -0.021109
  46 C :   -0.060520
  47 C :   -0.179901
  48 S :    0.486742
  49 C :   -0.161369
  50 C :   -0.064050
  51 C :    0.081714
  52 C :   -0.095036
  53 C :   -0.018622
  54 N :   -0.024263
  55 C :   -0.012664
  56 N :   -0.031471
  57 C :    0.006975
  58 C :   -0.181163
  59 S :    0.502132
  60 C :    0.042124
  61 C :   -0.088827
  62 C :    0.066253
  63 C :   -0.136419
  64 C :   -0.019581
  65 N :   -0.044904
  66 C :   -0.015549
  67 N :   -0.047534
  68 C :   -0.017730
  69 C :   -0.053817
  70 C :    0.083493
  71 O :   -0.141954
  72 C :    0.023638
  73 C :   -0.032466
  74 C :   -0.142208
  75 C :   -0.008806
  76 S :    0.436365
  77 C :   -0.271081
  78 C :   -0.070110
  79 Br:    0.139094
  80 H :    0.041166
  81 H :    0.041753
  82 H :    0.039177
  83 H :    0.053826
  84 H :    0.048349
  85 H :    0.040868
  86 H :    0.036064
  87 H :    0.035581
  88 H :    0.040931
  89 H :    0.042523
  90 H :    0.046376
  91 H :    0.042006
  92 H :    0.043122
  93 H :    0.039297

  Mayer bond orders larger than 0.100000
B(  0-C ,  1-C ) :   1.6280 B(  0-C ,  6-C ) :   1.0008 B(  0-C , 18-C ) :   1.0730
B(  1-C ,  2-C ) :   1.1439 B(  1-C ,  4-C ) :   1.1434 B(  2-C ,  3-N ) :   2.9676
B(  4-C ,  5-N ) :   2.9583 B(  6-C ,  7-C ) :   1.2737 B(  6-C , 11-C ) :   1.4138
B(  7-C ,  8-C ) :   1.4175 B(  7-C , 16-C ) :   0.9644 B(  8-C ,  9-C ) :   1.2443
B(  8-C , 80-H ) :   1.0175 B(  9-C , 10-C ) :   1.3051 B(  9-C , 14-C ) :   1.1643
B( 10-C , 11-C ) :   1.3279 B( 10-C , 12-S ) :   1.0889 B( 11-C , 81-H ) :   0.9789
B( 12-S , 13-C ) :   1.0883 B( 13-C , 14-C ) :   1.6158 B( 13-C , 15-Br) :   1.0212
B( 14-C , 82-H ) :   1.0005 B( 16-C , 17-O ) :   2.1071 B( 16-C , 18-C ) :   0.9829
B( 18-C , 19-C ) :   1.4976 B( 19-C , 20-C ) :   1.2622 B( 19-C , 83-H ) :   0.9397
B( 20-C , 21-C ) :   1.3305 B( 20-C , 24-S ) :   1.0725 B( 21-C , 22-C ) :   1.3289
B( 21-C , 84-H ) :   1.0085 B( 22-C , 23-C ) :   1.3626 B( 22-C , 27-C ) :   0.9839
B( 23-C , 24-S ) :   1.1258 B( 23-C , 25-C ) :   1.1946 B( 25-C , 26-C ) :   1.4374
B( 25-C , 35-S ) :   1.1244 B( 26-C , 27-C ) :   0.9983 B( 26-C , 33-C ) :   1.2685
B( 27-C , 28-C ) :   1.7180 B( 28-C , 29-C ) :   1.1358 B( 28-C , 31-C ) :   1.1322
B( 29-C , 30-N ) :   2.9942 B( 31-C , 32-N ) :   2.9930 B( 33-C , 34-C ) :   1.4827
B( 33-C , 85-H ) :   0.9961 B( 34-C , 35-S ) :   1.1133 B( 34-C , 36-C ) :   1.0740
B( 36-C , 37-C ) :   1.2716 B( 36-C , 42-C ) :   1.3099 B( 37-C , 38-C ) :   1.4090
B( 37-C , 86-H ) :   0.9835 B( 38-C , 39-F ) :   1.1106 B( 38-C , 40-C ) :   1.3076
B( 40-C , 41-C ) :   1.2698 B( 40-C , 44-C ) :   1.0802 B( 41-C , 42-C ) :   1.4073
B( 41-C , 87-H ) :   0.9835 B( 42-C , 43-F ) :   1.1130 B( 44-C , 45-C ) :   1.4853
B( 44-C , 48-S ) :   1.1095 B( 45-C , 46-C ) :   1.2716 B( 45-C , 88-H ) :   0.9943
B( 46-C , 47-C ) :   1.4439 B( 46-C , 51-C ) :   0.9984 B( 47-C , 48-S ) :   1.1270
B( 47-C , 49-C ) :   1.1865 B( 49-C , 50-C ) :   1.4202 B( 49-C , 59-S ) :   1.1535
B( 50-C , 51-C ) :   0.9980 B( 50-C , 57-C ) :   1.3542 B( 51-C , 52-C ) :   1.7189
B( 52-C , 53-C ) :   1.1321 B( 52-C , 55-C ) :   1.1357 B( 53-C , 54-N ) :   2.9957
B( 55-C , 56-N ) :   2.9817 B( 57-C , 58-C ) :   1.4031 B( 57-C , 89-H ) :   0.9819
B( 58-C , 59-S ) :   1.0922 B( 58-C , 60-C ) :   1.1227 B( 60-C , 61-C ) :   1.6868
B( 60-C , 90-H ) :   0.9284 B( 61-C , 62-C ) :   1.0318 B( 61-C , 70-C ) :   0.9409
B( 62-C , 63-C ) :   1.6501 B( 62-C , 68-C ) :   1.0129 B( 63-C , 64-C ) :   1.1245
B( 63-C , 66-C ) :   1.1731 B( 64-C , 65-N ) :   2.9945 B( 66-C , 67-N ) :   2.9965
B( 68-C , 69-C ) :   1.2738 B( 68-C , 75-C ) :   1.4152 B( 69-C , 70-C ) :   0.9216
B( 69-C , 72-C ) :   1.4216 B( 70-C , 71-O ) :   2.2673 B( 72-C , 73-C ) :   1.2537
B( 72-C , 91-H ) :   1.0166 B( 73-C , 74-C ) :   1.3029 B( 73-C , 78-C ) :   1.1647
B( 74-C , 75-C ) :   1.3292 B( 74-C , 76-S ) :   1.0863 B( 75-C , 92-H ) :   0.9831
B( 76-S , 77-C ) :   1.0879 B( 77-C , 78-C ) :   1.6176 B( 77-C , 79-Br) :   1.0207
B( 78-C , 93-H ) :   1.0000

-----------------------------------------------------------------------------
         ABSORPTION SPECTRUM VIA TRANSITION ELECTRIC DIPOLE MOMENTS
-----------------------------------------------------------------------------
State   Energy  Wavelength   fosc         T2         TX        TY        TZ
        (cm-1)    (nm)                  (au**2)     (au)      (au)      (au)
-----------------------------------------------------------------------------
   0   14245.4    702.0   0.516797130  11.94323   3.29744  -0.99914  -0.26807
   1   15193.7    658.2   0.180517336   3.91139  -1.72178   0.79787  -0.55702
   2   20488.3    488.1   1.398438382  22.47050   4.49930  -1.26512  -0.79139
   3   21982.4    454.9   0.806298786  12.07528  -2.70043   1.37438  -1.70120
   4   23574.6    424.2   0.008495722   0.11864   0.00735   0.08850  -0.33280
   5   24522.4    407.8   0.015120555   0.20299  -0.24486  -0.11257  -0.36106
   6   25639.9    390.0   0.032768466   0.42074  -0.43803   0.45447  -0.14943
   7   26233.6    381.2   0.075797960   0.95121   0.57161  -0.39705  -0.68325
   8   27470.6    364.0   0.301304133   3.61087  -1.33866   0.41636  -1.28277
   9   28237.2    354.1   0.103114129   1.20219   0.58479  -0.78765  -0.48971
  10   28360.9    352.6   0.599801901   6.96247   2.43505  -0.87130  -0.52328
  11   29019.6    344.6   0.016959507   0.19240   0.12397  -0.13601   0.39816
  12   29060.6    344.1   0.034232449   0.38780  -0.42264   0.08185  -0.44997
  13   29398.9    340.1   0.095001983   1.06384  -0.43033   0.19603   0.91664
  14   29507.6    338.9   0.098743984   1.10167   0.68111  -0.73626  -0.30933
  15   30040.6    332.9   0.048175200   0.52795  -0.63249  -0.13534   0.33104
  16   30142.8    331.8   0.325271782   3.55253   0.89920  -1.34346  -0.96906
  17   30688.3    325.9   0.348294489   3.73637  -0.46662  -0.89126  -1.65054
  18   30870.5    323.9   0.250980356   2.67653   0.08755   0.08489   1.63146
  19   30989.6    322.7   0.100161646   1.06405   0.90526   0.01324   0.49435
  20   31298.8    319.5   0.201241587   2.11673  -0.20213   0.99277   1.04417
  21   31854.0    313.9   0.404406574   4.17955  -1.94217   0.37603  -0.51586
  22   31931.4    313.2   0.245724612   2.53341   0.65770  -0.31549  -1.41468
  23   32454.8    308.1   0.313547332   3.18053   0.50003   0.09185   1.70940
  24   32555.6    307.2   0.281150812   2.84308   0.99114  -1.00267  -0.92486
  25   32889.7    304.0   0.011561907   0.11573   0.14556  -0.16645  -0.25853
  26   33103.3    302.1   0.109441218   1.08839   0.30955  -0.13163   0.98754
  27   33247.3    300.8   0.003805579   0.03768  -0.01264  -0.06023  -0.18411
  28   33550.8    298.1   0.036438145   0.35754   0.48653  -0.29708   0.18050
  29   34063.1    293.6   0.193740212   1.87245   1.08063  -0.70904  -0.44938
  30   34251.3    292.0   0.138832323   1.33441   0.89293  -0.59630   0.42605
  31   34385.4    290.8   0.108241899   1.03633   0.98532  -0.23980   0.08921
  32   34435.2    290.4   0.031232345   0.29859   0.32194   0.43526   0.07415
  33   34547.4    289.5   0.139842195   1.33259  -1.10649   0.23840  -0.22683
  34   34713.3    288.1   0.365608248   3.46733   0.37764   0.94652   1.55847
  35   35044.5    285.4   0.193615712   1.81885   0.16188   0.10442   1.33482
  36   35753.6    279.7   0.020230253   0.18628   0.21941  -0.22372   0.29678
  37   35892.5    278.6   0.054770101   0.50236   0.36623  -0.41658  -0.44124
  38   36006.1    277.7   0.015425972   0.14104   0.13584  -0.18128  -0.29955
  39   36140.5    276.7   0.060945216   0.55516  -0.73494   0.11263  -0.04830
  40   36710.8    272.4   0.010014469   0.08981   0.04542  -0.00822  -0.29610
  41   36945.6    270.7   0.015786844   0.14067  -0.09026  -0.22566  -0.28567
  42   37182.6    268.9   0.120465820   1.06659   0.71917  -0.09090   0.73561
  43   37431.4    267.2   0.006657314   0.05855   0.13171  -0.20239  -0.01559
  44   37850.0    264.2   0.008836363   0.07686   0.23613  -0.12823  -0.06825
  45   38091.2    262.5   0.007397835   0.06394   0.14508  -0.20445  -0.03303
  46   38386.5    260.5   0.048737041   0.41798  -0.51072   0.28742   0.27301
  47   38606.3    259.0   0.116266534   0.99145   0.78927  -0.57728  -0.18778
  48   38799.6    257.7   0.051912507   0.44047  -0.25146   0.42297   0.44535
  49   38937.8    256.8   0.114919173   0.97162  -0.77678   0.09991  -0.59854
  50   39152.0    255.4   0.008542686   0.07183   0.18686  -0.18972  -0.03036
  51   39300.7    254.4   0.068763753   0.57602   0.41338   0.14636   0.61944
  52   39631.7    252.3   0.004505620   0.03743   0.06451   0.17716   0.04337
  53   39877.4    250.8   0.032004554   0.26422  -0.04425   0.10037   0.50218
  54   40116.9    249.3   0.010997325   0.09025   0.21513  -0.09607  -0.18638
  55   40181.8    248.9   0.095387983   0.78152  -0.80021   0.36939  -0.06888
  56   40237.9    248.5   0.052582426   0.43021   0.17105  -0.21728  -0.59476

FINAL SINGLE POINT ENERGY    -10615.267324273700

DIPOLE MOMENT
-------------
                                X             Y             Z
Electronic contribution:    -19.93924      27.00849      99.19008
Nuclear contribution   :     17.84232     -25.80600     -98.06309
                        -----------------------------------------
Total Dipole Moment    :     -2.09692       1.20249       1.12699
                        -----------------------------------------
Magnitude (a.u.)       :      2.66705
Magnitude (Debye)      :      6.77911

Rotational constants in cm-1:     0.001101     0.000107     0.000099
Rotational constants in MHz :    32.996849     3.218182     2.968456

                             ****ORCA TERMINATED NORMALLY****
TOTAL RUN TIME: 0 days 0 hours 10 minutes 48 seconds 690 msec
