                         Program Version 4.2.0 -  RELEASE  -
|  1> # ORCA input file
|  2> # SCF done       -198.101107840467          0.002842780640
|  3> ! CAM-B3LYP def2-SVP def2/J RIJCOSX Grid4 TightSCF
|  4> %maxcore 5000
|  5> %tddft
|  6>     Mode sTDDFT
|  7>     Ethresh 5.0
|  8>     maxcore 5000
|  9> end
| 10>
| 11> %pal
| 12>   nprocs 6
| 13>   end
| 14> * xyz 0 1
| 15>    C        0.43137        -1.88643        -7.27159
| 16>    C        1.72352        -1.44740        -7.18847
| 17>    F        2.27476        -0.77584        -8.21008
| 18>    C        2.49106        -1.69432        -6.03300
| 19>    F        3.75768        -1.25440        -5.97756
| 20>    C        1.95550        -2.37468        -4.97509
| 21>    C        0.62635        -2.83757        -5.02927
| 22>    C       -0.14976        -2.59244        -6.19902
| 23>    C       -1.48493        -3.05305        -6.27749
| 24>    C       -2.02476        -3.73416        -5.21882
| 25>    C       -1.24721        -3.96360        -4.04985
| 26>    C        0.04377        -3.53358        -3.94587
| 27>    C       -2.06408        -4.67606        -3.04408
| 28>    O       -1.71342        -4.96721        -1.91553
| 29>    C       -3.39042        -4.86081        -3.66853
| 30>    C       -3.34549        -4.32273        -5.01343
| 31>    C       -4.33107        -4.41999        -5.96250
| 32>    C       -5.56132        -5.08625        -5.78261
| 33>    N       -6.57286        -5.62620        -5.72320
| 34>    C       -4.22424        -3.88822        -7.26362
| 35>    N       -4.19264        -3.46632        -8.33093
| 36>    C       -4.52498        -5.24828        -3.00502
| 37>    C       -4.59977        -5.83960        -1.71010
| 38>    C       -5.61145        -5.36254        -0.84126
| 39>    C       -5.60690        -5.61481         0.50490
| 40>    C       -4.64099        -6.49009         1.03533
| 41>    C       -3.81035        -7.15497         0.14233
| 42>    C       -2.84152        -8.21401         0.61977
| 43>   Si       -1.63101        -8.31775        -0.78533
| 44>    C       -2.63258        -7.46943        -1.96016
| 45>    C       -3.69769        -6.81019        -1.21547
| 46>    C       -4.28001        -6.64439         2.42152
| 47>    C       -3.03241        -7.14838         2.71274
| 48>    C       -2.63800        -6.97071         4.03701
| 49>    N       -1.38731        -7.36818         4.44484
| 50>    C       -0.51454        -7.97566         3.55460
| 51>    C        0.74150        -8.44429         3.95541
| 52>    O        1.19018        -8.41742         5.28854
| 53>    C        1.61736        -9.00735         3.03610
| 54>    C        1.25816        -9.10761         1.70886
| 55>    C        0.00876        -8.67254         1.28427
| 56>    O       -0.22914        -8.76416        -0.09674
| 57>    C       -0.90948        -8.13655         2.19582
| 58>    N       -2.18123        -7.74210         1.81411
| 59>    C       -3.59002        -6.38666         4.84031
| 60>    S       -5.00863        -5.99731         3.88275
| 61>    C       -3.37773        -6.40269         6.26457
| 62>    C       -4.35653        -6.31289         7.26853
| 63>    C       -4.02211        -6.63281         8.55719
| 64>    C       -2.76560        -7.18208         8.91126
| 65>    C       -1.74342        -7.18389         7.93266
| 66>    C       -0.38781        -7.70842         8.08564
| 67>   Si        0.35706        -7.71541         6.48665
| 68>    C       -0.94955        -6.70112         5.64824
| 69>    C       -2.08028        -6.71264         6.65314
| 70>    C       -2.65800        -7.72630        10.22308
| 71>    C       -1.94459        -8.77847        10.72536
| 72>    C       -1.82399        -8.89883        12.20241
| 73>    O       -2.41080        -8.24434        13.03469
| 74>    C       -0.80912        -9.94787        12.43402
| 75>    C       -0.27095       -10.37651        13.61213
| 76>    C        0.71261       -11.39156        13.58904
| 77>    C        1.12090       -11.93746        12.33805
| 78>    C        2.10375       -12.94704        12.32077
| 79>    C        2.64938       -13.39770        13.48953
| 80>    C        2.24313       -12.85841        14.72581
| 81>    C        1.29584       -11.87444        14.77584
| 82>    F        2.79479       -13.32011        15.85705
| 83>    F        3.58100       -14.36142        13.46914
| 84>    C        0.53989       -11.47554        11.13410
| 85>    C       -0.41739       -10.49708        11.18036
| 86>    C       -1.20229        -9.85726        10.12469
| 87>    C       -1.30762       -10.32363         8.83405
| 88>    C       -2.27476        -9.91789         7.89473
| 89>    N       -3.05858        -9.69563         7.08397
| 90>    C       -0.51507       -11.35938         8.30245
| 91>    N        0.12504       -12.16544         7.79146
| 92>    H       -0.14244        -1.69016        -8.16441
| 93>    H        2.55616        -2.55368        -4.09656
| 94>    H       -2.04850        -2.84775        -7.17346
| 95>    H        0.61293        -3.71994        -3.04759
| 96>    H       -5.47735        -4.97697        -3.44766
| 97>    H       -6.34280        -4.67911        -1.24883
| 98>    H       -6.30669        -5.12893         1.16688
| 99>    H       -3.41516        -9.12682         0.86764
|100>    H       -2.50045        -7.29047        -3.01088
|101>    H        2.57462        -9.35890         3.38194
|102>    H        1.93546        -9.51993         0.98006
|103>    H       -5.36417        -6.02876         7.00834
|104>    H       -4.77807        -6.57789         9.32676
|105>    H       -0.00227        -7.97858         9.05164
|106>    H       -0.70882        -5.64742         5.40712
|107>    H       -3.26339        -7.22757        10.97713
|108>    H       -0.59100        -9.94828        14.54972
|109>    H        2.42471       -13.37317        11.38292
|110>    H        0.99529       -11.47083        15.73020
|111>    H        0.87222       -11.90514        10.20273
|112> *
|113>
|114>                          ****END OF INPUT****

CARTESIAN COORDINATES (ANGSTROEM)
---------------------------------
  C      0.431370   -1.886430   -7.271590
  C      1.723520   -1.447400   -7.188470
  F      2.274760   -0.775840   -8.210080
  C      2.491060   -1.694320   -6.033000
  F      3.757680   -1.254400   -5.977560
  C      1.955500   -2.374680   -4.975090
  C      0.626350   -2.837570   -5.029270
  C     -0.149760   -2.592440   -6.199020
  C     -1.484930   -3.053050   -6.277490
  C     -2.024760   -3.734160   -5.218820
  C     -1.247210   -3.963600   -4.049850
  C      0.043770   -3.533580   -3.945870
  C     -2.064080   -4.676060   -3.044080
  O     -1.713420   -4.967210   -1.915530
  C     -3.390420   -4.860810   -3.668530
  C     -3.345490   -4.322730   -5.013430
  C     -4.331070   -4.419990   -5.962500
  C     -5.561320   -5.086250   -5.782610
  N     -6.572860   -5.626200   -5.723200
  C     -4.224240   -3.888220   -7.263620
  N     -4.192640   -3.466320   -8.330930
  C     -4.524980   -5.248280   -3.005020
  C     -4.599770   -5.839600   -1.710100
  C     -5.611450   -5.362540   -0.841260
  C     -5.606900   -5.614810    0.504900
  C     -4.640990   -6.490090    1.035330
  C     -3.810350   -7.154970    0.142330
  C     -2.841520   -8.214010    0.619770
  Si    -1.631010   -8.317750   -0.785330
  C     -2.632580   -7.469430   -1.960160
  C     -3.697690   -6.810190   -1.215470
  C     -4.280010   -6.644390    2.421520
  C     -3.032410   -7.148380    2.712740
  C     -2.638000   -6.970710    4.037010
  N     -1.387310   -7.368180    4.444840
  C     -0.514540   -7.975660    3.554600
  C      0.741500   -8.444290    3.955410
  O      1.190180   -8.417420    5.288540
  C      1.617360   -9.007350    3.036100
  C      1.258160   -9.107610    1.708860
  C      0.008760   -8.672540    1.284270
  O     -0.229140   -8.764160   -0.096740
  C     -0.909480   -8.136550    2.195820
  N     -2.181230   -7.742100    1.814110
  C     -3.590020   -6.386660    4.840310
  S     -5.008630   -5.997310    3.882750
  C     -3.377730   -6.402690    6.264570
  C     -4.356530   -6.312890    7.268530
  C     -4.022110   -6.632810    8.557190
  C     -2.765600   -7.182080    8.911260
  C     -1.743420   -7.183890    7.932660
  C     -0.387810   -7.708420    8.085640
  Si     0.357060   -7.715410    6.486650
  C     -0.949550   -6.701120    5.648240
  C     -2.080280   -6.712640    6.653140
  C     -2.658000   -7.726300   10.223080
  C     -1.944590   -8.778470   10.725360
  C     -1.823990   -8.898830   12.202410
  O     -2.410800   -8.244340   13.034690
  C     -0.809120   -9.947870   12.434020
  C     -0.270950  -10.376510   13.612130
  C      0.712610  -11.391560   13.589040
  C      1.120900  -11.937460   12.338050
  C      2.103750  -12.947040   12.320770
  C      2.649380  -13.397700   13.489530
  C      2.243130  -12.858410   14.725810
  C      1.295840  -11.874440   14.775840
  F      2.794790  -13.320110   15.857050
  F      3.581000  -14.361420   13.469140
  C      0.539890  -11.475540   11.134100
  C     -0.417390  -10.497080   11.180360
  C     -1.202290   -9.857260   10.124690
  C     -1.307620  -10.323630    8.834050
  C     -2.274760   -9.917890    7.894730
  N     -3.058580   -9.695630    7.083970
  C     -0.515070  -11.359380    8.302450
  N      0.125040  -12.165440    7.791460
  H     -0.142440   -1.690160   -8.164410
  H      2.556160   -2.553680   -4.096560
  H     -2.048500   -2.847750   -7.173460
  H      0.612930   -3.719940   -3.047590
  H     -5.477350   -4.976970   -3.447660
  H     -6.342800   -4.679110   -1.248830
  H     -6.306690   -5.128930    1.166880
  H     -3.415160   -9.126820    0.867640
  H     -2.500450   -7.290470   -3.010880
  H      2.574620   -9.358900    3.381940
  H      1.935460   -9.519930    0.980060
  H     -5.364170   -6.028760    7.008340
  H     -4.778070   -6.577890    9.326760
  H     -0.002270   -7.978580    9.051640
  H     -0.708820   -5.647420    5.407120
  H     -3.263390   -7.227570   10.977130
  H     -0.591000   -9.948280   14.549720
  H      2.424710  -13.373170   11.382920
  H      0.995290  -11.470830   15.730200
  H      0.872220  -11.905140   10.202730

 Total Charge           Charge          ....    0
 Multiplicity           Mult            ....    1
 Number of Electrons    NEL             ....  534
 Basis Dimension        Dim             .... 1190

ORBITAL ENERGIES
----------------

  NO   OCC          E(Eh)            E(eV)
   0   2.0000     -88.961405     -2420.7629
   1   2.0000     -66.275453     -1803.4468
   2   2.0000     -66.267075     -1803.2188
   3   2.0000     -24.797414      -674.7719
   4   2.0000     -24.796588      -674.7495
   5   2.0000     -24.796167      -674.7380
   6   2.0000     -24.795838      -674.7290
   7   2.0000     -19.291953      -524.9607
   8   2.0000     -19.287646      -524.8435
   9   2.0000     -19.213045      -522.8135
  10   2.0000     -19.212212      -522.7909
  11   2.0000     -14.472037      -393.8042
  12   2.0000     -14.471936      -393.8014
  13   2.0000     -14.416886      -392.3034
  14   2.0000     -14.413027      -392.1984
  15   2.0000     -14.411998      -392.1704
  16   2.0000     -14.410384      -392.1265
  17   2.0000     -10.380340      -282.4634
  18   2.0000     -10.379307      -282.4353
  19   2.0000     -10.379234      -282.4333
  20   2.0000     -10.378975      -282.4263
  21   2.0000     -10.366503      -282.0869
  22   2.0000     -10.366069      -282.0751
  23   2.0000     -10.362441      -281.9764
  24   2.0000     -10.362135      -281.9680
  25   2.0000     -10.353073      -281.7214
  26   2.0000     -10.352734      -281.7122
  27   2.0000     -10.340360      -281.3755
  28   2.0000     -10.339121      -281.3418
  29   2.0000     -10.337924      -281.3092
  30   2.0000     -10.335204      -281.2352
  31   2.0000     -10.326395      -280.9955
  32   2.0000     -10.325684      -280.9762
  33   2.0000     -10.320322      -280.8302
  34   2.0000     -10.316061      -280.7143
  35   2.0000     -10.315748      -280.7058
  36   2.0000     -10.314991      -280.6852
  37   2.0000     -10.314887      -280.6824
  38   2.0000     -10.313737      -280.6511
  39   2.0000     -10.312322      -280.6125
  40   2.0000     -10.311733      -280.5965
  41   2.0000     -10.310530      -280.5638
  42   2.0000     -10.308888      -280.5191
  43   2.0000     -10.308395      -280.5057
  44   2.0000     -10.308292      -280.5029
  45   2.0000     -10.308132      -280.4985
  46   2.0000     -10.308024      -280.4956
  47   2.0000     -10.307749      -280.4881
  48   2.0000     -10.306575      -280.4562
  49   2.0000     -10.305212      -280.4191
  50   2.0000     -10.304396      -280.3969
  51   2.0000     -10.301534      -280.3190
  52   2.0000     -10.300998      -280.3044
  53   2.0000     -10.300304      -280.2855
  54   2.0000     -10.300265      -280.2845
  55   2.0000     -10.300227      -280.2834
  56   2.0000     -10.299687      -280.2687
  57   2.0000     -10.299502      -280.2637
  58   2.0000     -10.299301      -280.2582
  59   2.0000     -10.298969      -280.2492
  60   2.0000     -10.298726      -280.2426
  61   2.0000     -10.293181      -280.0917
  62   2.0000     -10.293159      -280.0911
  63   2.0000     -10.292629      -280.0767
  64   2.0000     -10.291676      -280.0507
  65   2.0000     -10.291134      -280.0360
  66   2.0000     -10.290668      -280.0233
  67   2.0000     -10.290157      -280.0094
  68   2.0000     -10.287108      -279.9264
  69   2.0000     -10.287005      -279.9236
  70   2.0000     -10.285662      -279.8871
  71   2.0000     -10.285024      -279.8697
  72   2.0000     -10.283484      -279.8278
  73   2.0000     -10.280626      -279.7500
  74   2.0000     -10.279163      -279.7103
  75   2.0000     -10.277316      -279.6600
  76   2.0000     -10.275904      -279.6216
  77   2.0000      -8.055476      -219.2006
  78   2.0000      -6.025439      -163.9605
  79   2.0000      -6.021305      -163.8480
  80   2.0000      -6.016507      -163.7175
  81   2.0000      -5.440977      -148.0565
  82   2.0000      -5.433000      -147.8394
  83   2.0000      -3.806463      -103.5791
  84   2.0000      -3.803260      -103.4920
  85   2.0000      -3.798874      -103.3726
  86   2.0000      -3.798346      -103.3583
  87   2.0000      -3.795425      -103.2788
  88   2.0000      -3.790799      -103.1529
  89   2.0000      -1.319004       -35.8919
  90   2.0000      -1.318870       -35.8883
  91   2.0000      -1.304217       -35.4896
  92   2.0000      -1.304094       -35.4862
  93   2.0000      -1.170660       -31.8553
  94   2.0000      -1.166359       -31.7382
  95   2.0000      -1.127128       -30.6707
  96   2.0000      -1.125487       -30.6261
  97   2.0000      -1.116612       -30.3846
  98   2.0000      -1.072455       -29.1830
  99   2.0000      -1.017904       -27.6986
 100   2.0000      -1.016582       -27.6626
 101   2.0000      -1.002324       -27.2746
 102   2.0000      -1.001669       -27.2568
 103   2.0000      -1.000004       -27.2115
 104   2.0000      -0.992965       -27.0200
 105   2.0000      -0.991283       -26.9742
 106   2.0000      -0.980132       -26.6708
 107   2.0000      -0.979085       -26.6423
 108   2.0000      -0.974652       -26.5216
 109   2.0000      -0.971302       -26.4305
 110   2.0000      -0.961417       -26.1615
 111   2.0000      -0.930524       -25.3208
 112   2.0000      -0.929636       -25.2967
 113   2.0000      -0.913189       -24.8491
 114   2.0000      -0.910908       -24.7871
 115   2.0000      -0.897785       -24.4300
 116   2.0000      -0.895198       -24.3596
 117   2.0000      -0.893136       -24.3035
 118   2.0000      -0.889668       -24.2091
 119   2.0000      -0.888093       -24.1662
 120   2.0000      -0.884056       -24.0564
 121   2.0000      -0.870300       -23.6821
 122   2.0000      -0.866586       -23.5810
 123   2.0000      -0.855128       -23.2692
 124   2.0000      -0.849124       -23.1058
 125   2.0000      -0.838354       -22.8128
 126   2.0000      -0.838291       -22.8111
 127   2.0000      -0.830869       -22.6091
 128   2.0000      -0.824039       -22.4233
 129   2.0000      -0.802763       -21.8443
 130   2.0000      -0.801069       -21.7982
 131   2.0000      -0.782454       -21.2917
 132   2.0000      -0.778013       -21.1708
 133   2.0000      -0.767707       -20.8904
 134   2.0000      -0.764288       -20.7973
 135   2.0000      -0.763691       -20.7811
 136   2.0000      -0.763242       -20.7689
 137   2.0000      -0.750737       -20.4286
 138   2.0000      -0.742602       -20.2072
 139   2.0000      -0.740135       -20.1401
 140   2.0000      -0.730039       -19.8654
 141   2.0000      -0.725605       -19.7447
 142   2.0000      -0.715188       -19.4613
 143   2.0000      -0.713206       -19.4073
 144   2.0000      -0.700204       -19.0535
 145   2.0000      -0.695235       -18.9183
 146   2.0000      -0.687461       -18.7068
 147   2.0000      -0.682977       -18.5848
 148   2.0000      -0.679031       -18.4774
 149   2.0000      -0.676205       -18.4005
 150   2.0000      -0.673987       -18.3401
 151   2.0000      -0.667105       -18.1528
 152   2.0000      -0.657946       -17.9036
 153   2.0000      -0.656140       -17.8545
 154   2.0000      -0.653374       -17.7792
 155   2.0000      -0.649799       -17.6819
 156   2.0000      -0.643284       -17.5047
 157   2.0000      -0.640235       -17.4217
 158   2.0000      -0.639726       -17.4078
 159   2.0000      -0.637837       -17.3564
 160   2.0000      -0.633432       -17.2366
 161   2.0000      -0.625460       -17.0196
 162   2.0000      -0.614017       -16.7082
 163   2.0000      -0.611981       -16.6529
 164   2.0000      -0.607794       -16.5389
 165   2.0000      -0.602312       -16.3897
 166   2.0000      -0.595715       -16.2102
 167   2.0000      -0.592538       -16.1238
 168   2.0000      -0.590251       -16.0615
 169   2.0000      -0.584279       -15.8990
 170   2.0000      -0.583906       -15.8889
 171   2.0000      -0.583751       -15.8847
 172   2.0000      -0.583718       -15.8838
 173   2.0000      -0.578749       -15.7486
 174   2.0000      -0.575082       -15.6488
 175   2.0000      -0.572797       -15.5866
 176   2.0000      -0.568702       -15.4752
 177   2.0000      -0.563485       -15.3332
 178   2.0000      -0.558481       -15.1970
 179   2.0000      -0.554535       -15.0897
 180   2.0000      -0.552686       -15.0393
 181   2.0000      -0.550825       -14.9887
 182   2.0000      -0.548619       -14.9287
 183   2.0000      -0.545492       -14.8436
 184   2.0000      -0.545427       -14.8418
 185   2.0000      -0.537771       -14.6335
 186   2.0000      -0.535901       -14.5826
 187   2.0000      -0.535222       -14.5641
 188   2.0000      -0.534169       -14.5355
 189   2.0000      -0.533651       -14.5214
 190   2.0000      -0.529852       -14.4180
 191   2.0000      -0.529191       -14.4000
 192   2.0000      -0.528388       -14.3782
 193   2.0000      -0.524824       -14.2812
 194   2.0000      -0.522650       -14.2220
 195   2.0000      -0.520820       -14.1722
 196   2.0000      -0.518188       -14.1006
 197   2.0000      -0.517566       -14.0837
 198   2.0000      -0.514641       -14.0041
 199   2.0000      -0.513914       -13.9843
 200   2.0000      -0.511885       -13.9291
 201   2.0000      -0.507959       -13.8223
 202   2.0000      -0.506974       -13.7955
 203   2.0000      -0.504139       -13.7183
 204   2.0000      -0.500571       -13.6212
 205   2.0000      -0.499088       -13.5809
 206   2.0000      -0.498641       -13.5687
 207   2.0000      -0.497476       -13.5370
 208   2.0000      -0.492733       -13.4080
 209   2.0000      -0.489031       -13.3072
 210   2.0000      -0.488246       -13.2858
 211   2.0000      -0.483940       -13.1687
 212   2.0000      -0.482357       -13.1256
 213   2.0000      -0.478619       -13.0239
 214   2.0000      -0.476883       -12.9767
 215   2.0000      -0.472019       -12.8443
 216   2.0000      -0.467009       -12.7080
 217   2.0000      -0.465125       -12.6567
 218   2.0000      -0.461935       -12.5699
 219   2.0000      -0.461674       -12.5628
 220   2.0000      -0.459918       -12.5150
 221   2.0000      -0.458570       -12.4783
 222   2.0000      -0.456103       -12.4112
 223   2.0000      -0.452957       -12.3256
 224   2.0000      -0.450523       -12.2593
 225   2.0000      -0.447558       -12.1787
 226   2.0000      -0.445380       -12.1194
 227   2.0000      -0.444617       -12.0986
 228   2.0000      -0.443742       -12.0748
 229   2.0000      -0.441375       -12.0104
 230   2.0000      -0.440212       -11.9788
 231   2.0000      -0.439414       -11.9571
 232   2.0000      -0.433740       -11.8027
 233   2.0000      -0.427795       -11.6409
 234   2.0000      -0.427662       -11.6373
 235   2.0000      -0.425042       -11.5660
 236   2.0000      -0.424142       -11.5415
 237   2.0000      -0.420610       -11.4454
 238   2.0000      -0.418812       -11.3964
 239   2.0000      -0.412322       -11.2199
 240   2.0000      -0.409600       -11.1458
 241   2.0000      -0.408180       -11.1072
 242   2.0000      -0.404472       -11.0063
 243   2.0000      -0.399168       -10.8619
 244   2.0000      -0.396085       -10.7780
 245   2.0000      -0.392911       -10.6917
 246   2.0000      -0.387403       -10.5418
 247   2.0000      -0.384179       -10.4540
 248   2.0000      -0.381864       -10.3911
 249   2.0000      -0.375451       -10.2165
 250   2.0000      -0.367403        -9.9975
 251   2.0000      -0.360751        -9.8165
 252   2.0000      -0.354456        -9.6452
 253   2.0000      -0.344347        -9.3702
 254   2.0000      -0.336250        -9.1498
 255   2.0000      -0.332967        -9.0605
 256   2.0000      -0.328006        -8.9255
 257   2.0000      -0.317369        -8.6360
 258   2.0000      -0.316610        -8.6154
 259   2.0000      -0.311093        -8.4653
 260   2.0000      -0.306391        -8.3373
 261   2.0000      -0.298156        -8.1132
 262   2.0000      -0.293515        -7.9870
 263   2.0000      -0.265646        -7.2286
 264   2.0000      -0.257515        -7.0073
 265   2.0000      -0.253619        -6.9013
 266   2.0000      -0.243612        -6.6290
 267   0.0000      -0.093223        -2.5367
 268   0.0000      -0.086788        -2.3616
 269   0.0000      -0.059600        -1.6218
 270   0.0000      -0.058073        -1.5802
 271   0.0000      -0.055483        -1.5098

MULLIKEN ATOMIC CHARGES
-----------------------
   0 C :   -0.109699
   1 C :    0.242538
   2 F :   -0.173566
   3 C :    0.240120
   4 F :   -0.174544
   5 C :   -0.109979
   6 C :    0.120745
   7 C :    0.114649
   8 C :   -0.089922
   9 C :    0.054441
  10 C :    0.002815
  11 C :   -0.093294
  12 C :    0.132710
  13 O :   -0.145761
  14 C :   -0.107123
  15 C :    0.302963
  16 C :   -0.347303
  17 C :   -0.208325
  18 N :    0.165009
  19 C :   -0.180166
  20 N :    0.143321
  21 C :   -0.043079
  22 C :    0.015103
  23 C :    0.033297
  24 C :   -0.064911
  25 C :    0.134623
  26 C :   -0.166207
  27 C :   -0.006591
  28 Si:    0.668818
  29 C :   -0.145728
  30 C :    0.114969
  31 C :   -0.183017
  32 C :    0.134756
  33 C :    0.143527
  34 N :   -0.182544
  35 C :    0.116209
  36 C :    0.146607
  37 O :   -0.392916
  38 C :   -0.039123
  39 C :   -0.039863
  40 C :    0.140250
  41 O :   -0.398806
  42 C :    0.124028
  43 N :   -0.183192
  44 C :   -0.185888
  45 S :    0.144885
  46 C :    0.146600
  47 C :   -0.050309
  48 C :    0.033604
  49 C :    0.028475
  50 C :    0.044210
  51 C :   -0.172460
  52 Si:    0.687435
  53 C :   -0.012680
  54 C :   -0.137678
  55 C :   -0.004720
  56 C :   -0.133338
  57 C :    0.131902
  58 O :   -0.144821
  59 C :    0.013015
  60 C :   -0.081925
  61 C :    0.108850
  62 C :    0.112160
  63 C :   -0.106088
  64 C :    0.240478
  65 C :    0.235849
  66 C :   -0.101024
  67 F :   -0.173768
  68 F :   -0.174250
  69 C :   -0.092103
  70 C :    0.044681
  71 C :    0.274883
  72 C :   -0.336716
  73 C :   -0.203732
  74 N :    0.174412
  75 C :   -0.196271
  76 N :    0.143260
  77 H :    0.007227
  78 H :   -0.003971
  79 H :   -0.007451
  80 H :   -0.018033
  81 H :    0.034331
  82 H :   -0.013803
  83 H :   -0.021936
  84 H :    0.049682
  85 H :    0.004932
  86 H :   -0.009600
  87 H :   -0.010414
  88 H :   -0.020818
  89 H :   -0.013683
  90 H :    0.013475
  91 H :    0.044542
  92 H :    0.024981
  93 H :   -0.011862
  94 H :    0.002925
  95 H :   -0.001385
  96 H :   -0.011909
Sum of atomic charges:   -0.0000000

LOEWDIN ATOMIC CHARGES
----------------------
   0 C :   -0.029139
   1 C :    0.065322
   2 F :   -0.051279
   3 C :    0.067295
   4 F :   -0.052445
   5 C :   -0.035505
   6 C :   -0.009038
   7 C :   -0.008526
   8 C :    0.016476
   9 C :   -0.023797
  10 C :   -0.049063
  11 C :    0.022039
  12 C :    0.074997
  13 O :   -0.141750
  14 C :   -0.110523
  15 C :    0.075685
  16 C :   -0.142529
  17 C :   -0.026485
  18 N :   -0.051144
  19 C :   -0.017166
  20 N :   -0.057025
  21 C :    0.087358
  22 C :   -0.058858
  23 C :    0.016184
  24 C :   -0.043832
  25 C :   -0.003869
  26 C :   -0.051819
  27 C :   -0.097462
  28 Si:    0.683481
  29 C :   -0.269676
  30 C :    0.034277
  31 C :   -0.197253
  32 C :   -0.000486
  33 C :   -0.000588
  34 N :   -0.011574
  35 C :    0.002949
  36 C :    0.038018
  37 O :   -0.174436
  38 C :   -0.034680
  39 C :   -0.035524
  40 C :    0.037913
  41 O :   -0.180517
  42 C :    0.003295
  43 N :   -0.010351
  44 C :   -0.193688
  45 S :    0.408997
  46 C :   -0.001435
  47 C :   -0.032090
  48 C :    0.015917
  49 C :   -0.059715
  50 C :    0.017887
  51 C :   -0.280444
  52 Si:    0.693281
  53 C :   -0.098187
  54 C :   -0.046656
  55 C :    0.081207
  56 C :   -0.108946
  57 C :    0.082736
  58 O :   -0.145732
  59 C :   -0.054566
  60 C :    0.029561
  61 C :   -0.011692
  62 C :   -0.006635
  63 C :   -0.031859
  64 C :    0.065915
  65 C :    0.065014
  66 C :   -0.032971
  67 F :   -0.051267
  68 F :   -0.051171
  69 C :    0.006513
  70 C :   -0.019255
  71 C :    0.053684
  72 C :   -0.135324
  73 C :   -0.017372
  74 N :   -0.056411
  75 C :   -0.019656
  76 N :   -0.064890
  77 H :    0.047627
  78 H :    0.043413
  79 H :    0.039576
  80 H :    0.037067
  81 H :    0.046028
  82 H :    0.033496
  83 H :    0.028143
  84 H :    0.033931
  85 H :    0.022999
  86 H :    0.041535
  87 H :    0.040954
  88 H :    0.029321
  89 H :    0.033620
  90 H :    0.026786
  91 H :    0.031802
  92 H :    0.046384
  93 H :    0.039789
  94 H :    0.046023
  95 H :    0.044407
  96 H :    0.037401

  Mayer bond orders larger than 0.100000
B(  0-C ,  1-C ) :   1.4390 B(  0-C ,  5-C ) :   0.1090 B(  0-C ,  7-C ) :   1.1896
B(  0-C , 77-H ) :   1.0067 B(  1-C ,  2-F ) :   1.1319 B(  1-C ,  3-C ) :   1.1932
B(  3-C ,  4-F ) :   1.1304 B(  3-C ,  5-C ) :   1.4419 B(  5-C ,  6-C ) :   1.1924
B(  5-C , 78-H ) :   1.0069 B(  6-C ,  7-C ) :   1.2590 B(  6-C , 11-C ) :   1.1836
B(  7-C ,  8-C ) :   1.2113 B(  8-C ,  9-C ) :   1.4506 B(  8-C , 79-H ) :   0.9908
B(  9-C , 10-C ) :   1.2200 B(  9-C , 15-C ) :   0.9867 B( 10-C , 11-C ) :   1.4755
B( 10-C , 12-C ) :   0.9341 B( 11-C , 80-H ) :   1.0165 B( 12-C , 13-O ) :   2.1970
B( 12-C , 14-C ) :   0.9651 B( 14-C , 15-C ) :   1.0649 B( 14-C , 21-C ) :   1.5634
B( 15-C , 16-C ) :   1.6407 B( 16-C , 17-C ) :   1.1420 B( 16-C , 19-C ) :   1.1433
B( 17-C , 18-N ) :   2.9968 B( 19-C , 20-N ) :   2.9635 B( 21-C , 22-C ) :   1.1525
B( 21-C , 81-H ) :   0.9487 B( 22-C , 23-C ) :   1.2630 B( 22-C , 30-C ) :   1.2757
B( 23-C , 24-C ) :   1.4737 B( 23-C , 82-H ) :   0.9876 B( 24-C , 25-C ) :   1.2512
B( 24-C , 83-H ) :   0.9933 B( 25-C , 26-C ) :   1.4530 B( 25-C , 31-C ) :   1.0949
B( 26-C , 27-C ) :   0.9752 B( 26-C , 30-C ) :   1.3344 B( 27-C , 28-Si) :   0.9006
B( 27-C , 43-N ) :   0.9361 B( 27-C , 84-H ) :   0.8832 B( 28-Si, 29-C ) :   1.5551
B( 28-Si, 41-O ) :   1.1210 B( 29-C , 30-C ) :   1.1906 B( 29-C , 85-H ) :   0.9246
B( 31-C , 32-C ) :   1.4990 B( 31-C , 45-S ) :   1.0569 B( 32-C , 33-C ) :   1.3048
B( 32-C , 43-N ) :   1.1049 B( 33-C , 34-N ) :   1.0966 B( 33-C , 44-C ) :   1.5079
B( 34-N , 35-C ) :   1.0709 B( 34-N , 53-C ) :   0.9465 B( 35-C , 36-C ) :   1.3351
B( 35-C , 42-C ) :   1.3562 B( 36-C , 37-O ) :   0.9816 B( 36-C , 38-C ) :   1.3497
B( 37-O , 52-Si) :   1.1517 B( 38-C , 39-C ) :   1.3128 B( 38-C , 86-H ) :   1.0153
B( 39-C , 40-C ) :   1.3484 B( 39-C , 87-H ) :   1.0150 B( 40-C , 41-O ) :   0.9942
B( 40-C , 42-C ) :   1.3279 B( 42-C , 43-N ) :   1.0733 B( 44-C , 45-S ) :   1.0551
B( 44-C , 46-C ) :   1.0943 B( 46-C , 47-C ) :   1.2542 B( 46-C , 54-C ) :   1.4580
B( 47-C , 48-C ) :   1.4671 B( 47-C , 88-H ) :   0.9905 B( 48-C , 49-C ) :   1.2704
B( 48-C , 89-H ) :   0.9890 B( 49-C , 50-C ) :   1.2665 B( 49-C , 55-C ) :   1.1225
B( 50-C , 51-C ) :   1.2007 B( 50-C , 54-C ) :   1.3273 B( 51-C , 52-Si) :   1.5133
B( 51-C , 90-H ) :   0.9172 B( 52-Si, 53-C ) :   0.8984 B( 53-C , 54-C ) :   0.9765
B( 53-C , 91-H ) :   0.8776 B( 55-C , 56-C ) :   1.6090 B( 55-C , 92-H ) :   0.9374
B( 56-C , 57-C ) :   0.9411 B( 56-C , 71-C ) :   1.0635 B( 57-C , 58-O ) :   2.2632
B( 57-C , 59-C ) :   0.9181 B( 59-C , 60-C ) :   1.4757 B( 59-C , 70-C ) :   1.2200
B( 60-C , 61-C ) :   1.1892 B( 60-C , 93-H ) :   1.0169 B( 61-C , 62-C ) :   1.2602
B( 61-C , 66-C ) :   1.1932 B( 62-C , 63-C ) :   1.1928 B( 62-C , 69-C ) :   1.2083
B( 63-C , 64-C ) :   1.4395 B( 63-C , 66-C ) :   0.1083 B( 63-C , 94-H ) :   1.0070
B( 64-C , 65-C ) :   1.1924 B( 64-C , 68-F ) :   1.1308 B( 65-C , 66-C ) :   1.4427
B( 65-C , 67-F ) :   1.1319 B( 66-C , 95-H ) :   1.0071 B( 69-C , 70-C ) :   1.4583
B( 69-C , 96-H ) :   0.9925 B( 70-C , 71-C ) :   0.9981 B( 71-C , 72-C ) :   1.6081
B( 72-C , 73-C ) :   1.1690 B( 72-C , 75-C ) :   1.1490 B( 73-C , 74-N ) :   2.9893
B( 75-C , 76-N ) :   2.9668

-----------------------------------------------------------------------------
         ABSORPTION SPECTRUM VIA TRANSITION ELECTRIC DIPOLE MOMENTS
-----------------------------------------------------------------------------
State   Energy  Wavelength   fosc         T2         TX        TY        TZ
        (cm-1)    (nm)                  (au**2)     (au)      (au)      (au)
-----------------------------------------------------------------------------
   0   15824.1    631.9   0.007861475   0.16355   0.00446   0.11270  -0.38837
   1   17296.4    578.2   0.038147041   0.72607  -0.30174  -0.10907  -0.78939
   2   18785.4    532.3   1.002474851  17.56823  -0.44718   2.28148  -3.48756
   3   19621.5    509.6   0.224852078   3.77259   0.38819   1.02573  -1.60305
   4   20263.0    493.5   0.141698339   2.30217   0.30828  -0.48764   1.40333
   5   20912.1    478.2   0.015745797   0.24788   0.39408  -0.22706  -0.20255
   6   21749.1    459.8   0.068997633   1.04440  -0.37082   0.30791   0.90116
   7   21787.9    459.0   0.156230796   2.36062  -0.15618  -0.24875   1.50810
   8   23632.9    423.1   0.026698574   0.37192  -0.16127   0.58770  -0.02268
   9   24105.5    414.8   0.033126755   0.45242  -0.66282  -0.11387   0.01100
  10   24855.1    402.3   0.053828256   0.71297   0.31200   0.52109  -0.58659
  11   25593.0    390.7   0.013052891   0.16790  -0.33893   0.15761  -0.16789
  12   26009.9    384.5   0.017658647   0.22351   0.34527   0.19095  -0.26044
  13   26216.1    381.4   0.067262541   0.84466   0.29143  -0.19998   0.84837
  14   26658.2    375.1   0.013526687   0.16705  -0.26773   0.21892   0.21782
  15   27142.5    368.4   0.098053446   1.18929   0.59691  -0.26597  -0.87307
  16   27263.0    366.8   0.006517952   0.07871   0.12111   0.06745   0.24391
  17   27939.1    357.9   0.052503650   0.61866   0.05474  -0.52296   0.58496
  18   28395.4    352.2   0.068181722   0.79049  -0.01940  -0.22179  -0.86077
  19   28538.0    350.4   0.027408328   0.31618  -0.21851   0.12576  -0.50261
  20   28930.5    345.7   0.196923283   2.24087  -0.58066   0.09853  -1.37623
  21   29122.0    343.4   0.080263135   0.90734  -0.76301  -0.55469   0.13221
  22   29643.9    337.3   0.012342854   0.13707   0.33822  -0.07389   0.13123
  23   29921.8    334.2   0.026469121   0.29122   0.38229  -0.38022   0.02274
  24   30306.6    330.0   0.039141401   0.42518  -0.52813  -0.14655  -0.35325
  25   30554.6    327.3   0.051107361   0.55066   0.49350  -0.36425   0.41766
  26   30766.2    325.0   0.050047577   0.53553  -0.30673   0.30368  -0.59095
  27   30976.4    322.8   0.080119100   0.85149   0.24239  -0.32381   0.82939
  28   31265.5    319.8   0.095408671   1.00461   0.86677  -0.32134  -0.38738
  29   31598.2    316.5   0.060473461   0.63005  -0.63041  -0.19712  -0.44021
  30   31727.2    315.2   0.051214267   0.53142   0.14307   0.57116  -0.42980
  31   31862.2    313.9   0.178173726   1.84096   0.82456  -0.21737   1.05537
  32   32087.3    311.7   0.213424031   2.18971  -0.69109  -0.48530   1.21515
  33   32590.3    306.8   0.011874662   0.11995   0.26114  -0.22644  -0.02199
  34   32922.5    303.7   0.019700891   0.19700  -0.20405  -0.19957  -0.33991
  35   33360.5    299.8   0.043994722   0.43415  -0.32530   0.06448   0.56937
  36   33713.5    296.6   0.270140994   2.63793  -0.23526   0.18047  -1.59687
  37   33903.6    295.0   0.027954464   0.27144   0.19436   0.47677   0.07977
  38   34032.5    293.8   0.011772165   0.11388   0.11981  -0.30493  -0.08089
  39   34126.5    293.0   0.013256498   0.12788  -0.28849   0.13626   0.16152
  40   34267.6    291.8   0.016186634   0.15551   0.27905   0.06943  -0.26984
  41   34574.7    289.2   0.037822840   0.36014  -0.44456  -0.09187   0.39251
  42   34794.0    287.4   0.638791829   6.04408  -2.11154  -0.89807  -0.88258
  43   35157.6    284.4   0.143565024   1.34433  -0.20781   0.62096  -0.95684
  44   35555.6    281.2   0.529702901   4.90456   0.92020  -0.66389   1.90185
  45   35824.0    279.1   0.092535701   0.85038  -0.87547  -0.28773  -0.03382
  46   36056.3    277.3   0.125239891   1.14350  -1.04255  -0.21646  -0.09865
  47   36558.0    273.5   0.092764995   0.83537   0.90677  -0.05310  -0.10157
  48   36675.9    272.7   0.015432264   0.13852   0.06874   0.19779  -0.30770
  49   36809.0    271.7   0.027030794   0.24176  -0.36434   0.27646  -0.18052
  50   36970.4    270.5   0.065198155   0.58057  -0.61668   0.28344  -0.34632
  51   37023.1    270.1   0.020448693   0.18183  -0.37822  -0.19342  -0.03701
  52   37126.5    269.3   0.037998532   0.33694   0.21321  -0.53859   0.03742
  53   37402.9    267.4   0.281269082   2.47567  -1.54099   0.24042  -0.20787
  54   37450.9    267.0   0.022075550   0.19405   0.27534  -0.06665   0.33735
  55   37678.2    265.4   0.042364460   0.37016   0.42169   0.21324   0.38323
  56   38019.5    263.0   0.039445246   0.34156  -0.52676   0.07947  -0.24035
  57   38256.3    261.4   0.009296762   0.08000  -0.22215   0.01493  -0.17444
  58   38457.8    260.0   0.108419792   0.92811   0.06396  -0.17602   0.94501
  59   38594.1    259.1   0.101236103   0.86356   0.65785  -0.62559  -0.19856
  60   38644.5    258.8   0.038053389   0.32418  -0.51926   0.22569  -0.06007
  61   38810.8    257.7   0.091647588   0.77740  -0.70793   0.20100   0.48563
  62   39187.8    255.2   0.036190096   0.30403  -0.50828  -0.17758  -0.11892
  63   39358.1    254.1   0.009435004   0.07892   0.14803  -0.12012  -0.20634
  64   39464.8    253.4   0.057674994   0.48112   0.13822  -0.08456   0.67444
  65   39537.4    252.9   0.017750197   0.14780   0.06817  -0.10037   0.36480
  66   39763.6    251.5   0.062313407   0.51591  -0.45107   0.55634   0.05404
  67   39940.8    250.4   0.029452009   0.24276   0.45269  -0.07179  -0.18077
  68   40135.1    249.2   0.044255294   0.36301   0.55954  -0.20730   0.08338
  69   40138.5    249.1   0.064241982   0.52691  -0.49643   0.30167  -0.43526
  70   40317.1    248.0   0.053502604   0.43688   0.58576  -0.22060   0.21237

FINAL SINGLE POINT ENERGY     -4299.864042879463

DIPOLE MOMENT
-------------
                                X             Y             Z
Electronic contribution:     21.22795      -4.09852      -2.15252
Nuclear contribution   :    -18.81328       4.44168       3.91271
                        -----------------------------------------
Total Dipole Moment    :      2.41468       0.34316       1.76019
                        -----------------------------------------
Magnitude (a.u.)       :      3.00777
Magnitude (Debye)      :      7.64515

Rotational constants in cm-1:     0.002006     0.000273     0.000257
Rotational constants in MHz :    60.127439     8.197621     7.705182

                             ****ORCA TERMINATED NORMALLY****
TOTAL RUN TIME: 0 days 0 hours 11 minutes 59 seconds 636 msec
