                         Program Version 4.2.0 -  RELEASE  -
|  1> # ORCA input file
|  2> # SCF done       -208.896848477461          0.000548616112
|  3> ! CAM-B3LYP def2-SVP def2/J RIJCOSX Grid4 TightSCF
|  4> %maxcore 5000
|  5> %tddft
|  6>     Mode sTDDFT
|  7>     Ethresh 5.0
|  8>     maxcore 5000
|  9> end
| 10>
| 11> %pal
| 12>   nprocs 6
| 13>   end
| 14> * xyz 0 1
| 15>    C       -3.62725         0.80361        -3.95241
| 16>    C       -4.14110         0.86889        -5.22044
| 17>    C       -4.08913         2.02031        -6.03656
| 18>    N       -4.07577         2.91483        -6.75518
| 19>    C       -4.82420        -0.16743        -5.89369
| 20>    N       -5.40685        -0.94658        -6.50383
| 21>    C       -3.01467         1.91922        -3.23612
| 22>    C       -2.73947         1.51257        -1.91973
| 23>    C       -2.16747         2.35887        -0.99132
| 24>    C       -1.87008         3.64380        -1.41947
| 25>    C       -2.12454         4.07258        -2.71480
| 26>    C       -2.70092         3.21151        -3.63551
| 27>    F       -1.31405         4.50609        -0.55540
| 28>    C       -3.14298         0.10331        -1.73281
| 29>    O       -3.02255        -0.53771        -0.71261
| 30>    C       -3.65859        -0.33968        -3.05169
| 31>    C       -3.99347        -1.60777        -3.44171
| 32>    C       -4.15060        -2.79529        -2.70006
| 33>    C       -4.20475        -3.05397        -1.33364
| 34>    C       -4.43193        -4.39461        -1.06517
| 35>    C       -4.54986        -5.18638        -2.23498
| 36>    S       -4.39964        -4.26633        -3.65448
| 37>    C       -4.76603        -6.52861        -1.85761
| 38>    C       -4.78823        -6.59368        -0.44617
| 39>    C       -4.59172        -5.25690         0.09447
| 40>    C       -4.59000        -4.89886         1.40955
| 41>    C       -4.76198        -5.84892         2.44014
| 42>    N       -4.90007        -6.61545         3.28144
| 43>    C       -4.44368        -3.56337         1.84585
| 44>    N       -4.34698        -2.48855         2.23115
| 45>    C       -5.00654        -7.87738         0.02764
| 46>    C       -5.15443        -8.79586        -1.00808
| 47>    S       -5.01527        -8.05378        -2.59293
| 48>    C       -5.41537       -10.18302        -0.87894
| 49>    C       -5.57943       -11.00256        -2.01945
| 50>    C       -5.90258       -12.40116        -1.92266
| 51>    N       -6.05501       -13.12167        -3.03825
| 52>    C       -5.90563       -12.55599        -4.21176
| 53>    C       -5.58183       -11.16417        -4.30821
| 54>    N       -5.43313       -10.44147        -3.22431
| 55>    C       -5.41086       -10.55240        -5.57519
| 56>    N       -5.27327       -10.08315        -6.61049
| 57>    C       -6.05922       -13.34325        -5.38014
| 58>    N       -6.17609       -13.96020        -6.33769
| 59>    C       -6.07017       -13.05634        -0.68067
| 60>    C       -5.86676       -12.24929         0.46381
| 61>    C       -5.54959       -10.84162         0.36659
| 62>    N       -5.41553       -10.28988         1.57328
| 63>    S       -5.65621       -11.39958         2.70246
| 64>    N       -5.94618       -12.64299         1.73546
| 65>    C       -6.43974       -14.42294        -0.62172
| 66>    C       -6.61741       -15.19039         0.52656
| 67>    C       -7.02164       -16.48148         0.22791
| 68>    C       -7.16009       -16.70323        -1.16061
| 69>    S       -6.76896       -15.32378        -2.09243
| 70>    C       -7.60956       -18.02716        -1.35147
| 71>    C       -7.74328       -18.65470        -0.09313
| 72>    C       -7.37409       -17.70121         0.93942
| 73>    C       -7.36279       -17.90026         2.28804
| 74>    C       -7.71483       -19.13827         2.86772
| 75>    N       -7.99149       -20.14630         3.33786
| 76>    C       -6.98922       -16.88358         3.19342
| 77>    N       -6.68383       -16.06300         3.93334
| 78>    C       -8.19249       -19.96605        -0.19127
| 79>    C       -8.45340       -20.33437        -1.50311
| 80>    S       -8.06029       -19.04467        -2.63868
| 81>    C       -8.90827       -21.60390        -1.93373
| 82>    C       -9.53419       -21.94138        -3.09218
| 83>    C      -10.19814       -21.15340        -4.11177
| 84>    C      -10.89043       -19.98986        -3.90855
| 85>    C      -11.62269       -19.32483        -4.91422
| 86>    N      -12.22124       -18.73971        -5.69873
| 87>    C      -11.02759       -19.37893        -2.64432
| 88>    N      -11.19200       -18.87582        -1.62581
| 89>    C      -10.26912       -21.97850        -5.31493
| 90>    C       -9.90770       -23.29752        -4.98019
| 91>    C       -9.52030       -23.35944        -3.55338
| 92>    O       -9.20871       -24.32831        -2.90506
| 93>    C       -9.92925       -24.31595        -5.91187
| 94>    C      -10.31453       -23.97667        -7.20079
| 95>    C      -10.66031       -22.68119        -7.56002
| 96>    C      -10.64329       -21.66824        -6.61392
| 97>    F      -10.35150       -24.93379        -8.13947
| 98>    H       -1.96475         2.03545         0.01715
| 99>    H       -1.86771         5.08257        -2.99297
|100>    H       -2.88923         3.55633        -4.63854
|101>    H       -4.16304        -1.75001        -4.50280
|102>    H       -4.07286        -2.28532        -0.59370
|103>    H       -5.06499        -8.17138         1.05940
|104>    H       -6.45619       -14.78709         1.50941
|105>    H       -8.36784       -20.62609         0.63909
|106>    H       -8.66574       -22.43495        -1.27753
|107>    H       -9.66204       -25.32756        -5.65143
|108>    H      -10.94177       -22.47723        -8.58106
|109>    H      -10.90554       -20.66236        -6.89920
|110> *
|111>
|112>                          ****END OF INPUT****

CARTESIAN COORDINATES (ANGSTROEM)
---------------------------------
  C     -3.627250    0.803610   -3.952410
  C     -4.141100    0.868890   -5.220440
  C     -4.089130    2.020310   -6.036560
  N     -4.075770    2.914830   -6.755180
  C     -4.824200   -0.167430   -5.893690
  N     -5.406850   -0.946580   -6.503830
  C     -3.014670    1.919220   -3.236120
  C     -2.739470    1.512570   -1.919730
  C     -2.167470    2.358870   -0.991320
  C     -1.870080    3.643800   -1.419470
  C     -2.124540    4.072580   -2.714800
  C     -2.700920    3.211510   -3.635510
  F     -1.314050    4.506090   -0.555400
  C     -3.142980    0.103310   -1.732810
  O     -3.022550   -0.537710   -0.712610
  C     -3.658590   -0.339680   -3.051690
  C     -3.993470   -1.607770   -3.441710
  C     -4.150600   -2.795290   -2.700060
  C     -4.204750   -3.053970   -1.333640
  C     -4.431930   -4.394610   -1.065170
  C     -4.549860   -5.186380   -2.234980
  S     -4.399640   -4.266330   -3.654480
  C     -4.766030   -6.528610   -1.857610
  C     -4.788230   -6.593680   -0.446170
  C     -4.591720   -5.256900    0.094470
  C     -4.590000   -4.898860    1.409550
  C     -4.761980   -5.848920    2.440140
  N     -4.900070   -6.615450    3.281440
  C     -4.443680   -3.563370    1.845850
  N     -4.346980   -2.488550    2.231150
  C     -5.006540   -7.877380    0.027640
  C     -5.154430   -8.795860   -1.008080
  S     -5.015270   -8.053780   -2.592930
  C     -5.415370  -10.183020   -0.878940
  C     -5.579430  -11.002560   -2.019450
  C     -5.902580  -12.401160   -1.922660
  N     -6.055010  -13.121670   -3.038250
  C     -5.905630  -12.555990   -4.211760
  C     -5.581830  -11.164170   -4.308210
  N     -5.433130  -10.441470   -3.224310
  C     -5.410860  -10.552400   -5.575190
  N     -5.273270  -10.083150   -6.610490
  C     -6.059220  -13.343250   -5.380140
  N     -6.176090  -13.960200   -6.337690
  C     -6.070170  -13.056340   -0.680670
  C     -5.866760  -12.249290    0.463810
  C     -5.549590  -10.841620    0.366590
  N     -5.415530  -10.289880    1.573280
  S     -5.656210  -11.399580    2.702460
  N     -5.946180  -12.642990    1.735460
  C     -6.439740  -14.422940   -0.621720
  C     -6.617410  -15.190390    0.526560
  C     -7.021640  -16.481480    0.227910
  C     -7.160090  -16.703230   -1.160610
  S     -6.768960  -15.323780   -2.092430
  C     -7.609560  -18.027160   -1.351470
  C     -7.743280  -18.654700   -0.093130
  C     -7.374090  -17.701210    0.939420
  C     -7.362790  -17.900260    2.288040
  C     -7.714830  -19.138270    2.867720
  N     -7.991490  -20.146300    3.337860
  C     -6.989220  -16.883580    3.193420
  N     -6.683830  -16.063000    3.933340
  C     -8.192490  -19.966050   -0.191270
  C     -8.453400  -20.334370   -1.503110
  S     -8.060290  -19.044670   -2.638680
  C     -8.908270  -21.603900   -1.933730
  C     -9.534190  -21.941380   -3.092180
  C    -10.198140  -21.153400   -4.111770
  C    -10.890430  -19.989860   -3.908550
  C    -11.622690  -19.324830   -4.914220
  N    -12.221240  -18.739710   -5.698730
  C    -11.027590  -19.378930   -2.644320
  N    -11.192000  -18.875820   -1.625810
  C    -10.269120  -21.978500   -5.314930
  C     -9.907700  -23.297520   -4.980190
  C     -9.520300  -23.359440   -3.553380
  O     -9.208710  -24.328310   -2.905060
  C     -9.929250  -24.315950   -5.911870
  C    -10.314530  -23.976670   -7.200790
  C    -10.660310  -22.681190   -7.560020
  C    -10.643290  -21.668240   -6.613920
  F    -10.351500  -24.933790   -8.139470
  H     -1.964750    2.035450    0.017150
  H     -1.867710    5.082570   -2.992970
  H     -2.889230    3.556330   -4.638540
  H     -4.163040   -1.750010   -4.502800
  H     -4.072860   -2.285320   -0.593700
  H     -5.064990   -8.171380    1.059400
  H     -6.456190  -14.787090    1.509410
  H     -8.367840  -20.626090    0.639090
  H     -8.665740  -22.434950   -1.277530
  H     -9.662040  -25.327560   -5.651430
  H    -10.941770  -22.477230   -8.581060
  H    -10.905540  -20.662360   -6.899200

 Total Charge           Charge          ....    0
 Multiplicity           Mult            ....    1
 Number of Electrons    NEL             ....  584
 Basis Dimension        Dim             .... 1242

ORBITAL ENERGIES
----------------

  NO   OCC          E(Eh)            E(eV)
   0   2.0000     -89.067039     -2423.6373
   1   2.0000     -89.004702     -2421.9411
   2   2.0000     -89.003240     -2421.9013
   3   2.0000     -89.000337     -2421.8223
   4   2.0000     -88.999841     -2421.8088
   5   2.0000     -24.800645      -674.8599
   6   2.0000     -24.797368      -674.7707
   7   2.0000     -19.230420      -523.2863
   8   2.0000     -19.230131      -523.2785
   9   2.0000     -14.491874      -394.3439
  10   2.0000     -14.491568      -394.3356
  11   2.0000     -14.474842      -393.8805
  12   2.0000     -14.474412      -393.8688
  13   2.0000     -14.451319      -393.2404
  14   2.0000     -14.451254      -393.2386
  15   2.0000     -14.439419      -392.9166
  16   2.0000     -14.439032      -392.9060
  17   2.0000     -14.438335      -392.8871
  18   2.0000     -14.434879      -392.7930
  19   2.0000     -14.426276      -392.5589
  20   2.0000     -14.426204      -392.5570
  21   2.0000     -14.424055      -392.4985
  22   2.0000     -14.420454      -392.4005
  23   2.0000     -10.409555      -283.2584
  24   2.0000     -10.409063      -283.2450
  25   2.0000     -10.387907      -282.6693
  26   2.0000     -10.384096      -282.5656
  27   2.0000     -10.381401      -282.4923
  28   2.0000     -10.381174      -282.4861
  29   2.0000     -10.375527      -282.3324
  30   2.0000     -10.374300      -282.2991
  31   2.0000     -10.372929      -282.2617
  32   2.0000     -10.372644      -282.2540
  33   2.0000     -10.367584      -282.1163
  34   2.0000     -10.367338      -282.1096
  35   2.0000     -10.362625      -281.9814
  36   2.0000     -10.360846      -281.9330
  37   2.0000     -10.356599      -281.8174
  38   2.0000     -10.355386      -281.7844
  39   2.0000     -10.352644      -281.7098
  40   2.0000     -10.351798      -281.6868
  41   2.0000     -10.350461      -281.6504
  42   2.0000     -10.349779      -281.6318
  43   2.0000     -10.345824      -281.5242
  44   2.0000     -10.344608      -281.4911
  45   2.0000     -10.344288      -281.4824
  46   2.0000     -10.344098      -281.4772
  47   2.0000     -10.342423      -281.4316
  48   2.0000     -10.342033      -281.4210
  49   2.0000     -10.340226      -281.3719
  50   2.0000     -10.339715      -281.3580
  51   2.0000     -10.339434      -281.3503
  52   2.0000     -10.339153      -281.3427
  53   2.0000     -10.338823      -281.3337
  54   2.0000     -10.338365      -281.3212
  55   2.0000     -10.337840      -281.3069
  56   2.0000     -10.335759      -281.2503
  57   2.0000     -10.335661      -281.2476
  58   2.0000     -10.333933      -281.2006
  59   2.0000     -10.328288      -281.0470
  60   2.0000     -10.328146      -281.0431
  61   2.0000     -10.326770      -281.0057
  62   2.0000     -10.323270      -280.9105
  63   2.0000     -10.322411      -280.8871
  64   2.0000     -10.319369      -280.8043
  65   2.0000     -10.319206      -280.7999
  66   2.0000     -10.317618      -280.7567
  67   2.0000     -10.316635      -280.7299
  68   2.0000     -10.316362      -280.7225
  69   2.0000     -10.314368      -280.6682
  70   2.0000     -10.314305      -280.6665
  71   2.0000     -10.313888      -280.6552
  72   2.0000     -10.313422      -280.6425
  73   2.0000     -10.312445      -280.6159
  74   2.0000     -10.312236      -280.6102
  75   2.0000     -10.312105      -280.6066
  76   2.0000     -10.311038      -280.5776
  77   2.0000     -10.310508      -280.5632
  78   2.0000     -10.309721      -280.5418
  79   2.0000     -10.309364      -280.5321
  80   2.0000     -10.306767      -280.4614
  81   2.0000     -10.305713      -280.4327
  82   2.0000     -10.305122      -280.4166
  83   2.0000      -8.157915      -221.9882
  84   2.0000      -8.099003      -220.3851
  85   2.0000      -8.097983      -220.3573
  86   2.0000      -8.092961      -220.2207
  87   2.0000      -8.092438      -220.2064
  88   2.0000      -6.128964      -166.7776
  89   2.0000      -6.121011      -166.5612
  90   2.0000      -6.120932      -166.5590
  91   2.0000      -6.068228      -165.1249
  92   2.0000      -6.067034      -165.0924
  93   2.0000      -6.064014      -165.0102
  94   2.0000      -6.062910      -164.9802
  95   2.0000      -6.062517      -164.9695
  96   2.0000      -6.062008      -164.9556
  97   2.0000      -6.061414      -164.9395
  98   2.0000      -6.060594      -164.9172
  99   2.0000      -6.057695      -164.8383
 100   2.0000      -6.057184      -164.8244
 101   2.0000      -6.055387      -164.7754
 102   2.0000      -6.054850      -164.7608
 103   2.0000      -1.316924       -35.8353
 104   2.0000      -1.313367       -35.7385
 105   2.0000      -1.164803       -31.6959
 106   2.0000      -1.150803       -31.3149
 107   2.0000      -1.146230       -31.1905
 108   2.0000      -1.145990       -31.1840
 109   2.0000      -1.079669       -29.3793
 110   2.0000      -1.057832       -28.7851
 111   2.0000      -1.056335       -28.7443
 112   2.0000      -1.036963       -28.2172
 113   2.0000      -1.032893       -28.1064
 114   2.0000      -1.030565       -28.0431
 115   2.0000      -1.029441       -28.0125
 116   2.0000      -1.027122       -27.9494
 117   2.0000      -1.026409       -27.9300
 118   2.0000      -1.020848       -27.7787
 119   2.0000      -1.017314       -27.6825
 120   2.0000      -1.015981       -27.6463
 121   2.0000      -1.013265       -27.5724
 122   2.0000      -1.010263       -27.4907
 123   2.0000      -1.007944       -27.4276
 124   2.0000      -1.006633       -27.3919
 125   2.0000      -1.003823       -27.3154
 126   2.0000      -1.000526       -27.2257
 127   2.0000      -0.996301       -27.1107
 128   2.0000      -0.973135       -26.4803
 129   2.0000      -0.968447       -26.3528
 130   2.0000      -0.962491       -26.1907
 131   2.0000      -0.959355       -26.1054
 132   2.0000      -0.936073       -25.4718
 133   2.0000      -0.934183       -25.4204
 134   2.0000      -0.927799       -25.2467
 135   2.0000      -0.916840       -24.9485
 136   2.0000      -0.911246       -24.7963
 137   2.0000      -0.906248       -24.6603
 138   2.0000      -0.892564       -24.2879
 139   2.0000      -0.889479       -24.2040
 140   2.0000      -0.879984       -23.9456
 141   2.0000      -0.877990       -23.8913
 142   2.0000      -0.873950       -23.7814
 143   2.0000      -0.873310       -23.7640
 144   2.0000      -0.868469       -23.6322
 145   2.0000      -0.867260       -23.5993
 146   2.0000      -0.859431       -23.3863
 147   2.0000      -0.834354       -22.7039
 148   2.0000      -0.833066       -22.6689
 149   2.0000      -0.816800       -22.2263
 150   2.0000      -0.807463       -21.9722
 151   2.0000      -0.790406       -21.5080
 152   2.0000      -0.787802       -21.4372
 153   2.0000      -0.782668       -21.2975
 154   2.0000      -0.779513       -21.2116
 155   2.0000      -0.775152       -21.0929
 156   2.0000      -0.764704       -20.8087
 157   2.0000      -0.752178       -20.4678
 158   2.0000      -0.735550       -20.0153
 159   2.0000      -0.729667       -19.8553
 160   2.0000      -0.728747       -19.8302
 161   2.0000      -0.719509       -19.5788
 162   2.0000      -0.714039       -19.4300
 163   2.0000      -0.711750       -19.3677
 164   2.0000      -0.709548       -19.3078
 165   2.0000      -0.702846       -19.1254
 166   2.0000      -0.698169       -18.9982
 167   2.0000      -0.695161       -18.9163
 168   2.0000      -0.694608       -18.9013
 169   2.0000      -0.690192       -18.7811
 170   2.0000      -0.685361       -18.6496
 171   2.0000      -0.678745       -18.4696
 172   2.0000      -0.670884       -18.2557
 173   2.0000      -0.665022       -18.0962
 174   2.0000      -0.655816       -17.8456
 175   2.0000      -0.651411       -17.7258
 176   2.0000      -0.648346       -17.6424
 177   2.0000      -0.644122       -17.5275
 178   2.0000      -0.642435       -17.4815
 179   2.0000      -0.639329       -17.3970
 180   2.0000      -0.629961       -17.1421
 181   2.0000      -0.628675       -17.1071
 182   2.0000      -0.624777       -17.0010
 183   2.0000      -0.623086       -16.9550
 184   2.0000      -0.618628       -16.8337
 185   2.0000      -0.613415       -16.6919
 186   2.0000      -0.607190       -16.5225
 187   2.0000      -0.599504       -16.3133
 188   2.0000      -0.597410       -16.2564
 189   2.0000      -0.594802       -16.1854
 190   2.0000      -0.587893       -15.9974
 191   2.0000      -0.585118       -15.9219
 192   2.0000      -0.580578       -15.7983
 193   2.0000      -0.575623       -15.6635
 194   2.0000      -0.573953       -15.6181
 195   2.0000      -0.570995       -15.5376
 196   2.0000      -0.567388       -15.4394
 197   2.0000      -0.564239       -15.3537
 198   2.0000      -0.561082       -15.2678
 199   2.0000      -0.558627       -15.2010
 200   2.0000      -0.557244       -15.1634
 201   2.0000      -0.554543       -15.0899
 202   2.0000      -0.551207       -14.9991
 203   2.0000      -0.546871       -14.8811
 204   2.0000      -0.544893       -14.8273
 205   2.0000      -0.543537       -14.7904
 206   2.0000      -0.541867       -14.7450
 207   2.0000      -0.539012       -14.6673
 208   2.0000      -0.534916       -14.5558
 209   2.0000      -0.530786       -14.4434
 210   2.0000      -0.525352       -14.2955
 211   2.0000      -0.524067       -14.2606
 212   2.0000      -0.522964       -14.2306
 213   2.0000      -0.519355       -14.1324
 214   2.0000      -0.515810       -14.0359
 215   2.0000      -0.511172       -13.9097
 216   2.0000      -0.510625       -13.8948
 217   2.0000      -0.508562       -13.8387
 218   2.0000      -0.507217       -13.8021
 219   2.0000      -0.506311       -13.7774
 220   2.0000      -0.505562       -13.7571
 221   2.0000      -0.503446       -13.6995
 222   2.0000      -0.500941       -13.6313
 223   2.0000      -0.499658       -13.5964
 224   2.0000      -0.498293       -13.5592
 225   2.0000      -0.496108       -13.4998
 226   2.0000      -0.493675       -13.4336
 227   2.0000      -0.488752       -13.2996
 228   2.0000      -0.487281       -13.2596
 229   2.0000      -0.485085       -13.1998
 230   2.0000      -0.482718       -13.1354
 231   2.0000      -0.479176       -13.0390
 232   2.0000      -0.476664       -12.9707
 233   2.0000      -0.473621       -12.8879
 234   2.0000      -0.470564       -12.8047
 235   2.0000      -0.469978       -12.7887
 236   2.0000      -0.468702       -12.7540
 237   2.0000      -0.468229       -12.7412
 238   2.0000      -0.467043       -12.7089
 239   2.0000      -0.465348       -12.6628
 240   2.0000      -0.464335       -12.6352
 241   2.0000      -0.464146       -12.6301
 242   2.0000      -0.463006       -12.5990
 243   2.0000      -0.461568       -12.5599
 244   2.0000      -0.459347       -12.4995
 245   2.0000      -0.459124       -12.4934
 246   2.0000      -0.457607       -12.4521
 247   2.0000      -0.456141       -12.4122
 248   2.0000      -0.455053       -12.3826
 249   2.0000      -0.452670       -12.3178
 250   2.0000      -0.449204       -12.2234
 251   2.0000      -0.449102       -12.2207
 252   2.0000      -0.448805       -12.2126
 253   2.0000      -0.448287       -12.1985
 254   2.0000      -0.447815       -12.1857
 255   2.0000      -0.446194       -12.1416
 256   2.0000      -0.445614       -12.1258
 257   2.0000      -0.440647       -11.9906
 258   2.0000      -0.439016       -11.9462
 259   2.0000      -0.436862       -11.8876
 260   2.0000      -0.436463       -11.8768
 261   2.0000      -0.434556       -11.8249
 262   2.0000      -0.433854       -11.8058
 263   2.0000      -0.431415       -11.7394
 264   2.0000      -0.430847       -11.7239
 265   2.0000      -0.429621       -11.6906
 266   2.0000      -0.429253       -11.6806
 267   2.0000      -0.419471       -11.4144
 268   2.0000      -0.416535       -11.3345
 269   2.0000      -0.413789       -11.2598
 270   2.0000      -0.411403       -11.1949
 271   2.0000      -0.408879       -11.1262
 272   2.0000      -0.399703       -10.8765
 273   2.0000      -0.397777       -10.8241
 274   2.0000      -0.393606       -10.7106
 275   2.0000      -0.374575       -10.1927
 276   2.0000      -0.372355       -10.1323
 277   2.0000      -0.370856       -10.0915
 278   2.0000      -0.362201        -9.8560
 279   2.0000      -0.360744        -9.8163
 280   2.0000      -0.359584        -9.7848
 281   2.0000      -0.358097        -9.7443
 282   2.0000      -0.355644        -9.6776
 283   2.0000      -0.350905        -9.5486
 284   2.0000      -0.348371        -9.4797
 285   2.0000      -0.333569        -9.0769
 286   2.0000      -0.331695        -9.0259
 287   2.0000      -0.326456        -8.8833
 288   2.0000      -0.320799        -8.7294
 289   2.0000      -0.312830        -8.5125
 290   2.0000      -0.288629        -7.8540
 291   2.0000      -0.256238        -6.9726
 292   0.0000      -0.154472        -4.2034
 293   0.0000      -0.118835        -3.2337
 294   0.0000      -0.112810        -3.0697
 295   0.0000      -0.095003        -2.5852
 296   0.0000      -0.093175        -2.5354

MULLIKEN ATOMIC CHARGES
-----------------------
   0 C :    0.303123
   1 C :   -0.351613
   2 C :   -0.186731
   3 N :    0.155577
   4 C :   -0.195887
   5 N :    0.159168
   6 C :    0.030800
   7 C :   -0.017190
   8 C :   -0.090089
   9 C :    0.313188
  10 C :   -0.025622
  11 C :   -0.016655
  12 F :   -0.181814
  13 C :    0.153417
  14 O :   -0.141674
  15 C :   -0.086738
  16 C :    0.036756
  17 C :   -0.113846
  18 C :   -0.003514
  19 C :   -0.005448
  20 C :   -0.087279
  21 S :    0.217356
  22 C :   -0.064692
  23 C :    0.045487
  24 C :    0.311383
  25 C :   -0.297024
  26 C :   -0.189050
  27 N :    0.174897
  28 C :   -0.192408
  29 N :    0.193737
  30 C :   -0.067051
  31 C :   -0.169036
  32 S :    0.214064
  33 C :    0.190458
  34 C :   -0.059376
  35 C :   -0.059433
  36 N :   -0.006193
  37 C :   -0.094408
  38 C :   -0.094943
  39 N :   -0.004125
  40 C :   -0.242031
  41 N :    0.258992
  42 C :   -0.240656
  43 N :    0.256448
  44 C :    0.193108
  45 C :   -0.012863
  46 C :   -0.011600
  47 N :   -0.281829
  48 S :    0.597598
  49 N :   -0.281272
  50 C :   -0.170632
  51 C :   -0.066234
  52 C :    0.046171
  53 C :   -0.057919
  54 S :    0.215512
  55 C :   -0.090492
  56 C :    0.028338
  57 C :    0.304556
  58 C :   -0.293108
  59 C :   -0.188932
  60 N :    0.181114
  61 C :   -0.185601
  62 N :    0.173170
  63 C :    0.011213
  64 C :   -0.100732
  65 S :    0.215268
  66 C :    0.048628
  67 C :   -0.136367
  68 C :    0.240733
  69 C :   -0.322109
  70 C :   -0.179226
  71 N :    0.166030
  72 C :   -0.203101
  73 N :    0.173468
  74 C :    0.016570
  75 C :   -0.001838
  76 C :    0.141155
  77 O :   -0.130779
  78 C :   -0.090826
  79 C :    0.312399
  80 C :   -0.028518
  81 C :   -0.012684
  82 F :   -0.181343
  83 H :    0.009111
  84 H :    0.011764
  85 H :    0.010420
  86 H :    0.014053
  87 H :    0.040666
  88 H :    0.025066
  89 H :    0.024578
  90 H :    0.020244
  91 H :    0.037921
  92 H :    0.009567
  93 H :    0.014696
  94 H :    0.014562
Sum of atomic charges:   -0.0000000

LOEWDIN ATOMIC CHARGES
----------------------
   0 C :    0.076175
   1 C :   -0.139059
   2 C :   -0.018919
   3 N :   -0.048614
   4 C :   -0.024857
   5 N :   -0.048654
   6 C :   -0.026501
   7 C :   -0.032407
   8 C :   -0.012300
   9 C :    0.103326
  10 C :   -0.026332
  11 C :    0.014842
  12 F :   -0.055719
  13 C :    0.087423
  14 O :   -0.127953
  15 C :   -0.094618
  16 C :    0.041749
  17 C :   -0.172860
  18 C :    0.016661
  19 C :   -0.067838
  20 C :   -0.161143
  21 S :    0.504412
  22 C :   -0.183826
  23 C :   -0.060311
  24 C :    0.074389
  25 C :   -0.093118
  26 C :   -0.015168
  27 N :   -0.030414
  28 C :   -0.022944
  29 N :   -0.014967
  30 C :   -0.008214
  31 C :   -0.159831
  32 S :    0.514929
  33 C :   -0.037771
  34 C :   -0.012748
  35 C :   -0.013878
  36 N :   -0.015754
  37 C :   -0.018784
  38 C :   -0.017154
  39 N :   -0.016478
  40 C :   -0.040433
  41 N :    0.008824
  42 C :   -0.040067
  43 N :    0.006915
  44 C :   -0.033873
  45 C :   -0.036643
  46 C :   -0.035475
  47 N :   -0.269824
  48 S :    0.715342
  49 N :   -0.269343
  50 C :   -0.162114
  51 C :   -0.004441
  52 C :   -0.062486
  53 C :   -0.178327
  54 S :    0.517070
  55 C :   -0.155877
  56 C :   -0.062346
  57 C :    0.078784
  58 C :   -0.095219
  59 C :   -0.017623
  60 N :   -0.025740
  61 C :   -0.015894
  62 N :   -0.028833
  63 C :    0.012679
  64 C :   -0.173996
  65 S :    0.512821
  66 C :    0.049680
  67 C :   -0.095905
  68 C :    0.059956
  69 C :   -0.140061
  70 C :   -0.022195
  71 N :   -0.042997
  72 C :   -0.035035
  73 N :   -0.046058
  74 C :   -0.023293
  75 C :   -0.034887
  76 C :    0.085065
  77 O :   -0.129690
  78 C :   -0.012207
  79 C :    0.103084
  80 C :   -0.024243
  81 C :    0.013311
  82 F :   -0.055201
  83 H :    0.050467
  84 H :    0.045949
  85 H :    0.043495
  86 H :    0.043633
  87 H :    0.044080
  88 H :    0.039230
  89 H :    0.039569
  90 H :    0.048074
  91 H :    0.056405
  92 H :    0.050332
  93 H :    0.046841
  94 H :    0.043951

  Mayer bond orders larger than 0.100000
B(  0-C ,  1-C ) :   1.6331 B(  0-C ,  6-C ) :   0.9974 B(  0-C , 15-C ) :   1.0772
B(  1-C ,  2-C ) :   1.1430 B(  1-C ,  4-C ) :   1.1382 B(  2-C ,  3-N ) :   2.9766
B(  4-C ,  5-N ) :   2.9803 B(  6-C ,  7-C ) :   1.3358 B(  6-C , 11-C ) :   1.3578
B(  7-C ,  8-C ) :   1.3389 B(  7-C , 13-C ) :   0.9550 B(  8-C ,  9-C ) :   1.3073
B(  8-C , 83-H ) :   1.0182 B(  9-C , 10-C ) :   1.3568 B(  9-C , 12-F ) :   1.0929
B( 10-C , 11-C ) :   1.3600 B( 10-C , 84-H ) :   0.9879 B( 11-C , 85-H ) :   0.9825
B( 13-C , 14-O ) :   2.1803 B( 13-C , 15-C ) :   0.9439 B( 15-C , 16-C ) :   1.5998
B( 16-C , 17-C ) :   1.2121 B( 16-C , 86-H ) :   0.9134 B( 17-C , 18-C ) :   1.3926
B( 17-C , 21-S ) :   1.0820 B( 18-C , 19-C ) :   1.3247 B( 18-C , 87-H ) :   0.9707
B( 19-C , 20-C ) :   1.3670 B( 19-C , 24-C ) :   0.9931 B( 20-C , 21-S ) :   1.1635
B( 20-C , 22-C ) :   1.2177 B( 22-C , 23-C ) :   1.3955 B( 22-C , 32-S ) :   1.0801
B( 23-C , 24-C ) :   0.9894 B( 23-C , 30-C ) :   1.2865 B( 24-C , 25-C ) :   1.7180
B( 25-C , 26-C ) :   1.1398 B( 25-C , 28-C ) :   1.1338 B( 26-C , 27-N ) :   2.9835
B( 28-C , 29-N ) :   2.9968 B( 30-C , 31-C ) :   1.4005 B( 30-C , 88-H ) :   0.9821
B( 31-C , 32-S ) :   1.0944 B( 31-C , 33-C ) :   1.2110 B( 33-C , 34-C ) :   1.2530
B( 33-C , 44-C ) :   0.1220 B( 33-C , 46-C ) :   1.1985 B( 34-C , 35-C ) :   1.1106
B( 34-C , 39-N ) :   1.4034 B( 35-C , 36-N ) :   1.4052 B( 35-C , 44-C ) :   1.2484
B( 36-N , 37-C ) :   1.6905 B( 37-C , 38-C ) :   1.2206 B( 37-C , 42-C ) :   1.1654
B( 38-C , 39-N ) :   1.6935 B( 38-C , 40-C ) :   1.1666 B( 40-C , 41-N ) :   3.0399
B( 42-C , 43-N ) :   3.0398 B( 44-C , 45-C ) :   1.1981 B( 44-C , 50-C ) :   1.2168
B( 45-C , 46-C ) :   1.0970 B( 45-C , 49-N ) :   1.5163 B( 46-C , 47-N ) :   1.5158
B( 47-N , 48-S ) :   1.2884 B( 47-N , 49-N ) :   0.1459 B( 48-S , 49-N ) :   1.2892
B( 50-C , 51-C ) :   1.3964 B( 50-C , 54-S ) :   1.0914 B( 51-C , 52-C ) :   1.2894
B( 51-C , 89-H ) :   0.9830 B( 52-C , 53-C ) :   1.3900 B( 52-C , 57-C ) :   0.9895
B( 53-C , 54-S ) :   1.0863 B( 53-C , 55-C ) :   1.2221 B( 55-C , 56-C ) :   1.3933
B( 55-C , 65-S ) :   1.1483 B( 56-C , 57-C ) :   0.9900 B( 56-C , 63-C ) :   1.3071
B( 57-C , 58-C ) :   1.7196 B( 58-C , 59-C ) :   1.1299 B( 58-C , 61-C ) :   1.1396
B( 59-C , 60-N ) :   2.9947 B( 61-C , 62-N ) :   2.9828 B( 63-C , 64-C ) :   1.3985
B( 63-C , 90-H ) :   1.0003 B( 64-C , 65-S ) :   1.0957 B( 64-C , 66-C ) :   1.1262
B( 66-C , 67-C ) :   1.6594 B( 66-C , 91-H ) :   0.9463 B( 67-C , 68-C ) :   1.0294
B( 67-C , 76-C ) :   0.9397 B( 68-C , 69-C ) :   1.6633 B( 68-C , 74-C ) :   1.0163
B( 69-C , 70-C ) :   1.1289 B( 69-C , 72-C ) :   1.1550 B( 70-C , 71-N ) :   3.0016
B( 72-C , 73-N ) :   3.0184 B( 74-C , 75-C ) :   1.3328 B( 74-C , 81-C ) :   1.3658
B( 75-C , 76-C ) :   0.9242 B( 75-C , 78-C ) :   1.3433 B( 76-C , 77-O ) :   2.2781
B( 78-C , 79-C ) :   1.3149 B( 78-C , 92-H ) :   1.0176 B( 79-C , 80-C ) :   1.3571
B( 79-C , 82-F ) :   1.0930 B( 80-C , 81-C ) :   1.3551 B( 80-C , 93-H ) :   0.9896
B( 81-C , 94-H ) :   0.9863

-----------------------------------------------------------------------------
         ABSORPTION SPECTRUM VIA TRANSITION ELECTRIC DIPOLE MOMENTS
-----------------------------------------------------------------------------
State   Energy  Wavelength   fosc         T2         TX        TY        TZ
        (cm-1)    (nm)                  (au**2)     (au)      (au)      (au)
-----------------------------------------------------------------------------
   0    7320.5   1366.0   0.720490693  32.40140   1.44083   5.50382  -0.18271
   1   13745.4    727.5   0.018402031   0.44074   0.43997  -0.03035   0.49623
   2   14556.4    687.0   0.084076052   1.90149  -0.31897  -1.33586   0.12343
   3   15974.8    626.0   0.012492625   0.25745   0.31304  -0.24160   0.31795
   4   20400.3    490.2   0.702422543  11.33541   1.53116   2.86448   0.88639
   5   21288.4    469.7   0.690314655  10.67527   0.26751   3.10384  -0.98483
   6   21520.9    464.7   0.054517087   0.83397  -0.34765  -0.83647   0.11589
   7   23111.1    432.7   0.027718887   0.39485  -0.10741   0.56569  -0.25160
   8   23254.0    430.0   0.014816066   0.20975  -0.00869  -0.28234  -0.36051
   9   23550.9    424.6   0.299923978   4.19256  -0.05615   1.27563  -1.60068
  10   24461.1    408.8   0.020175503   0.27153   0.17214  -0.46261  -0.16701
  11   24660.6    405.5   0.020316020   0.27121   0.08913  -0.31719   0.40331
  12   24957.2    400.7   0.016594541   0.21890  -0.02404  -0.31724  -0.34305
  13   25078.2    398.8   0.000990032   0.01300   0.10191  -0.00682   0.05065
  14   25454.9    392.9   0.001451755   0.01878   0.12366  -0.01846  -0.05607
  15   26108.9    383.0   0.019789028   0.24952   0.09719   0.25077   0.42094
  16   27237.9    367.1   0.110765948   1.33878   0.43390   0.94704   0.50361
  17   27439.9    364.4   0.199962633   2.39907  -0.35706  -1.46190  -0.36662
  18   28172.1    355.0   0.015034517   0.17569   0.01900   0.11141   0.40363
  19   28873.4    346.3   0.068119123   0.77669  -0.24858  -0.52571  -0.66221
  20   29237.7    342.0   0.019673112   0.22152  -0.36124   0.26724  -0.14000
  21   29303.8    341.3   0.040574603   0.45583   0.06825   0.66786  -0.07164
  22   29608.3    337.7   0.031511201   0.35037   0.45973   0.18830  -0.32181
  23   29902.7    334.4   0.148349779   1.63325  -0.20780  -0.05284  -1.25987
  24   30158.5    331.6   0.358978436   3.91863   0.03412   0.24427   1.96413
  25   30177.0    331.4   0.094096385   1.02653   0.24496  -0.16931   0.96843
  26   30490.3    328.0   0.001702918   0.01839   0.02146   0.03581   0.12901
  27   30727.5    325.4   0.002633248   0.02821  -0.06624   0.04414  -0.14791
  28   31140.2    321.1   0.186526923   1.97195  -0.04763  -0.36965   1.35390
  29   31351.1    319.0   0.649157582   6.81669   0.41916   2.52982  -0.49091
  30   31596.7    316.5   0.016369173   0.17055  -0.26406   0.00779  -0.31743
  31   31973.8    312.8   0.769377840   7.92176   0.26624   1.01885   2.61014
  32   32313.5    309.5   0.359737082   3.66503  -0.10380   0.20740   1.90033
  33   32709.6    305.7   0.025013996   0.25176  -0.32423  -0.24953   0.29047
  34   33000.4    303.0   0.045198174   0.45090  -0.00614   0.63385  -0.22156
  35   33137.0    301.8   0.002188288   0.02174   0.07100   0.05771   0.11563
  36   33193.5    301.3   0.042192961   0.41847  -0.18393  -0.44365  -0.43337
  37   33391.4    299.5   0.104627839   1.03155  -0.22594   0.88476   0.44464
  38   33644.9    297.2   0.001528992   0.01496  -0.05772   0.03904  -0.10053
  39   33804.3    295.8   0.123004191   1.19791   0.34111   0.93777  -0.44959
  40   33879.8    295.2   0.040521038   0.39375  -0.02620  -0.08641  -0.62096
  41   34199.1    292.4   0.062266593   0.59940  -0.36964  -0.29616  -0.61242
  42   34517.3    289.7   0.074097249   0.70671   0.12305  -0.28189   0.78237
  43   34542.4    289.5   0.104481940   0.99578   0.27845   0.95821  -0.00878
  44   34637.1    288.7   0.062695884   0.59590  -0.14570  -0.52164   0.55006
  45   34854.9    286.9   0.057940363   0.54726  -0.16738  -0.70524  -0.14789
  46   35130.8    284.7   0.026012801   0.24377   0.14980  -0.40591  -0.23783
  47   35211.6    284.0   0.289619614   2.70781  -0.00985  -0.78024  -1.44877
  48   35682.4    280.3   0.042135122   0.38875   0.53611   0.14143  -0.28518
  49   35883.9    278.7   0.014047121   0.12887  -0.24977  -0.15665   0.20482
  50   36131.6    276.8   0.772780270   7.04116  -0.77998  -1.21843  -2.22446
  51   36218.1    276.1   0.188714419   1.71536  -0.17557   1.27380   0.24894
  52   36480.6    274.1   0.084679546   0.76417   0.06649  -0.36513   0.79148
  53   36651.2    272.8   0.088284529   0.79300  -0.16916  -0.07644  -0.87094
  54   36780.0    271.9   0.041736535   0.37358  -0.39045   0.27450  -0.38181
  55   37104.5    269.5   0.046811735   0.41534  -0.09591   0.60611  -0.19692
  56   37141.2    269.2   0.263835256   2.33858  -0.44678   1.29515   0.67938
  57   37404.5    267.3   0.003680295   0.03239  -0.05902  -0.08886   0.14496
  58   38000.9    263.2   0.025619404   0.22195  -0.30428  -0.23100  -0.27568
  59   38061.2    262.7   0.042270749   0.36562  -0.15884   0.13429  -0.56776
  60   38380.3    260.6   0.009497958   0.08147  -0.04329   0.16489   0.22893
  61   38724.4    258.2   0.010122838   0.08606  -0.16055  -0.21310   0.12194
  62   38778.8    257.9   0.002136602   0.01814   0.09101  -0.00835   0.09892
  63   38908.2    257.0   0.006689122   0.05660  -0.06704  -0.02714  -0.22665
  64   39025.7    256.2   0.019205904   0.16202  -0.13752  -0.35681   0.12567
  65   39284.6    254.6   0.011869517   0.09947   0.20815  -0.13271   0.19629
  66   39469.6    253.4   0.044357534   0.36998  -0.09364  -0.06991  -0.59693
  67   39541.8    252.9   0.223984149   1.86482   0.07824  -0.58030   1.23367
  68   39556.8    252.8   0.045558685   0.37916   0.04993   0.09302   0.60664
  69   39951.7    250.3   0.178512624   1.47099  -0.29412   0.29836  -1.13819
  70   40022.1    249.9   0.137053711   1.12737   0.01109   0.59503   0.87931

FINAL SINGLE POINT ENERGY     -5396.093420515838

DIPOLE MOMENT
-------------
                                X             Y             Z
Electronic contribution:      2.44260      -4.24112       2.64922
Nuclear contribution   :     -0.75927       3.09431      -2.43309
                        -----------------------------------------
Total Dipole Moment    :      1.68333      -1.14681       0.21613
                        -----------------------------------------
Magnitude (a.u.)       :      2.04828
Magnitude (Debye)      :      5.20633

Rotational constants in cm-1:     0.001570     0.000187     0.000170
Rotational constants in MHz :    47.064605     5.604785     5.085212

                             ****ORCA TERMINATED NORMALLY****
TOTAL RUN TIME: 0 days 0 hours 11 minutes 57 seconds 697 msec
