                         Program Version 4.2.0 -  RELEASE  -
|  1> # ORCA input file
|  2> # SCF done       -204.340720017578          0.000480799929
|  3> ! CAM-B3LYP def2-SVP def2/J RIJCOSX Grid4 TightSCF
|  4> %maxcore 5000
|  5> %tddft
|  6>     Mode sTDDFT
|  7>     Ethresh 5.0
|  8>     maxcore 5000
|  9> end
| 10>
| 11> %pal
| 12>   nprocs 6
| 13>   end
| 14> * xyz 0 1
| 15>    C       -2.79043        -8.44452         8.41770
| 16>    O       -3.76629        -9.02185         7.99218
| 17>    C       -2.37396        -8.39959         9.83568
| 18>    C       -1.22370        -7.60522         9.97207
| 19>    C       -0.65324        -7.43817        11.22370
| 20>    C       -1.24473        -8.06545        12.31443
| 21>    C       -2.39244        -8.84852        12.16817
| 22>    C       -2.96665        -9.02024        10.91560
| 23>   Br       -3.17600        -9.68744        13.66865
| 24>   Br       -0.46168        -7.84199        14.02018
| 25>    C       -0.85321        -7.08815         8.65673
| 26>    C        0.13878        -6.17240         8.42697
| 27>    C        0.97078        -5.64368         9.43873
| 28>    N        1.67809        -5.18200        10.21516
| 29>    C        0.46333        -5.58827         7.18257
| 30>    N        0.78732        -5.04723         6.22305
| 31>    C       -1.76697        -7.66561         7.68149
| 32>    C       -1.59309        -7.55825         6.32723
| 33>    C       -2.36889        -8.02072         5.24673
| 34>    C       -3.61618        -8.61839         5.15821
| 35>    C       -3.99870        -8.88930         3.85145
| 36>   Cl       -5.49808        -9.62177         3.46143
| 37>    C       -3.05818        -8.51392         2.88141
| 38>    S       -1.68314        -7.79408         3.65134
| 39>    C       -3.14440        -8.68336         1.48452
| 40>    C       -2.19753        -8.33705         0.51794
| 41>   Cl       -0.70650        -7.58325         0.89308
| 42>    C       -2.56682        -8.66334        -0.78029
| 43>    C       -3.81277        -9.26506        -0.84937
| 44>    S       -4.53369        -9.41719         0.72346
| 45>    C       -4.48193        -9.74641        -2.00329
| 46>    C       -5.76790       -10.32180        -1.89222
| 47>    C       -6.47580       -10.85091        -3.02497
| 48>    N       -7.69130       -11.37958        -2.85449
| 49>    C       -8.23241       -11.41690        -1.66126
| 50>    C       -7.52309       -10.89609        -0.53010
| 51>    N       -6.33096       -10.37267        -0.68127
| 52>    C       -8.09411       -10.93885         0.76647
| 53>    N       -8.57434       -10.98528         1.80481
| 54>    C       -9.52437       -11.98034        -1.51202
| 55>    N      -10.56692       -12.43158        -1.36879
| 56>    C       -5.93235       -10.84524        -4.32921
| 57>    C       -4.65129       -10.25860        -4.45050
| 58>    C       -3.94197        -9.71484        -3.31015
| 59>    N       -2.75766        -9.21604        -3.66544
| 60>    S       -2.55243        -9.40268        -5.24413
| 61>    N       -3.94418       -10.12665        -5.57302
| 62>    C       -6.65928       -11.41141        -5.40699
| 63>    C       -6.26677       -11.51856        -6.73116
| 64>    C       -7.21809       -12.14519        -7.52500
| 65>   Cl       -6.99306       -12.41160        -9.20233
| 66>    C       -8.37161       -12.52752        -6.83832
| 67>    S       -8.23786       -12.09040        -5.15408
| 68>    C       -9.51834       -13.16053        -7.35779
| 69>    C      -10.71137       -13.46681        -6.69682
| 70>   Cl      -10.97862       -13.11836        -5.04094
| 71>    C      -11.66032       -14.08666        -7.50285
| 72>    C      -11.24219       -14.25974        -8.81148
| 73>    S       -9.61455       -13.67140        -9.01349
| 74>    C      -11.96515       -14.92689        -9.82510
| 75>    C      -11.70813       -15.01735       -11.15926
| 76>    C      -12.28444       -16.15002       -11.93505
| 77>    O      -13.19023       -16.87572       -11.60439
| 78>    C      -11.45543       -16.22707       -13.15958
| 79>    C      -10.55411       -15.14603       -13.18840
| 80>    C      -10.81623       -14.28661       -12.03602
| 81>    C      -10.51546       -12.95377       -11.96126
| 82>    C      -11.07805       -12.09118       -10.99542
| 83>    N      -11.56547       -11.35380       -10.26411
| 84>    C       -9.69597       -12.28267       -12.89190
| 85>    N       -9.01448       -11.70423       -13.61102
| 86>    C       -9.64501       -15.03069       -14.22529
| 87>    C       -9.65326       -15.99707       -15.22501
| 88>    C      -10.56235       -17.05762       -15.19976
| 89>    C      -11.47376       -17.17870       -14.15810
| 90>   Br      -10.56060       -18.34816       -16.57977
| 91>   Br       -8.40071       -15.85611       -16.63248
| 92>    H        0.23312        -6.84490        11.37819
| 93>    H       -3.85178        -9.62364        10.78620
| 94>    H       -0.69330        -7.04720         6.00409
| 95>    H       -4.22039        -8.85321         6.01514
| 96>    H       -1.96122        -8.47747        -1.64745
| 97>    H       -5.32310       -11.15246        -7.09008
| 98>    H      -12.63227       -14.38009        -7.15099
| 99>    H      -12.79381       -15.53626        -9.47646
|100>    H       -8.92907       -14.22557       -14.27090
|101>    H      -12.17764       -17.99594       -14.12901
|102> *
|103>
|104>                          ****END OF INPUT****

CARTESIAN COORDINATES (ANGSTROEM)
---------------------------------
  C     -2.790430   -8.444520    8.417700
  O     -3.766290   -9.021850    7.992180
  C     -2.373960   -8.399590    9.835680
  C     -1.223700   -7.605220    9.972070
  C     -0.653240   -7.438170   11.223700
  C     -1.244730   -8.065450   12.314430
  C     -2.392440   -8.848520   12.168170
  C     -2.966650   -9.020240   10.915600
  Br    -3.176000   -9.687440   13.668650
  Br    -0.461680   -7.841990   14.020180
  C     -0.853210   -7.088150    8.656730
  C      0.138780   -6.172400    8.426970
  C      0.970780   -5.643680    9.438730
  N      1.678090   -5.182000   10.215160
  C      0.463330   -5.588270    7.182570
  N      0.787320   -5.047230    6.223050
  C     -1.766970   -7.665610    7.681490
  C     -1.593090   -7.558250    6.327230
  C     -2.368890   -8.020720    5.246730
  C     -3.616180   -8.618390    5.158210
  C     -3.998700   -8.889300    3.851450
  Cl    -5.498080   -9.621770    3.461430
  C     -3.058180   -8.513920    2.881410
  S     -1.683140   -7.794080    3.651340
  C     -3.144400   -8.683360    1.484520
  C     -2.197530   -8.337050    0.517940
  Cl    -0.706500   -7.583250    0.893080
  C     -2.566820   -8.663340   -0.780290
  C     -3.812770   -9.265060   -0.849370
  S     -4.533690   -9.417190    0.723460
  C     -4.481930   -9.746410   -2.003290
  C     -5.767900  -10.321800   -1.892220
  C     -6.475800  -10.850910   -3.024970
  N     -7.691300  -11.379580   -2.854490
  C     -8.232410  -11.416900   -1.661260
  C     -7.523090  -10.896090   -0.530100
  N     -6.330960  -10.372670   -0.681270
  C     -8.094110  -10.938850    0.766470
  N     -8.574340  -10.985280    1.804810
  C     -9.524370  -11.980340   -1.512020
  N    -10.566920  -12.431580   -1.368790
  C     -5.932350  -10.845240   -4.329210
  C     -4.651290  -10.258600   -4.450500
  C     -3.941970   -9.714840   -3.310150
  N     -2.757660   -9.216040   -3.665440
  S     -2.552430   -9.402680   -5.244130
  N     -3.944180  -10.126650   -5.573020
  C     -6.659280  -11.411410   -5.406990
  C     -6.266770  -11.518560   -6.731160
  C     -7.218090  -12.145190   -7.525000
  Cl    -6.993060  -12.411600   -9.202330
  C     -8.371610  -12.527520   -6.838320
  S     -8.237860  -12.090400   -5.154080
  C     -9.518340  -13.160530   -7.357790
  C    -10.711370  -13.466810   -6.696820
  Cl   -10.978620  -13.118360   -5.040940
  C    -11.660320  -14.086660   -7.502850
  C    -11.242190  -14.259740   -8.811480
  S     -9.614550  -13.671400   -9.013490
  C    -11.965150  -14.926890   -9.825100
  C    -11.708130  -15.017350  -11.159260
  C    -12.284440  -16.150020  -11.935050
  O    -13.190230  -16.875720  -11.604390
  C    -11.455430  -16.227070  -13.159580
  C    -10.554110  -15.146030  -13.188400
  C    -10.816230  -14.286610  -12.036020
  C    -10.515460  -12.953770  -11.961260
  C    -11.078050  -12.091180  -10.995420
  N    -11.565470  -11.353800  -10.264110
  C     -9.695970  -12.282670  -12.891900
  N     -9.014480  -11.704230  -13.611020
  C     -9.645010  -15.030690  -14.225290
  C     -9.653260  -15.997070  -15.225010
  C    -10.562350  -17.057620  -15.199760
  C    -11.473760  -17.178700  -14.158100
  Br   -10.560600  -18.348160  -16.579770
  Br    -8.400710  -15.856110  -16.632480
  H      0.233120   -6.844900   11.378190
  H     -3.851780   -9.623640   10.786200
  H     -0.693300   -7.047200    6.004090
  H     -4.220390   -8.853210    6.015140
  H     -1.961220   -8.477470   -1.647450
  H     -5.323100  -11.152460   -7.090080
  H    -12.632270  -14.380090   -7.150990
  H    -12.793810  -15.536260   -9.476460
  H     -8.929070  -14.225570  -14.270900
  H    -12.177640  -17.995940  -14.129010

 Total Charge           Charge          ....    0
 Multiplicity           Mult            ....    1
 Number of Electrons    NEL             ....  696
 Basis Dimension        Dim             .... 1236

ORBITAL ENERGIES
----------------

  NO   OCC          E(Eh)            E(eV)
   0   2.0000    -482.880082    -13139.8350
   1   2.0000    -482.879464    -13139.8182
   2   2.0000    -482.878934    -13139.8038
   3   2.0000    -482.877044    -13139.7524
   4   2.0000    -101.610872     -2764.9724
   5   2.0000    -101.610574     -2764.9643
   6   2.0000    -101.608649     -2764.9119
   7   2.0000    -101.606485     -2764.8530
   8   2.0000     -89.065553     -2423.5969
   9   2.0000     -88.982859     -2421.3467
  10   2.0000     -88.982045     -2421.3245
  11   2.0000     -88.977473     -2421.2001
  12   2.0000     -88.977364     -2421.1972
  13   2.0000     -62.557652     -1702.2802
  14   2.0000     -62.557058     -1702.2641
  15   2.0000     -62.556530     -1702.2497
  16   2.0000     -62.554671     -1702.1991
  17   2.0000     -56.391604     -1534.4936
  18   2.0000     -56.391019     -1534.4776
  19   2.0000     -56.390481     -1534.4630
  20   2.0000     -56.388948     -1534.4213
  21   2.0000     -56.388857     -1534.4188
  22   2.0000     -56.388634     -1534.4127
  23   2.0000     -56.388351     -1534.4051
  24   2.0000     -56.388258     -1534.4025
  25   2.0000     -56.387832     -1534.3909
  26   2.0000     -56.387726     -1534.3880
  27   2.0000     -56.385960     -1534.3400
  28   2.0000     -56.385866     -1534.3374
  29   2.0000     -19.230271      -523.2823
  30   2.0000     -19.225922      -523.1639
  31   2.0000     -14.485093      -394.1594
  32   2.0000     -14.484833      -394.1523
  33   2.0000     -14.474210      -393.8633
  34   2.0000     -14.474088      -393.8600
  35   2.0000     -14.447161      -393.1272
  36   2.0000     -14.447016      -393.1233
  37   2.0000     -14.424704      -392.5161
  38   2.0000     -14.424694      -392.5159
  39   2.0000     -14.421263      -392.4225
  40   2.0000     -14.421002      -392.4154
  41   2.0000     -10.404390      -283.1179
  42   2.0000     -10.404124      -283.1106
  43   2.0000     -10.381406      -282.4924
  44   2.0000     -10.377954      -282.3985
  45   2.0000     -10.367159      -282.1047
  46   2.0000     -10.366895      -282.0975
  47   2.0000     -10.365199      -282.0514
  48   2.0000     -10.364959      -282.0449
  49   2.0000     -10.357958      -281.8544
  50   2.0000     -10.357000      -281.8283
  51   2.0000     -10.356173      -281.8058
  52   2.0000     -10.355739      -281.7940
  53   2.0000     -10.355131      -281.7774
  54   2.0000     -10.352356      -281.7019
  55   2.0000     -10.352355      -281.7019
  56   2.0000     -10.350853      -281.6610
  57   2.0000     -10.349398      -281.6214
  58   2.0000     -10.347624      -281.5732
  59   2.0000     -10.347601      -281.5726
  60   2.0000     -10.347214      -281.5620
  61   2.0000     -10.344665      -281.4926
  62   2.0000     -10.343743      -281.4676
  63   2.0000     -10.340337      -281.3749
  64   2.0000     -10.340182      -281.3707
  65   2.0000     -10.340113      -281.3688
  66   2.0000     -10.339742      -281.3587
  67   2.0000     -10.333472      -281.1881
  68   2.0000     -10.331398      -281.1316
  69   2.0000     -10.331352      -281.1304
  70   2.0000     -10.331160      -281.1252
  71   2.0000     -10.330193      -281.0988
  72   2.0000     -10.330059      -281.0952
  73   2.0000     -10.327605      -281.0284
  74   2.0000     -10.326906      -281.0094
  75   2.0000     -10.326443      -280.9968
  76   2.0000     -10.325868      -280.9811
  77   2.0000     -10.323795      -280.9247
  78   2.0000     -10.323029      -280.9039
  79   2.0000     -10.322644      -280.8934
  80   2.0000     -10.320523      -280.8357
  81   2.0000     -10.315918      -280.7104
  82   2.0000     -10.315796      -280.7071
  83   2.0000     -10.314037      -280.6592
  84   2.0000     -10.313718      -280.6505
  85   2.0000     -10.310538      -280.5640
  86   2.0000     -10.310168      -280.5539
  87   2.0000     -10.308426      -280.5065
  88   2.0000     -10.307715      -280.4872
  89   2.0000     -10.306073      -280.4425
  90   2.0000     -10.301275      -280.3119
  91   2.0000     -10.300931      -280.3026
  92   2.0000     -10.299855      -280.2733
  93   2.0000      -9.565621      -260.2938
  94   2.0000      -9.565320      -260.2856
  95   2.0000      -9.563247      -260.2292
  96   2.0000      -9.561058      -260.1696
  97   2.0000      -8.786954      -239.1052
  98   2.0000      -8.786363      -239.0891
  99   2.0000      -8.785845      -239.0750
 100   2.0000      -8.783997      -239.0247
 101   2.0000      -8.156707      -221.9553
 102   2.0000      -8.077285      -219.7941
 103   2.0000      -8.076971      -219.7855
 104   2.0000      -8.070623      -219.6128
 105   2.0000      -8.070513      -219.6098
 106   2.0000      -7.335678      -199.6140
 107   2.0000      -7.335371      -199.6056
 108   2.0000      -7.333435      -199.5529
 109   2.0000      -7.331213      -199.4924
 110   2.0000      -7.325709      -199.3427
 111   2.0000      -7.325647      -199.3410
 112   2.0000      -7.325436      -199.3352
 113   2.0000      -7.325337      -199.3325
 114   2.0000      -7.323313      -199.2775
 115   2.0000      -7.323156      -199.2732
 116   2.0000      -7.321165      -199.2190
 117   2.0000      -7.320969      -199.2137
 118   2.0000      -6.623052      -180.2224
 119   2.0000      -6.622504      -180.2075
 120   2.0000      -6.621975      -180.1931
 121   2.0000      -6.620177      -180.1442
 122   2.0000      -6.609082      -179.8423
 123   2.0000      -6.608474      -179.8257
 124   2.0000      -6.608308      -179.8212
 125   2.0000      -6.607984      -179.8124
 126   2.0000      -6.607696      -179.8045
 127   2.0000      -6.607162      -179.7900
 128   2.0000      -6.606083      -179.7607
 129   2.0000      -6.605326      -179.7400
 130   2.0000      -6.127817      -166.7464
 131   2.0000      -6.119849      -166.5295
 132   2.0000      -6.119610      -166.5231
 133   2.0000      -6.046758      -164.5406
 134   2.0000      -6.046303      -164.5283
 135   2.0000      -6.042396      -164.4219
 136   2.0000      -6.042048      -164.4125
 137   2.0000      -6.040390      -164.3674
 138   2.0000      -6.040267      -164.3640
 139   2.0000      -6.039118      -164.3328
 140   2.0000      -6.038946      -164.3281
 141   2.0000      -6.035513      -164.2347
 142   2.0000      -6.035420      -164.2321
 143   2.0000      -6.032319      -164.1477
 144   2.0000      -6.032189      -164.1442
 145   2.0000      -2.739011       -74.5323
 146   2.0000      -2.738455       -74.5172
 147   2.0000      -2.737887       -74.5017
 148   2.0000      -2.736066       -74.4521
 149   2.0000      -2.735187       -74.4282
 150   2.0000      -2.734619       -74.4128
 151   2.0000      -2.734595       -74.4121
 152   2.0000      -2.734084       -74.3982
 153   2.0000      -2.734016       -74.3964
 154   2.0000      -2.733539       -74.3834
 155   2.0000      -2.732295       -74.3495
 156   2.0000      -2.731675       -74.3327
 157   2.0000      -2.723466       -74.1093
 158   2.0000      -2.723463       -74.1092
 159   2.0000      -2.722855       -74.0927
 160   2.0000      -2.722845       -74.0924
 161   2.0000      -2.722365       -74.0793
 162   2.0000      -2.722348       -74.0788
 163   2.0000      -2.720487       -74.0282
 164   2.0000      -2.720475       -74.0279
 165   2.0000      -1.163003       -31.6469
 166   2.0000      -1.145975       -31.1836
 167   2.0000      -1.145667       -31.1752
 168   2.0000      -1.142179       -31.0803
 169   2.0000      -1.074119       -29.2283
 170   2.0000      -1.040186       -28.3049
 171   2.0000      -1.038410       -28.2566
 172   2.0000      -1.032207       -28.0878
 173   2.0000      -1.030221       -28.0337
 174   2.0000      -1.029390       -28.0111
 175   2.0000      -1.023118       -27.8405
 176   2.0000      -1.018671       -27.7194
 177   2.0000      -1.016364       -27.6567
 178   2.0000      -1.013213       -27.5709
 179   2.0000      -1.012972       -27.5644
 180   2.0000      -1.010812       -27.5056
 181   2.0000      -1.001293       -27.2466
 182   2.0000      -1.001156       -27.2428
 183   2.0000      -0.998169       -27.1616
 184   2.0000      -0.983381       -26.7591
 185   2.0000      -0.981980       -26.7210
 186   2.0000      -0.972474       -26.4624
 187   2.0000      -0.969158       -26.3721
 188   2.0000      -0.963170       -26.2092
 189   2.0000      -0.958521       -26.0827
 190   2.0000      -0.929477       -25.2924
 191   2.0000      -0.926185       -25.2028
 192   2.0000      -0.925346       -25.1799
 193   2.0000      -0.921789       -25.0831
 194   2.0000      -0.917906       -24.9775
 195   2.0000      -0.915750       -24.9188
 196   2.0000      -0.912543       -24.8316
 197   2.0000      -0.908376       -24.7182
 198   2.0000      -0.889860       -24.2143
 199   2.0000      -0.882903       -24.0250
 200   2.0000      -0.864860       -23.5340
 201   2.0000      -0.861168       -23.4336
 202   2.0000      -0.857349       -23.3297
 203   2.0000      -0.855901       -23.2903
 204   2.0000      -0.855053       -23.2672
 205   2.0000      -0.842416       -22.9233
 206   2.0000      -0.838839       -22.8260
 207   2.0000      -0.837239       -22.7824
 208   2.0000      -0.828091       -22.5335
 209   2.0000      -0.823548       -22.4099
 210   2.0000      -0.816714       -22.2239
 211   2.0000      -0.800714       -21.7885
 212   2.0000      -0.783374       -21.3167
 213   2.0000      -0.775389       -21.0994
 214   2.0000      -0.771504       -20.9937
 215   2.0000      -0.765224       -20.8228
 216   2.0000      -0.759999       -20.6806
 217   2.0000      -0.744076       -20.2473
 218   2.0000      -0.728282       -19.8175
 219   2.0000      -0.726952       -19.7814
 220   2.0000      -0.724468       -19.7138
 221   2.0000      -0.715965       -19.4824
 222   2.0000      -0.706617       -19.2280
 223   2.0000      -0.703510       -19.1435
 224   2.0000      -0.698428       -19.0052
 225   2.0000      -0.694200       -18.8901
 226   2.0000      -0.691305       -18.8114
 227   2.0000      -0.681069       -18.5328
 228   2.0000      -0.672581       -18.3019
 229   2.0000      -0.670943       -18.2573
 230   2.0000      -0.665606       -18.1121
 231   2.0000      -0.657195       -17.8832
 232   2.0000      -0.648679       -17.6514
 233   2.0000      -0.644917       -17.5491
 234   2.0000      -0.639020       -17.3886
 235   2.0000      -0.634631       -17.2692
 236   2.0000      -0.628226       -17.0949
 237   2.0000      -0.625258       -17.0141
 238   2.0000      -0.621698       -16.9173
 239   2.0000      -0.620509       -16.8849
 240   2.0000      -0.612313       -16.6619
 241   2.0000      -0.606879       -16.5140
 242   2.0000      -0.602498       -16.3948
 243   2.0000      -0.594992       -16.1906
 244   2.0000      -0.592444       -16.1212
 245   2.0000      -0.587084       -15.9754
 246   2.0000      -0.580957       -15.8086
 247   2.0000      -0.577868       -15.7246
 248   2.0000      -0.576416       -15.6851
 249   2.0000      -0.566694       -15.4205
 250   2.0000      -0.560839       -15.2612
 251   2.0000      -0.555758       -15.1229
 252   2.0000      -0.554636       -15.0924
 253   2.0000      -0.550762       -14.9870
 254   2.0000      -0.549477       -14.9520
 255   2.0000      -0.548307       -14.9202
 256   2.0000      -0.547225       -14.8908
 257   2.0000      -0.545164       -14.8347
 258   2.0000      -0.541983       -14.7481
 259   2.0000      -0.539630       -14.6841
 260   2.0000      -0.536781       -14.6066
 261   2.0000      -0.535423       -14.5696
 262   2.0000      -0.534672       -14.5492
 263   2.0000      -0.532973       -14.5029
 264   2.0000      -0.523590       -14.2476
 265   2.0000      -0.521698       -14.1961
 266   2.0000      -0.517620       -14.0852
 267   2.0000      -0.515860       -14.0373
 268   2.0000      -0.513600       -13.9758
 269   2.0000      -0.511291       -13.9129
 270   2.0000      -0.509698       -13.8696
 271   2.0000      -0.508385       -13.8339
 272   2.0000      -0.507338       -13.8054
 273   2.0000      -0.506149       -13.7730
 274   2.0000      -0.505588       -13.7578
 275   2.0000      -0.500820       -13.6280
 276   2.0000      -0.497818       -13.5463
 277   2.0000      -0.496726       -13.5166
 278   2.0000      -0.495569       -13.4851
 279   2.0000      -0.492375       -13.3982
 280   2.0000      -0.489721       -13.3260
 281   2.0000      -0.486437       -13.2366
 282   2.0000      -0.479898       -13.0587
 283   2.0000      -0.474885       -12.9223
 284   2.0000      -0.472524       -12.8580
 285   2.0000      -0.469841       -12.7850
 286   2.0000      -0.468439       -12.7469
 287   2.0000      -0.467977       -12.7343
 288   2.0000      -0.466880       -12.7045
 289   2.0000      -0.465697       -12.6723
 290   2.0000      -0.464535       -12.6406
 291   2.0000      -0.463092       -12.6014
 292   2.0000      -0.460964       -12.5435
 293   2.0000      -0.457818       -12.4579
 294   2.0000      -0.456439       -12.4203
 295   2.0000      -0.456146       -12.4124
 296   2.0000      -0.455480       -12.3942
 297   2.0000      -0.451734       -12.2923
 298   2.0000      -0.449574       -12.2335
 299   2.0000      -0.449033       -12.2188
 300   2.0000      -0.447089       -12.1659
 301   2.0000      -0.444812       -12.1040
 302   2.0000      -0.444234       -12.0882
 303   2.0000      -0.436259       -11.8712
 304   2.0000      -0.435495       -11.8504
 305   2.0000      -0.435048       -11.8383
 306   2.0000      -0.433357       -11.7922
 307   2.0000      -0.432707       -11.7746
 308   2.0000      -0.432330       -11.7643
 309   2.0000      -0.431478       -11.7411
 310   2.0000      -0.427353       -11.6289
 311   2.0000      -0.425074       -11.5669
 312   2.0000      -0.423157       -11.5147
 313   2.0000      -0.418663       -11.3924
 314   2.0000      -0.416566       -11.3353
 315   2.0000      -0.415221       -11.2987
 316   2.0000      -0.407119       -11.0783
 317   2.0000      -0.404815       -11.0156
 318   2.0000      -0.402696       -10.9579
 319   2.0000      -0.402061       -10.9406
 320   2.0000      -0.401705       -10.9309
 321   2.0000      -0.398082       -10.8324
 322   2.0000      -0.393539       -10.7087
 323   2.0000      -0.391859       -10.6630
 324   2.0000      -0.391270       -10.6470
 325   2.0000      -0.390408       -10.6235
 326   2.0000      -0.383256       -10.4289
 327   2.0000      -0.377978       -10.2853
 328   2.0000      -0.369054       -10.0425
 329   2.0000      -0.366251        -9.9662
 330   2.0000      -0.359838        -9.7917
 331   2.0000      -0.353508        -9.6194
 332   2.0000      -0.352337        -9.5876
 333   2.0000      -0.350424        -9.5355
 334   2.0000      -0.348655        -9.4874
 335   2.0000      -0.346897        -9.4395
 336   2.0000      -0.344726        -9.3805
 337   2.0000      -0.340330        -9.2609
 338   2.0000      -0.336717        -9.1625
 339   2.0000      -0.336319        -9.1517
 340   2.0000      -0.334372        -9.0987
 341   2.0000      -0.327580        -8.9139
 342   2.0000      -0.326991        -8.8979
 343   2.0000      -0.316825        -8.6212
 344   2.0000      -0.314897        -8.5688
 345   2.0000      -0.309197        -8.4137
 346   2.0000      -0.281062        -7.6481
 347   2.0000      -0.251537        -6.8447
 348   0.0000      -0.148770        -4.0482
 349   0.0000      -0.102621        -2.7925
 350   0.0000      -0.100069        -2.7230
 351   0.0000      -0.076232        -2.0744
 352   0.0000      -0.073109        -1.9894

MULLIKEN ATOMIC CHARGES
-----------------------
   0 C :    0.158112
   1 O :   -0.145977
   2 C :   -0.012835
   3 C :    0.034970
   4 C :   -0.007865
   5 C :   -0.024225
   6 C :   -0.016355
   7 C :   -0.020419
   8 Br:    0.016905
   9 Br:    0.023394
  10 C :    0.302503
  11 C :   -0.343066
  12 C :   -0.189591
  13 N :    0.159092
  14 C :   -0.191727
  15 N :    0.161341
  16 C :   -0.088489
  17 C :    0.057627
  18 C :   -0.096568
  19 C :    0.030966
  20 C :    0.055195
  21 Cl:   -0.036809
  22 C :   -0.086174
  23 S :    0.173558
  24 C :   -0.055283
  25 C :    0.079235
  26 Cl:   -0.051424
  27 C :   -0.000596
  28 C :   -0.149808
  29 S :    0.173030
  30 C :    0.200576
  31 C :   -0.051954
  32 C :   -0.051820
  33 N :    0.001450
  34 C :   -0.100446
  35 C :   -0.099297
  36 N :    0.001748
  37 C :   -0.240686
  38 N :    0.258475
  39 C :   -0.242113
  40 N :    0.258046
  41 C :    0.204294
  42 C :   -0.013431
  43 C :   -0.014470
  44 N :   -0.285735
  45 S :    0.569222
  46 N :   -0.288125
  47 C :   -0.149549
  48 C :   -0.003016
  49 C :    0.080966
  50 Cl:   -0.053898
  51 C :   -0.055253
  52 S :    0.174377
  53 C :   -0.085057
  54 C :    0.075191
  55 Cl:   -0.039192
  56 C :    0.042887
  57 C :   -0.070181
  58 S :    0.165889
  59 C :    0.066094
  60 C :   -0.137743
  61 C :    0.143183
  62 O :   -0.133080
  63 C :   -0.001192
  64 C :    0.022270
  65 C :    0.239380
  66 C :   -0.306002
  67 C :   -0.210225
  68 N :    0.179889
  69 C :   -0.174692
  70 N :    0.161743
  71 C :   -0.009297
  72 C :   -0.022989
  73 C :   -0.016566
  74 C :   -0.019947
  75 Br:    0.015573
  76 Br:    0.021457
  77 H :    0.007581
  78 H :    0.007205
  79 H :    0.010279
  80 H :    0.013461
  81 H :   -0.003171
  82 H :   -0.001343
  83 H :   -0.000062
  84 H :    0.027750
  85 H :    0.012466
  86 H :    0.010365
Sum of atomic charges:   -0.0000000

LOEWDIN ATOMIC CHARGES
----------------------
   0 C :    0.088116
   1 O :   -0.132495
   2 C :   -0.041561
   3 C :   -0.012420
   4 C :   -0.006715
   5 C :   -0.118745
   6 C :   -0.122288
   7 C :    0.006637
   8 Br:    0.139634
   9 Br:    0.142556
  10 C :    0.074436
  11 C :   -0.133682
  12 C :   -0.019450
  13 N :   -0.044069
  14 C :   -0.025205
  15 N :   -0.043772
  16 C :   -0.096282
  17 C :    0.049149
  18 C :   -0.183373
  19 C :   -0.021882
  20 C :   -0.169818
  21 Cl:    0.178129
  22 C :   -0.187010
  23 S :    0.474021
  24 C :   -0.210257
  25 C :   -0.165658
  26 Cl:    0.167579
  27 C :   -0.046466
  28 C :   -0.168929
  29 S :    0.492015
  30 C :   -0.035034
  31 C :   -0.011419
  32 C :   -0.011863
  33 N :   -0.011096
  34 C :   -0.017714
  35 C :   -0.017193
  36 N :   -0.011278
  37 C :   -0.038820
  38 N :    0.004457
  39 C :   -0.038464
  40 N :    0.003310
  41 C :   -0.033465
  42 C :   -0.036051
  43 C :   -0.035973
  44 N :   -0.274542
  45 S :    0.692893
  46 N :   -0.274083
  47 C :   -0.168967
  48 C :   -0.044526
  49 C :   -0.165730
  50 Cl:    0.166385
  51 C :   -0.207482
  52 S :    0.492442
  53 C :   -0.182898
  54 C :   -0.168661
  55 Cl:    0.177692
  56 C :   -0.024632
  57 C :   -0.183914
  58 S :    0.489758
  59 C :    0.054274
  60 C :   -0.097233
  61 C :    0.084138
  62 O :   -0.133719
  63 C :   -0.043780
  64 C :   -0.008165
  65 C :    0.057884
  66 C :   -0.134285
  67 C :   -0.039990
  68 N :   -0.038648
  69 C :   -0.021522
  70 N :   -0.041883
  71 C :   -0.010108
  72 C :   -0.118074
  73 C :   -0.123932
  74 C :    0.007411
  75 Br:    0.138770
  76 Br:    0.142671
  77 H :    0.044696
  78 H :    0.046466
  79 H :    0.043538
  80 H :    0.038718
  81 H :    0.034581
  82 H :    0.035122
  83 H :    0.041809
  84 H :    0.053798
  85 H :    0.044808
  86 H :    0.047326

  Mayer bond orders larger than 0.100000
B(  0-C ,  1-O ) :   2.1812 B(  0-C ,  2-C ) :   0.9538 B(  0-C , 16-C ) :   0.9408
B(  2-C ,  3-C ) :   1.3299 B(  2-C ,  7-C ) :   1.3681 B(  3-C ,  4-C ) :   1.3647
B(  3-C , 10-C ) :   0.9878 B(  4-C ,  5-C ) :   1.3704 B(  4-C , 77-H ) :   0.9797
B(  5-C ,  6-C ) :   1.4194 B(  5-C ,  9-Br) :   1.0587 B(  6-C ,  7-C ) :   1.3520
B(  6-C ,  8-Br) :   1.0363 B(  7-C , 78-H ) :   1.0086 B( 10-C , 11-C ) :   1.6371
B( 10-C , 16-C ) :   1.0807 B( 11-C , 12-C ) :   1.1435 B( 11-C , 14-C ) :   1.1360
B( 12-C , 13-N ) :   2.9717 B( 14-C , 15-N ) :   2.9785 B( 16-C , 17-C ) :   1.5879
B( 17-C , 18-C ) :   1.2232 B( 17-C , 79-H ) :   0.9122 B( 18-C , 19-C ) :   1.3981
B( 18-C , 23-S ) :   1.0824 B( 19-C , 20-C ) :   1.3040 B( 19-C , 80-H ) :   0.9882
B( 20-C , 21-Cl) :   1.0606 B( 20-C , 22-C ) :   1.3891 B( 22-C , 23-S ) :   1.1640
B( 22-C , 24-C ) :   1.2138 B( 24-C , 25-C ) :   1.4166 B( 24-C , 29-S ) :   1.0793
B( 25-C , 26-Cl) :   1.0409 B( 25-C , 27-C ) :   1.2842 B( 27-C , 28-C ) :   1.4100
B( 27-C , 81-H ) :   0.9967 B( 28-C , 29-S ) :   1.1022 B( 28-C , 30-C ) :   1.2087
B( 30-C , 31-C ) :   1.2486 B( 30-C , 41-C ) :   0.1215 B( 30-C , 43-C ) :   1.1950
B( 31-C , 32-C ) :   1.1157 B( 31-C , 36-N ) :   1.3973 B( 32-C , 33-N ) :   1.3985
B( 32-C , 41-C ) :   1.2507 B( 33-N , 34-C ) :   1.6942 B( 34-C , 35-C ) :   1.2160
B( 34-C , 39-C ) :   1.1743 B( 35-C , 36-N ) :   1.6971 B( 35-C , 37-C ) :   1.1712
B( 37-C , 38-N ) :   3.0340 B( 39-C , 40-N ) :   3.0342 B( 41-C , 42-C ) :   1.1919
B( 41-C , 47-C ) :   1.2088 B( 42-C , 43-C ) :   1.0984 B( 42-C , 46-N ) :   1.5146
B( 43-C , 44-N ) :   1.5167 B( 44-N , 45-S ) :   1.2845 B( 44-N , 46-N ) :   0.1485
B( 45-S , 46-N ) :   1.2850 B( 47-C , 48-C ) :   1.4105 B( 47-C , 52-S ) :   1.1014
B( 48-C , 49-C ) :   1.2851 B( 48-C , 82-H ) :   0.9957 B( 49-C , 50-Cl) :   1.0375
B( 49-C , 51-C ) :   1.4138 B( 51-C , 52-S ) :   1.0787 B( 51-C , 53-C ) :   1.2247
B( 53-C , 54-C ) :   1.3998 B( 53-C , 58-S ) :   1.1570 B( 54-C , 55-Cl) :   1.0499
B( 54-C , 56-C ) :   1.3078 B( 56-C , 57-C ) :   1.4002 B( 56-C , 83-H ) :   1.0093
B( 57-C , 58-S ) :   1.0886 B( 57-C , 59-C ) :   1.1556 B( 59-C , 60-C ) :   1.6369
B( 59-C , 84-H ) :   0.9466 B( 60-C , 61-C ) :   0.9442 B( 60-C , 65-C ) :   1.0309
B( 61-C , 62-O ) :   2.2742 B( 61-C , 63-C ) :   0.9207 B( 63-C , 64-C ) :   1.3284
B( 63-C , 74-C ) :   1.3783 B( 64-C , 65-C ) :   1.0086 B( 64-C , 71-C ) :   1.3740
B( 65-C , 66-C ) :   1.6692 B( 66-C , 67-C ) :   1.1456 B( 66-C , 69-C ) :   1.1306
B( 67-C , 68-N ) :   3.0326 B( 69-C , 70-N ) :   2.9938 B( 71-C , 72-C ) :   1.3675
B( 71-C , 85-H ) :   0.9836 B( 72-C , 73-C ) :   1.4204 B( 72-C , 76-Br) :   1.0513
B( 73-C , 74-C ) :   1.3569 B( 73-C , 75-Br) :   1.0347 B( 74-C , 86-H ) :   1.0071

-----------------------------------------------------------------------------
         ABSORPTION SPECTRUM VIA TRANSITION ELECTRIC DIPOLE MOMENTS
-----------------------------------------------------------------------------
State   Energy  Wavelength   fosc         T2         TX        TY        TZ
        (cm-1)    (nm)                  (au**2)     (au)      (au)      (au)
-----------------------------------------------------------------------------
   0    7431.5   1345.6   0.696420708  30.85104  -2.50134  -1.83374  -4.60779
   1   15153.6    659.9   0.013611733   0.29571  -0.32529  -0.20166   0.38631
   2   18534.7    539.5   0.773643621  13.74137   1.40739   0.91296   3.30562
   3   19482.5    513.3   0.782476616  13.22213  -1.32240  -0.91599  -3.26104
   4   21576.2    463.5   0.050674447   0.77320   0.37162   0.20250   0.77077
   5   22067.4    453.2   0.010849100   0.16185  -0.21811  -0.22977  -0.24796
   6   22143.8    451.6   0.001144976   0.01702   0.11562   0.03448   0.04966
   7   22426.6    445.9   0.001181956   0.01735   0.09812   0.00319   0.08782
   8   23294.0    429.3   0.056172946   0.79389   0.01546  -0.28858  -0.84284
   9   24581.0    406.8   0.051137718   0.68488   0.45842   0.41391   0.55083
  10   25508.0    392.0   0.072098282   0.93052   0.33485   0.14170   0.89349
  11   25786.6    387.8   0.031448893   0.40150  -0.49193   0.02421   0.39864
  12   26184.4    381.9   0.105173790   1.32233   0.47634   0.96706   0.40027
  13   26354.4    379.4   0.032139309   0.40148  -0.51603  -0.32983   0.16249
  14   26738.6    374.0   0.052883122   0.65111  -0.59714  -0.52660   0.13122
  15   27086.7    369.2   0.002733773   0.03323   0.12079   0.10831   0.08309
  16   27412.3    364.8   0.229582152   2.75720   0.21644   0.29694   1.61932
  17   27888.8    358.6   0.076961082   0.90848  -0.06711  -0.04745   0.94959
  18   28151.4    355.2   0.010307951   0.12054  -0.00858  -0.18426  -0.29414
  19   28944.2    345.5   0.036697330   0.41740   0.22997   0.60285   0.03287
  20   29930.5    334.1   0.053173148   0.58486  -0.45859  -0.60763  -0.07310
  21   30243.5    330.6   0.015195830   0.16541  -0.00756  -0.37287  -0.16225
  22   30488.3    328.0   0.184834617   1.99584  -0.06949  -0.42182  -1.34651
  23   30805.7    324.6   0.194532836   2.07892   1.23791   0.21321  -0.70784
  24   30928.7    323.3   0.240171130   2.55643   1.18787   0.53141  -0.92898
  25   31263.9    319.9   0.034254107   0.36070   0.25325  -0.46832   0.27792
  26   31466.8    317.8   0.188106191   1.96800  -1.05160  -0.86481   0.33799
  27   31577.0    316.7   0.005686521   0.05929   0.18865   0.12732   0.08652
  28   31854.8    313.9   0.022268372   0.23014   0.27944   0.26641   0.28474
  29   32019.5    312.3   0.102437702   1.05322   0.06492  -0.23263  -0.99744
  30   32519.8    307.5   0.021776135   0.22045   0.07404   0.37240  -0.27620
  31   32743.0    305.4   0.118687422   1.19333  -0.69592  -0.75620   0.37039
  32   33126.9    301.9   0.046853861   0.46563  -0.31882  -0.09156   0.59632
  33   33300.6    300.3   0.060016914   0.59333   0.63201   0.01536  -0.44007
  34   33444.8    299.0   0.081836239   0.80555   0.20082   0.59314   0.64297
  35   33714.9    296.6   0.073724043   0.71988  -0.44210  -0.72361   0.02847
  36   34170.1    292.7   0.028404846   0.27367   0.23337  -0.40423   0.23623
  37   34284.3    291.7   0.005832691   0.05601  -0.10397   0.03736   0.20929
  38   34691.5    288.3   0.078332941   0.74336  -0.29428  -0.55418   0.59130
  39   34909.0    286.5   0.270267345   2.54878   0.52388   0.06969  -1.50647
  40   34968.0    286.0   0.086177714   0.81134  -0.27554   0.08369   0.85347
  41   35178.1    284.3   0.077956513   0.72955   0.44999   0.64080  -0.34123
  42   35214.8    284.0   0.373126014   3.48824  -1.27390  -1.09169   0.82075
  43   35471.7    281.9   0.008534395   0.07921  -0.08156   0.22360   0.15019
  44   35578.3    281.1   0.384684841   3.55956   0.63938   1.59773   0.77330
  45   35707.8    280.1   0.253903000   2.34089   1.26415   0.55729  -0.65745
  46   35873.5    278.8   0.112696846   1.03422  -0.89977  -0.08578   0.46613
  47   36161.1    276.5   0.013910795   0.12664  -0.23687  -0.15557   0.21525
  48   36209.5    276.2   0.037358108   0.33966   0.08131  -0.52491  -0.23982
  49   36643.5    272.9   0.017117826   0.15379  -0.13011   0.29865   0.21834
  50   36853.8    271.3   0.147561022   1.31815  -0.10280  -0.35470  -1.08709
  51   37068.3    269.8   0.003382851   0.03004   0.02760  -0.17050   0.01459
  52   37204.0    268.8   0.081499645   0.72118   0.38724   0.72659   0.20807
  53   37349.1    267.7   0.001471919   0.01297  -0.02917  -0.10688   0.02646
  54   37642.3    265.7   0.002926602   0.02560  -0.06577  -0.12090   0.08156
  55   37927.3    263.7   0.128054454   1.11152   0.85975   0.47708  -0.38046
  56   38319.5    261.0   0.004379915   0.03763   0.10603   0.03108   0.15944
  57   38514.6    259.6   0.017280873   0.14771   0.02772  -0.06486   0.37781
  58   38760.3    258.0   0.036747573   0.31212   0.03655   0.49322   0.25984
  59   38928.6    256.9   0.395470417   3.34442   1.23141   0.56918  -1.22641
  60   39070.8    255.9   0.123085390   1.03712  -0.97286  -0.24600   0.17363
  61   39088.0    255.8   0.065409027   0.55090   0.64821   0.36131   0.01316
  62   39458.5    253.4   0.050666607   0.42272  -0.58563  -0.05236   0.27753
  63   39542.4    252.9   0.005861927   0.04880   0.10980  -0.01907  -0.19074
  64   39620.5    252.4   0.005709334   0.04744  -0.10153   0.16569   0.09837
  65   39658.3    252.2   0.035366192   0.29358  -0.31809   0.09391   0.42846
  66   39824.8    251.1   0.085091772   0.70341  -0.48954   0.09852   0.67384
  67   40084.7    249.5   0.038041179   0.31243  -0.14829  -0.08306  -0.53249
  68   40170.0    248.9   0.031067336   0.25461  -0.38782  -0.11942  -0.29991

FINAL SINGLE POINT ENERGY    -16808.433757812807

DIPOLE MOMENT
-------------
                                X             Y             Z
Electronic contribution:     14.36249     -59.38101      19.22411
Nuclear contribution   :    -13.28197      57.66785     -20.59440
                        -----------------------------------------
Total Dipole Moment    :      1.08052      -1.71316      -1.37029
                        -----------------------------------------
Magnitude (a.u.)       :      2.44543
Magnitude (Debye)      :      6.21578

Rotational constants in cm-1:     0.001697     0.000101     0.000097
Rotational constants in MHz :    50.872666     3.030940     2.919813

                             ****ORCA TERMINATED NORMALLY****
TOTAL RUN TIME: 0 days 0 hours 13 minutes 38 seconds 479 msec
