                         Program Version 4.2.0 -  RELEASE  -
|  1> # ORCA input file
|  2> # SCF done       -160.332335147268          0.000456639724
|  3> ! CAM-B3LYP def2-SVP def2/J RIJCOSX Grid4 TightSCF
|  4> %maxcore 5000
|  5> %tddft
|  6>     Mode sTDDFT
|  7>     Ethresh 5.0
|  8>     maxcore 5000
|  9> end
| 10>
| 11> %pal
| 12>   nprocs 6
| 13>   end
| 14> * xyz 0 1
| 15>    C       -5.59819         6.94396         3.86657
| 16>    C       -5.44819         6.62797         2.53980
| 17>    C       -5.56854         5.32111         2.02594
| 18>    N       -5.62847         4.27513         1.55625
| 19>    C       -5.21480         7.57583         1.52464
| 20>    N       -5.03910         8.30809         0.65834
| 21>    C       -6.05362         6.01364         4.89668
| 22>    C       -6.54978         6.76629         6.00056
| 23>    C       -7.07207         6.15999         7.10623
| 24>    C       -7.10770         4.74832         7.16555
| 25>    C       -6.59376         3.98995         6.07420
| 26>    C       -6.06867         4.64581         4.93663
| 27>    C       -6.62244         2.58287         6.15167
| 28>    C       -7.13664         1.95267         7.25207
| 29>    C       -7.64508         2.69991         8.32489
| 30>    C       -7.63168         4.06777         8.28218
| 31>    C       -6.36758         8.20203         5.72634
| 32>    O       -6.72181         9.14324         6.39819
| 33>    C       -5.58561         8.26499         4.45469
| 34>    C       -4.96447         9.44005         4.14014
| 35>    C       -3.88780         9.71020         3.26457
| 36>    C       -2.98992         8.79222         2.80325
| 37>    C       -1.91691         9.12314         1.95367
| 38>    C       -1.07737         8.17415         1.44226
| 39>    C       -0.01910         8.44963         0.56178
| 40>    C        0.45860         9.69162         0.09892
| 41>    C        1.56657         9.56592        -0.80600
| 42>    N        2.14868        10.63779        -1.34552
| 43>    C        1.66318        11.81372        -1.00687
| 44>    C        2.30528        13.01146        -1.60849
| 45>    O        3.23150        12.93837        -2.38630
| 46>    C        1.73143        14.30341        -1.18814
| 47>    C        0.71274        14.42111        -0.33077
| 48>    C        0.04040        13.27124         0.29854
| 49>    O       -0.87582        13.40173         1.08236
| 50>    C        0.57059        11.94140        -0.09615
| 51>    N       -0.01304        10.89072         0.44136
| 52>    C        1.94450         8.23159        -1.04645
| 53>    S        0.91783         7.16535        -0.13473
| 54>    C        2.97411         7.79629        -1.89252
| 55>    C        3.26359         6.48221        -2.12880
| 56>    C        4.28225         6.03786        -2.99059
| 57>    C        4.49814         4.71103        -3.23967
| 58>    C        5.49923         4.25170        -4.11705
| 59>    C        5.70429         2.93501        -4.43526
| 60>    C        6.70389         2.40348        -5.34074
| 61>    C        7.73502         3.09324        -5.92735
| 62>    C        8.68665         2.50902        -6.78914
| 63>    N        9.49105         2.09867        -7.49820
| 64>    C        8.01596         4.46301        -5.74492
| 65>    N        8.31814         5.56631        -5.64119
| 66>    C        6.44836         0.97507        -5.49894
| 67>    C        5.35682         0.61325        -4.65928
| 68>    C        4.87000         1.80519        -3.94546
| 69>    O        3.96836         1.84090        -3.13328
| 70>    C        4.88647        -0.66642        -4.59481
| 71>    C        5.49496        -1.66450        -5.38794
| 72>    C        6.58459        -1.31098        -6.23505
| 73>    C        7.05202         0.02303        -6.27722
| 74>    C        7.18138        -2.31351        -7.02628
| 75>    C        6.72535        -3.60302        -6.98391
| 76>    C        5.65253        -3.94974        -6.14915
| 77>    C        5.05058        -3.00100        -5.36779
| 78>    H       -7.45088         6.74909         7.92811
| 79>    H       -5.67853         4.04648         4.12879
| 80>    H       -6.23324         2.01182         5.32151
| 81>    H       -7.15481         0.87426         7.30154
| 82>    H       -8.04687         2.18646         9.18551
| 83>    H       -8.02158         4.64833         9.10541
| 84>    H       -5.32231        10.28635         4.72100
| 85>    H       -3.72872        10.74821         3.00387
| 86>    H       -3.07200         7.75876         3.11715
| 87>    H       -1.77522        10.15673         1.67250
| 88>    H       -1.23204         7.13209         1.69523
| 89>    H        2.19928        15.17371        -1.62847
| 90>    H        0.32300        15.39002        -0.04878
| 91>    H        3.53757         8.58357        -2.37589
| 92>    H        2.66599         5.72411        -1.63592
| 93>    H        4.90193         6.78233        -3.47490
| 94>    H        3.87145         3.97433        -2.75776
| 95>    H        6.12685         5.00510        -4.57610
| 96>    H        4.05719        -0.91289        -3.94835
| 97>    H        7.87613         0.25686        -6.93212
| 98>    H        8.00735        -2.04215        -7.66726
| 99>    H        7.18906        -4.36353        -7.59412
|100>    H        5.30522        -4.97192        -6.12857
|101>    H        4.22374        -3.26143        -4.72323
|102> *
|103>
|104>                          ****END OF INPUT****

CARTESIAN COORDINATES (ANGSTROEM)
---------------------------------
  C     -5.598190    6.943960    3.866570
  C     -5.448190    6.627970    2.539800
  C     -5.568540    5.321110    2.025940
  N     -5.628470    4.275130    1.556250
  C     -5.214800    7.575830    1.524640
  N     -5.039100    8.308090    0.658340
  C     -6.053620    6.013640    4.896680
  C     -6.549780    6.766290    6.000560
  C     -7.072070    6.159990    7.106230
  C     -7.107700    4.748320    7.165550
  C     -6.593760    3.989950    6.074200
  C     -6.068670    4.645810    4.936630
  C     -6.622440    2.582870    6.151670
  C     -7.136640    1.952670    7.252070
  C     -7.645080    2.699910    8.324890
  C     -7.631680    4.067770    8.282180
  C     -6.367580    8.202030    5.726340
  O     -6.721810    9.143240    6.398190
  C     -5.585610    8.264990    4.454690
  C     -4.964470    9.440050    4.140140
  C     -3.887800    9.710200    3.264570
  C     -2.989920    8.792220    2.803250
  C     -1.916910    9.123140    1.953670
  C     -1.077370    8.174150    1.442260
  C     -0.019100    8.449630    0.561780
  C      0.458600    9.691620    0.098920
  C      1.566570    9.565920   -0.806000
  N      2.148680   10.637790   -1.345520
  C      1.663180   11.813720   -1.006870
  C      2.305280   13.011460   -1.608490
  O      3.231500   12.938370   -2.386300
  C      1.731430   14.303410   -1.188140
  C      0.712740   14.421110   -0.330770
  C      0.040400   13.271240    0.298540
  O     -0.875820   13.401730    1.082360
  C      0.570590   11.941400   -0.096150
  N     -0.013040   10.890720    0.441360
  C      1.944500    8.231590   -1.046450
  S      0.917830    7.165350   -0.134730
  C      2.974110    7.796290   -1.892520
  C      3.263590    6.482210   -2.128800
  C      4.282250    6.037860   -2.990590
  C      4.498140    4.711030   -3.239670
  C      5.499230    4.251700   -4.117050
  C      5.704290    2.935010   -4.435260
  C      6.703890    2.403480   -5.340740
  C      7.735020    3.093240   -5.927350
  C      8.686650    2.509020   -6.789140
  N      9.491050    2.098670   -7.498200
  C      8.015960    4.463010   -5.744920
  N      8.318140    5.566310   -5.641190
  C      6.448360    0.975070   -5.498940
  C      5.356820    0.613250   -4.659280
  C      4.870000    1.805190   -3.945460
  O      3.968360    1.840900   -3.133280
  C      4.886470   -0.666420   -4.594810
  C      5.494960   -1.664500   -5.387940
  C      6.584590   -1.310980   -6.235050
  C      7.052020    0.023030   -6.277220
  C      7.181380   -2.313510   -7.026280
  C      6.725350   -3.603020   -6.983910
  C      5.652530   -3.949740   -6.149150
  C      5.050580   -3.001000   -5.367790
  H     -7.450880    6.749090    7.928110
  H     -5.678530    4.046480    4.128790
  H     -6.233240    2.011820    5.321510
  H     -7.154810    0.874260    7.301540
  H     -8.046870    2.186460    9.185510
  H     -8.021580    4.648330    9.105410
  H     -5.322310   10.286350    4.721000
  H     -3.728720   10.748210    3.003870
  H     -3.072000    7.758760    3.117150
  H     -1.775220   10.156730    1.672500
  H     -1.232040    7.132090    1.695230
  H      2.199280   15.173710   -1.628470
  H      0.323000   15.390020   -0.048780
  H      3.537570    8.583570   -2.375890
  H      2.665990    5.724110   -1.635920
  H      4.901930    6.782330   -3.474900
  H      3.871450    3.974330   -2.757760
  H      6.126850    5.005100   -4.576100
  H      4.057190   -0.912890   -3.948350
  H      7.876130    0.256860   -6.932120
  H      8.007350   -2.042150   -7.667260
  H      7.189060   -4.363530   -7.594120
  H      5.305220   -4.971920   -6.128570
  H      4.223740   -3.261430   -4.723230

 Total Charge           Charge          ....    0
 Multiplicity           Mult            ....    1
 Number of Electrons    NEL             ....  426
 Basis Dimension        Dim             .... 1006

ORBITAL ENERGIES
----------------

  NO   OCC          E(Eh)            E(eV)
   0   2.0000     -89.001496     -2421.8538
   1   2.0000     -19.232758      -523.3499
   2   2.0000     -19.231404      -523.3131
   3   2.0000     -19.212877      -522.8090
   4   2.0000     -19.212790      -522.8066
   5   2.0000     -14.454616      -393.3301
   6   2.0000     -14.454064      -393.3151
   7   2.0000     -14.416411      -392.2905
   8   2.0000     -14.415944      -392.2778
   9   2.0000     -14.412308      -392.1788
  10   2.0000     -14.410124      -392.1194
  11   2.0000     -10.381508      -282.4952
  12   2.0000     -10.380600      -282.4705
  13   2.0000     -10.363900      -282.0161
  14   2.0000     -10.363332      -282.0006
  15   2.0000     -10.347225      -281.5623
  16   2.0000     -10.346660      -281.5469
  17   2.0000     -10.342941      -281.4457
  18   2.0000     -10.342000      -281.4201
  19   2.0000     -10.341801      -281.4147
  20   2.0000     -10.340677      -281.3841
  21   2.0000     -10.339462      -281.3511
  22   2.0000     -10.337122      -281.2874
  23   2.0000     -10.336014      -281.2572
  24   2.0000     -10.334663      -281.2205
  25   2.0000     -10.319332      -280.8033
  26   2.0000     -10.316689      -280.7314
  27   2.0000     -10.315213      -280.6912
  28   2.0000     -10.313422      -280.6425
  29   2.0000     -10.313265      -280.6382
  30   2.0000     -10.313197      -280.6364
  31   2.0000     -10.312721      -280.6234
  32   2.0000     -10.310568      -280.5648
  33   2.0000     -10.309600      -280.5385
  34   2.0000     -10.308792      -280.5165
  35   2.0000     -10.304068      -280.3879
  36   2.0000     -10.303707      -280.3781
  37   2.0000     -10.303636      -280.3762
  38   2.0000     -10.299072      -280.2520
  39   2.0000     -10.298506      -280.2366
  40   2.0000     -10.298189      -280.2280
  41   2.0000     -10.297746      -280.2159
  42   2.0000     -10.297664      -280.2137
  43   2.0000     -10.297073      -280.1976
  44   2.0000     -10.296940      -280.1940
  45   2.0000     -10.294661      -280.1320
  46   2.0000     -10.294488      -280.1273
  47   2.0000     -10.294393      -280.1247
  48   2.0000     -10.293218      -280.0927
  49   2.0000     -10.293188      -280.0919
  50   2.0000     -10.293069      -280.0886
  51   2.0000     -10.292971      -280.0860
  52   2.0000     -10.288998      -279.9779
  53   2.0000     -10.286921      -279.9214
  54   2.0000     -10.286534      -279.9108
  55   2.0000     -10.286299      -279.9044
  56   2.0000     -10.285860      -279.8925
  57   2.0000     -10.284611      -279.8585
  58   2.0000     -10.284404      -279.8529
  59   2.0000     -10.284083      -279.8441
  60   2.0000     -10.283541      -279.8294
  61   2.0000     -10.283271      -279.8220
  62   2.0000     -10.282743      -279.8077
  63   2.0000      -8.096115      -220.3065
  64   2.0000      -6.064862      -165.0333
  65   2.0000      -6.060938      -164.9265
  66   2.0000      -6.059244      -164.8804
  67   2.0000      -1.149321       -31.2746
  68   2.0000      -1.144708       -31.1491
  69   2.0000      -1.128195       -30.6997
  70   2.0000      -1.127014       -30.6676
  71   2.0000      -1.105989       -30.0955
  72   2.0000      -1.032294       -28.0901
  73   2.0000      -1.018666       -27.7193
  74   2.0000      -1.013811       -27.5872
  75   2.0000      -1.010666       -27.5016
  76   2.0000      -0.998468       -27.1697
  77   2.0000      -0.994757       -27.0687
  78   2.0000      -0.994674       -27.0665
  79   2.0000      -0.989597       -26.9283
  80   2.0000      -0.971721       -26.4419
  81   2.0000      -0.968050       -26.3420
  82   2.0000      -0.944906       -25.7122
  83   2.0000      -0.943063       -25.6620
  84   2.0000      -0.935235       -25.4490
  85   2.0000      -0.924188       -25.1484
  86   2.0000      -0.919852       -25.0304
  87   2.0000      -0.910978       -24.7890
  88   2.0000      -0.899917       -24.4880
  89   2.0000      -0.888509       -24.1775
  90   2.0000      -0.881964       -23.9995
  91   2.0000      -0.880710       -23.9653
  92   2.0000      -0.877670       -23.8826
  93   2.0000      -0.875453       -23.8223
  94   2.0000      -0.859687       -23.3933
  95   2.0000      -0.838860       -22.8265
  96   2.0000      -0.828554       -22.5461
  97   2.0000      -0.825043       -22.4506
  98   2.0000      -0.821936       -22.3660
  99   2.0000      -0.802378       -21.8338
 100   2.0000      -0.796583       -21.6761
 101   2.0000      -0.795451       -21.6453
 102   2.0000      -0.776342       -21.1253
 103   2.0000      -0.761510       -20.7217
 104   2.0000      -0.757732       -20.6189
 105   2.0000      -0.749873       -20.4051
 106   2.0000      -0.744625       -20.2623
 107   2.0000      -0.718064       -19.5395
 108   2.0000      -0.707547       -19.2533
 109   2.0000      -0.702789       -19.1239
 110   2.0000      -0.700668       -19.0662
 111   2.0000      -0.697184       -18.9713
 112   2.0000      -0.690912       -18.8007
 113   2.0000      -0.685644       -18.6573
 114   2.0000      -0.679379       -18.4869
 115   2.0000      -0.676794       -18.4165
 116   2.0000      -0.675088       -18.3701
 117   2.0000      -0.664599       -18.0847
 118   2.0000      -0.664302       -18.0766
 119   2.0000      -0.659660       -17.9503
 120   2.0000      -0.639100       -17.3908
 121   2.0000      -0.636502       -17.3201
 122   2.0000      -0.634160       -17.2564
 123   2.0000      -0.630014       -17.1436
 124   2.0000      -0.615910       -16.7598
 125   2.0000      -0.608920       -16.5696
 126   2.0000      -0.607352       -16.5269
 127   2.0000      -0.603400       -16.4194
 128   2.0000      -0.601678       -16.3725
 129   2.0000      -0.600225       -16.3330
 130   2.0000      -0.587427       -15.9847
 131   2.0000      -0.580548       -15.7975
 132   2.0000      -0.573157       -15.5964
 133   2.0000      -0.572311       -15.5734
 134   2.0000      -0.567785       -15.4502
 135   2.0000      -0.564467       -15.3599
 136   2.0000      -0.558717       -15.2035
 137   2.0000      -0.550165       -14.9708
 138   2.0000      -0.547151       -14.8887
 139   2.0000      -0.545321       -14.8389
 140   2.0000      -0.543226       -14.7819
 141   2.0000      -0.540445       -14.7063
 142   2.0000      -0.536409       -14.5964
 143   2.0000      -0.533298       -14.5118
 144   2.0000      -0.532229       -14.4827
 145   2.0000      -0.531037       -14.4503
 146   2.0000      -0.526525       -14.3275
 147   2.0000      -0.524743       -14.2790
 148   2.0000      -0.519245       -14.1294
 149   2.0000      -0.517970       -14.0947
 150   2.0000      -0.516325       -14.0499
 151   2.0000      -0.513367       -13.9694
 152   2.0000      -0.511905       -13.9296
 153   2.0000      -0.510460       -13.8903
 154   2.0000      -0.509522       -13.8648
 155   2.0000      -0.508219       -13.8293
 156   2.0000      -0.503527       -13.7017
 157   2.0000      -0.500782       -13.6270
 158   2.0000      -0.498289       -13.5591
 159   2.0000      -0.496853       -13.5201
 160   2.0000      -0.493066       -13.4170
 161   2.0000      -0.490512       -13.3475
 162   2.0000      -0.485663       -13.2156
 163   2.0000      -0.483797       -13.1648
 164   2.0000      -0.479670       -13.0525
 165   2.0000      -0.477249       -12.9866
 166   2.0000      -0.471037       -12.8176
 167   2.0000      -0.470096       -12.7920
 168   2.0000      -0.466063       -12.6822
 169   2.0000      -0.464799       -12.6478
 170   2.0000      -0.462645       -12.5892
 171   2.0000      -0.459235       -12.4964
 172   2.0000      -0.456773       -12.4294
 173   2.0000      -0.451497       -12.2858
 174   2.0000      -0.448100       -12.1934
 175   2.0000      -0.445191       -12.1143
 176   2.0000      -0.444862       -12.1053
 177   2.0000      -0.443081       -12.0569
 178   2.0000      -0.440876       -11.9968
 179   2.0000      -0.439407       -11.9569
 180   2.0000      -0.438255       -11.9255
 181   2.0000      -0.436625       -11.8812
 182   2.0000      -0.433334       -11.7916
 183   2.0000      -0.430357       -11.7106
 184   2.0000      -0.429642       -11.6912
 185   2.0000      -0.428969       -11.6728
 186   2.0000      -0.425560       -11.5801
 187   2.0000      -0.422451       -11.4955
 188   2.0000      -0.416813       -11.3420
 189   2.0000      -0.415939       -11.3183
 190   2.0000      -0.411217       -11.1898
 191   2.0000      -0.409584       -11.1453
 192   2.0000      -0.404861       -11.0168
 193   2.0000      -0.402340       -10.9482
 194   2.0000      -0.395873       -10.7723
 195   2.0000      -0.381060       -10.3692
 196   2.0000      -0.377675       -10.2771
 197   2.0000      -0.376030       -10.2323
 198   2.0000      -0.368939       -10.0393
 199   2.0000      -0.368634       -10.0310
 200   2.0000      -0.358676        -9.7601
 201   2.0000      -0.354049        -9.6342
 202   2.0000      -0.351809        -9.5732
 203   2.0000      -0.341634        -9.2963
 204   2.0000      -0.335962        -9.1420
 205   2.0000      -0.331618        -9.0238
 206   2.0000      -0.327662        -8.9161
 207   2.0000      -0.316656        -8.6166
 208   2.0000      -0.313385        -8.5277
 209   2.0000      -0.298117        -8.1122
 210   2.0000      -0.294103        -8.0030
 211   2.0000      -0.287211        -7.8154
 212   2.0000      -0.246832        -6.7166
 213   0.0000      -0.125681        -3.4200
 214   0.0000      -0.099703        -2.7130
 215   0.0000      -0.083488        -2.2718
 216   0.0000      -0.080179        -2.1818
 217   0.0000      -0.056259        -1.5309

MULLIKEN ATOMIC CHARGES
-----------------------
   0 C :    0.267889
   1 C :   -0.340654
   2 C :   -0.175144
   3 N :    0.149836
   4 C :   -0.207595
   5 N :    0.174518
   6 C :    0.030182
   7 C :    0.017540
   8 C :   -0.082543
   9 C :    0.094597
  10 C :    0.094603
  11 C :   -0.083094
  12 C :   -0.017963
  13 C :    0.032905
  14 C :    0.036913
  15 C :   -0.014795
  16 C :    0.136009
  17 O :   -0.143429
  18 C :   -0.124810
  19 C :    0.049426
  20 C :    0.010584
  21 C :    0.045038
  22 C :    0.021729
  23 C :    0.020857
  24 C :   -0.132466
  25 C :    0.049145
  26 C :    0.033478
  27 N :    0.070085
  28 C :   -0.120307
  29 C :    0.136923
  30 O :   -0.097518
  31 C :   -0.014830
  32 C :   -0.014648
  33 C :    0.144503
  34 O :   -0.107480
  35 C :   -0.113437
  36 N :    0.067232
  37 C :   -0.139021
  38 S :    0.206012
  39 C :    0.016646
  40 C :    0.003472
  41 C :    0.055345
  42 C :   -0.005400
  43 C :   -0.027796
  44 C :   -0.074910
  45 C :    0.326983
  46 C :   -0.350692
  47 C :   -0.181817
  48 N :    0.143304
  49 C :   -0.192970
  50 N :    0.146474
  51 C :    0.049758
  52 C :   -0.001024
  53 C :    0.147211
  54 O :   -0.156399
  55 C :   -0.081927
  56 C :    0.098449
  57 C :    0.096427
  58 C :   -0.086240
  59 C :   -0.020343
  60 C :    0.036798
  61 C :    0.036525
  62 C :   -0.016982
  63 H :   -0.011961
  64 H :   -0.007588
  65 H :   -0.011715
  66 H :   -0.003810
  67 H :   -0.005663
  68 H :   -0.016997
  69 H :    0.030473
  70 H :    0.017910
  71 H :    0.012931
  72 H :    0.032755
  73 H :   -0.013726
  74 H :    0.020057
  75 H :    0.018873
  76 H :    0.024712
  77 H :    0.005960
  78 H :    0.014794
  79 H :    0.025346
  80 H :    0.011322
  81 H :   -0.015254
  82 H :   -0.009338
  83 H :   -0.009699
  84 H :   -0.005561
  85 H :   -0.006484
  86 H :   -0.018497
Sum of atomic charges:   -0.0000000

LOEWDIN ATOMIC CHARGES
----------------------
   0 C :    0.064744
   1 C :   -0.143993
   2 C :   -0.020508
   3 N :   -0.055616
   4 C :   -0.019668
   5 N :   -0.040873
   6 C :   -0.023251
   7 C :   -0.056735
   8 C :    0.032312
   9 C :   -0.009336
  10 C :   -0.005757
  11 C :    0.013786
  12 C :   -0.007089
  13 C :   -0.013516
  14 C :   -0.013381
  15 C :   -0.009169
  16 C :    0.082843
  17 O :   -0.142382
  18 C :   -0.086906
  19 C :    0.062553
  20 C :   -0.025249
  21 C :    0.031147
  22 C :    0.012985
  23 C :   -0.029304
  24 C :   -0.161116
  25 C :   -0.040865
  26 C :   -0.036439
  27 N :    0.005070
  28 C :   -0.038640
  29 C :    0.055938
  30 O :   -0.094593
  31 C :   -0.010565
  32 C :   -0.012958
  33 C :    0.057140
  34 O :   -0.102625
  35 C :   -0.040311
  36 N :    0.009903
  37 C :   -0.176682
  38 S :    0.521732
  39 C :   -0.004859
  40 C :   -0.026217
  41 C :    0.028752
  42 C :   -0.027418
  43 C :    0.063372
  44 C :   -0.090431
  45 C :    0.074281
  46 C :   -0.141040
  47 C :   -0.017148
  48 N :   -0.056745
  49 C :   -0.020689
  50 N :   -0.054966
  51 C :   -0.024883
  52 C :   -0.055047
  53 C :    0.084554
  54 O :   -0.148642
  55 C :    0.030565
  56 C :   -0.008707
  57 C :   -0.006445
  58 C :    0.018228
  59 C :   -0.005658
  60 C :   -0.014256
  61 C :   -0.013283
  62 C :   -0.010219
  63 H :    0.039430
  64 H :    0.037922
  65 H :    0.033907
  66 H :    0.033242
  67 H :    0.032643
  68 H :    0.031998
  69 H :    0.048939
  70 H :    0.042046
  71 H :    0.031387
  72 H :    0.038992
  73 H :    0.032106
  74 H :    0.046631
  75 H :    0.046246
  76 H :    0.049494
  77 H :    0.026522
  78 H :    0.038299
  79 H :    0.034363
  80 H :    0.042086
  81 H :    0.038122
  82 H :    0.038747
  83 H :    0.034579
  84 H :    0.032853
  85 H :    0.032292
  86 H :    0.031433

  Mayer bond orders larger than 0.100000
B(  0-C ,  1-C ) :   1.6370 B(  0-C ,  6-C ) :   0.9949 B(  0-C , 18-C ) :   1.0448
B(  1-C ,  2-C ) :   1.1298 B(  1-C ,  4-C ) :   1.1699 B(  2-C ,  3-N ) :   2.9851
B(  4-C ,  5-N ) :   2.9949 B(  6-C ,  7-C ) :   1.2146 B(  6-C , 11-C ) :   1.4595
B(  7-C ,  8-C ) :   1.4751 B(  7-C , 16-C ) :   0.9193 B(  8-C ,  9-C ) :   1.1830
B(  8-C , 63-H ) :   1.0158 B(  9-C , 10-C ) :   1.2571 B(  9-C , 15-C ) :   1.2457
B( 10-C , 11-C ) :   1.2030 B( 10-C , 12-C ) :   1.2426 B( 11-C , 64-H ) :   0.9934
B( 12-C , 13-C ) :   1.4881 B( 12-C , 65-H ) :   0.9970 B( 13-C , 14-C ) :   1.2610
B( 13-C , 66-H ) :   0.9894 B( 14-C , 15-C ) :   1.4892 B( 14-C , 67-H ) :   0.9880
B( 15-C , 68-H ) :   0.9971 B( 16-C , 17-O ) :   2.2627 B( 16-C , 18-C ) :   0.9415
B( 18-C , 19-C ) :   1.6353 B( 19-C , 20-C ) :   1.1690 B( 19-C , 69-H ) :   0.9300
B( 20-C , 21-C ) :   1.5725 B( 20-C , 70-H ) :   0.9679 B( 21-C , 22-C ) :   1.1781
B( 21-C , 71-H ) :   0.9732 B( 22-C , 23-C ) :   1.5749 B( 22-C , 72-H ) :   0.9716
B( 23-C , 24-C ) :   1.1882 B( 23-C , 73-H ) :   0.9571 B( 24-C , 25-C ) :   1.2668
B( 24-C , 37-C ) :   0.1177 B( 24-C , 38-S ) :   1.1793 B( 25-C , 26-C ) :   1.1945
B( 25-C , 36-N ) :   1.4457 B( 26-C , 27-N ) :   1.4717 B( 26-C , 37-C ) :   1.2747
B( 27-N , 28-C ) :   1.6918 B( 28-C , 29-C ) :   0.8890 B( 28-C , 35-C ) :   1.1127
B( 29-C , 30-O ) :   2.2583 B( 29-C , 31-C ) :   1.0208 B( 31-C , 32-C ) :   1.6806
B( 31-C , 74-H ) :   0.9983 B( 32-C , 33-C ) :   1.0261 B( 32-C , 75-H ) :   0.9993
B( 33-C , 34-O ) :   2.2329 B( 33-C , 35-C ) :   0.8944 B( 35-C , 36-N ) :   1.7030
B( 37-C , 38-S ) :   1.1410 B( 37-C , 39-C ) :   1.2271 B( 39-C , 40-C ) :   1.5171
B( 39-C , 76-H ) :   0.9853 B( 40-C , 41-C ) :   1.1791 B( 40-C , 77-H ) :   0.9834
B( 41-C , 42-C ) :   1.5144 B( 41-C , 78-H ) :   0.9930 B( 42-C , 43-C ) :   1.1717
B( 42-C , 79-H ) :   0.9835 B( 43-C , 44-C ) :   1.5326 B( 43-C , 80-H ) :   0.9603
B( 44-C , 45-C ) :   1.0686 B( 44-C , 53-C ) :   0.9449 B( 45-C , 46-C ) :   1.6224
B( 45-C , 51-C ) :   0.9859 B( 46-C , 47-C ) :   1.1454 B( 46-C , 49-C ) :   1.1465
B( 47-C , 48-N ) :   2.9615 B( 49-C , 50-N ) :   2.9668 B( 51-C , 52-C ) :   1.2148
B( 51-C , 58-C ) :   1.4494 B( 52-C , 53-C ) :   0.9459 B( 52-C , 55-C ) :   1.4722
B( 53-C , 54-O ) :   2.1926 B( 55-C , 56-C ) :   1.1761 B( 55-C , 81-H ) :   1.0169
B( 56-C , 57-C ) :   1.2570 B( 56-C , 62-C ) :   1.2441 B( 57-C , 58-C ) :   1.2045
B( 57-C , 59-C ) :   1.2392 B( 58-C , 82-H ) :   0.9904 B( 59-C , 60-C ) :   1.4892
B( 59-C , 83-H ) :   0.9978 B( 60-C , 61-C ) :   1.2589 B( 60-C , 84-H ) :   0.9888
B( 61-C , 62-C ) :   1.4871 B( 61-C , 85-H ) :   0.9891 B( 62-C , 86-H ) :   0.9985

-----------------------------------------------------------------------------
         ABSORPTION SPECTRUM VIA TRANSITION ELECTRIC DIPOLE MOMENTS
-----------------------------------------------------------------------------
State   Energy  Wavelength   fosc         T2         TX        TY        TZ
        (cm-1)    (nm)                  (au**2)     (au)      (au)      (au)
-----------------------------------------------------------------------------
   0   12027.6    831.4   1.230859867  33.69030   4.41044  -1.70053  -3.36846
   1   17440.0    573.4   0.451477989   8.52247   0.00996  -2.90277  -0.31032
   2   19747.0    506.4   0.248285197   4.13929  -1.70860   0.38849   1.03395
   3   21530.7    464.5   0.119434897   1.82620   0.86231  -0.64066  -0.81987
   4   22027.5    454.0   0.430458739   6.43343  -0.21296   2.38681   0.83138
   5   23842.5    419.4   0.016041850   0.22150   0.17669   0.06944   0.43065
   6   24361.0    410.5   0.148128384   2.00179  -0.11266  -1.41029  -0.01333
   7   24502.6    408.1   0.001954898   0.02627  -0.10544   0.05912  -0.10795
   8   25729.8    388.7   0.000037031   0.00047   0.01038  -0.01793   0.00668
   9   25874.1    386.5   0.000576724   0.00734   0.04712   0.07064  -0.01131
  10   26414.1    378.6   0.000751469   0.00937   0.07645  -0.02065   0.05563
  11   26544.4    376.7   0.012975055   0.16092  -0.37338   0.07474   0.12618
  12   27314.8    366.1   0.074022809   0.89216   0.46859  -0.17043  -0.80221
  13   27505.8    363.6   0.020243134   0.24229  -0.09304   0.10099   0.47269
  14   28319.7    353.1   0.067537887   0.78512  -0.49479  -0.72715   0.10748
  15   28528.8    350.5   0.331499046   3.82537   1.04813   1.35268  -0.94712
  16   28932.2    345.6   0.112676692   1.28212  -0.41087   1.00908   0.30830
  17   29949.2    333.9   0.126925786   1.39521  -0.60164   0.66161   0.77170
  18   30423.9    328.7   0.000248496   0.00269  -0.04590  -0.02154   0.01086
  19   31106.7    321.5   0.294137688   3.11295  -0.41548  -1.16084   1.26205
  20   31400.1    318.5   0.192843442   2.02185  -0.16854  -1.31642  -0.51037
  21   31783.4    314.6   0.058623300   0.60722   0.24252   0.64510  -0.36365
  22   32556.0    307.2   0.169872820   1.71778   0.34313   1.17895  -0.45839
  23   32822.5    304.7   0.018651525   0.18708  -0.38767  -0.06055   0.18199
  24   32983.1    303.2   0.102374468   1.02182  -0.03309  -0.93565  -0.38116
  25   33026.3    302.8   0.038889586   0.38766  -0.13651   0.55511   0.24673
  26   33311.0    300.2   0.071587479   0.70750   0.25801   0.80011  -0.02742
  27   33353.1    299.8   0.000041507   0.00041  -0.00004  -0.00041  -0.02024
  28   33746.9    296.3   0.049158907   0.47956  -0.53871   0.28180   0.33157
  29   33931.7    294.7   0.041207028   0.39980   0.13210   0.09472  -0.61104
  30   34526.6    289.6   0.022487467   0.21442  -0.00539   0.45062  -0.10643
  31   34530.9    289.6   0.146296627   1.39477  -0.00278  -1.15334   0.25410
  32   35326.3    283.1   0.264425295   2.46423   0.10759   1.54992   0.22451
  33   35574.8    281.1   0.211814929   1.96015  -0.20796  -1.05520   0.89636
  34   36122.7    276.8   0.325355405   2.96520   0.84697   1.33374  -0.68483
  35   36319.7    275.3   0.221545485   2.00815   0.35385  -0.18214  -1.36006
  36   36447.2    274.4   0.002243154   0.02026   0.04699  -0.00946   0.13403
  37   36479.2    274.1   0.019584143   0.17674  -0.36746  -0.20394   0.01097
  38   36513.2    273.9   0.076538402   0.69009   0.51423   0.64440   0.10200
  39   36936.9    270.7   0.014349849   0.12790   0.04284   0.34253   0.09346
  40   37340.1    267.8   0.142191529   1.25364   0.52667   0.76293  -0.62785
  41   37798.9    264.6   0.107725297   0.93824   0.35809   0.24180  -0.86692
  42   38013.6    263.1   0.024697260   0.21389  -0.30501   0.10439   0.33160
  43   38308.8    261.0   0.005102975   0.04385  -0.20505  -0.02607   0.03359
  44   38628.5    258.9   0.014580984   0.12427  -0.23891  -0.18067   0.18586
  45   38847.2    257.4   0.008417393   0.07133   0.11916   0.22165   0.08947
  46   39103.8    255.7   0.044093740   0.37122  -0.30714  -0.01611   0.52595
  47   39529.9    253.0   0.130236027   1.08463  -0.54061   0.41381   0.78812
  48   39661.8    252.1   0.032603859   0.27063  -0.51911  -0.02920   0.01739
  49   40285.4    248.2   0.002528617   0.02066   0.07266   0.11958  -0.03294

FINAL SINGLE POINT ENERGY     -3020.011363237209

DIPOLE MOMENT
-------------
                                X             Y             Z
Electronic contribution:      6.00357      25.38644      -7.92959
Nuclear contribution   :     -7.22203     -26.94076      10.35092
                        -----------------------------------------
Total Dipole Moment    :     -1.21846      -1.55432       2.42133
                        -----------------------------------------
Magnitude (a.u.)       :      3.12464
Magnitude (Debye)      :      7.94221

Rotational constants in cm-1:     0.001187     0.000392     0.000300
Rotational constants in MHz :    35.577325    11.739477     8.995381

                             ****ORCA TERMINATED NORMALLY****
TOTAL RUN TIME: 0 days 0 hours 11 minutes 15 seconds 792 msec
