                         Program Version 4.2.0 -  RELEASE  -
|  1> # ORCA input file
|  2> # SCF done       -201.031842752046          0.000894036243
|  3> ! CAM-B3LYP def2-SVP def2/J RIJCOSX Grid4 TightSCF
|  4> %maxcore 5000
|  5> %tddft
|  6>     Mode sTDDFT
|  7>     Ethresh 5.0
|  8>     maxcore 5000
|  9> end
| 10>
| 11> %pal
| 12>   nprocs 6
| 13>   end
| 14> * xyz 0 1
| 15>    C        3.22318         8.17122         6.48296
| 16>    C        2.01775         8.78244         6.71185
| 17>    C        1.87091         9.96844         7.45814
| 18>    N        1.70528        10.94565         8.03704
| 19>    C        0.78645         8.23817         6.29372
| 20>    N       -0.23048         7.79623         5.99568
| 21>    C        4.48337         8.52469         7.12477
| 22>    C        5.34012         7.38505         7.09242
| 23>    C        6.58077         7.40770         7.66130
| 24>    C        7.03214         8.59369         8.28399
| 25>    C        6.18718         9.74124         8.30120
| 26>    C        4.90229         9.68638         7.71393
| 27>    C        6.65479        10.92034         8.91596
| 28>    C        7.89566        10.96542         9.49076
| 29>    C        8.72584         9.83470         9.47614
| 30>    C        8.30320         8.67434         8.88626
| 31>    C        4.67105         6.29097         6.36423
| 32>    O        5.06195         5.16146         6.18348
| 33>    C        3.42026         6.89803         5.82158
| 34>    C        2.76853         6.28964         4.79525
| 35>    C        1.86938         6.84697         3.85515
| 36>    C        1.01585         6.14055         3.02204
| 37>    C        0.29635         6.97506         2.17143
| 38>    C        0.63354         8.33233         2.33161
| 39>    S        1.81395         8.57892         3.52801
| 40>    C       -0.14044         9.10194         1.42851
| 41>    C       -0.97198         8.23848         0.70036
| 42>    C       -0.72230         6.87220         1.13757
| 43>    C       -1.31478         5.73688         0.66968
| 44>    C       -2.29447         5.77084        -0.34517
| 45>    N       -3.08576         5.79577        -1.17451
| 46>    C       -0.98049         4.45581         1.15852
| 47>    N       -0.70863         3.41134         1.54479
| 48>    C       -1.78663         8.91585        -0.21080
| 49>    C       -1.58533        10.28170        -0.18200
| 50>    S       -0.36269        10.73442         0.99430
| 51>    C       -2.23546        11.30413        -0.96616
| 52>    C       -1.93436        12.66089        -0.72176
| 53>    C       -2.50850        13.69084        -1.42493
| 54>    C       -3.42371        13.35299        -2.41674
| 55>    C       -3.72973        11.99337        -2.66439
| 56>    C       -3.15623        10.95865        -1.96159
| 57>    O       -4.63773        11.95987        -3.67145
| 58>    C       -4.84040        13.27106        -3.98613
| 59>    N       -4.15139        14.11824        -3.27792
| 60>    C       -5.74553        13.63288        -5.02040
| 61>    C       -6.02264        14.92485        -5.42615
| 62>    C       -6.95087        14.94162        -6.46478
| 63>    C       -7.37372        13.65163        -6.83873
| 64>    S       -6.62965        12.42239        -5.91495
| 65>    C       -8.31255        13.77252        -7.89395
| 66>    C       -8.48026        15.14319        -8.18950
| 67>    C       -7.63884        15.92050        -7.29348
| 68>    C       -7.52715        17.27669        -7.22573
| 69>    C       -8.27323        18.15608        -8.04193
| 70>    N       -8.87285        18.90161        -8.67268
| 71>    C       -6.66240        17.91428        -6.30889
| 72>    N       -5.96260        18.44550        -5.57274
| 73>    C       -9.37094        15.37429        -9.22933
| 74>    C       -9.89802        14.19499        -9.73907
| 75>    S       -9.26778        12.77754        -8.88536
| 76>    C      -10.85567        13.93362       -10.74205
| 77>    C      -11.43434        14.76046       -11.66388
| 78>    C      -12.49710        14.34851       -12.57006
| 79>    C      -13.22094        13.18491       -12.51812
| 80>    C      -14.25121        12.85580       -13.42502
| 81>    N      -15.09511        12.51964       -14.12692
| 82>    C      -13.08258        12.15908       -11.55957
| 83>    N      -13.05120        11.28725       -10.81187
| 84>    C      -12.72258        15.43131       -13.51973
| 85>    C      -11.85841        16.51119       -13.18595
| 86>    C      -11.03813        16.14867       -12.02044
| 87>    O      -10.18691        16.84345       -11.50700
| 88>    C      -11.85039        17.67999       -13.89123
| 89>    C      -12.72816        17.82622       -14.98795
| 90>    C      -13.59349        16.74830       -15.33454
| 91>    C      -13.57627        15.54945       -14.58529
| 92>    C      -14.46470        16.90407       -16.43201
| 93>    C      -14.48299        18.06784       -17.15159
| 94>    C      -13.63091        19.12840       -16.80878
| 95>    C      -12.77195        19.01019       -15.74989
| 96>    H        7.21248         6.53226         7.63643
| 97>    H        4.28339        10.57014         7.73195
| 98>    H        6.01014        11.78692         8.92783
| 99>    H        8.24414        11.87286         9.96069
|100>    H        9.70205         9.88772         9.93432
|101>    H        8.93848         7.80085         8.87209
|102>    H        3.03904         5.25225         4.62142
|103>    H        0.91701         5.07109         3.07095
|104>    H       -2.49583         8.43193        -0.85591
|105>    H       -1.22189        12.89464         0.05583
|106>    H       -2.26928        14.72185        -1.22640
|107>    H       -3.40940         9.93523        -2.17970
|108>    H       -5.55559        15.77715        -4.96898
|109>    H       -9.62933        16.34095        -9.62197
|110>    H      -11.16517        12.89521       -10.76795
|111>    H      -11.18451        18.48270       -13.61131
|112>    H      -14.24098        14.75273       -14.87834
|113>    H      -15.11994        16.08556       -16.69161
|114>    H      -15.15512        18.17787       -17.98935
|115>    H      -13.65867        20.03933       -17.38775
|116>    H      -12.11353        19.82295       -15.48046
|117> *
|118>
|119>                          ****END OF INPUT****

CARTESIAN COORDINATES (ANGSTROEM)
---------------------------------
  C      3.223180    8.171220    6.482960
  C      2.017750    8.782440    6.711850
  C      1.870910    9.968440    7.458140
  N      1.705280   10.945650    8.037040
  C      0.786450    8.238170    6.293720
  N     -0.230480    7.796230    5.995680
  C      4.483370    8.524690    7.124770
  C      5.340120    7.385050    7.092420
  C      6.580770    7.407700    7.661300
  C      7.032140    8.593690    8.283990
  C      6.187180    9.741240    8.301200
  C      4.902290    9.686380    7.713930
  C      6.654790   10.920340    8.915960
  C      7.895660   10.965420    9.490760
  C      8.725840    9.834700    9.476140
  C      8.303200    8.674340    8.886260
  C      4.671050    6.290970    6.364230
  O      5.061950    5.161460    6.183480
  C      3.420260    6.898030    5.821580
  C      2.768530    6.289640    4.795250
  C      1.869380    6.846970    3.855150
  C      1.015850    6.140550    3.022040
  C      0.296350    6.975060    2.171430
  C      0.633540    8.332330    2.331610
  S      1.813950    8.578920    3.528010
  C     -0.140440    9.101940    1.428510
  C     -0.971980    8.238480    0.700360
  C     -0.722300    6.872200    1.137570
  C     -1.314780    5.736880    0.669680
  C     -2.294470    5.770840   -0.345170
  N     -3.085760    5.795770   -1.174510
  C     -0.980490    4.455810    1.158520
  N     -0.708630    3.411340    1.544790
  C     -1.786630    8.915850   -0.210800
  C     -1.585330   10.281700   -0.182000
  S     -0.362690   10.734420    0.994300
  C     -2.235460   11.304130   -0.966160
  C     -1.934360   12.660890   -0.721760
  C     -2.508500   13.690840   -1.424930
  C     -3.423710   13.352990   -2.416740
  C     -3.729730   11.993370   -2.664390
  C     -3.156230   10.958650   -1.961590
  O     -4.637730   11.959870   -3.671450
  C     -4.840400   13.271060   -3.986130
  N     -4.151390   14.118240   -3.277920
  C     -5.745530   13.632880   -5.020400
  C     -6.022640   14.924850   -5.426150
  C     -6.950870   14.941620   -6.464780
  C     -7.373720   13.651630   -6.838730
  S     -6.629650   12.422390   -5.914950
  C     -8.312550   13.772520   -7.893950
  C     -8.480260   15.143190   -8.189500
  C     -7.638840   15.920500   -7.293480
  C     -7.527150   17.276690   -7.225730
  C     -8.273230   18.156080   -8.041930
  N     -8.872850   18.901610   -8.672680
  C     -6.662400   17.914280   -6.308890
  N     -5.962600   18.445500   -5.572740
  C     -9.370940   15.374290   -9.229330
  C     -9.898020   14.194990   -9.739070
  S     -9.267780   12.777540   -8.885360
  C    -10.855670   13.933620  -10.742050
  C    -11.434340   14.760460  -11.663880
  C    -12.497100   14.348510  -12.570060
  C    -13.220940   13.184910  -12.518120
  C    -14.251210   12.855800  -13.425020
  N    -15.095110   12.519640  -14.126920
  C    -13.082580   12.159080  -11.559570
  N    -13.051200   11.287250  -10.811870
  C    -12.722580   15.431310  -13.519730
  C    -11.858410   16.511190  -13.185950
  C    -11.038130   16.148670  -12.020440
  O    -10.186910   16.843450  -11.507000
  C    -11.850390   17.679990  -13.891230
  C    -12.728160   17.826220  -14.987950
  C    -13.593490   16.748300  -15.334540
  C    -13.576270   15.549450  -14.585290
  C    -14.464700   16.904070  -16.432010
  C    -14.482990   18.067840  -17.151590
  C    -13.630910   19.128400  -16.808780
  C    -12.771950   19.010190  -15.749890
  H      7.212480    6.532260    7.636430
  H      4.283390   10.570140    7.731950
  H      6.010140   11.786920    8.927830
  H      8.244140   11.872860    9.960690
  H      9.702050    9.887720    9.934320
  H      8.938480    7.800850    8.872090
  H      3.039040    5.252250    4.621420
  H      0.917010    5.071090    3.070950
  H     -2.495830    8.431930   -0.855910
  H     -1.221890   12.894640    0.055830
  H     -2.269280   14.721850   -1.226400
  H     -3.409400    9.935230   -2.179700
  H     -5.555590   15.777150   -4.968980
  H     -9.629330   16.340950   -9.621970
  H    -11.165170   12.895210  -10.767950
  H    -11.184510   18.482700  -13.611310
  H    -14.240980   14.752730  -14.878340
  H    -15.119940   16.085560  -16.691610
  H    -15.155120   18.177870  -17.989350
  H    -13.658670   20.039330  -17.387750
  H    -12.113530   19.822950  -15.480460

 Total Charge           Charge          ....    0
 Multiplicity           Mult            ....    1
 Number of Electrons    NEL             ....  562
 Basis Dimension        Dim             .... 1255

ORBITAL ENERGIES
----------------

  NO   OCC          E(Eh)            E(eV)
   0   2.0000     -89.007312     -2422.0121
   1   2.0000     -89.001664     -2421.8584
   2   2.0000     -88.997410     -2421.7426
   3   2.0000     -88.995949     -2421.7029
   4   2.0000     -19.319284      -525.7045
   5   2.0000     -19.220782      -523.0241
   6   2.0000     -19.215314      -522.8753
   7   2.0000     -14.435896      -392.8207
   8   2.0000     -14.435561      -392.8116
   9   2.0000     -14.434180      -392.7740
  10   2.0000     -14.433449      -392.7541
  11   2.0000     -14.424839      -392.5198
  12   2.0000     -14.419917      -392.3859
  13   2.0000     -14.418137      -392.3375
  14   2.0000     -14.417054      -392.3080
  15   2.0000     -14.415852      -392.2753
  16   2.0000     -10.395489      -282.8756
  17   2.0000     -10.373628      -282.2808
  18   2.0000     -10.372056      -282.2380
  19   2.0000     -10.370178      -282.1869
  20   2.0000     -10.367549      -282.1154
  21   2.0000     -10.359622      -281.8997
  22   2.0000     -10.358052      -281.8569
  23   2.0000     -10.352824      -281.7147
  24   2.0000     -10.351381      -281.6754
  25   2.0000     -10.347159      -281.5605
  26   2.0000     -10.346418      -281.5404
  27   2.0000     -10.345718      -281.5213
  28   2.0000     -10.344537      -281.4892
  29   2.0000     -10.344239      -281.4811
  30   2.0000     -10.343638      -281.4647
  31   2.0000     -10.340875      -281.3895
  32   2.0000     -10.335984      -281.2564
  33   2.0000     -10.335870      -281.2533
  34   2.0000     -10.335342      -281.2390
  35   2.0000     -10.334532      -281.2169
  36   2.0000     -10.334088      -281.2048
  37   2.0000     -10.333548      -281.1901
  38   2.0000     -10.332266      -281.1553
  39   2.0000     -10.331666      -281.1389
  40   2.0000     -10.329495      -281.0798
  41   2.0000     -10.326388      -280.9953
  42   2.0000     -10.322884      -280.8999
  43   2.0000     -10.320652      -280.8392
  44   2.0000     -10.319882      -280.8183
  45   2.0000     -10.319386      -280.8048
  46   2.0000     -10.318931      -280.7924
  47   2.0000     -10.318920      -280.7921
  48   2.0000     -10.316452      -280.7249
  49   2.0000     -10.315686      -280.7041
  50   2.0000     -10.314652      -280.6759
  51   2.0000     -10.313401      -280.6419
  52   2.0000     -10.312725      -280.6235
  53   2.0000     -10.310739      -280.5695
  54   2.0000     -10.309416      -280.5335
  55   2.0000     -10.306404      -280.4515
  56   2.0000     -10.306288      -280.4484
  57   2.0000     -10.305701      -280.4324
  58   2.0000     -10.304117      -280.3893
  59   2.0000     -10.303083      -280.3611
  60   2.0000     -10.300450      -280.2895
  61   2.0000     -10.299909      -280.2748
  62   2.0000     -10.299509      -280.2639
  63   2.0000     -10.299186      -280.2551
  64   2.0000     -10.298956      -280.2488
  65   2.0000     -10.298743      -280.2431
  66   2.0000     -10.298482      -280.2359
  67   2.0000     -10.297994      -280.2227
  68   2.0000     -10.297383      -280.2060
  69   2.0000     -10.295494      -280.1546
  70   2.0000     -10.294561      -280.1292
  71   2.0000     -10.291518      -280.0464
  72   2.0000     -10.289477      -279.9909
  73   2.0000     -10.288227      -279.9569
  74   2.0000     -10.287946      -279.9492
  75   2.0000     -10.287630      -279.9406
  76   2.0000     -10.287421      -279.9350
  77   2.0000     -10.287327      -279.9324
  78   2.0000     -10.286910      -279.9211
  79   2.0000     -10.286695      -279.9152
  80   2.0000     -10.286311      -279.9048
  81   2.0000      -8.101533      -220.4539
  82   2.0000      -8.096287      -220.3112
  83   2.0000      -8.091588      -220.1833
  84   2.0000      -8.090408      -220.1512
  85   2.0000      -6.070757      -165.1937
  86   2.0000      -6.066509      -165.0781
  87   2.0000      -6.065374      -165.0472
  88   2.0000      -6.064035      -165.0108
  89   2.0000      -6.061252      -164.9350
  90   2.0000      -6.060845      -164.9240
  91   2.0000      -6.059643      -164.8913
  92   2.0000      -6.058897      -164.8710
  93   2.0000      -6.056585      -164.8081
  94   2.0000      -6.055391      -164.7756
  95   2.0000      -6.054036      -164.7387
  96   2.0000      -6.052896      -164.7077
  97   2.0000      -1.247220       -33.9386
  98   2.0000      -1.136388       -30.9227
  99   2.0000      -1.130895       -30.7732
 100   2.0000      -1.057456       -28.7748
 101   2.0000      -1.052440       -28.6383
 102   2.0000      -1.039480       -28.2857
 103   2.0000      -1.027617       -27.9629
 104   2.0000      -1.027352       -27.9557
 105   2.0000      -1.021734       -27.8028
 106   2.0000      -1.021306       -27.7911
 107   2.0000      -1.012974       -27.5644
 108   2.0000      -1.012505       -27.5517
 109   2.0000      -1.010492       -27.4969
 110   2.0000      -1.007156       -27.4061
 111   2.0000      -1.000937       -27.2369
 112   2.0000      -1.000399       -27.2222
 113   2.0000      -0.995865       -27.0989
 114   2.0000      -0.995775       -27.0964
 115   2.0000      -0.979478       -26.6529
 116   2.0000      -0.974707       -26.5231
 117   2.0000      -0.972571       -26.4650
 118   2.0000      -0.968124       -26.3440
 119   2.0000      -0.959829       -26.1183
 120   2.0000      -0.932584       -25.3769
 121   2.0000      -0.929676       -25.2978
 122   2.0000      -0.923710       -25.1354
 123   2.0000      -0.920114       -25.0376
 124   2.0000      -0.904470       -24.6119
 125   2.0000      -0.900908       -24.5150
 126   2.0000      -0.887226       -24.1426
 127   2.0000      -0.883876       -24.0515
 128   2.0000      -0.883544       -24.0425
 129   2.0000      -0.881092       -23.9757
 130   2.0000      -0.880009       -23.9463
 131   2.0000      -0.873506       -23.7693
 132   2.0000      -0.869322       -23.6555
 133   2.0000      -0.866767       -23.5859
 134   2.0000      -0.861173       -23.4337
 135   2.0000      -0.855772       -23.2867
 136   2.0000      -0.830411       -22.5966
 137   2.0000      -0.829840       -22.5811
 138   2.0000      -0.829064       -22.5600
 139   2.0000      -0.815413       -22.1885
 140   2.0000      -0.805405       -21.9162
 141   2.0000      -0.787160       -21.4197
 142   2.0000      -0.783015       -21.3069
 143   2.0000      -0.776922       -21.1411
 144   2.0000      -0.764433       -20.8013
 145   2.0000      -0.762666       -20.7532
 146   2.0000      -0.758676       -20.6446
 147   2.0000      -0.742143       -20.1947
 148   2.0000      -0.732247       -19.9255
 149   2.0000      -0.719253       -19.5719
 150   2.0000      -0.712640       -19.3919
 151   2.0000      -0.710390       -19.3307
 152   2.0000      -0.707269       -19.2458
 153   2.0000      -0.705994       -19.2111
 154   2.0000      -0.703642       -19.1471
 155   2.0000      -0.701601       -19.0915
 156   2.0000      -0.698214       -18.9994
 157   2.0000      -0.690000       -18.7759
 158   2.0000      -0.688827       -18.7439
 159   2.0000      -0.686036       -18.6680
 160   2.0000      -0.678798       -18.4710
 161   2.0000      -0.676813       -18.4170
 162   2.0000      -0.664168       -18.0729
 163   2.0000      -0.656685       -17.8693
 164   2.0000      -0.649255       -17.6671
 165   2.0000      -0.639705       -17.4073
 166   2.0000      -0.636662       -17.3244
 167   2.0000      -0.635414       -17.2905
 168   2.0000      -0.633065       -17.2266
 169   2.0000      -0.627867       -17.0851
 170   2.0000      -0.624695       -16.9988
 171   2.0000      -0.621153       -16.9024
 172   2.0000      -0.618523       -16.8309
 173   2.0000      -0.612627       -16.6704
 174   2.0000      -0.609496       -16.5852
 175   2.0000      -0.607951       -16.5432
 176   2.0000      -0.603789       -16.4299
 177   2.0000      -0.596988       -16.2449
 178   2.0000      -0.593669       -16.1546
 179   2.0000      -0.592967       -16.1355
 180   2.0000      -0.584298       -15.8996
 181   2.0000      -0.569178       -15.4881
 182   2.0000      -0.563415       -15.3313
 183   2.0000      -0.559985       -15.2380
 184   2.0000      -0.557791       -15.1783
 185   2.0000      -0.555573       -15.1179
 186   2.0000      -0.552769       -15.0416
 187   2.0000      -0.548749       -14.9322
 188   2.0000      -0.548299       -14.9200
 189   2.0000      -0.547597       -14.9009
 190   2.0000      -0.545509       -14.8440
 191   2.0000      -0.541798       -14.7431
 192   2.0000      -0.540200       -14.6996
 193   2.0000      -0.538313       -14.6482
 194   2.0000      -0.534624       -14.5479
 195   2.0000      -0.530407       -14.4331
 196   2.0000      -0.526228       -14.3194
 197   2.0000      -0.525288       -14.2938
 198   2.0000      -0.523231       -14.2378
 199   2.0000      -0.520866       -14.1735
 200   2.0000      -0.518839       -14.1183
 201   2.0000      -0.514225       -13.9928
 202   2.0000      -0.512960       -13.9583
 203   2.0000      -0.512230       -13.9385
 204   2.0000      -0.511552       -13.9200
 205   2.0000      -0.509700       -13.8697
 206   2.0000      -0.508224       -13.8295
 207   2.0000      -0.508091       -13.8258
 208   2.0000      -0.506596       -13.7852
 209   2.0000      -0.503612       -13.7040
 210   2.0000      -0.500687       -13.6244
 211   2.0000      -0.499005       -13.5786
 212   2.0000      -0.496881       -13.5208
 213   2.0000      -0.496153       -13.5010
 214   2.0000      -0.494939       -13.4680
 215   2.0000      -0.492793       -13.4096
 216   2.0000      -0.489495       -13.3198
 217   2.0000      -0.486736       -13.2447
 218   2.0000      -0.484041       -13.1714
 219   2.0000      -0.478375       -13.0172
 220   2.0000      -0.474381       -12.9086
 221   2.0000      -0.468031       -12.7358
 222   2.0000      -0.466635       -12.6978
 223   2.0000      -0.466486       -12.6937
 224   2.0000      -0.466065       -12.6823
 225   2.0000      -0.465161       -12.6577
 226   2.0000      -0.464731       -12.6460
 227   2.0000      -0.461911       -12.5692
 228   2.0000      -0.459232       -12.4963
 229   2.0000      -0.456646       -12.4260
 230   2.0000      -0.452262       -12.3067
 231   2.0000      -0.451981       -12.2990
 232   2.0000      -0.451336       -12.2815
 233   2.0000      -0.450131       -12.2487
 234   2.0000      -0.446607       -12.1528
 235   2.0000      -0.446177       -12.1411
 236   2.0000      -0.445419       -12.1205
 237   2.0000      -0.444986       -12.1087
 238   2.0000      -0.443959       -12.0807
 239   2.0000      -0.443785       -12.0760
 240   2.0000      -0.443489       -12.0680
 241   2.0000      -0.441365       -12.0102
 242   2.0000      -0.441173       -12.0049
 243   2.0000      -0.441063       -12.0019
 244   2.0000      -0.438345       -11.9280
 245   2.0000      -0.435445       -11.8490
 246   2.0000      -0.435166       -11.8415
 247   2.0000      -0.434541       -11.8245
 248   2.0000      -0.431690       -11.7469
 249   2.0000      -0.430430       -11.7126
 250   2.0000      -0.429982       -11.7004
 251   2.0000      -0.428990       -11.6734
 252   2.0000      -0.428316       -11.6551
 253   2.0000      -0.423246       -11.5171
 254   2.0000      -0.421306       -11.4643
 255   2.0000      -0.418405       -11.3854
 256   2.0000      -0.410836       -11.1794
 257   2.0000      -0.409832       -11.1521
 258   2.0000      -0.407462       -11.0876
 259   2.0000      -0.401924       -10.9369
 260   2.0000      -0.393167       -10.6986
 261   2.0000      -0.385217       -10.4823
 262   2.0000      -0.383269       -10.4293
 263   2.0000      -0.378213       -10.2917
 264   2.0000      -0.373941       -10.1754
 265   2.0000      -0.362644        -9.8680
 266   2.0000      -0.359680        -9.7874
 267   2.0000      -0.354357        -9.6425
 268   2.0000      -0.345203        -9.3935
 269   2.0000      -0.341454        -9.2914
 270   2.0000      -0.337282        -9.1779
 271   2.0000      -0.335157        -9.1201
 272   2.0000      -0.330478        -8.9928
 273   2.0000      -0.327665        -8.9162
 274   2.0000      -0.320064        -8.7094
 275   2.0000      -0.318277        -8.6608
 276   2.0000      -0.310279        -8.4431
 277   2.0000      -0.297322        -8.0905
 278   2.0000      -0.295305        -8.0357
 279   2.0000      -0.278644        -7.5823
 280   2.0000      -0.258452        -7.0328
 281   0.0000      -0.120636        -3.2827
 282   0.0000      -0.114441        -3.1141
 283   0.0000      -0.093943        -2.5563
 284   0.0000      -0.090974        -2.4755
 285   0.0000      -0.062732        -1.7070

MULLIKEN ATOMIC CHARGES
-----------------------
   0 C :    0.243362
   1 C :   -0.327208
   2 C :   -0.174797
   3 N :    0.154024
   4 C :   -0.207211
   5 N :    0.175203
   6 C :    0.038980
   7 C :    0.013169
   8 C :   -0.086817
   9 C :    0.097438
  10 C :    0.097498
  11 C :   -0.084933
  12 C :   -0.021227
  13 C :    0.038197
  14 C :    0.037949
  15 C :   -0.018255
  16 C :    0.143321
  17 O :   -0.139929
  18 C :   -0.143065
  19 C :    0.053500
  20 C :   -0.095849
  21 C :    0.007518
  22 C :    0.021409
  23 C :   -0.075535
  24 S :    0.203144
  25 C :   -0.100890
  26 C :    0.030431
  27 C :    0.299110
  28 C :   -0.294316
  29 C :   -0.185717
  30 N :    0.170664
  31 C :   -0.191527
  32 N :    0.184149
  33 C :   -0.049262
  34 C :   -0.066384
  35 S :    0.176100
  36 C :    0.153150
  37 C :   -0.052611
  38 C :   -0.035396
  39 C :    0.022545
  40 C :    0.250504
  41 C :   -0.152903
  42 O :   -0.202408
  43 C :    0.124146
  44 N :   -0.038846
  45 C :   -0.118245
  46 C :   -0.031510
  47 C :    0.023538
  48 C :   -0.097712
  49 S :    0.245293
  50 C :   -0.083587
  51 C :   -0.008817
  52 C :    0.307059
  53 C :   -0.295645
  54 C :   -0.189986
  55 N :    0.197646
  56 C :   -0.196551
  57 N :    0.185423
  58 C :    0.002217
  59 C :   -0.113551
  60 S :    0.211824
  61 C :    0.035914
  62 C :   -0.088549
  63 C :    0.318044
  64 C :   -0.353833
  65 C :   -0.182770
  66 N :    0.145093
  67 C :   -0.193476
  68 N :    0.153206
  69 C :    0.045441
  70 C :   -0.002568
  71 C :    0.159055
  72 O :   -0.151726
  73 C :   -0.079175
  74 C :    0.097733
  75 C :    0.095395
  76 C :   -0.081264
  77 C :   -0.019270
  78 C :    0.035474
  79 C :    0.037087
  80 C :   -0.014943
  81 H :   -0.010265
  82 H :   -0.005574
  83 H :   -0.010516
  84 H :   -0.004856
  85 H :   -0.004935
  86 H :   -0.015973
  87 H :    0.032964
  88 H :    0.019979
  89 H :    0.006095
  90 H :   -0.001838
  91 H :   -0.010214
  92 H :   -0.009312
  93 H :    0.029924
  94 H :    0.039432
  95 H :    0.010385
  96 H :   -0.008829
  97 H :   -0.007324
  98 H :   -0.008783
  99 H :   -0.003582
 100 H :   -0.004129
 101 H :   -0.015338
Sum of atomic charges:   -0.0000000

LOEWDIN ATOMIC CHARGES
----------------------
   0 C :    0.060158
   1 C :   -0.146554
   2 C :   -0.020044
   3 N :   -0.051589
   4 C :   -0.037362
   5 N :   -0.048702
   6 C :   -0.023344
   7 C :   -0.056781
   8 C :    0.032787
   9 C :   -0.008853
  10 C :   -0.005497
  11 C :    0.015206
  12 C :   -0.006880
  13 C :   -0.012468
  14 C :   -0.012583
  15 C :   -0.008927
  16 C :    0.083375
  17 O :   -0.142009
  18 C :   -0.100619
  19 C :    0.051347
  20 C :   -0.179352
  21 C :    0.015086
  22 C :   -0.075269
  23 C :   -0.149574
  24 S :    0.511240
  25 C :   -0.190747
  26 C :   -0.054224
  27 C :    0.081404
  28 C :   -0.098064
  29 C :   -0.014912
  30 N :   -0.033005
  31 C :   -0.017732
  32 N :   -0.026357
  33 C :   -0.033626
  34 C :   -0.142299
  35 S :    0.489369
  36 C :   -0.038506
  37 C :   -0.029495
  38 C :   -0.010689
  39 C :   -0.027237
  40 C :    0.037476
  41 C :   -0.028771
  42 O :   -0.013240
  43 C :    0.047534
  44 N :   -0.096764
  45 C :   -0.191855
  46 C :    0.006855
  47 C :   -0.057139
  48 C :   -0.181400
  49 S :    0.509080
  50 C :   -0.163943
  51 C :   -0.070762
  52 C :    0.073118
  53 C :   -0.088892
  54 C :   -0.022167
  55 N :   -0.013009
  56 C :   -0.018248
  57 N :   -0.022830
  58 C :    0.017807
  59 C :   -0.173285
  60 S :    0.500187
  61 C :    0.041883
  62 C :   -0.091280
  63 C :    0.077057
  64 C :   -0.141666
  65 C :   -0.016879
  66 N :   -0.053453
  67 C :   -0.024195
  68 N :   -0.053707
  69 C :   -0.027094
  70 C :   -0.055863
  71 C :    0.086969
  72 O :   -0.137209
  73 C :    0.034513
  74 C :   -0.007905
  75 C :   -0.006009
  76 C :    0.020072
  77 C :   -0.005348
  78 C :   -0.012714
  79 C :   -0.011504
  80 C :   -0.008727
  81 H :    0.039835
  82 H :    0.038456
  83 H :    0.034176
  84 H :    0.033196
  85 H :    0.033014
  86 H :    0.032207
  87 H :    0.054999
  88 H :    0.047601
  89 H :    0.038742
  90 H :    0.021190
  91 H :    0.041209
  92 H :    0.039721
  93 H :    0.051249
  94 H :    0.043895
  95 H :    0.042882
  96 H :    0.040662
  97 H :    0.039212
  98 H :    0.034933
  99 H :    0.033547
 100 H :    0.033186
 101 H :    0.032725

  Mayer bond orders larger than 0.100000
B(  0-C ,  1-C ) :   1.6522 B(  0-C ,  6-C ) :   1.0025 B(  0-C , 18-C ) :   1.0356
B(  1-C ,  2-C ) :   1.1371 B(  1-C ,  4-C ) :   1.1518 B(  2-C ,  3-N ) :   2.9905
B(  4-C ,  5-N ) :   3.0237 B(  6-C ,  7-C ) :   1.2151 B(  6-C , 11-C ) :   1.4574
B(  7-C ,  8-C ) :   1.4765 B(  7-C , 16-C ) :   0.9195 B(  8-C ,  9-C ) :   1.1839
B(  8-C , 81-H ) :   1.0162 B(  9-C , 10-C ) :   1.2571 B(  9-C , 15-C ) :   1.2458
B( 10-C , 11-C ) :   1.2028 B( 10-C , 12-C ) :   1.2411 B( 11-C , 82-H ) :   0.9953
B( 12-C , 13-C ) :   1.4904 B( 12-C , 83-H ) :   0.9974 B( 13-C , 14-C ) :   1.2611
B( 13-C , 84-H ) :   0.9883 B( 14-C , 15-C ) :   1.4889 B( 14-C , 85-H ) :   0.9883
B( 15-C , 86-H ) :   0.9977 B( 16-C , 17-O ) :   2.2757 B( 16-C , 18-C ) :   0.9356
B( 18-C , 19-C ) :   1.6411 B( 19-C , 20-C ) :   1.1432 B( 19-C , 87-H ) :   0.9468
B( 20-C , 21-C ) :   1.4038 B( 20-C , 24-S ) :   1.0824 B( 21-C , 22-C ) :   1.3041
B( 21-C , 88-H ) :   1.0007 B( 22-C , 23-C ) :   1.4022 B( 22-C , 27-C ) :   0.9936
B( 23-C , 24-S ) :   1.1612 B( 23-C , 25-C ) :   1.1995 B( 25-C , 26-C ) :   1.4441
B( 25-C , 35-S ) :   1.1139 B( 26-C , 27-C ) :   1.0001 B( 26-C , 33-C ) :   1.2765
B( 27-C , 28-C ) :   1.7142 B( 28-C , 29-C ) :   1.1376 B( 28-C , 31-C ) :   1.1340
B( 29-C , 30-N ) :   2.9864 B( 31-C , 32-N ) :   2.9970 B( 33-C , 34-C ) :   1.4853
B( 33-C , 89-H ) :   0.9891 B( 34-C , 35-S ) :   1.1197 B( 34-C , 36-C ) :   1.0824
B( 36-C , 37-C ) :   1.2865 B( 36-C , 41-C ) :   1.3307 B( 37-C , 38-C ) :   1.4210
B( 37-C , 90-H ) :   0.9793 B( 38-C , 39-C ) :   1.2975 B( 38-C , 91-H ) :   1.0168
B( 39-C , 40-C ) :   1.2628 B( 39-C , 44-N ) :   1.3010 B( 40-C , 41-C ) :   1.3384
B( 40-C , 42-O ) :   1.0932 B( 41-C , 92-H ) :   1.0180 B( 42-O , 43-C ) :   1.1856
B( 43-C , 44-N ) :   1.7737 B( 43-C , 45-C ) :   1.0650 B( 45-C , 46-C ) :   1.4730
B( 45-C , 49-S ) :   1.1087 B( 46-C , 47-C ) :   1.2767 B( 46-C , 93-H ) :   1.0068
B( 47-C , 48-C ) :   1.4248 B( 47-C , 52-C ) :   0.9880 B( 48-C , 49-S ) :   1.1266
B( 48-C , 50-C ) :   1.2011 B( 50-C , 51-C ) :   1.3888 B( 50-C , 60-S ) :   1.1635
B( 51-C , 52-C ) :   0.9990 B( 51-C , 58-C ) :   1.3148 B( 52-C , 53-C ) :   1.7248
B( 53-C , 54-C ) :   1.1361 B( 53-C , 56-C ) :   1.1365 B( 54-C , 55-N ) :   2.9963
B( 56-C , 57-N ) :   2.9965 B( 58-C , 59-C ) :   1.4057 B( 58-C , 94-H ) :   0.9703
B( 59-C , 60-S ) :   1.0823 B( 59-C , 61-C ) :   1.2037 B( 61-C , 62-C ) :   1.6052
B( 61-C , 95-H ) :   0.9126 B( 62-C , 63-C ) :   1.0763 B( 62-C , 71-C ) :   0.9337
B( 63-C , 64-C ) :   1.6213 B( 63-C , 69-C ) :   0.9871 B( 64-C , 65-C ) :   1.1490
B( 64-C , 67-C ) :   1.1402 B( 65-C , 66-N ) :   2.9620 B( 67-C , 68-N ) :   2.9732
B( 69-C , 70-C ) :   1.2151 B( 69-C , 76-C ) :   1.4464 B( 70-C , 71-C ) :   0.9524
B( 70-C , 73-C ) :   1.4709 B( 71-C , 72-O ) :   2.1737 B( 73-C , 74-C ) :   1.1749
B( 73-C , 96-H ) :   1.0171 B( 74-C , 75-C ) :   1.2562 B( 74-C , 80-C ) :   1.2454
B( 75-C , 76-C ) :   1.2089 B( 75-C , 77-C ) :   1.2386 B( 76-C , 97-H ) :   0.9889
B( 77-C , 78-C ) :   1.4894 B( 77-C , 98-H ) :   0.9971 B( 78-C , 79-C ) :   1.2606
B( 78-C , 99-H ) :   0.9888 B( 79-C , 80-C ) :   1.4869 B( 79-C ,100-H ) :   0.9887
B( 80-C ,101-H ) :   0.9977

-----------------------------------------------------------------------------
         ABSORPTION SPECTRUM VIA TRANSITION ELECTRIC DIPOLE MOMENTS
-----------------------------------------------------------------------------
State   Energy  Wavelength   fosc         T2         TX        TY        TZ
        (cm-1)    (nm)                  (au**2)     (au)      (au)      (au)
-----------------------------------------------------------------------------
   0   13407.2    745.9   0.415135755  10.19361   1.86245  -1.00884   2.38896
   1   14969.9    668.0   0.359126836   7.89776  -1.83782   0.45855  -2.07603
   2   20134.0    496.7   1.269459651  20.75700  -2.61843   0.55110  -3.68743
   3   21631.9    462.3   0.505443621   7.69226  -1.96260   0.67385  -1.84022
   4   22439.3    445.6   0.370390371   5.43407   1.63898   0.15140   1.65073
   5   23856.6    419.2   0.044014438   0.60738  -0.19615   0.71782   0.23162
   6   25082.2    398.7   0.071805103   0.94247   0.39887  -0.32591   0.82289
   7   25526.4    391.8   0.069852610   0.90088  -0.62324  -0.67645  -0.23425
   8   27280.2    366.6   0.002635275   0.03180  -0.12508   0.02354  -0.12491
   9   27523.9    363.3   0.131031811   1.56727   0.52511  -0.75524   0.84920
  10   27916.9    358.2   0.211989037   2.49990  -0.91468   1.01619  -0.79411
  11   28548.0    350.3   0.128325772   1.47984  -0.56768   0.94277  -0.51842
  12   28865.2    346.4   0.054437048   0.62086  -0.29190   0.66601  -0.30345
  13   28922.3    345.8   0.388839177   4.42601   1.03103  -1.58645   0.91988
  14   29406.1    340.1   0.011663149   0.13057   0.05084   0.24359  -0.26202
  15   29647.7    337.3   0.269381804   2.99125   1.38784   0.83686   0.60398
  16   29927.6    334.1   0.031014385   0.34117  -0.09365  -0.57426   0.05124
  17   30072.4    332.5   0.392570572   4.29760  -0.10313   2.07029   0.02949
  18   30278.0    330.3   0.268432983   2.91867   0.58528  -0.71966   1.43464
  19   30596.4    326.8   0.225841567   2.43002  -0.04219  -1.55677  -0.06872
  20   30907.4    323.5   0.099254915   1.05722   0.29076   0.78808  -0.59297
  21   31239.7    320.1   0.393389501   4.14564   1.52343   0.10392   1.34685
  22   31531.0    317.1   0.429102051   4.48021   1.33901   0.86616   1.39177
  23   32095.4    311.6   0.045690709   0.46866  -0.13488   0.45915  -0.48955
  24   32333.0    309.3   0.060802747   0.61909   0.33364  -0.50811   0.49959
  25   32786.9    305.0   0.270072861   2.71179  -0.99242   0.42276  -1.24426
  26   32885.1    304.1   0.166277307   1.66460  -1.11460  -0.57483  -0.30305
  27   33281.6    300.5   0.000965930   0.00955  -0.05402   0.06026   0.05483
  28   33609.2    297.5   0.015368584   0.15054   0.26655   0.16872   0.22588
  29   33716.8    296.6   0.160774459   1.56981   0.57027  -0.99957   0.49544
  30   34049.3    293.7   0.054946683   0.53126  -0.16298  -0.26929   0.65741
  31   34257.5    291.9   0.035572263   0.34185  -0.23551   0.53138  -0.06339
  32   34319.7    291.4   0.076768291   0.73640   0.66875  -0.34761   0.41029
  33   34521.2    289.7   0.032711459   0.31195   0.08149   0.51610  -0.19737
  34   34638.5    288.7   0.080123449   0.76151  -0.19294   0.67312  -0.52076
  35   34672.2    288.4   0.547352807   5.19711   0.80214   2.13376  -0.02730
  36   34923.6    286.3   0.251836014   2.37397   1.02770  -0.13395   1.14011
  37   35189.0    284.2   0.109443523   1.02390  -0.92713   0.37475   0.15459
  38   35465.5    282.0   0.242477361   2.25082  -0.86480  -1.22236   0.09365
  39   36383.2    274.9   0.141801959   1.28309  -0.91321  -0.34935  -0.57193
  40   36594.7    273.3   0.037160340   0.33430  -0.57498   0.04370  -0.04233
  41   36817.1    271.6   0.082686928   0.73937  -0.69148   0.27014  -0.43388
  42   37289.9    268.2   0.009580949   0.08458   0.24688   0.15213  -0.02210
  43   37480.1    266.8   0.094847242   0.83310   0.14597  -0.79932   0.41580
  44   37517.5    266.5   0.045216213   0.39677  -0.42467  -0.45802   0.08147
  45   37571.4    266.2   0.102807062   0.90083   0.32222   0.88826   0.08943
  46   38102.3    262.5   0.003634195   0.03140  -0.06050   0.09201  -0.13883
  47   38317.6    261.0   0.003459433   0.02972   0.11686  -0.10941  -0.06399
  48   38844.4    257.4   0.006102715   0.05172  -0.10132  -0.11885  -0.16532
  49   39082.6    255.9   0.163445127   1.37678  -0.82283  -0.69912  -0.45930
  50   39106.4    255.7   0.007902616   0.06653  -0.00339  -0.22030   0.13410
  51   39313.3    254.4   0.033189479   0.27793  -0.08901  -0.50784   0.11004
  52   39459.8    253.4   0.004793549   0.03999   0.08520  -0.05335   0.17288
  53   39671.5    252.1   0.057879208   0.48031   0.52128   0.04791   0.45418
  54   39713.1    251.8   0.090374283   0.74918   0.37795   0.71436   0.30989
  55   39938.6    250.4   0.154185254   1.27094   0.43013   0.94703   0.43481
  56   40134.2    249.2   0.072572640   0.59530   0.67083  -0.30698   0.22596

FINAL SINGLE POINT ENERGY     -4796.054662974319

DIPOLE MOMENT
-------------
                                X             Y             Z
Electronic contribution:    -11.34171     -16.42746       1.45786
Nuclear contribution   :     14.22472      18.50042      -2.40277
                        -----------------------------------------
Total Dipole Moment    :      2.88302       2.07296      -0.94491
                        -----------------------------------------
Magnitude (a.u.)       :      3.67448
Magnitude (Debye)      :      9.33978

Rotational constants in cm-1:     0.002306     0.000133     0.000127
Rotational constants in MHz :    69.143110     3.978842     3.803812

                             ****ORCA TERMINATED NORMALLY****
TOTAL RUN TIME: 0 days 0 hours 11 minutes 16 seconds 398 msec
