                         Program Version 4.2.0 -  RELEASE  -
|  1> # ORCA input file
|  2> # SCF done       -122.402217504055          0.000307602474
|  3> ! CAM-B3LYP def2-SVP def2/J RIJCOSX Grid4 TightSCF
|  4> %maxcore 5000
|  5> %tddft
|  6>     Mode sTDDFT
|  7>     Ethresh 5.0
|  8>     maxcore 5000
|  9> end
| 10>
| 11> %pal
| 12>   nprocs 6
| 13>   end
| 14> * xyz 0 1
| 15>    C        0.30860         0.74369         4.27187
| 16>    O       -0.43623         0.10145         5.18291
| 17>    C       -0.68647         0.97289         6.17682
| 18>    C       -0.11103         2.17332         5.91898
| 19>    C        0.55279         2.03985         4.66001
| 20>    C        1.30591         3.06743         3.99696
| 21>    C        1.91753         2.94179         2.80250
| 22>    C        2.67710         3.98629         2.20226
| 23>    C        3.31817         3.86619         1.01703
| 24>    C        4.11515         4.89242         0.43810
| 25>    O        4.25081         6.08195         1.07626
| 26>    C        5.08682         6.83824         0.34541
| 27>    C        5.51328         6.17513        -0.75807
| 28>    C        4.88646         4.89459        -0.72666
| 29>    C        5.00897         3.83525        -1.67976
| 30>    C        5.95797         3.78637        -2.63834
| 31>    C        6.11222         2.75352        -3.61746
| 32>    C        5.15437         1.88599        -4.00765
| 33>    C        5.34769         0.85386        -4.98599
| 34>    C        6.61834         0.36428        -5.38114
| 35>    C        6.55918        -0.62261        -6.31729
| 36>    S        7.93832        -1.44850        -6.99941
| 37>    C        7.12703        -2.62268        -8.11995
| 38>    S        4.92240        -0.98651        -6.77074
| 39>    C        4.30543         0.21422        -5.65803
| 40>    C        2.91505         0.45813        -5.57961
| 41>    C        1.98760        -0.14911        -6.36184
| 42>    C        0.59601         0.11095        -6.30565
| 43>    O        0.09579         0.97370        -5.38529
| 44>    C       -1.23355         1.04128        -5.58029
| 45>    C       -1.62330         0.24841        -6.60869
| 46>    C       -0.44266        -0.37871        -7.10632
| 47>    C       -0.31566        -1.29557        -8.19036
| 48>    C       -1.31928        -1.68053        -9.01215
| 49>    C       -1.13234        -2.58790       -10.08866
| 50>    C       -2.11254        -2.94906       -10.95094
| 51>    C       -1.92644        -3.85107       -12.03371
| 52>    O       -0.71564        -4.43289       -12.22688
| 53>    C       -0.81828        -5.22705       -13.30577
| 54>    C       -2.06756        -5.18353       -13.83245
| 55>    C       -2.81776        -4.28687       -13.01724
| 56>    C       -4.18711        -3.89667       -13.16404
| 57>    C       -5.01465        -4.32567       -14.13446
| 58>    C       -6.38305        -3.90313       -14.24775
| 59>    C       -7.21156        -4.32099       -15.20381
| 60>    H        0.60375         0.18803         3.40463
| 61>    H       -1.27719         0.62152         6.99950
| 62>    H       -0.14335         3.05127         6.53101
| 63>    H        1.37473         4.00816         4.52784
| 64>    H        1.85188         2.00772         2.26106
| 65>    H        2.75107         4.92026         2.74297
| 66>    H        3.25964         2.94098         0.46186
| 67>    H        5.29711         7.82389         0.71213
| 68>    H        6.17408         6.55121        -1.51125
| 69>    H        4.30145         3.02351        -1.58535
| 70>    H        6.70529         4.56822        -2.66559
| 71>    H        7.07803         2.71633        -4.10352
| 72>    H        4.16080         1.97673        -3.59304
| 73>    H        7.55020         0.70574        -4.97041
| 74>    H        7.92068        -3.19191        -8.59259
| 75>    H        6.55689        -2.07753        -8.86676
| 76>    H        6.47876        -3.28094        -7.54881
| 77>    H        2.58517         1.19386        -4.86026
| 78>    H        2.30487        -0.87209        -7.09998
| 79>    H       -1.78709         1.68517        -4.92509
| 80>    H       -2.62286         0.11782        -6.96787
| 81>    H        0.67405        -1.69751        -8.36314
| 82>    H       -2.31534        -1.28406        -8.87079
| 83>    H       -0.14251        -3.00309       -10.22338
| 84>    H       -3.10615        -2.53970       -10.83881
| 85>    H        0.06104        -5.76789       -13.59645
| 86>    H       -2.41486        -5.71981       -14.69086
| 87>    H       -4.56435        -3.19847       -12.42790
| 88>    H       -4.66237        -5.02219       -14.88232
| 89>    H       -6.73266        -3.20348       -13.49870
| 90>    H       -6.89111        -5.01645       -15.96200
| 91>    H       -8.23219        -3.98506       -15.26229
| 92> *
| 93>
| 94>                          ****END OF INPUT****

CARTESIAN COORDINATES (ANGSTROEM)
---------------------------------
  C      0.308600    0.743690    4.271870
  O     -0.436230    0.101450    5.182910
  C     -0.686470    0.972890    6.176820
  C     -0.111030    2.173320    5.918980
  C      0.552790    2.039850    4.660010
  C      1.305910    3.067430    3.996960
  C      1.917530    2.941790    2.802500
  C      2.677100    3.986290    2.202260
  C      3.318170    3.866190    1.017030
  C      4.115150    4.892420    0.438100
  O      4.250810    6.081950    1.076260
  C      5.086820    6.838240    0.345410
  C      5.513280    6.175130   -0.758070
  C      4.886460    4.894590   -0.726660
  C      5.008970    3.835250   -1.679760
  C      5.957970    3.786370   -2.638340
  C      6.112220    2.753520   -3.617460
  C      5.154370    1.885990   -4.007650
  C      5.347690    0.853860   -4.985990
  C      6.618340    0.364280   -5.381140
  C      6.559180   -0.622610   -6.317290
  S      7.938320   -1.448500   -6.999410
  C      7.127030   -2.622680   -8.119950
  S      4.922400   -0.986510   -6.770740
  C      4.305430    0.214220   -5.658030
  C      2.915050    0.458130   -5.579610
  C      1.987600   -0.149110   -6.361840
  C      0.596010    0.110950   -6.305650
  O      0.095790    0.973700   -5.385290
  C     -1.233550    1.041280   -5.580290
  C     -1.623300    0.248410   -6.608690
  C     -0.442660   -0.378710   -7.106320
  C     -0.315660   -1.295570   -8.190360
  C     -1.319280   -1.680530   -9.012150
  C     -1.132340   -2.587900  -10.088660
  C     -2.112540   -2.949060  -10.950940
  C     -1.926440   -3.851070  -12.033710
  O     -0.715640   -4.432890  -12.226880
  C     -0.818280   -5.227050  -13.305770
  C     -2.067560   -5.183530  -13.832450
  C     -2.817760   -4.286870  -13.017240
  C     -4.187110   -3.896670  -13.164040
  C     -5.014650   -4.325670  -14.134460
  C     -6.383050   -3.903130  -14.247750
  C     -7.211560   -4.320990  -15.203810
  H      0.603750    0.188030    3.404630
  H     -1.277190    0.621520    6.999500
  H     -0.143350    3.051270    6.531010
  H      1.374730    4.008160    4.527840
  H      1.851880    2.007720    2.261060
  H      2.751070    4.920260    2.742970
  H      3.259640    2.940980    0.461860
  H      5.297110    7.823890    0.712130
  H      6.174080    6.551210   -1.511250
  H      4.301450    3.023510   -1.585350
  H      6.705290    4.568220   -2.665590
  H      7.078030    2.716330   -4.103520
  H      4.160800    1.976730   -3.593040
  H      7.550200    0.705740   -4.970410
  H      7.920680   -3.191910   -8.592590
  H      6.556890   -2.077530   -8.866760
  H      6.478760   -3.280940   -7.548810
  H      2.585170    1.193860   -4.860260
  H      2.304870   -0.872090   -7.099980
  H     -1.787090    1.685170   -4.925090
  H     -2.622860    0.117820   -6.967870
  H      0.674050   -1.697510   -8.363140
  H     -2.315340   -1.284060   -8.870790
  H     -0.142510   -3.003090  -10.223380
  H     -3.106150   -2.539700  -10.838810
  H      0.061040   -5.767890  -13.596450
  H     -2.414860   -5.719810  -14.690860
  H     -4.564350   -3.198470  -12.427900
  H     -4.662370   -5.022190  -14.882320
  H     -6.732660   -3.203480  -13.498700
  H     -6.891110   -5.016450  -15.962000
  H     -8.232190   -3.985060  -15.262290

 Total Charge           Charge          ....    0
 Multiplicity           Mult            ....    1
 Number of Electrons    NEL             ....  330
 Basis Dimension        Dim             ....  798

ORBITAL ENERGIES
----------------

  NO   OCC          E(Eh)            E(eV)
   0   2.0000     -88.949565     -2420.4407
   1   2.0000     -88.931465     -2419.9482
   2   2.0000     -19.280825      -524.6579
   3   2.0000     -19.278254      -524.5880
   4   2.0000     -19.277582      -524.5697
   5   2.0000     -19.277293      -524.5618
   6   2.0000     -10.319029      -280.7951
   7   2.0000     -10.317405      -280.7509
   8   2.0000     -10.317262      -280.7470
   9   2.0000     -10.315222      -280.6915
  10   2.0000     -10.314672      -280.6765
  11   2.0000     -10.314542      -280.6729
  12   2.0000     -10.313342      -280.6403
  13   2.0000     -10.310130      -280.5529
  14   2.0000     -10.310125      -280.5528
  15   2.0000     -10.296525      -280.1827
  16   2.0000     -10.289084      -279.9802
  17   2.0000     -10.274576      -279.5854
  18   2.0000     -10.274260      -279.5768
  19   2.0000     -10.271007      -279.4883
  20   2.0000     -10.269950      -279.4595
  21   2.0000     -10.269375      -279.4439
  22   2.0000     -10.269227      -279.4399
  23   2.0000     -10.268793      -279.4281
  24   2.0000     -10.268676      -279.4249
  25   2.0000     -10.268600      -279.4228
  26   2.0000     -10.267052      -279.3807
  27   2.0000     -10.266969      -279.3784
  28   2.0000     -10.266465      -279.3647
  29   2.0000     -10.266298      -279.3602
  30   2.0000     -10.265414      -279.3361
  31   2.0000     -10.265011      -279.3251
  32   2.0000     -10.264734      -279.3176
  33   2.0000     -10.264386      -279.3081
  34   2.0000     -10.263611      -279.2870
  35   2.0000     -10.263312      -279.2789
  36   2.0000     -10.263032      -279.2713
  37   2.0000     -10.262984      -279.2700
  38   2.0000     -10.261528      -279.2304
  39   2.0000     -10.260590      -279.2049
  40   2.0000     -10.260023      -279.1894
  41   2.0000     -10.259209      -279.1673
  42   2.0000     -10.259124      -279.1649
  43   2.0000     -10.258045      -279.1356
  44   2.0000     -10.253899      -279.0228
  45   2.0000      -8.044683      -218.9070
  46   2.0000      -8.027087      -218.4281
  47   2.0000      -6.014228      -163.6555
  48   2.0000      -6.010056      -163.5419
  49   2.0000      -6.006447      -163.4437
  50   2.0000      -5.997497      -163.2002
  51   2.0000      -5.993471      -163.0906
  52   2.0000      -5.986702      -162.9065
  53   2.0000      -1.198673       -32.6176
  54   2.0000      -1.196100       -32.5475
  55   2.0000      -1.196048       -32.5461
  56   2.0000      -1.195660       -32.5356
  57   2.0000      -0.980668       -26.6853
  58   2.0000      -0.917143       -24.9567
  59   2.0000      -0.916474       -24.9385
  60   2.0000      -0.912195       -24.8221
  61   2.0000      -0.911664       -24.8076
  62   2.0000      -0.906512       -24.6674
  63   2.0000      -0.893531       -24.3142
  64   2.0000      -0.890115       -24.2212
  65   2.0000      -0.887404       -24.1475
  66   2.0000      -0.875799       -23.8317
  67   2.0000      -0.873396       -23.7663
  68   2.0000      -0.852201       -23.1896
  69   2.0000      -0.849870       -23.1261
  70   2.0000      -0.839481       -22.8435
  71   2.0000      -0.834710       -22.7136
  72   2.0000      -0.826266       -22.4838
  73   2.0000      -0.812620       -22.1125
  74   2.0000      -0.797656       -21.7053
  75   2.0000      -0.793339       -21.5879
  76   2.0000      -0.784275       -21.3412
  77   2.0000      -0.776496       -21.1295
  78   2.0000      -0.739314       -20.1178
  79   2.0000      -0.724592       -19.7171
  80   2.0000      -0.720884       -19.6163
  81   2.0000      -0.717628       -19.5276
  82   2.0000      -0.711316       -19.3559
  83   2.0000      -0.693493       -18.8709
  84   2.0000      -0.681127       -18.5344
  85   2.0000      -0.671404       -18.2698
  86   2.0000      -0.667593       -18.1661
  87   2.0000      -0.660221       -17.9655
  88   2.0000      -0.654398       -17.8071
  89   2.0000      -0.638611       -17.3775
  90   2.0000      -0.630425       -17.1547
  91   2.0000      -0.629521       -17.1301
  92   2.0000      -0.626769       -17.0553
  93   2.0000      -0.622678       -16.9439
  94   2.0000      -0.620105       -16.8739
  95   2.0000      -0.614522       -16.7220
  96   2.0000      -0.611610       -16.6427
  97   2.0000      -0.605261       -16.4700
  98   2.0000      -0.596334       -16.2271
  99   2.0000      -0.593632       -16.1535
 100   2.0000      -0.583194       -15.8695
 101   2.0000      -0.581169       -15.8144
 102   2.0000      -0.564043       -15.3484
 103   2.0000      -0.544616       -14.8197
 104   2.0000      -0.543414       -14.7870
 105   2.0000      -0.541181       -14.7263
 106   2.0000      -0.540401       -14.7051
 107   2.0000      -0.540120       -14.6974
 108   2.0000      -0.538082       -14.6420
 109   2.0000      -0.537613       -14.6292
 110   2.0000      -0.534197       -14.5362
 111   2.0000      -0.532617       -14.4933
 112   2.0000      -0.528819       -14.3899
 113   2.0000      -0.522344       -14.2137
 114   2.0000      -0.518758       -14.1161
 115   2.0000      -0.516928       -14.0663
 116   2.0000      -0.512137       -13.9360
 117   2.0000      -0.510489       -13.8911
 118   2.0000      -0.504672       -13.7328
 119   2.0000      -0.492249       -13.3948
 120   2.0000      -0.488183       -13.2841
 121   2.0000      -0.487855       -13.2752
 122   2.0000      -0.480932       -13.0868
 123   2.0000      -0.478005       -13.0072
 124   2.0000      -0.475529       -12.9398
 125   2.0000      -0.471336       -12.8257
 126   2.0000      -0.468247       -12.7416
 127   2.0000      -0.464399       -12.6369
 128   2.0000      -0.463252       -12.6057
 129   2.0000      -0.462642       -12.5891
 130   2.0000      -0.459327       -12.4989
 131   2.0000      -0.458606       -12.4793
 132   2.0000      -0.457218       -12.4415
 133   2.0000      -0.448128       -12.1942
 134   2.0000      -0.436767       -11.8850
 135   2.0000      -0.436243       -11.8708
 136   2.0000      -0.433058       -11.7841
 137   2.0000      -0.430097       -11.7035
 138   2.0000      -0.424737       -11.5577
 139   2.0000      -0.423282       -11.5181
 140   2.0000      -0.421924       -11.4811
 141   2.0000      -0.419151       -11.4057
 142   2.0000      -0.418786       -11.3957
 143   2.0000      -0.418019       -11.3749
 144   2.0000      -0.413801       -11.2601
 145   2.0000      -0.413441       -11.2503
 146   2.0000      -0.405947       -11.0464
 147   2.0000      -0.402717       -10.9585
 148   2.0000      -0.398059       -10.8317
 149   2.0000      -0.389628       -10.6023
 150   2.0000      -0.377760       -10.2794
 151   2.0000      -0.374077       -10.1791
 152   2.0000      -0.367892       -10.0109
 153   2.0000      -0.357331        -9.7235
 154   2.0000      -0.340662        -9.2699
 155   2.0000      -0.324359        -8.8262
 156   2.0000      -0.320514        -8.7216
 157   2.0000      -0.319726        -8.7002
 158   2.0000      -0.295241        -8.0339
 159   2.0000      -0.293718        -7.9925
 160   2.0000      -0.279500        -7.6056
 161   2.0000      -0.270068        -7.3489
 162   2.0000      -0.243497        -6.6259
 163   2.0000      -0.228069        -6.2061
 164   2.0000      -0.209461        -5.6997
 165   0.0000      -0.051733        -1.4077
 166   0.0000      -0.031879        -0.8675
 167   0.0000      -0.012556        -0.3417
 168   0.0000       0.013262         0.3609
 169   0.0000       0.025667         0.6984

MULLIKEN ATOMIC CHARGES
-----------------------
   0 C :    0.063406
   1 O :   -0.179681
   2 C :    0.133281
   3 C :   -0.046357
   4 C :    0.049076
   5 C :    0.025265
   6 C :    0.020637
   7 C :    0.024854
   8 C :   -0.042360
   9 C :    0.116509
  10 O :   -0.198848
  11 C :    0.152432
  12 C :   -0.046229
  13 C :    0.053473
  14 C :   -0.001058
  15 C :    0.004215
  16 C :    0.015008
  17 C :   -0.024333
  18 C :    0.132700
  19 C :   -0.010802
  20 C :   -0.113275
  21 S :   -0.000159
  22 C :   -0.095459
  23 S :    0.067990
  24 C :   -0.097490
  25 C :    0.011111
  26 C :   -0.057093
  27 C :    0.120329
  28 O :   -0.201580
  29 C :    0.152634
  30 C :   -0.045377
  31 C :    0.065936
  32 C :   -0.011882
  33 C :    0.013122
  34 C :    0.026499
  35 C :   -0.043016
  36 C :    0.120410
  37 O :   -0.199481
  38 C :    0.150548
  39 C :   -0.045181
  40 C :    0.060257
  41 C :   -0.008871
  42 C :    0.005125
  43 C :    0.005875
  44 C :   -0.020781
  45 H :    0.002030
  46 H :    0.007107
  47 H :   -0.015549
  48 H :   -0.023488
  49 H :   -0.021564
  50 H :   -0.004821
  51 H :   -0.014830
  52 H :    0.005080
  53 H :   -0.014057
  54 H :   -0.017527
  55 H :   -0.020984
  56 H :   -0.017226
  57 H :   -0.015753
  58 H :   -0.020717
  59 H :    0.067352
  60 H :    0.071223
  61 H :    0.071654
  62 H :   -0.007608
  63 H :   -0.004554
  64 H :    0.006730
  65 H :   -0.015796
  66 H :   -0.025746
  67 H :   -0.024292
  68 H :   -0.006938
  69 H :   -0.016074
  70 H :    0.004572
  71 H :   -0.015963
  72 H :   -0.025951
  73 H :   -0.022701
  74 H :   -0.013195
  75 H :    0.010153
  76 H :    0.018051
Sum of atomic charges:   -0.0000000

LOEWDIN ATOMIC CHARGES
----------------------
   0 C :    0.031742
   1 O :    0.024690
   2 C :    0.028360
   3 C :   -0.070841
   4 C :   -0.079861
   5 C :   -0.017595
   6 C :   -0.026538
   7 C :   -0.014297
   8 C :   -0.048283
   9 C :    0.029186
  10 O :    0.011176
  11 C :    0.041937
  12 C :   -0.068467
  13 C :   -0.065501
  14 C :   -0.012675
  15 C :   -0.035682
  16 C :   -0.026777
  17 C :   -0.018135
  18 C :   -0.046102
  19 C :   -0.092877
  20 C :   -0.306907
  21 S :    0.294446
  22 C :   -0.161800
  23 S :    0.408212
  24 C :   -0.176560
  25 C :   -0.030225
  26 C :   -0.059311
  27 C :    0.032908
  28 O :    0.007987
  29 C :    0.042598
  30 C :   -0.067467
  31 C :   -0.067946
  32 C :   -0.019103
  33 C :   -0.029689
  34 C :   -0.014777
  35 C :   -0.049129
  36 C :    0.030135
  37 O :    0.010432
  38 C :    0.041144
  39 C :   -0.067473
  40 C :   -0.066891
  41 C :   -0.020038
  42 C :   -0.027933
  43 C :   -0.025141
  44 C :   -0.053344
  45 H :    0.018741
  46 H :    0.020968
  47 H :    0.028500
  48 H :    0.028038
  49 H :    0.023922
  50 H :    0.029629
  51 H :    0.032004
  52 H :    0.021823
  53 H :    0.028280
  54 H :    0.025003
  55 H :    0.025617
  56 H :    0.026341
  57 H :    0.024925
  58 H :    0.026436
  59 H :    0.035295
  60 H :    0.024388
  61 H :    0.024718
  62 H :    0.033972
  63 H :    0.024247
  64 H :    0.022362
  65 H :    0.028081
  66 H :    0.026381
  67 H :    0.023690
  68 H :    0.029003
  69 H :    0.031306
  70 H :    0.021543
  71 H :    0.027999
  72 H :    0.025681
  73 H :    0.024089
  74 H :    0.026781
  75 H :    0.019913
  76 H :    0.022737

  Mayer bond orders larger than 0.100000
B(  0-C ,  1-O ) :   1.1717 B(  0-C ,  4-C ) :   1.5075 B(  0-C , 45-H ) :   1.0037
B(  1-O ,  2-C ) :   1.1464 B(  2-C ,  3-C ) :   1.5743 B(  2-C , 46-H ) :   1.0017
B(  3-C ,  4-C ) :   1.2084 B(  3-C , 47-H ) :   1.0093 B(  4-C ,  5-C ) :   1.0691
B(  5-C ,  6-C ) :   1.6995 B(  5-C , 48-H ) :   0.9793 B(  6-C ,  7-C ) :   1.1162
B(  6-C , 49-H ) :   0.9809 B(  7-C ,  8-C ) :   1.6515 B(  7-C , 50-H ) :   0.9931
B(  8-C ,  9-C ) :   1.1469 B(  8-C , 51-H ) :   0.9616 B(  9-C , 10-O ) :   1.1517
B(  9-C , 13-C ) :   1.3969 B( 10-O , 11-C ) :   1.1321 B( 11-C , 12-C ) :   1.5725
B( 11-C , 52-H ) :   1.0026 B( 12-C , 13-C ) :   1.2029 B( 12-C , 53-H ) :   0.9983
B( 13-C , 14-C ) :   1.1157 B( 14-C , 15-C ) :   1.7293 B( 14-C , 54-H ) :   0.9600
B( 15-C , 16-C ) :   1.1079 B( 15-C , 55-H ) :   0.9699 B( 16-C , 17-C ) :   1.7261
B( 16-C , 56-H ) :   0.9679 B( 17-C , 18-C ) :   1.1073 B( 17-C , 57-H ) :   0.9640
B( 18-C , 19-C ) :   1.2330 B( 18-C , 24-C ) :   1.4268 B( 19-C , 20-C ) :   1.5781
B( 19-C , 58-H ) :   0.9900 B( 20-C , 21-S ) :   1.0241 B( 20-C , 23-S ) :   1.1006
B( 21-S , 22-C ) :   1.0136 B( 22-C , 59-H ) :   0.9728 B( 22-C , 60-H ) :   0.9652
B( 22-C , 61-H ) :   0.9655 B( 23-S , 24-C ) :   1.0693 B( 24-C , 25-C ) :   1.1757
B( 25-C , 26-C ) :   1.6307 B( 25-C , 62-H ) :   0.9781 B( 26-C , 27-C ) :   1.1931
B( 26-C , 63-H ) :   0.9482 B( 27-C , 28-O ) :   1.1499 B( 27-C , 31-C ) :   1.3849
B( 28-O , 29-C ) :   1.1249 B( 29-C , 30-C ) :   1.5771 B( 29-C , 64-H ) :   1.0026
B( 30-C , 31-C ) :   1.1952 B( 30-C , 65-H ) :   0.9980 B( 31-C , 32-C ) :   1.1018
B( 32-C , 33-C ) :   1.6712 B( 32-C , 66-H ) :   0.9700 B( 33-C , 34-C ) :   1.1160
B( 33-C , 67-H ) :   0.9870 B( 34-C , 35-C ) :   1.6421 B( 34-C , 68-H ) :   0.9946
B( 35-C , 36-C ) :   1.1486 B( 35-C , 69-H ) :   0.9609 B( 36-C , 37-O ) :   1.1500
B( 36-C , 40-C ) :   1.4037 B( 37-O , 38-C ) :   1.1328 B( 38-C , 39-C ) :   1.5733
B( 38-C , 70-H ) :   1.0022 B( 39-C , 40-C ) :   1.2032 B( 39-C , 71-H ) :   0.9988
B( 40-C , 41-C ) :   1.0925 B( 41-C , 42-C ) :   1.7321 B( 41-C , 72-H ) :   0.9692
B( 42-C , 43-C ) :   1.1029 B( 42-C , 73-H ) :   0.9771 B( 43-C , 44-C ) :   1.9047
B( 43-C , 74-H ) :   0.9760 B( 44-C , 75-H ) :   0.9573 B( 44-C , 76-H ) :   0.9515

-----------------------------------------------------------------------------
         ABSORPTION SPECTRUM VIA TRANSITION ELECTRIC DIPOLE MOMENTS
-----------------------------------------------------------------------------
State   Energy  Wavelength   fosc         T2         TX        TY        TZ
        (cm-1)    (nm)                  (au**2)     (au)      (au)      (au)
-----------------------------------------------------------------------------
   0   19814.7    504.7   1.790561595  29.74934  -3.03094  -1.93666  -4.10025
   1   24989.5    400.2   0.687263129   9.05401  -2.70559  -0.41389   1.24999
   2   25608.9    390.5   0.239601017   3.08015   1.62284   0.62563   0.23476
   3   28048.6    356.5   0.162104313   1.90265  -0.01641   0.58693   1.24816
   4   29643.5    337.3   1.010077562  11.21762   1.60133  -0.20377  -2.93459
   5   31444.3    318.0   0.181423874   1.89945  -0.22212  -1.29515   0.41557
   6   32220.4    310.4   0.018911492   0.19323   0.19919  -0.26336   0.29016
   7   34307.4    291.5   0.681213285   6.53688   1.27736   1.96970   1.01268
   8   34438.4    290.4   0.022055089   0.21083   0.12718  -0.43878  -0.04614
   9   35774.1    279.5   0.246903312   2.27213  -0.20773   1.39397   0.53462
  10   36116.2    276.9   0.138396697   1.26154  -0.88937   0.41475   0.54639
  11   36992.6    270.3   0.006026799   0.05363   0.19259  -0.12274  -0.03846
  12   38536.8    259.5   0.279946124   2.39152   0.72822  -1.35503   0.15841
  13   38990.4    256.5   0.023414217   0.19770  -0.40336  -0.18693   0.00708
  14   39951.7    250.3   0.308248352   2.54004  -1.08004   0.85452   0.80209
  15   40065.5    249.6   0.073398047   0.60310  -0.50490  -0.55789  -0.19217

FINAL SINGLE POINT ENERGY     -2599.971846836591

DIPOLE MOMENT
-------------
                                X             Y             Z
Electronic contribution:     20.84006       6.05122      15.70319
Nuclear contribution   :    -20.76962      -6.03880     -15.83181
                        -----------------------------------------
Total Dipole Moment    :      0.07044       0.01243      -0.12862
                        -----------------------------------------
Magnitude (a.u.)       :      0.14717
Magnitude (Debye)      :      0.37407

Rotational constants in cm-1:     0.001935     0.000544     0.000460
Rotational constants in MHz :    58.010563    16.312495    13.801782

                             ****ORCA TERMINATED NORMALLY****
TOTAL RUN TIME: 0 days 0 hours 3 minutes 40 seconds 427 msec
