                         Program Version 4.2.0 -  RELEASE  -
|  1> # ORCA input file
|  2> # SCF done       -157.260803864425          0.000871152666
|  3> ! CAM-B3LYP def2-SVP def2/J RIJCOSX Grid4 TightSCF
|  4> %maxcore 5000
|  5> %tddft
|  6>     Mode sTDDFT
|  7>     Ethresh 5.0
|  8>     maxcore 5000
|  9> end
| 10>
| 11> %pal
| 12>   nprocs 6
| 13>   end
| 14> * xyz 0 1
| 15>    C       18.28541        -4.84715         0.14984
| 16>    C       17.09797        -5.38519        -0.24721
| 17>    C       16.15116        -4.38081        -0.63849
| 18>    C       16.62501        -3.11671        -0.52275
| 19>    S       18.25006        -3.12873         0.05863
| 20>    C       14.89849        -5.01125        -1.07897
| 21>    O       13.90974        -4.44742        -1.49096
| 22>    C       15.16387        -6.46894        -0.97391
| 23>    C       16.44872        -6.67974        -0.34406
| 24>    C       16.87174        -7.87289         0.19348
| 25>    N       18.19497        -8.11927         0.65873
| 26>    O       18.33777        -8.95936         1.52172
| 27>    O       19.09806        -7.46573         0.16911
| 28>    N       15.96307        -8.98026         0.41762
| 29>    O       14.88441        -8.72019         0.90612
| 30>    O       16.34554       -10.08206         0.10139
| 31>    C       14.45335        -7.48232        -1.58487
| 32>    C       13.16445        -7.48287        -2.11841
| 33>    S       12.69077        -8.90906        -3.06117
| 34>    C       11.13547        -8.26626        -3.30465
| 35>    C       10.97625        -7.01561        -2.66806
| 36>    C       12.10044        -6.57771        -2.00583
| 37>    C        9.59997        -6.55703        -2.93280
| 38>    O        9.06161        -5.54891        -2.54820
| 39>    C        9.00465        -7.64891        -3.80254
| 40>    C        9.95677        -8.63876        -3.98085
| 41>    C        7.71611        -7.63891        -4.35560
| 42>    C        6.79960        -6.63783        -4.15662
| 43>    C        5.53820        -6.62668        -4.76234
| 44>    S        4.41229        -5.31995        -4.47022
| 45>    C        4.96610        -7.53608        -5.66005
| 46>    N        5.42130        -8.69626        -6.20009
| 47>    C        4.55942        -9.20495        -6.99244
| 48>    S        3.04912        -8.33043        -7.19738
| 49>    C        3.66917        -7.15792        -6.08652
| 50>    C        3.19289        -5.97172        -5.54515
| 51>    C        1.95637        -5.35298        -5.79917
| 52>    C        1.54226        -4.19787        -5.20617
| 53>    C        0.31961        -3.54757        -5.46543
| 54>    S       -0.08761        -2.09630        -4.55857
| 55>    C       -1.56394        -1.94794        -5.40416
| 56>    C       -1.73002        -2.97081        -6.34632
| 57>    C       -0.68058        -3.87096        -6.38344
| 58>    C       -3.02324        -2.73433        -7.02298
| 59>    O       -3.54621        -3.36822        -7.90371
| 60>    C       -3.57030        -1.48798        -6.36180
| 61>    C       -2.67287        -1.06035        -5.41260
| 62>    C       -4.81902        -0.96240        -6.76190
| 63>    C       -5.43536         0.11908        -6.22006
| 64>    C       -6.68959         0.61541        -6.64684
| 65>    S       -7.60194        -0.07806        -7.96940
| 66>    C       -8.87331         1.06430        -7.78561
| 67>    C       -8.62189         1.93357        -6.76720
| 68>    C       -7.38641         1.68559        -6.11939
| 69>    S       -6.97542         2.73992        -4.80144
| 70>    C       -8.43220         3.72191        -4.88824
| 71>    S       -8.70284         4.96122        -3.87262
| 72>    S       -9.56434         3.26767        -6.15293
| 73>    H       19.18734        -5.34046         0.45135
| 74>    H       16.13075        -2.18971        -0.73300
| 75>    H       14.97908        -8.42243        -1.72119
| 76>    H       12.18145        -5.65197        -1.46741
| 77>    H        9.82019        -9.54223        -4.54648
| 78>    H        7.44106        -8.47208        -4.99046
| 79>    H        7.04765        -5.80507        -3.51437
| 80>    H        4.71516       -10.12207        -7.52560
| 81>    H        1.32375        -5.85812        -6.51615
| 82>    H        2.19362        -3.73355        -4.47651
| 83>    H       -0.62801        -4.71828        -7.04143
| 84>    H       -2.77200        -0.20076        -4.77568
| 85>    H       -5.30563        -1.49589        -7.57015
| 86>    H       -4.97681         0.66167        -5.40396
| 87>    H       -9.72650         1.03149        -8.43125
| 88> *
| 89>
| 90>                          ****END OF INPUT****

CARTESIAN COORDINATES (ANGSTROEM)
---------------------------------
  C     18.285410   -4.847150    0.149840
  C     17.097970   -5.385190   -0.247210
  C     16.151160   -4.380810   -0.638490
  C     16.625010   -3.116710   -0.522750
  S     18.250060   -3.128730    0.058630
  C     14.898490   -5.011250   -1.078970
  O     13.909740   -4.447420   -1.490960
  C     15.163870   -6.468940   -0.973910
  C     16.448720   -6.679740   -0.344060
  C     16.871740   -7.872890    0.193480
  N     18.194970   -8.119270    0.658730
  O     18.337770   -8.959360    1.521720
  O     19.098060   -7.465730    0.169110
  N     15.963070   -8.980260    0.417620
  O     14.884410   -8.720190    0.906120
  O     16.345540  -10.082060    0.101390
  C     14.453350   -7.482320   -1.584870
  C     13.164450   -7.482870   -2.118410
  S     12.690770   -8.909060   -3.061170
  C     11.135470   -8.266260   -3.304650
  C     10.976250   -7.015610   -2.668060
  C     12.100440   -6.577710   -2.005830
  C      9.599970   -6.557030   -2.932800
  O      9.061610   -5.548910   -2.548200
  C      9.004650   -7.648910   -3.802540
  C      9.956770   -8.638760   -3.980850
  C      7.716110   -7.638910   -4.355600
  C      6.799600   -6.637830   -4.156620
  C      5.538200   -6.626680   -4.762340
  S      4.412290   -5.319950   -4.470220
  C      4.966100   -7.536080   -5.660050
  N      5.421300   -8.696260   -6.200090
  C      4.559420   -9.204950   -6.992440
  S      3.049120   -8.330430   -7.197380
  C      3.669170   -7.157920   -6.086520
  C      3.192890   -5.971720   -5.545150
  C      1.956370   -5.352980   -5.799170
  C      1.542260   -4.197870   -5.206170
  C      0.319610   -3.547570   -5.465430
  S     -0.087610   -2.096300   -4.558570
  C     -1.563940   -1.947940   -5.404160
  C     -1.730020   -2.970810   -6.346320
  C     -0.680580   -3.870960   -6.383440
  C     -3.023240   -2.734330   -7.022980
  O     -3.546210   -3.368220   -7.903710
  C     -3.570300   -1.487980   -6.361800
  C     -2.672870   -1.060350   -5.412600
  C     -4.819020   -0.962400   -6.761900
  C     -5.435360    0.119080   -6.220060
  C     -6.689590    0.615410   -6.646840
  S     -7.601940   -0.078060   -7.969400
  C     -8.873310    1.064300   -7.785610
  C     -8.621890    1.933570   -6.767200
  C     -7.386410    1.685590   -6.119390
  S     -6.975420    2.739920   -4.801440
  C     -8.432200    3.721910   -4.888240
  S     -8.702840    4.961220   -3.872620
  S     -9.564340    3.267670   -6.152930
  H     19.187340   -5.340460    0.451350
  H     16.130750   -2.189710   -0.733000
  H     14.979080   -8.422430   -1.721190
  H     12.181450   -5.651970   -1.467410
  H      9.820190   -9.542230   -4.546480
  H      7.441060   -8.472080   -4.990460
  H      7.047650   -5.805070   -3.514370
  H      4.715160  -10.122070   -7.525600
  H      1.323750   -5.858120   -6.516150
  H      2.193620   -3.733550   -4.476510
  H     -0.628010   -4.718280   -7.041430
  H     -2.772000   -0.200760   -4.775680
  H     -5.305630   -1.495890   -7.570150
  H     -4.976810    0.661670   -5.403960
  H     -9.726500    1.031490   -8.431250

 Total Charge           Charge          ....    0
 Multiplicity           Mult            ....    1
 Number of Electrons    NEL             ....  470
 Basis Dimension        Dim             ....  923

ORBITAL ENERGIES
----------------

  NO   OCC          E(Eh)            E(eV)
   0   2.0000     -88.986260     -2421.4392
   1   2.0000     -88.984751     -2421.3982
   2   2.0000     -88.978301     -2421.2227
   3   2.0000     -88.977394     -2421.1980
   4   2.0000     -88.976262     -2421.1672
   5   2.0000     -88.975289     -2421.1407
   6   2.0000     -88.973779     -2421.0996
   7   2.0000     -88.972275     -2421.0587
   8   2.0000     -88.897810     -2419.0324
   9   2.0000     -19.243846      -523.6517
  10   2.0000     -19.241278      -523.5818
  11   2.0000     -19.237174      -523.4701
  12   2.0000     -19.235804      -523.4328
  13   2.0000     -19.235737      -523.4310
  14   2.0000     -19.235111      -523.4140
  15   2.0000     -19.207455      -522.6614
  16   2.0000     -14.650463      -398.6594
  17   2.0000     -14.647742      -398.5853
  18   2.0000     -14.433483      -392.7550
  19   2.0000     -10.379825      -282.4494
  20   2.0000     -10.379629      -282.4441
  21   2.0000     -10.378178      -282.4046
  22   2.0000     -10.363617      -282.0084
  23   2.0000     -10.356654      -281.8189
  24   2.0000     -10.352906      -281.7169
  25   2.0000     -10.339509      -281.3524
  26   2.0000     -10.333607      -281.1917
  27   2.0000     -10.330213      -281.0994
  28   2.0000     -10.324682      -280.9489
  29   2.0000     -10.324504      -280.9440
  30   2.0000     -10.324207      -280.9360
  31   2.0000     -10.323444      -280.9152
  32   2.0000     -10.322826      -280.8984
  33   2.0000     -10.322520      -280.8900
  34   2.0000     -10.322253      -280.8828
  35   2.0000     -10.321053      -280.8501
  36   2.0000     -10.319573      -280.8099
  37   2.0000     -10.317814      -280.7620
  38   2.0000     -10.317314      -280.7484
  39   2.0000     -10.311796      -280.5982
  40   2.0000     -10.311733      -280.5965
  41   2.0000     -10.310166      -280.5539
  42   2.0000     -10.305524      -280.4276
  43   2.0000     -10.305210      -280.4190
  44   2.0000     -10.303718      -280.3784
  45   2.0000     -10.302665      -280.3498
  46   2.0000     -10.302139      -280.3355
  47   2.0000     -10.301381      -280.3148
  48   2.0000     -10.300786      -280.2986
  49   2.0000     -10.298390      -280.2334
  50   2.0000     -10.297545      -280.2105
  51   2.0000     -10.295287      -280.1490
  52   2.0000     -10.292453      -280.0719
  53   2.0000     -10.288912      -279.9755
  54   2.0000     -10.286781      -279.9175
  55   2.0000     -10.285517      -279.8831
  56   2.0000     -10.284045      -279.8431
  57   2.0000     -10.281741      -279.7804
  58   2.0000      -8.081251      -219.9020
  59   2.0000      -8.079961      -219.8669
  60   2.0000      -8.074511      -219.7186
  61   2.0000      -8.072273      -219.6577
  62   2.0000      -8.072160      -219.6546
  63   2.0000      -8.070624      -219.6129
  64   2.0000      -8.069921      -219.5937
  65   2.0000      -8.068316      -219.5500
  66   2.0000      -7.995084      -217.5573
  67   2.0000      -6.050293      -164.6368
  68   2.0000      -6.048970      -164.6009
  69   2.0000      -6.046306      -164.5284
  70   2.0000      -6.045015      -164.4932
  71   2.0000      -6.043916      -164.4633
  72   2.0000      -6.043826      -164.4609
  73   2.0000      -6.042475      -164.4241
  74   2.0000      -6.042066      -164.4130
  75   2.0000      -6.041587      -164.3999
  76   2.0000      -6.040038      -164.3578
  77   2.0000      -6.039929      -164.3548
  78   2.0000      -6.039866      -164.3531
  79   2.0000      -6.037763      -164.2959
  80   2.0000      -6.037588      -164.2911
  81   2.0000      -6.037515      -164.2891
  82   2.0000      -6.036032      -164.2488
  83   2.0000      -6.035795      -164.2423
  84   2.0000      -6.035611      -164.2373
  85   2.0000      -6.034288      -164.2013
  86   2.0000      -6.032872      -164.1628
  87   2.0000      -6.032856      -164.1624
  88   2.0000      -6.032591      -164.1551
  89   2.0000      -6.031041      -164.1130
  90   2.0000      -6.030437      -164.0965
  91   2.0000      -5.964580      -162.3045
  92   2.0000      -5.961985      -162.2339
  93   2.0000      -5.955010      -162.0441
  94   2.0000      -1.330585       -36.2071
  95   2.0000      -1.312485       -35.7145
  96   2.0000      -1.147963       -31.2377
  97   2.0000      -1.146946       -31.2100
  98   2.0000      -1.144906       -31.1545
  99   2.0000      -1.135114       -30.8880
 100   2.0000      -1.124748       -30.6060
 101   2.0000      -1.087375       -29.5890
 102   2.0000      -1.026197       -27.9242
 103   2.0000      -1.017816       -27.6962
 104   2.0000      -1.017408       -27.6851
 105   2.0000      -1.010116       -27.4867
 106   2.0000      -0.994603       -27.0645
 107   2.0000      -0.971436       -26.4341
 108   2.0000      -0.970736       -26.4151
 109   2.0000      -0.956207       -26.0197
 110   2.0000      -0.953814       -25.9546
 111   2.0000      -0.931084       -25.3361
 112   2.0000      -0.924375       -25.1535
 113   2.0000      -0.915581       -24.9142
 114   2.0000      -0.902288       -24.5525
 115   2.0000      -0.892800       -24.2943
 116   2.0000      -0.882507       -24.0142
 117   2.0000      -0.871870       -23.7248
 118   2.0000      -0.868177       -23.6243
 119   2.0000      -0.860152       -23.4059
 120   2.0000      -0.858920       -23.3724
 121   2.0000      -0.841599       -22.9011
 122   2.0000      -0.837772       -22.7969
 123   2.0000      -0.837196       -22.7813
 124   2.0000      -0.821400       -22.3514
 125   2.0000      -0.809149       -22.0181
 126   2.0000      -0.795685       -21.6517
 127   2.0000      -0.790687       -21.5157
 128   2.0000      -0.784957       -21.3598
 129   2.0000      -0.768580       -20.9141
 130   2.0000      -0.764936       -20.8150
 131   2.0000      -0.762964       -20.7613
 132   2.0000      -0.759789       -20.6749
 133   2.0000      -0.736539       -20.0422
 134   2.0000      -0.721819       -19.6417
 135   2.0000      -0.709717       -19.3124
 136   2.0000      -0.698330       -19.0025
 137   2.0000      -0.677470       -18.4349
 138   2.0000      -0.672008       -18.2863
 139   2.0000      -0.666324       -18.1316
 140   2.0000      -0.662559       -18.0292
 141   2.0000      -0.658960       -17.9312
 142   2.0000      -0.654437       -17.8081
 143   2.0000      -0.650008       -17.6876
 144   2.0000      -0.643086       -17.4993
 145   2.0000      -0.639352       -17.3976
 146   2.0000      -0.635565       -17.2946
 147   2.0000      -0.632953       -17.2235
 148   2.0000      -0.631104       -17.1732
 149   2.0000      -0.627098       -17.0642
 150   2.0000      -0.621321       -16.9070
 151   2.0000      -0.617509       -16.8033
 152   2.0000      -0.612706       -16.6726
 153   2.0000      -0.609872       -16.5955
 154   2.0000      -0.605581       -16.4787
 155   2.0000      -0.594317       -16.1722
 156   2.0000      -0.589632       -16.0447
 157   2.0000      -0.581275       -15.8173
 158   2.0000      -0.580582       -15.7985
 159   2.0000      -0.576470       -15.6865
 160   2.0000      -0.573436       -15.6040
 161   2.0000      -0.573000       -15.5921
 162   2.0000      -0.565858       -15.3978
 163   2.0000      -0.560731       -15.2583
 164   2.0000      -0.553955       -15.0739
 165   2.0000      -0.550835       -14.9890
 166   2.0000      -0.542649       -14.7662
 167   2.0000      -0.540896       -14.7185
 168   2.0000      -0.538880       -14.6637
 169   2.0000      -0.535950       -14.5840
 170   2.0000      -0.535418       -14.5695
 171   2.0000      -0.532900       -14.5010
 172   2.0000      -0.528972       -14.3941
 173   2.0000      -0.523950       -14.2574
 174   2.0000      -0.523128       -14.2350
 175   2.0000      -0.519625       -14.1397
 176   2.0000      -0.518221       -14.1015
 177   2.0000      -0.509978       -13.8772
 178   2.0000      -0.504095       -13.7171
 179   2.0000      -0.500610       -13.6223
 180   2.0000      -0.495619       -13.4865
 181   2.0000      -0.492504       -13.4017
 182   2.0000      -0.488402       -13.2901
 183   2.0000      -0.486817       -13.2470
 184   2.0000      -0.485120       -13.2008
 185   2.0000      -0.484212       -13.1761
 186   2.0000      -0.482274       -13.1233
 187   2.0000      -0.479070       -13.0362
 188   2.0000      -0.476483       -12.9658
 189   2.0000      -0.473272       -12.8784
 190   2.0000      -0.467377       -12.7180
 191   2.0000      -0.465460       -12.6658
 192   2.0000      -0.464875       -12.6499
 193   2.0000      -0.461092       -12.5470
 194   2.0000      -0.460337       -12.5264
 195   2.0000      -0.459658       -12.5079
 196   2.0000      -0.459180       -12.4949
 197   2.0000      -0.448160       -12.1951
 198   2.0000      -0.443637       -12.0720
 199   2.0000      -0.442369       -12.0375
 200   2.0000      -0.441040       -12.0013
 201   2.0000      -0.436638       -11.8815
 202   2.0000      -0.432843       -11.7783
 203   2.0000      -0.430491       -11.7143
 204   2.0000      -0.428329       -11.6554
 205   2.0000      -0.426989       -11.6190
 206   2.0000      -0.422110       -11.4862
 207   2.0000      -0.415974       -11.3192
 208   2.0000      -0.405687       -11.0393
 209   2.0000      -0.400470       -10.8974
 210   2.0000      -0.388123       -10.5614
 211   2.0000      -0.385556       -10.4915
 212   2.0000      -0.380577       -10.3560
 213   2.0000      -0.378614       -10.3026
 214   2.0000      -0.370364       -10.0781
 215   2.0000      -0.370127       -10.0717
 216   2.0000      -0.366650        -9.9771
 217   2.0000      -0.366289        -9.9672
 218   2.0000      -0.359490        -9.7822
 219   2.0000      -0.355801        -9.6818
 220   2.0000      -0.349125        -9.5002
 221   2.0000      -0.348993        -9.4966
 222   2.0000      -0.348342        -9.4789
 223   2.0000      -0.342154        -9.3105
 224   2.0000      -0.337967        -9.1965
 225   2.0000      -0.329449        -8.9648
 226   2.0000      -0.328817        -8.9476
 227   2.0000      -0.327032        -8.8990
 228   2.0000      -0.313930        -8.5425
 229   2.0000      -0.307590        -8.3700
 230   2.0000      -0.295216        -8.0332
 231   2.0000      -0.284339        -7.7373
 232   2.0000      -0.282461        -7.6862
 233   2.0000      -0.257446        -7.0054
 234   2.0000      -0.227993        -6.2040
 235   0.0000      -0.114576        -3.1178
 236   0.0000      -0.094330        -2.5668
 237   0.0000      -0.076882        -2.0921
 238   0.0000      -0.051600        -1.4041
 239   0.0000      -0.043390        -1.1807

MULLIKEN ATOMIC CHARGES
-----------------------
   0 C :   -0.133421
   1 C :    0.067456
   2 C :    0.010753
   3 C :   -0.133486
   4 S :    0.142884
   5 C :    0.172899
   6 O :   -0.160370
   7 C :   -0.117027
   8 C :    0.197561
   9 C :    0.039723
  10 N :    0.260367
  11 O :   -0.231873
  12 O :   -0.258619
  13 N :    0.200426
  14 O :   -0.217406
  15 O :   -0.212957
  16 C :    0.048404
  17 C :   -0.143264
  18 S :    0.186821
  19 C :    0.005411
  20 C :   -0.035403
  21 C :    0.060863
  22 C :    0.180390
  23 O :   -0.114107
  24 C :    0.022249
  25 C :   -0.057819
  26 C :   -0.054237
  27 C :    0.035896
  28 C :   -0.138470
  29 S :    0.152559
  30 C :    0.093307
  31 N :   -0.046968
  32 C :    0.024212
  33 S :    0.101459
  34 C :   -0.020366
  35 C :   -0.142803
  36 C :   -0.007784
  37 C :    0.044774
  38 C :   -0.099505
  39 S :    0.178501
  40 C :   -0.053957
  41 C :   -0.003591
  42 C :   -0.007589
  43 C :    0.160789
  44 O :   -0.109561
  45 C :   -0.039077
  46 C :   -0.027665
  47 C :    0.001803
  48 C :    0.009416
  49 C :   -0.131452
  50 S :    0.144030
  51 C :   -0.132997
  52 C :    0.011336
  53 C :   -0.013099
  54 S :    0.185948
  55 C :   -0.170387
  56 S :   -0.106212
  57 S :    0.194022
  58 H :    0.053703
  59 H :    0.035794
  60 H :    0.013113
  61 H :    0.028760
  62 H :   -0.003099
  63 H :   -0.004783
  64 H :    0.007371
  65 H :    0.049073
  66 H :   -0.008073
  67 H :   -0.005020
  68 H :   -0.004473
  69 H :   -0.004302
  70 H :    0.005210
  71 H :   -0.009776
  72 H :    0.033713
Sum of atomic charges:    0.0000000

LOEWDIN ATOMIC CHARGES
----------------------
   0 C :   -0.147796
   1 C :   -0.063926
   2 C :   -0.087655
   3 C :   -0.145001
   4 S :    0.475350
   5 C :    0.082819
   6 O :   -0.147728
   7 C :   -0.112745
   8 C :    0.060691
   9 C :   -0.085892
  10 N :    0.279590
  11 O :   -0.197734
  12 O :   -0.212668
  13 N :    0.269181
  14 O :   -0.193881
  15 O :   -0.184974
  16 C :    0.045046
  17 C :   -0.183436
  18 S :    0.481880
  19 C :   -0.132402
  20 C :   -0.115567
  21 C :    0.044456
  22 C :    0.103276
  23 O :   -0.098933
  24 C :   -0.023429
  25 C :   -0.030279
  26 C :   -0.025099
  27 C :   -0.005566
  28 C :   -0.176275
  29 S :    0.457719
  30 C :   -0.055095
  31 N :   -0.083019
  32 C :   -0.086624
  33 S :    0.385040
  34 C :   -0.207824
  35 C :   -0.176262
  36 C :   -0.046868
  37 C :   -0.037458
  38 C :   -0.172611
  39 S :    0.471871
  40 C :   -0.172051
  41 C :   -0.103251
  42 C :   -0.013780
  43 C :    0.100011
  44 O :   -0.100249
  45 C :   -0.059404
  46 C :    0.000133
  47 C :   -0.025033
  48 C :   -0.025560
  49 C :   -0.189884
  50 S :    0.459081
  51 C :   -0.197127
  52 C :   -0.219892
  53 C :   -0.216602
  54 S :    0.400850
  55 C :   -0.439907
  56 S :   -0.007983
  57 S :    0.401534
  58 H :    0.029393
  59 H :    0.034038
  60 H :    0.034532
  61 H :    0.046267
  62 H :    0.034239
  63 H :    0.033777
  64 H :    0.035105
  65 H :    0.023565
  66 H :    0.032774
  67 H :    0.025733
  68 H :    0.037679
  69 H :    0.031615
  70 H :    0.029858
  71 H :    0.029812
  72 H :    0.030553

  Mayer bond orders larger than 0.100000
B(  0-C ,  1-C ) :   1.5530 B(  0-C ,  4-S ) :   1.1786 B(  0-C , 58-H ) :   0.9486
B(  1-C ,  2-C ) :   1.2219 B(  1-C ,  8-C ) :   1.0123 B(  2-C ,  3-C ) :   1.5586
B(  2-C ,  5-C ) :   0.9615 B(  3-C ,  4-S ) :   1.1746 B(  3-C , 59-H ) :   0.9714
B(  5-C ,  6-O ) :   2.1739 B(  5-C ,  7-C ) :   0.9662 B(  7-C ,  8-C ) :   1.1315
B(  7-C , 16-C ) :   1.5015 B(  8-C ,  9-C ) :   1.5478 B(  9-C , 10-N ) :   0.9569
B(  9-C , 13-N ) :   0.8900 B( 10-N , 11-O ) :   1.5278 B( 10-N , 12-O ) :   1.4862
B( 11-O , 12-O ) :   0.2568 B( 13-N , 14-O ) :   1.5290 B( 13-N , 15-O ) :   1.5198
B( 14-O , 15-O ) :   0.2781 B( 16-C , 17-C ) :   1.3011 B( 16-C , 60-H ) :   0.9340
B( 17-C , 18-S ) :   1.0562 B( 17-C , 21-C ) :   1.3399 B( 18-S , 19-C ) :   1.1887
B( 19-C , 20-C ) :   1.3489 B( 19-C , 25-C ) :   1.0996 B( 20-C , 21-C ) :   1.3815
B( 20-C , 22-C ) :   0.9358 B( 21-C , 61-H ) :   0.9822 B( 22-C , 23-O ) :   2.2273
B( 22-C , 24-C ) :   0.9042 B( 24-C , 25-C ) :   1.5133 B( 24-C , 26-C ) :   1.2039
B( 25-C , 62-H ) :   1.0274 B( 26-C , 27-C ) :   1.5489 B( 26-C , 63-H ) :   0.9712
B( 27-C , 28-C ) :   1.1855 B( 27-C , 64-H ) :   0.9528 B( 28-C , 29-S ) :   1.1135
B( 28-C , 30-C ) :   1.3633 B( 28-C , 35-C ) :   0.1044 B( 29-S , 35-C ) :   1.1172
B( 30-C , 31-N ) :   1.3010 B( 30-C , 34-C ) :   1.2749 B( 31-N , 32-C ) :   1.7655
B( 31-N , 33-S ) :   0.1071 B( 32-C , 33-S ) :   1.1002 B( 32-C , 65-H ) :   0.9638
B( 33-S , 34-C ) :   1.0438 B( 34-C , 35-C ) :   1.4584 B( 35-C , 36-C ) :   1.2077
B( 36-C , 37-C ) :   1.6348 B( 36-C , 66-H ) :   0.9713 B( 37-C , 38-C ) :   1.1592
B( 37-C , 67-H ) :   0.9606 B( 38-C , 39-S ) :   1.1078 B( 38-C , 42-C ) :   1.4196
B( 39-S , 40-C ) :   1.1405 B( 40-C , 41-C ) :   1.4311 B( 40-C , 46-C ) :   1.0763
B( 41-C , 42-C ) :   1.3410 B( 41-C , 43-C ) :   0.9155 B( 42-C , 68-H ) :   0.9996
B( 43-C , 44-O ) :   2.2768 B( 43-C , 45-C ) :   0.9147 B( 45-C , 46-C ) :   1.6070
B( 45-C , 47-C ) :   1.1555 B( 46-C , 69-H ) :   1.0137 B( 47-C , 48-C ) :   1.6182
B( 47-C , 70-H ) :   0.9699 B( 48-C , 49-C ) :   1.1748 B( 48-C , 71-H ) :   0.9708
B( 49-C , 50-S ) :   1.1232 B( 49-C , 53-C ) :   1.5375 B( 50-S , 51-C ) :   1.1614
B( 51-C , 52-C ) :   1.5891 B( 51-C , 72-H ) :   0.9732 B( 52-C , 53-C ) :   1.2460
B( 52-C , 57-S ) :   0.9807 B( 53-C , 54-S ) :   0.9996 B( 54-S , 55-C ) :   1.0596
B( 54-S , 56-S ) :   0.1292 B( 55-C , 56-S ) :   1.7095 B( 55-C , 57-S ) :   1.0728
B( 56-S , 57-S ) :   0.1353

-----------------------------------------------------------------------------
         ABSORPTION SPECTRUM VIA TRANSITION ELECTRIC DIPOLE MOMENTS
-----------------------------------------------------------------------------
State   Energy  Wavelength   fosc         T2         TX        TY        TZ
        (cm-1)    (nm)                  (au**2)     (au)      (au)      (au)
-----------------------------------------------------------------------------
   0   10871.3    919.9   1.977771464  59.89224  -7.19489   2.00097  -2.03025
   1   14407.3    694.1   0.146158190   3.33976  -0.27483   1.65633   0.72166
   2   18892.8    529.3   0.132259059   2.30465   0.98986  -1.14419  -0.12507
   3   19705.4    507.5   0.304458746   5.08649  -1.85922  -0.47067  -1.18671
   4   22095.5    452.6   0.078391411   1.16799   0.67435  -0.81184  -0.23274
   5   23065.9    433.5   0.399057030   5.69560   2.02330  -1.23948   0.25602
   6   25020.3    399.7   0.000143978   0.00189   0.01008   0.02538  -0.03390
   7   25598.3    390.7   0.069536657   0.89429  -0.93533  -0.12206  -0.06750
   8   25783.3    387.8   0.068439513   0.87387   0.15590   0.68842   0.61289
   9   26160.2    382.3   0.025890830   0.32582  -0.00501   0.54205   0.17883
  10   26507.0    377.3   0.001153893   0.01433   0.04293  -0.10719   0.03158
  11   26598.1    376.0   0.112089511   1.38736  -0.48987   1.05458  -0.18777
  12   27431.3    364.5   0.000003024   0.00004   0.00586  -0.00041  -0.00133
  13   28014.5    357.0   0.029476956   0.34640  -0.29246  -0.42445  -0.28409
  14   28328.1    353.0   0.308658915   3.58705  -1.41848   1.25388   0.05225
  15   28362.6    352.6   0.051928016   0.60274   0.28022  -0.69341   0.20832
  16   28641.3    349.1   0.208382270   2.39521  -0.76758  -1.32950  -0.19611
  17   29905.2    334.4   0.055260259   0.60833   0.74233   0.07837   0.22614
  18   30170.8    331.4   0.025200800   0.27498   0.22993   0.29723   0.36574
  19   30602.8    326.8   0.000011372   0.00012   0.00803   0.00325  -0.00687
  20   31149.4    321.0   0.007184237   0.07593   0.06755  -0.17212   0.20430
  21   31199.1    320.5   0.071386561   0.75327   0.03726   0.76976   0.39919
  22   31652.8    315.9   0.069967046   0.72771   0.83410   0.17356  -0.04316
  23   32071.8    311.8   0.032710538   0.33577  -0.51876  -0.19617  -0.16785
  24   32302.3    309.6   0.038258612   0.38992  -0.26071   0.56737  -0.00619
  25   32400.1    308.6   0.045530305   0.46263   0.23303  -0.58781  -0.25061
  26   32717.6    305.6   0.021479406   0.21613  -0.43714  -0.15064  -0.04845
  27   32989.9    303.1   0.131254553   1.30981   1.05715  -0.32253   0.29702
  28   33283.1    300.5   0.003263023   0.03228  -0.03365   0.16865  -0.05198
  29   34177.7    292.6   0.023425393   0.22564   0.46448  -0.09759  -0.01934
  30   34355.1    291.1   0.089153834   0.85433  -0.44799   0.78937  -0.17469
  31   34475.2    290.1   0.029452781   0.28125  -0.07840   0.51198  -0.11396
  32   34919.0    286.4   0.123654920   1.16580  -0.27699  -1.04335   0.02249
  33   35386.3    282.6   0.000001402   0.00001   0.00247   0.00079  -0.00251
  34   35760.2    279.6   0.045128229   0.41545   0.24977   0.52191   0.28403
  35   36082.1    277.1   0.092856751   0.84722  -0.87509   0.22590  -0.17436
  36   36125.1    276.8   0.014835848   0.13520   0.31215  -0.18566  -0.05736
  37   36265.3    275.7   0.160371181   1.45583  -1.05698   0.47664  -0.33382
  38   36500.3    274.0   0.000299864   0.00270  -0.04694  -0.02227  -0.00225
  39   36712.8    272.4   0.030176791   0.27060   0.12600  -0.46219  -0.20275
  40   37119.8    269.4   0.026100385   0.23148  -0.09083  -0.41582   0.22434
  41   37390.3    267.4   0.001130298   0.00995   0.04483   0.07732   0.04431
  42   37805.1    264.5   0.039434263   0.34340  -0.49535   0.19183  -0.24745
  43   37892.0    263.9   0.022993989   0.19978   0.34088   0.00986   0.28892
  44   38269.3    261.3   0.009915552   0.08530  -0.08240   0.24711   0.13209
  45   38398.8    260.4   0.207152068   1.77602   0.35272  -0.94412  -0.87192
  46   38527.8    259.6   0.114178651   0.97563  -0.02326  -0.81479  -0.55785
  47   38696.2    258.4   0.046160242   0.39271  -0.47814   0.38363  -0.13010
  48   39106.7    255.7   0.120786563   1.01682   0.57681  -0.80725   0.18017
  49   39754.6    251.5   0.282272502   2.33753  -0.40134  -0.92570  -1.14871
  50   39925.3    250.5   0.002540959   0.02095   0.01529   0.11791  -0.08255
  51   39941.4    250.4   0.009857577   0.08125   0.13395   0.15485   0.19831
  52   40181.1    248.9   0.004125798   0.03380  -0.03878  -0.10704  -0.14437

FINAL SINGLE POINT ENERGY     -5765.613893617059

DIPOLE MOMENT
-------------
                                X             Y             Z
Electronic contribution:     -2.54208       8.65868       6.20578
Nuclear contribution   :     -0.62282      -8.27805      -9.10776
                        -----------------------------------------
Total Dipole Moment    :     -3.16490       0.38063      -2.90198
                        -----------------------------------------
Magnitude (a.u.)       :      4.31079
Magnitude (Debye)      :     10.95717

Rotational constants in cm-1:     0.002243     0.000172     0.000161
Rotational constants in MHz :    67.258361     5.156438     4.840373

                             ****ORCA TERMINATED NORMALLY****
TOTAL RUN TIME: 0 days 0 hours 6 minutes 40 seconds 118 msec
