                         Program Version 4.2.0 -  RELEASE  -
|  1> # ORCA input file
|  2> # SCF done       -183.825407053364          0.000927197750
|  3> ! CAM-B3LYP def2-SVP def2/J RIJCOSX Grid4 TightSCF
|  4> %maxcore 5000
|  5> %tddft
|  6>     Mode sTDDFT
|  7>     Ethresh 5.0
|  8>     maxcore 5000
|  9> end
| 10>
| 11> %pal
| 12>   nprocs 6
| 13>   end
| 14> * xyz 0 1
| 15>    C      -14.38706        -7.40606        -7.35575
| 16>    C      -14.25490        -8.27547        -8.41502
| 17>    C      -14.45221        -9.66550        -8.31644
| 18>    N      -14.59335       -10.80575        -8.28964
| 19>    C      -13.86292        -7.92392        -9.72175
| 20>    N      -13.53203        -7.73727       -10.80657
| 21>    C      -14.69843        -7.81086        -5.98379
| 22>    C      -14.58528        -6.67496        -5.14789
| 23>    C      -14.78219        -6.73245        -3.79055
| 24>    C      -15.14164        -7.96707        -3.23277
| 25>    C      -15.30045        -9.08196        -4.08422
| 26>    C      -15.07127        -9.03037        -5.45538
| 27>    S      -15.80807       -10.49312        -3.20110
| 28>    C      -15.79896        -9.57624        -1.71938
| 29>    C      -15.42710        -8.28408        -1.87449
| 30>   Br      -16.32551       -10.41390        -0.12421
| 31>    C      -14.30710        -5.49198        -5.99431
| 32>    O      -14.30681        -4.32927        -5.61320
| 33>    C      -14.15755        -5.98440        -7.35782
| 34>    C      -13.99118        -5.21378        -8.50824
| 35>    C      -13.55448        -3.91110        -8.69106
| 36>    C      -12.82435        -3.05607        -7.86937
| 37>    C      -12.46262        -1.73237        -8.22682
| 38>    C      -11.69586        -1.08494        -7.30040
| 39>    C      -11.40025        -1.88368        -6.17966
| 40>    S      -12.12122        -3.46594        -6.34619
| 41>    C      -10.75877        -1.56619        -4.99037
| 42>    C      -10.17288        -0.36341        -4.54756
| 43>    C       -9.73436        -0.41210        -3.25362
| 44>    C       -9.95340        -1.65271        -2.61175
| 45>    S      -10.69270        -2.77321        -3.73640
| 46>    C       -9.71680        -1.97522        -1.29300
| 47>    C      -10.02182        -3.19660        -0.69174
| 48>    S      -10.66290        -4.58761        -1.56367
| 49>    C      -10.80905        -5.59365        -0.14282
| 50>    C      -10.37598        -4.86918         0.97604
| 51>    C       -9.93334        -3.56116         0.65036
| 52>    O       -9.51410        -2.91004         1.74715
| 53>    C       -9.68032        -3.78906         2.77565
| 54>    N       -9.30684        -3.36553         4.07049
| 55>    O       -9.46168        -4.17134         4.96932
| 56>    O       -8.86258        -2.24372         4.19491
| 57>    C      -10.19972        -4.99448         2.37344
| 58>    C      -11.29626        -6.89896        -0.27139
| 59>    C      -11.54074        -7.55063        -1.47753
| 60>    C      -12.01171        -8.83689        -1.27614
| 61>    C      -12.16257        -9.18149         0.09565
| 62>    S      -11.67605        -7.89652         1.13359
| 63>    C      -12.66541       -10.47784         0.13043
| 64>    C      -12.80230       -10.89307        -1.21766
| 65>    N      -12.40524        -9.88819        -2.06208
| 66>    C      -12.19748        -9.99502        -3.48013
| 67>    C      -13.34285       -12.17190        -1.35004
| 68>    C      -13.61513       -12.73448        -0.11952
| 69>    S      -13.16318       -11.71015         1.23143
| 70>    C      -14.23473       -14.00010         0.16463
| 71>    C      -15.01904       -14.70915        -0.74099
| 72>    O      -15.16753       -14.15751        -1.96768
| 73>    C      -16.35540       -14.32680        -2.72131
| 74>    C      -15.60132       -15.98793        -0.38759
| 75>    O      -16.25371       -16.61529        -1.39888
| 76>    C      -16.82640       -17.87971        -1.15706
| 77>    C      -15.47217       -16.52581         0.86559
| 78>    C      -14.72636       -15.80589         1.81178
| 79>    C      -14.10186       -14.55943         1.46118
| 80>    N      -13.46643       -14.12353         2.52804
| 81>    O      -13.67761       -15.03083         3.48246
| 82>    N      -14.43155       -16.05234         3.07277
| 83>    H      -14.67699        -5.85196        -3.17632
| 84>    H      -15.20239        -9.91190        -6.05969
| 85>    H      -15.36946        -7.57673        -1.06738
| 86>    H      -14.28366        -5.70678        -9.42839
| 87>    H      -13.74902        -3.49984        -9.67558
| 88>    H      -12.79993        -1.29073        -9.14801
| 89>    H      -11.36037        -0.06723        -7.38892
| 90>    H      -10.10482         0.50449        -5.17849
| 91>    H       -9.27760         0.41340        -2.73665
| 92>    H       -9.29513        -1.21669        -0.64713
| 93>    H      -10.41495        -5.83178         3.00453
| 94>    H      -11.36245        -7.08293        -2.42874
| 95>    H      -12.85767       -10.75808        -3.88735
| 96>    H      -11.16239       -10.27123        -3.70272
| 97>    H      -12.41530        -9.03969        -3.95732
| 98>    H      -13.52473       -12.67728        -2.27774
| 99>    H      -16.33168       -15.24689        -3.30699
|100>    H      -16.38836       -13.46855        -3.39350
|101>    H      -17.24060       -14.32018        -2.08400
|102>    H      -17.60216       -17.82683        -0.38791
|103>    H      -16.06834       -18.61146        -0.86399
|104>    H      -17.27398       -18.18026        -2.10286
|105>    H      -15.89940       -17.47192         1.14475
|106> *
|107>
|108>                          ****END OF INPUT****

CARTESIAN COORDINATES (ANGSTROEM)
---------------------------------
  C    -14.387060   -7.406060   -7.355750
  C    -14.254900   -8.275470   -8.415020
  C    -14.452210   -9.665500   -8.316440
  N    -14.593350  -10.805750   -8.289640
  C    -13.862920   -7.923920   -9.721750
  N    -13.532030   -7.737270  -10.806570
  C    -14.698430   -7.810860   -5.983790
  C    -14.585280   -6.674960   -5.147890
  C    -14.782190   -6.732450   -3.790550
  C    -15.141640   -7.967070   -3.232770
  C    -15.300450   -9.081960   -4.084220
  C    -15.071270   -9.030370   -5.455380
  S    -15.808070  -10.493120   -3.201100
  C    -15.798960   -9.576240   -1.719380
  C    -15.427100   -8.284080   -1.874490
  Br   -16.325510  -10.413900   -0.124210
  C    -14.307100   -5.491980   -5.994310
  O    -14.306810   -4.329270   -5.613200
  C    -14.157550   -5.984400   -7.357820
  C    -13.991180   -5.213780   -8.508240
  C    -13.554480   -3.911100   -8.691060
  C    -12.824350   -3.056070   -7.869370
  C    -12.462620   -1.732370   -8.226820
  C    -11.695860   -1.084940   -7.300400
  C    -11.400250   -1.883680   -6.179660
  S    -12.121220   -3.465940   -6.346190
  C    -10.758770   -1.566190   -4.990370
  C    -10.172880   -0.363410   -4.547560
  C     -9.734360   -0.412100   -3.253620
  C     -9.953400   -1.652710   -2.611750
  S    -10.692700   -2.773210   -3.736400
  C     -9.716800   -1.975220   -1.293000
  C    -10.021820   -3.196600   -0.691740
  S    -10.662900   -4.587610   -1.563670
  C    -10.809050   -5.593650   -0.142820
  C    -10.375980   -4.869180    0.976040
  C     -9.933340   -3.561160    0.650360
  O     -9.514100   -2.910040    1.747150
  C     -9.680320   -3.789060    2.775650
  N     -9.306840   -3.365530    4.070490
  O     -9.461680   -4.171340    4.969320
  O     -8.862580   -2.243720    4.194910
  C    -10.199720   -4.994480    2.373440
  C    -11.296260   -6.898960   -0.271390
  C    -11.540740   -7.550630   -1.477530
  C    -12.011710   -8.836890   -1.276140
  C    -12.162570   -9.181490    0.095650
  S    -11.676050   -7.896520    1.133590
  C    -12.665410  -10.477840    0.130430
  C    -12.802300  -10.893070   -1.217660
  N    -12.405240   -9.888190   -2.062080
  C    -12.197480   -9.995020   -3.480130
  C    -13.342850  -12.171900   -1.350040
  C    -13.615130  -12.734480   -0.119520
  S    -13.163180  -11.710150    1.231430
  C    -14.234730  -14.000100    0.164630
  C    -15.019040  -14.709150   -0.740990
  O    -15.167530  -14.157510   -1.967680
  C    -16.355400  -14.326800   -2.721310
  C    -15.601320  -15.987930   -0.387590
  O    -16.253710  -16.615290   -1.398880
  C    -16.826400  -17.879710   -1.157060
  C    -15.472170  -16.525810    0.865590
  C    -14.726360  -15.805890    1.811780
  C    -14.101860  -14.559430    1.461180
  N    -13.466430  -14.123530    2.528040
  O    -13.677610  -15.030830    3.482460
  N    -14.431550  -16.052340    3.072770
  H    -14.676990   -5.851960   -3.176320
  H    -15.202390   -9.911900   -6.059690
  H    -15.369460   -7.576730   -1.067380
  H    -14.283660   -5.706780   -9.428390
  H    -13.749020   -3.499840   -9.675580
  H    -12.799930   -1.290730   -9.148010
  H    -11.360370   -0.067230   -7.388920
  H    -10.104820    0.504490   -5.178490
  H     -9.277600    0.413400   -2.736650
  H     -9.295130   -1.216690   -0.647130
  H    -10.414950   -5.831780    3.004530
  H    -11.362450   -7.082930   -2.428740
  H    -12.857670  -10.758080   -3.887350
  H    -11.162390  -10.271230   -3.702720
  H    -12.415300   -9.039690   -3.957320
  H    -13.524730  -12.677280   -2.277740
  H    -16.331680  -15.246890   -3.306990
  H    -16.388360  -13.468550   -3.393500
  H    -17.240600  -14.320180   -2.084000
  H    -17.602160  -17.826830   -0.387910
  H    -16.068340  -18.611460   -0.863990
  H    -17.273980  -18.180260   -2.102860
  H    -15.899400  -17.471920    1.144750

 Total Charge           Charge          ....    0
 Multiplicity           Mult            ....    1
 Number of Electrons    NEL             ....  540
 Basis Dimension        Dim             .... 1109

ORBITAL ENERGIES
----------------

  NO   OCC          E(Eh)            E(eV)
   0   2.0000    -482.881035    -13139.8610
   1   2.0000     -88.985775     -2421.4260
   2   2.0000     -88.974984     -2421.1324
   3   2.0000     -88.972947     -2421.0770
   4   2.0000     -88.967222     -2420.9212
   5   2.0000     -88.957720     -2420.6626
   6   2.0000     -88.955027     -2420.5894
   7   2.0000     -62.558220     -1702.2957
   8   2.0000     -56.392193     -1534.5096
   9   2.0000     -56.389483     -1534.4358
  10   2.0000     -56.389447     -1534.4349
  11   2.0000     -19.344269      -526.3843
  12   2.0000     -19.325992      -525.8870
  13   2.0000     -19.275663      -524.5175
  14   2.0000     -19.264041      -524.2012
  15   2.0000     -19.247602      -523.7539
  16   2.0000     -19.245757      -523.7037
  17   2.0000     -19.195421      -522.3339
  18   2.0000     -14.660366      -398.9288
  19   2.0000     -14.473857      -393.8537
  20   2.0000     -14.472429      -393.8148
  21   2.0000     -14.470699      -393.7677
  22   2.0000     -14.400005      -391.8441
  23   2.0000     -14.396576      -391.7508
  24   2.0000     -10.394508      -282.8489
  25   2.0000     -10.370033      -282.1829
  26   2.0000     -10.369891      -282.1791
  27   2.0000     -10.365755      -282.0665
  28   2.0000     -10.353497      -281.7330
  29   2.0000     -10.348881      -281.6074
  30   2.0000     -10.344673      -281.4929
  31   2.0000     -10.341253      -281.3998
  32   2.0000     -10.337883      -281.3081
  33   2.0000     -10.330814      -281.1158
  34   2.0000     -10.327945      -281.0377
  35   2.0000     -10.326453      -280.9971
  36   2.0000     -10.324378      -280.9406
  37   2.0000     -10.323694      -280.9220
  38   2.0000     -10.322483      -280.8891
  39   2.0000     -10.322260      -280.8830
  40   2.0000     -10.321809      -280.8707
  41   2.0000     -10.321728      -280.8685
  42   2.0000     -10.321467      -280.8614
  43   2.0000     -10.320436      -280.8333
  44   2.0000     -10.320386      -280.8320
  45   2.0000     -10.318100      -280.7698
  46   2.0000     -10.317450      -280.7521
  47   2.0000     -10.316333      -280.7217
  48   2.0000     -10.313754      -280.6515
  49   2.0000     -10.313313      -280.6395
  50   2.0000     -10.311982      -280.6033
  51   2.0000     -10.311707      -280.5958
  52   2.0000     -10.310379      -280.5597
  53   2.0000     -10.308898      -280.5194
  54   2.0000     -10.304976      -280.4127
  55   2.0000     -10.304459      -280.3986
  56   2.0000     -10.300937      -280.3027
  57   2.0000     -10.300647      -280.2949
  58   2.0000     -10.299892      -280.2743
  59   2.0000     -10.297570      -280.2111
  60   2.0000     -10.296211      -280.1741
  61   2.0000     -10.295682      -280.1598
  62   2.0000     -10.295402      -280.1521
  63   2.0000     -10.294139      -280.1178
  64   2.0000     -10.291925      -280.0575
  65   2.0000     -10.290807      -280.0271
  66   2.0000     -10.289035      -279.9789
  67   2.0000     -10.283429      -279.8263
  68   2.0000     -10.281047      -279.7615
  69   2.0000     -10.279759      -279.7265
  70   2.0000     -10.274757      -279.5904
  71   2.0000     -10.270196      -279.4662
  72   2.0000      -8.787436      -239.1183
  73   2.0000      -8.080320      -219.8767
  74   2.0000      -8.069466      -219.5813
  75   2.0000      -8.068084      -219.5437
  76   2.0000      -8.063577      -219.4211
  77   2.0000      -8.052821      -219.1284
  78   2.0000      -8.049284      -219.0322
  79   2.0000      -6.623720      -180.2406
  80   2.0000      -6.609114      -179.8431
  81   2.0000      -6.609038      -179.8411
  82   2.0000      -6.049933      -164.6270
  83   2.0000      -6.045671      -164.5111
  84   2.0000      -6.041884      -164.4080
  85   2.0000      -6.039223      -164.3356
  86   2.0000      -6.037791      -164.2966
  87   2.0000      -6.035140      -164.2245
  88   2.0000      -6.033598      -164.1825
  89   2.0000      -6.033251      -164.1731
  90   2.0000      -6.030731      -164.1045
  91   2.0000      -6.029390      -164.0681
  92   2.0000      -6.028975      -164.0568
  93   2.0000      -6.024730      -163.9413
  94   2.0000      -6.022190      -163.8721
  95   2.0000      -6.019076      -163.7874
  96   2.0000      -6.017784      -163.7522
  97   2.0000      -6.014838      -163.6721
  98   2.0000      -6.014767      -163.6701
  99   2.0000      -6.010529      -163.5548
 100   2.0000      -2.739593       -74.5481
 101   2.0000      -2.735459       -74.4356
 102   2.0000      -2.735431       -74.4349
 103   2.0000      -2.723808       -74.1186
 104   2.0000      -2.723797       -74.1183
 105   2.0000      -1.331124       -36.2217
 106   2.0000      -1.297778       -35.3143
 107   2.0000      -1.245552       -33.8932
 108   2.0000      -1.187120       -32.3032
 109   2.0000      -1.160420       -31.5766
 110   2.0000      -1.147328       -31.2204
 111   2.0000      -1.108968       -30.1766
 112   2.0000      -1.101362       -29.9696
 113   2.0000      -1.021578       -27.7985
 114   2.0000      -1.013417       -27.5765
 115   2.0000      -1.010866       -27.5071
 116   2.0000      -1.007747       -27.4222
 117   2.0000      -0.999127       -27.1876
 118   2.0000      -0.996946       -27.1283
 119   2.0000      -0.987846       -26.8807
 120   2.0000      -0.982233       -26.7279
 121   2.0000      -0.977626       -26.6026
 122   2.0000      -0.975238       -26.5376
 123   2.0000      -0.971785       -26.4436
 124   2.0000      -0.947784       -25.7905
 125   2.0000      -0.931570       -25.3493
 126   2.0000      -0.918902       -25.0046
 127   2.0000      -0.916283       -24.9333
 128   2.0000      -0.906269       -24.6608
 129   2.0000      -0.900110       -24.4932
 130   2.0000      -0.896052       -24.3828
 131   2.0000      -0.889826       -24.2134
 132   2.0000      -0.878707       -23.9108
 133   2.0000      -0.875459       -23.8224
 134   2.0000      -0.868335       -23.6286
 135   2.0000      -0.861773       -23.4500
 136   2.0000      -0.853823       -23.2337
 137   2.0000      -0.852594       -23.2003
 138   2.0000      -0.839247       -22.8371
 139   2.0000      -0.834090       -22.6968
 140   2.0000      -0.832472       -22.6527
 141   2.0000      -0.826853       -22.4998
 142   2.0000      -0.820090       -22.3158
 143   2.0000      -0.813304       -22.1311
 144   2.0000      -0.805632       -21.9224
 145   2.0000      -0.798870       -21.7384
 146   2.0000      -0.781713       -21.2715
 147   2.0000      -0.775773       -21.1099
 148   2.0000      -0.762116       -20.7382
 149   2.0000      -0.744557       -20.2604
 150   2.0000      -0.742363       -20.2007
 151   2.0000      -0.732578       -19.9345
 152   2.0000      -0.731176       -19.8963
 153   2.0000      -0.724403       -19.7120
 154   2.0000      -0.708275       -19.2731
 155   2.0000      -0.705974       -19.2105
 156   2.0000      -0.693259       -18.8645
 157   2.0000      -0.683899       -18.6098
 158   2.0000      -0.675256       -18.3747
 159   2.0000      -0.674980       -18.3671
 160   2.0000      -0.664818       -18.0906
 161   2.0000      -0.662926       -18.0391
 162   2.0000      -0.656939       -17.8762
 163   2.0000      -0.651721       -17.7342
 164   2.0000      -0.649967       -17.6865
 165   2.0000      -0.646701       -17.5976
 166   2.0000      -0.646366       -17.5885
 167   2.0000      -0.640745       -17.4356
 168   2.0000      -0.638216       -17.3667
 169   2.0000      -0.635404       -17.2902
 170   2.0000      -0.630543       -17.1579
 171   2.0000      -0.622171       -16.9301
 172   2.0000      -0.620486       -16.8843
 173   2.0000      -0.618397       -16.8274
 174   2.0000      -0.609674       -16.5901
 175   2.0000      -0.608463       -16.5571
 176   2.0000      -0.600411       -16.3380
 177   2.0000      -0.598192       -16.2776
 178   2.0000      -0.593559       -16.1516
 179   2.0000      -0.588361       -16.0101
 180   2.0000      -0.584801       -15.9133
 181   2.0000      -0.582918       -15.8620
 182   2.0000      -0.581370       -15.8199
 183   2.0000      -0.575654       -15.6643
 184   2.0000      -0.574751       -15.6398
 185   2.0000      -0.573848       -15.6152
 186   2.0000      -0.567426       -15.4405
 187   2.0000      -0.564009       -15.3475
 188   2.0000      -0.560032       -15.2392
 189   2.0000      -0.556006       -15.1297
 190   2.0000      -0.551964       -15.0197
 191   2.0000      -0.544171       -14.8076
 192   2.0000      -0.540225       -14.7003
 193   2.0000      -0.538918       -14.6647
 194   2.0000      -0.533284       -14.5114
 195   2.0000      -0.531083       -14.4515
 196   2.0000      -0.526265       -14.3204
 197   2.0000      -0.524916       -14.2837
 198   2.0000      -0.521484       -14.1903
 199   2.0000      -0.520887       -14.1741
 200   2.0000      -0.517012       -14.0686
 201   2.0000      -0.515720       -14.0335
 202   2.0000      -0.513814       -13.9816
 203   2.0000      -0.510351       -13.8874
 204   2.0000      -0.506166       -13.7735
 205   2.0000      -0.504690       -13.7333
 206   2.0000      -0.500976       -13.6322
 207   2.0000      -0.499014       -13.5789
 208   2.0000      -0.497023       -13.5247
 209   2.0000      -0.494753       -13.4629
 210   2.0000      -0.493537       -13.4298
 211   2.0000      -0.487869       -13.2756
 212   2.0000      -0.486091       -13.2272
 213   2.0000      -0.482765       -13.1367
 214   2.0000      -0.482249       -13.1227
 215   2.0000      -0.480214       -13.0673
 216   2.0000      -0.478051       -13.0084
 217   2.0000      -0.475746       -12.9457
 218   2.0000      -0.472613       -12.8604
 219   2.0000      -0.468526       -12.7492
 220   2.0000      -0.465075       -12.6553
 221   2.0000      -0.464539       -12.6407
 222   2.0000      -0.460151       -12.5213
 223   2.0000      -0.451579       -12.2881
 224   2.0000      -0.450229       -12.2514
 225   2.0000      -0.446494       -12.1497
 226   2.0000      -0.446059       -12.1379
 227   2.0000      -0.441616       -12.0170
 228   2.0000      -0.438227       -11.9248
 229   2.0000      -0.435888       -11.8611
 230   2.0000      -0.433342       -11.7918
 231   2.0000      -0.433043       -11.7837
 232   2.0000      -0.431704       -11.7473
 233   2.0000      -0.427776       -11.6404
 234   2.0000      -0.426543       -11.6068
 235   2.0000      -0.421919       -11.4810
 236   2.0000      -0.418742       -11.3946
 237   2.0000      -0.414193       -11.2708
 238   2.0000      -0.411805       -11.2058
 239   2.0000      -0.408085       -11.1046
 240   2.0000      -0.406655       -11.0657
 241   2.0000      -0.403701       -10.9853
 242   2.0000      -0.399870       -10.8810
 243   2.0000      -0.396376       -10.7859
 244   2.0000      -0.393508       -10.7079
 245   2.0000      -0.392308       -10.6752
 246   2.0000      -0.392050       -10.6682
 247   2.0000      -0.389784       -10.6065
 248   2.0000      -0.384523       -10.4634
 249   2.0000      -0.380845       -10.3633
 250   2.0000      -0.379466       -10.3258
 251   2.0000      -0.377512       -10.2726
 252   2.0000      -0.375769       -10.2252
 253   2.0000      -0.371583       -10.1113
 254   2.0000      -0.363201        -9.8832
 255   2.0000      -0.354264        -9.6400
 256   2.0000      -0.349213        -9.5026
 257   2.0000      -0.339385        -9.2351
 258   2.0000      -0.338825        -9.2199
 259   2.0000      -0.331612        -9.0236
 260   2.0000      -0.325036        -8.8447
 261   2.0000      -0.316849        -8.6219
 262   2.0000      -0.312294        -8.4980
 263   2.0000      -0.309056        -8.4098
 264   2.0000      -0.295157        -8.0316
 265   2.0000      -0.288874        -7.8607
 266   2.0000      -0.281645        -7.6639
 267   2.0000      -0.278037        -7.5658
 268   2.0000      -0.249607        -6.7921
 269   2.0000      -0.219671        -5.9775
 270   0.0000      -0.114571        -3.1176
 271   0.0000      -0.080041        -2.1780
 272   0.0000      -0.059950        -1.6313
 273   0.0000      -0.055740        -1.5168
 274   0.0000      -0.036290        -0.9875

MULLIKEN ATOMIC CHARGES
-----------------------
   0 C :    0.306584
   1 C :   -0.366183
   2 C :   -0.188884
   3 N :    0.123373
   4 C :   -0.204879
   5 N :    0.151309
   6 C :    0.010739
   7 C :    0.001832
   8 C :   -0.101551
   9 C :    0.104388
  10 C :   -0.103142
  11 C :   -0.043487
  12 S :    0.144211
  13 C :   -0.122584
  14 C :    0.059837
  15 Br:    0.027425
  16 C :    0.111243
  17 O :   -0.186629
  18 C :   -0.101868
  19 C :   -0.011163
  20 C :   -0.008110
  21 C :   -0.005891
  22 C :    0.021325
  23 C :    0.042388
  24 C :   -0.076337
  25 S :    0.169714
  26 C :    0.005069
  27 C :    0.018763
  28 C :    0.057936
  29 C :   -0.052612
  30 S :    0.063127
  31 C :    0.042041
  32 C :   -0.179654
  33 S :    0.105544
  34 C :   -0.059253
  35 C :    0.081951
  36 C :    0.208915
  37 O :   -0.171712
  38 C :    0.225090
  39 N :    0.276410
  40 O :   -0.248426
  41 O :   -0.233748
  42 C :   -0.079300
  43 C :   -0.069856
  44 C :   -0.124734
  45 C :    0.192200
  46 C :   -0.116614
  47 S :    0.150127
  48 C :   -0.106596
  49 C :    0.190459
  50 N :   -0.181577
  51 C :    0.139951
  52 C :   -0.100267
  53 C :   -0.125409
  54 S :    0.167192
  55 C :    0.123350
  56 C :    0.096523
  57 O :   -0.319013
  58 C :    0.202631
  59 C :    0.222281
  60 O :   -0.319218
  61 C :    0.175127
  62 C :   -0.202114
  63 C :    0.034581
  64 C :   -0.092770
  65 N :    0.024401
  66 O :   -0.107209
  67 N :    0.051963
  68 H :   -0.017883
  69 H :   -0.014551
  70 H :   -0.004964
  71 H :    0.020207
  72 H :   -0.009052
  73 H :   -0.010140
  74 H :   -0.012133
  75 H :   -0.005680
  76 H :    0.000598
  77 H :    0.014922
  78 H :    0.021386
  79 H :   -0.000028
  80 H :    0.041452
  81 H :    0.043455
  82 H :    0.046636
  83 H :   -0.011028
  84 H :    0.036583
  85 H :    0.031713
  86 H :    0.019324
  87 H :    0.034072
  88 H :    0.035024
  89 H :    0.045297
  90 H :   -0.024421
Sum of atomic charges:    0.0000000

LOEWDIN ATOMIC CHARGES
----------------------
   0 C :    0.075153
   1 C :   -0.161512
   2 C :   -0.017151
   3 N :   -0.079598
   4 C :   -0.025974
   5 N :   -0.065105
   6 C :   -0.020393
   7 C :   -0.042687
   8 C :    0.003352
   9 C :   -0.041821
  10 C :   -0.154378
  11 C :   -0.023091
  12 S :    0.424802
  13 C :   -0.272794
  14 C :   -0.066809
  15 Br:    0.143568
  16 C :    0.046948
  17 O :   -0.186959
  18 C :   -0.131078
  19 C :    0.034276
  20 C :   -0.083168
  21 C :   -0.114163
  22 C :   -0.046746
  23 C :   -0.023072
  24 C :   -0.208078
  25 S :    0.496321
  26 C :   -0.132637
  27 C :   -0.052515
  28 C :   -0.001944
  29 C :   -0.179004
  30 S :    0.395464
  31 C :   -0.019829
  32 C :   -0.216146
  33 S :    0.452475
  34 C :   -0.144466
  35 C :   -0.097283
  36 C :    0.044368
  37 O :    0.014207
  38 C :    0.020196
  39 N :    0.271514
  40 O :   -0.209700
  41 O :   -0.195565
  42 C :   -0.004083
  43 C :   -0.197926
  44 C :   -0.052712
  45 C :   -0.014559
  46 C :   -0.199721
  47 S :    0.422871
  48 C :   -0.229720
  49 C :   -0.003864
  50 N :    0.032198
  51 C :    0.039459
  52 C :   -0.073824
  53 C :   -0.144570
  54 S :    0.452064
  55 C :   -0.069945
  56 C :    0.057026
  57 O :   -0.086191
  58 C :    0.080958
  59 C :    0.050955
  60 O :   -0.086042
  61 C :    0.081468
  62 C :   -0.086752
  63 C :   -0.058687
  64 C :   -0.061956
  65 N :   -0.046455
  66 O :    0.065638
  67 N :   -0.032005
  68 H :    0.037288
  69 H :    0.037409
  70 H :    0.038278
  71 H :    0.045415
  72 H :    0.038372
  73 H :    0.033722
  74 H :    0.032859
  75 H :    0.035520
  76 H :    0.039038
  77 H :    0.051945
  78 H :    0.046187
  79 H :    0.031029
  80 H :    0.031920
  81 H :    0.029014
  82 H :    0.034077
  83 H :    0.028422
  84 H :    0.018467
  85 H :    0.016216
  86 H :    0.017187
  87 H :    0.020595
  88 H :    0.022028
  89 H :    0.032624
  90 H :    0.039785

  Mayer bond orders larger than 0.100000
B(  0-C ,  1-C ) :   1.5798 B(  0-C ,  6-C ) :   0.9768 B(  0-C , 18-C ) :   1.1459
B(  1-C ,  2-C ) :   1.1555 B(  1-C ,  4-C ) :   1.1460 B(  2-C ,  3-N ) :   2.9600
B(  4-C ,  5-N ) :   2.9934 B(  6-C ,  7-C ) :   1.2824 B(  6-C , 11-C ) :   1.4234
B(  7-C ,  8-C ) :   1.4226 B(  7-C , 16-C ) :   0.9193 B(  8-C ,  9-C ) :   1.2262
B(  8-C , 68-H ) :   1.0209 B(  9-C , 10-C ) :   1.3313 B(  9-C , 14-C ) :   1.1548
B( 10-C , 11-C ) :   1.3019 B( 10-C , 12-S ) :   1.0691 B( 11-C , 69-H ) :   0.9833
B( 12-S , 13-C ) :   1.0772 B( 13-C , 14-C ) :   1.6220 B( 13-C , 15-Br) :   1.0208
B( 14-C , 70-H ) :   1.0026 B( 16-C , 17-O ) :   2.1337 B( 16-C , 18-C ) :   1.0355
B( 18-C , 19-C ) :   1.3349 B( 19-C , 20-C ) :   1.4487 B( 19-C , 71-H ) :   0.9369
B( 20-C , 21-C ) :   1.3698 B( 20-C , 72-H ) :   0.9486 B( 21-C , 22-C ) :   1.2126
B( 21-C , 25-S ) :   1.1557 B( 22-C , 23-C ) :   1.5225 B( 22-C , 73-H ) :   0.9976
B( 23-C , 24-C ) :   1.2323 B( 23-C , 74-H ) :   0.9935 B( 24-C , 25-S ) :   1.0795
B( 24-C , 26-C ) :   1.4061 B( 26-C , 27-C ) :   1.2327 B( 26-C , 30-S ) :   1.0975
B( 27-C , 28-C ) :   1.5329 B( 27-C , 75-H ) :   0.9949 B( 28-C , 29-C ) :   1.1896
B( 28-C , 76-H ) :   0.9991 B( 29-C , 30-S ) :   1.0320 B( 29-C , 31-C ) :   1.4780
B( 31-C , 32-C ) :   1.2662 B( 31-C , 77-H ) :   0.9767 B( 32-C , 33-S ) :   1.0321
B( 32-C , 36-C ) :   1.3785 B( 33-S , 34-C ) :   1.1596 B( 34-C , 35-C ) :   1.2792
B( 34-C , 43-C ) :   1.2848 B( 35-C , 36-C ) :   1.2556 B( 35-C , 42-C ) :   1.1065
B( 36-C , 37-O ) :   1.1642 B( 37-O , 38-C ) :   1.1082 B( 38-C , 39-N ) :   0.9251
B( 38-C , 42-C ) :   1.5607 B( 39-N , 40-O ) :   1.5291 B( 39-N , 41-O ) :   1.5050
B( 40-O , 41-O ) :   0.2778 B( 42-C , 78-H ) :   1.0180 B( 43-C , 44-C ) :   1.3670
B( 43-C , 47-S ) :   1.0652 B( 44-C , 45-C ) :   1.2901 B( 44-C , 79-H ) :   1.0059
B( 45-C , 46-C ) :   1.3391 B( 45-C , 50-N ) :   1.1417 B( 46-C , 47-S ) :   1.0460
B( 46-C , 48-C ) :   1.4139 B( 48-C , 49-C ) :   1.3661 B( 48-C , 54-S ) :   1.0111
B( 49-C , 50-N ) :   1.1465 B( 49-C , 52-C ) :   1.1945 B( 50-N , 51-C ) :   0.9604
B( 51-C , 80-H ) :   0.9653 B( 51-C , 81-H ) :   0.9699 B( 51-C , 82-H ) :   0.9671
B( 52-C , 53-C ) :   1.4715 B( 52-C , 83-H ) :   1.0207 B( 53-C , 54-S ) :   1.1091
B( 53-C , 55-C ) :   1.1014 B( 55-C , 56-C ) :   1.5095 B( 55-C , 62-C ) :   0.1081
B( 55-C , 64-C ) :   1.1280 B( 56-C , 57-O ) :   1.2061 B( 56-C , 59-C ) :   1.1111
B( 57-O , 58-C ) :   0.9176 B( 58-C , 84-H ) :   0.9747 B( 58-C , 85-H ) :   0.9735
B( 58-C , 86-H ) :   0.9742 B( 59-C , 60-O ) :   1.1549 B( 59-C , 62-C ) :   1.4287
B( 60-O , 61-C ) :   0.9501 B( 61-C , 87-H ) :   0.9693 B( 61-C , 88-H ) :   0.9690
B( 61-C , 89-H ) :   0.9772 B( 62-C , 63-C ) :   1.0959 B( 62-C , 90-H ) :   1.0437
B( 63-C , 64-C ) :   1.1501 B( 63-C , 67-N ) :   1.6159 B( 64-C , 65-N ) :   1.5988
B( 65-N , 66-O ) :   1.0554 B( 65-N , 67-N ) :   0.1759 B( 66-O , 67-N ) :   1.0563

-----------------------------------------------------------------------------
         ABSORPTION SPECTRUM VIA TRANSITION ELECTRIC DIPOLE MOMENTS
-----------------------------------------------------------------------------
State   Energy  Wavelength   fosc         T2         TX        TY        TZ
        (cm-1)    (nm)                  (au**2)     (au)      (au)      (au)
-----------------------------------------------------------------------------
   0    8616.0   1160.6   0.407655809  15.57618  -1.00290   1.47534  -3.52048
   1   15868.8    630.2   0.020706563   0.42958  -0.23564  -0.56494   0.23430
   2   17061.7    586.1   1.887100573  36.41235  -2.58434  -5.31865  -1.20232
   3   19660.1    508.6   0.064529893   1.08057  -0.59470   0.11231  -0.84516
   4   21342.6    468.5   0.017332137   0.26735   0.09032  -0.34424   0.37509
   5   21818.6    458.3   0.005087947   0.07677   0.16565  -0.08682  -0.20443
   6   22517.7    444.1   0.077774996   1.13708   0.55506   0.80009  -0.43457
   7   23125.0    432.4   0.369712615   5.26329  -0.76789  -2.02700   0.75162
   8   23499.2    425.5   0.158290341   2.21757  -0.89630  -1.04358  -0.57022
   9   23985.7    416.9   0.156637458   2.14990   0.17621  -0.32723   1.41837
  10   25559.0    391.3   0.269379379   3.46973   0.46014   1.25274  -1.29948
  11   26670.8    374.9   0.009187131   0.11340   0.18469  -0.11741  -0.25594
  12   27040.9    369.8   0.032347398   0.39382   0.07086  -0.61528   0.10114
  13   27691.9    361.1   0.057180874   0.67979   0.06188  -0.30763   0.76244
  14   29193.5    342.5   0.011022068   0.12429   0.00196  -0.11039   0.33482
  15   29333.4    340.9   0.089907864   1.00905   0.04024   0.31654   0.95249
  16   29433.1    339.8   0.010514165   0.11760   0.13913  -0.27990  -0.14107
  17   29882.0    334.6   0.036726585   0.40462  -0.12552  -0.62358   0.00415
  18   30014.6    333.2   0.097264178   1.06683   0.61055   0.76358  -0.33318
  19   30119.0    332.0   0.010284362   0.11241   0.14973   0.25326   0.16079
  20   30367.6    329.3   0.011189758   0.12131  -0.27814  -0.20219   0.05539
  21   30619.1    326.6   0.053702604   0.57740  -0.23034  -0.01587   0.72395
  22   31449.5    318.0   0.068216079   0.71408   0.13989   0.17901  -0.81392
  23   31629.2    316.2   0.004576900   0.04764  -0.14676  -0.15764   0.03533
  24   31964.8    312.8   0.615391193   6.33803   0.01710   0.21180  -2.50856
  25   32213.9    310.4   0.106989344   1.09339  -0.08634  -0.23263   1.01578
  26   32828.1    304.6   0.071827746   0.72031   0.14582   0.61996  -0.56098
  27   33023.0    302.8   0.223318146   2.22630  -0.33694  -0.26046   1.43001
  28   33344.1    299.9   0.007435348   0.07341  -0.16592   0.02971  -0.21213
  29   33618.4    297.5   0.000964430   0.00944   0.06949   0.05200  -0.04373
  30   33940.9    294.6   0.020751168   0.20128   0.13241   0.33625   0.26586
  31   34206.7    292.3   0.034398795   0.33106  -0.11033   0.23741  -0.51237
  32   34355.5    291.1   0.028535796   0.27344  -0.30241  -0.40103  -0.14549
  33   34539.2    289.5   0.083398563   0.79492   0.37141   0.28082   0.76033
  34   34993.5    285.8   0.083290591   0.78358   0.20802  -0.41384  -0.75435
  35   36158.1    276.6   0.001974427   0.01798   0.07470   0.10849   0.02504
  36   36236.6    276.0   0.006666923   0.06057  -0.02161   0.22389   0.09989
  37   36392.4    274.8   0.098838828   0.89411  -0.04232   0.45523  -0.82770
  38   36668.2    272.7   0.083794188   0.75232  -0.21776  -0.28820  -0.78857
  39   36789.8    271.8   0.140993408   1.26167  -0.26245  -0.77473  -0.76980
  40   37141.2    269.2   0.061824146   0.54800  -0.02857  -0.38449  -0.63194
  41   37286.6    268.2   0.025511854   0.22525  -0.24455   0.34997   0.20729
  42   37829.7    264.3   0.057853788   0.50347   0.24258   0.66606  -0.03146
  43   38280.3    261.2   0.095668370   0.82275   0.22147   0.87960  -0.00372
  44   38602.8    259.0   0.010946453   0.09335   0.12703  -0.09561  -0.26091
  45   38775.3    257.9   0.184781406   1.56884   0.04113   0.63665  -1.07788
  46   38861.9    257.3   0.061589457   0.52174   0.29556   0.34128   0.56384
  47   39097.5    255.8   0.164130132   1.38202   0.01419   0.07176   1.17332
  48   39607.3    252.5   0.196280947   1.63147  -0.45444   0.13754  -1.18576
  49   39859.6    250.9   0.123092365   1.01665  -0.21301  -0.73534  -0.65616
  50   40275.2    248.3   0.009704630   0.07933  -0.06008  -0.19226   0.19686

FINAL SINGLE POINT ENERGY     -7656.754486279652

DIPOLE MOMENT
-------------
                                X             Y             Z
Electronic contribution:    -18.35159      -3.40676      45.75295
Nuclear contribution   :     17.68147       3.37044     -45.80544
                        -----------------------------------------
Total Dipole Moment    :     -0.67011      -0.03632      -0.05248
                        -----------------------------------------
Magnitude (a.u.)       :      0.67315
Magnitude (Debye)      :      1.71100

Rotational constants in cm-1:     0.001119     0.000601     0.000413
Rotational constants in MHz :    33.560946    18.007784    12.385070

                             ****ORCA TERMINATED NORMALLY****
TOTAL RUN TIME: 0 days 0 hours 11 minutes 33 seconds 754 msec
