                         Program Version 4.2.0 -  RELEASE  -
|  1> # ORCA input file
|  2> # SCF done       -175.562382382070          0.000331614038
|  3> ! CAM-B3LYP def2-SVP def2/J RIJCOSX Grid4 TightSCF
|  4> %maxcore 5000
|  5> %tddft
|  6>     Mode sTDDFT
|  7>     Ethresh 5.0
|  8>     maxcore 5000
|  9> end
| 10>
| 11> %pal
| 12>   nprocs 6
| 13>   end
| 14> * xyz 0 1
| 15>    C       -8.17586        -0.79895        -6.24226
| 16>    C       -7.70319         0.47100        -6.49664
| 17>    C       -6.93353         0.81971        -7.62378
| 18>    N       -6.30107         1.18066        -8.51266
| 19>    C       -7.86556         1.59665        -5.67327
| 20>    N       -7.93764         2.56994        -5.06229
| 21>    C       -7.94013        -1.95418        -7.10418
| 22>    C       -8.44636        -3.10702        -6.45984
| 23>    C       -8.36970        -4.35997        -7.01304
| 24>    C       -7.77936        -4.48023        -8.27700
| 25>    C       -7.28434        -3.32148        -8.91779
| 26>    C       -7.35103        -2.05430        -8.35024
| 27>    S       -6.59795        -3.69346       -10.47113
| 28>    C       -6.98063        -5.37859       -10.23975
| 29>    C       -7.59109        -5.65063        -9.06220
| 30>   Br       -6.54032        -6.61963       -11.57620
| 31>    C       -9.01550        -2.72189        -5.14701
| 32>    O       -9.34290        -3.49093        -4.26986
| 33>    C       -8.95180        -1.24180        -5.10947
| 34>    C       -9.49033        -0.39798        -4.15995
| 35>    C      -10.43827        -0.70553        -3.16912
| 36>    C      -10.77575         0.18194        -2.13801
| 37>    O      -11.68349        -0.15517        -1.16984
| 38>    C      -12.19451        -1.41939        -1.22341
| 39>    C      -11.87440        -2.30378        -2.29093
| 40>    C      -12.47764        -3.51224        -2.17190
| 41>    S      -13.45011        -3.58197        -0.74971
| 42>    C      -13.03613        -1.96827        -0.31180
| 43>    O      -11.06062        -1.92145        -3.30474
| 44>    C      -10.22903         1.47762        -1.98325
| 45>    C      -10.56768         2.28168        -0.92682
| 46>    C      -10.14973         3.59599        -0.66130
| 47>    S      -10.61103         4.27943         0.87642
| 48>    C       -9.81365         5.79747         0.52918
| 49>    C       -9.19948         5.73729        -0.73077
| 50>    C       -9.40617         4.52886        -1.39670
| 51>    C       -8.88765         4.27314        -2.77286
| 52>    C       -8.37367         5.54241        -3.44242
| 53>    C       -7.48186         6.30985        -2.46283
| 54>    C       -6.80414         7.44790        -3.17662
| 55>    O       -6.93617         8.61259        -2.92702
| 56>    C       -8.33054         6.81232        -1.29749
| 57>    C       -9.90929         6.75767         1.55076
| 58>    C       -9.69148         8.11543         1.61517
| 59>    C       -9.85238         8.85950         2.81497
| 60>    C       -9.63652        10.19814         2.69121
| 61>    C       -9.29630        10.59639         1.38117
| 62>    S       -9.27912         9.21375         0.31384
| 63>    C       -8.97924        11.85777         0.91279
| 64>    C       -8.96883        13.08036         1.62159
| 65>    C       -8.58446        14.14633         0.86858
| 66>    C       -8.26367        13.82427        -0.47647
| 67>    S       -8.49132        12.10721        -0.74958
| 68>    C       -7.82564        14.70205        -1.43185
| 69>    C       -7.46966        14.40395        -2.75881
| 70>    S       -7.51440        12.80742        -3.49252
| 71>    C       -6.93680        13.35459        -5.01119
| 72>    C       -6.70758        14.71190        -4.98919
| 73>    C       -7.01071        15.29022        -3.72046
| 74>    O       -6.77567        16.61777        -3.72558
| 75>    C       -6.32636        16.89467        -4.98055
| 76>    N       -5.99444        18.23802        -5.27740
| 77>    O       -5.59383        18.45956        -6.40478
| 78>    O       -6.12988        19.06460        -4.40153
| 79>    C       -6.26011        15.79520        -5.79393
| 80>    H       -8.75727        -5.22145        -6.49221
| 81>    H       -6.95659        -1.20365        -8.88004
| 82>    H       -7.89639        -6.63515        -8.75789
| 83>    H       -9.19004         0.63504        -4.21282
| 84>    H      -12.39955        -4.35139        -2.82989
| 85>    H      -13.43206        -1.52229         0.57642
| 86>    H       -9.52598         1.81417        -2.72020
| 87>    H      -11.22720         1.85810        -0.17998
| 88>    H       -9.67716         3.84165        -3.39052
| 89>    H       -8.07460         3.54327        -2.72488
| 90>    H       -9.21121         6.17991        -3.73193
| 91>    H       -7.82389         5.26613        -4.34209
| 92>    H       -6.69804         5.63128        -2.10626
| 93>    H       -6.15249         7.10899        -4.00688
| 94>    H       -8.94809         7.63695        -1.66418
| 95>    H       -7.68405         7.21382        -0.51523
| 96>    H      -10.28710         6.34496         2.48107
| 97>    H      -10.11553         8.37355         3.73803
| 98>    H       -9.70297        10.90030         3.50249
| 99>    H       -9.24346        13.13820         2.65942
|100>    H       -8.51156        15.15604         1.23171
|101>    H       -7.72588        15.74256        -1.15143
|102>    H       -6.80061        12.65944        -5.81329
|103>    H       -5.93618        15.78560        -6.81387
|104> *
|105>
|106>                          ****END OF INPUT****

CARTESIAN COORDINATES (ANGSTROEM)
---------------------------------
  C     -8.175860   -0.798950   -6.242260
  C     -7.703190    0.471000   -6.496640
  C     -6.933530    0.819710   -7.623780
  N     -6.301070    1.180660   -8.512660
  C     -7.865560    1.596650   -5.673270
  N     -7.937640    2.569940   -5.062290
  C     -7.940130   -1.954180   -7.104180
  C     -8.446360   -3.107020   -6.459840
  C     -8.369700   -4.359970   -7.013040
  C     -7.779360   -4.480230   -8.277000
  C     -7.284340   -3.321480   -8.917790
  C     -7.351030   -2.054300   -8.350240
  S     -6.597950   -3.693460  -10.471130
  C     -6.980630   -5.378590  -10.239750
  C     -7.591090   -5.650630   -9.062200
  Br    -6.540320   -6.619630  -11.576200
  C     -9.015500   -2.721890   -5.147010
  O     -9.342900   -3.490930   -4.269860
  C     -8.951800   -1.241800   -5.109470
  C     -9.490330   -0.397980   -4.159950
  C    -10.438270   -0.705530   -3.169120
  C    -10.775750    0.181940   -2.138010
  O    -11.683490   -0.155170   -1.169840
  C    -12.194510   -1.419390   -1.223410
  C    -11.874400   -2.303780   -2.290930
  C    -12.477640   -3.512240   -2.171900
  S    -13.450110   -3.581970   -0.749710
  C    -13.036130   -1.968270   -0.311800
  O    -11.060620   -1.921450   -3.304740
  C    -10.229030    1.477620   -1.983250
  C    -10.567680    2.281680   -0.926820
  C    -10.149730    3.595990   -0.661300
  S    -10.611030    4.279430    0.876420
  C     -9.813650    5.797470    0.529180
  C     -9.199480    5.737290   -0.730770
  C     -9.406170    4.528860   -1.396700
  C     -8.887650    4.273140   -2.772860
  C     -8.373670    5.542410   -3.442420
  C     -7.481860    6.309850   -2.462830
  C     -6.804140    7.447900   -3.176620
  O     -6.936170    8.612590   -2.927020
  C     -8.330540    6.812320   -1.297490
  C     -9.909290    6.757670    1.550760
  C     -9.691480    8.115430    1.615170
  C     -9.852380    8.859500    2.814970
  C     -9.636520   10.198140    2.691210
  C     -9.296300   10.596390    1.381170
  S     -9.279120    9.213750    0.313840
  C     -8.979240   11.857770    0.912790
  C     -8.968830   13.080360    1.621590
  C     -8.584460   14.146330    0.868580
  C     -8.263670   13.824270   -0.476470
  S     -8.491320   12.107210   -0.749580
  C     -7.825640   14.702050   -1.431850
  C     -7.469660   14.403950   -2.758810
  S     -7.514400   12.807420   -3.492520
  C     -6.936800   13.354590   -5.011190
  C     -6.707580   14.711900   -4.989190
  C     -7.010710   15.290220   -3.720460
  O     -6.775670   16.617770   -3.725580
  C     -6.326360   16.894670   -4.980550
  N     -5.994440   18.238020   -5.277400
  O     -5.593830   18.459560   -6.404780
  O     -6.129880   19.064600   -4.401530
  C     -6.260110   15.795200   -5.793930
  H     -8.757270   -5.221450   -6.492210
  H     -6.956590   -1.203650   -8.880040
  H     -7.896390   -6.635150   -8.757890
  H     -9.190040    0.635040   -4.212820
  H    -12.399550   -4.351390   -2.829890
  H    -13.432060   -1.522290    0.576420
  H     -9.525980    1.814170   -2.720200
  H    -11.227200    1.858100   -0.179980
  H     -9.677160    3.841650   -3.390520
  H     -8.074600    3.543270   -2.724880
  H     -9.211210    6.179910   -3.731930
  H     -7.823890    5.266130   -4.342090
  H     -6.698040    5.631280   -2.106260
  H     -6.152490    7.108990   -4.006880
  H     -8.948090    7.636950   -1.664180
  H     -7.684050    7.213820   -0.515230
  H    -10.287100    6.344960    2.481070
  H    -10.115530    8.373550    3.738030
  H     -9.702970   10.900300    3.502490
  H     -9.243460   13.138200    2.659420
  H     -8.511560   15.156040    1.231710
  H     -7.725880   15.742560   -1.151430
  H     -6.800610   12.659440   -5.813290
  H     -5.936180   15.785600   -6.813870

 Total Charge           Charge          ....    0
 Multiplicity           Mult            ....    1
 Number of Electrons    NEL             ....  520
 Basis Dimension        Dim             .... 1072

ORBITAL ENERGIES
----------------

  NO   OCC          E(Eh)            E(eV)
   0   2.0000    -482.880803    -13139.8547
   1   2.0000     -88.974468     -2421.1184
   2   2.0000     -88.969061     -2420.9712
   3   2.0000     -88.960167     -2420.7292
   4   2.0000     -88.955595     -2420.6048
   5   2.0000     -88.950654     -2420.4703
   6   2.0000     -88.950432     -2420.4643
   7   2.0000     -62.558527     -1702.3041
   8   2.0000     -56.392469     -1534.5171
   9   2.0000     -56.389768     -1534.4436
  10   2.0000     -56.389730     -1534.4426
  11   2.0000     -19.308486      -525.4106
  12   2.0000     -19.295132      -525.0472
  13   2.0000     -19.269049      -524.3375
  14   2.0000     -19.242086      -523.6038
  15   2.0000     -19.239819      -523.5421
  16   2.0000     -19.215993      -522.8937
  17   2.0000     -19.199063      -522.4331
  18   2.0000     -14.653752      -398.7489
  19   2.0000     -14.418507      -392.3475
  20   2.0000     -14.406494      -392.0206
  21   2.0000     -10.385131      -282.5938
  22   2.0000     -10.377592      -282.3886
  23   2.0000     -10.353682      -281.7380
  24   2.0000     -10.353496      -281.7329
  25   2.0000     -10.353030      -281.7203
  26   2.0000     -10.352950      -281.7181
  27   2.0000     -10.345535      -281.5163
  28   2.0000     -10.345435      -281.5136
  29   2.0000     -10.340923      -281.3908
  30   2.0000     -10.334853      -281.2256
  31   2.0000     -10.330640      -281.1110
  32   2.0000     -10.324701      -280.9494
  33   2.0000     -10.318745      -280.7873
  34   2.0000     -10.317558      -280.7550
  35   2.0000     -10.316660      -280.7306
  36   2.0000     -10.316142      -280.7165
  37   2.0000     -10.313867      -280.6546
  38   2.0000     -10.313425      -280.6426
  39   2.0000     -10.311904      -280.6012
  40   2.0000     -10.311532      -280.5911
  41   2.0000     -10.311186      -280.5816
  42   2.0000     -10.311136      -280.5803
  43   2.0000     -10.311072      -280.5785
  44   2.0000     -10.303913      -280.3837
  45   2.0000     -10.303546      -280.3737
  46   2.0000     -10.300131      -280.2808
  47   2.0000     -10.299958      -280.2761
  48   2.0000     -10.299131      -280.2536
  49   2.0000     -10.297808      -280.2176
  50   2.0000     -10.296275      -280.1759
  51   2.0000     -10.294965      -280.1402
  52   2.0000     -10.293361      -280.0966
  53   2.0000     -10.293179      -280.0916
  54   2.0000     -10.292402      -280.0705
  55   2.0000     -10.291778      -280.0535
  56   2.0000     -10.291116      -280.0355
  57   2.0000     -10.290829      -280.0277
  58   2.0000     -10.290518      -280.0192
  59   2.0000     -10.289490      -279.9913
  60   2.0000     -10.288573      -279.9663
  61   2.0000     -10.288465      -279.9634
  62   2.0000     -10.287837      -279.9463
  63   2.0000     -10.284021      -279.8424
  64   2.0000     -10.282296      -279.7955
  65   2.0000     -10.278561      -279.6939
  66   2.0000     -10.270541      -279.4756
  67   2.0000     -10.270334      -279.4700
  68   2.0000     -10.270302      -279.4691
  69   2.0000      -8.787959      -239.1325
  70   2.0000      -8.068923      -219.5666
  71   2.0000      -8.065021      -219.4604
  72   2.0000      -8.055898      -219.2121
  73   2.0000      -8.051568      -219.0943
  74   2.0000      -8.046786      -218.9642
  75   2.0000      -8.046255      -218.9497
  76   2.0000      -6.624238      -180.2547
  77   2.0000      -6.609695      -179.8589
  78   2.0000      -6.609523      -179.8543
  79   2.0000      -6.038266      -164.3096
  80   2.0000      -6.034724      -164.2132
  81   2.0000      -6.033752      -164.1867
  82   2.0000      -6.031411      -164.1230
  83   2.0000      -6.030443      -164.0967
  84   2.0000      -6.026247      -163.9825
  85   2.0000      -6.025405      -163.9596
  86   2.0000      -6.021202      -163.8452
  87   2.0000      -6.020678      -163.8310
  88   2.0000      -6.017627      -163.7479
  89   2.0000      -6.016954      -163.7297
  90   2.0000      -6.016588      -163.7197
  91   2.0000      -6.016037      -163.7047
  92   2.0000      -6.013552      -163.6371
  93   2.0000      -6.012412      -163.6060
  94   2.0000      -6.011867      -163.5912
  95   2.0000      -6.007653      -163.4766
  96   2.0000      -6.007160      -163.4631
  97   2.0000      -2.740077       -74.5613
  98   2.0000      -2.736052       -74.4518
  99   2.0000      -2.735900       -74.4476
 100   2.0000      -2.724352       -74.1334
 101   2.0000      -2.724325       -74.1327
 102   2.0000      -1.325154       -36.0593
 103   2.0000      -1.228329       -33.4245
 104   2.0000      -1.214606       -33.0511
 105   2.0000      -1.173074       -31.9210
 106   2.0000      -1.141473       -31.0611
 107   2.0000      -1.129921       -30.7467
 108   2.0000      -1.113838       -30.3091
 109   2.0000      -1.017218       -27.6799
 110   2.0000      -1.009994       -27.4833
 111   2.0000      -1.003206       -27.2986
 112   2.0000      -0.996437       -27.1144
 113   2.0000      -0.992770       -27.0147
 114   2.0000      -0.991512       -26.9804
 115   2.0000      -0.990465       -26.9519
 116   2.0000      -0.981384       -26.7048
 117   2.0000      -0.976563       -26.5736
 118   2.0000      -0.939456       -25.5639
 119   2.0000      -0.934162       -25.4199
 120   2.0000      -0.931043       -25.3350
 121   2.0000      -0.926337       -25.2069
 122   2.0000      -0.908712       -24.7273
 123   2.0000      -0.901661       -24.5354
 124   2.0000      -0.900254       -24.4972
 125   2.0000      -0.888748       -24.1841
 126   2.0000      -0.878574       -23.9072
 127   2.0000      -0.878446       -23.9037
 128   2.0000      -0.868129       -23.6230
 129   2.0000      -0.859087       -23.3769
 130   2.0000      -0.848544       -23.0901
 131   2.0000      -0.845808       -23.0156
 132   2.0000      -0.835261       -22.7286
 133   2.0000      -0.832745       -22.6601
 134   2.0000      -0.827391       -22.5144
 135   2.0000      -0.825633       -22.4666
 136   2.0000      -0.821823       -22.3629
 137   2.0000      -0.815930       -22.2026
 138   2.0000      -0.802511       -21.8374
 139   2.0000      -0.784746       -21.3540
 140   2.0000      -0.776110       -21.1190
 141   2.0000      -0.764057       -20.7911
 142   2.0000      -0.751506       -20.4495
 143   2.0000      -0.746062       -20.3014
 144   2.0000      -0.740859       -20.1598
 145   2.0000      -0.725403       -19.7392
 146   2.0000      -0.713148       -19.4057
 147   2.0000      -0.706625       -19.2282
 148   2.0000      -0.702761       -19.1231
 149   2.0000      -0.696496       -18.9526
 150   2.0000      -0.694262       -18.8918
 151   2.0000      -0.682348       -18.5676
 152   2.0000      -0.677659       -18.4400
 153   2.0000      -0.675257       -18.3747
 154   2.0000      -0.670479       -18.2447
 155   2.0000      -0.661665       -18.0048
 156   2.0000      -0.652800       -17.7636
 157   2.0000      -0.650294       -17.6954
 158   2.0000      -0.645218       -17.5573
 159   2.0000      -0.640524       -17.4296
 160   2.0000      -0.638895       -17.3852
 161   2.0000      -0.633960       -17.2509
 162   2.0000      -0.626421       -17.0458
 163   2.0000      -0.623585       -16.9686
 164   2.0000      -0.618061       -16.8183
 165   2.0000      -0.616578       -16.7779
 166   2.0000      -0.605830       -16.4855
 167   2.0000      -0.600742       -16.3470
 168   2.0000      -0.596904       -16.2426
 169   2.0000      -0.590866       -16.0783
 170   2.0000      -0.590089       -16.0572
 171   2.0000      -0.589130       -16.0310
 172   2.0000      -0.583304       -15.8725
 173   2.0000      -0.580761       -15.8033
 174   2.0000      -0.574252       -15.6262
 175   2.0000      -0.571033       -15.5386
 176   2.0000      -0.565532       -15.3889
 177   2.0000      -0.565114       -15.3775
 178   2.0000      -0.555587       -15.1183
 179   2.0000      -0.552182       -15.0256
 180   2.0000      -0.549163       -14.9435
 181   2.0000      -0.540771       -14.7151
 182   2.0000      -0.536757       -14.6059
 183   2.0000      -0.533102       -14.5064
 184   2.0000      -0.529279       -14.4024
 185   2.0000      -0.528476       -14.3806
 186   2.0000      -0.525923       -14.3111
 187   2.0000      -0.524138       -14.2625
 188   2.0000      -0.518585       -14.1114
 189   2.0000      -0.515947       -14.0396
 190   2.0000      -0.515317       -14.0225
 191   2.0000      -0.513703       -13.9786
 192   2.0000      -0.512038       -13.9333
 193   2.0000      -0.507890       -13.8204
 194   2.0000      -0.505796       -13.7634
 195   2.0000      -0.502868       -13.6837
 196   2.0000      -0.502128       -13.6636
 197   2.0000      -0.500411       -13.6169
 198   2.0000      -0.496475       -13.5098
 199   2.0000      -0.494723       -13.4621
 200   2.0000      -0.492858       -13.4113
 201   2.0000      -0.489773       -13.3274
 202   2.0000      -0.486478       -13.2377
 203   2.0000      -0.485791       -13.2190
 204   2.0000      -0.484469       -13.1831
 205   2.0000      -0.482343       -13.1252
 206   2.0000      -0.477558       -12.9950
 207   2.0000      -0.473389       -12.8816
 208   2.0000      -0.470722       -12.8090
 209   2.0000      -0.469884       -12.7862
 210   2.0000      -0.468634       -12.7522
 211   2.0000      -0.464647       -12.6437
 212   2.0000      -0.460077       -12.5193
 213   2.0000      -0.458501       -12.4764
 214   2.0000      -0.452916       -12.3245
 215   2.0000      -0.451018       -12.2728
 216   2.0000      -0.449588       -12.2339
 217   2.0000      -0.446369       -12.1463
 218   2.0000      -0.441613       -12.0169
 219   2.0000      -0.439379       -11.9561
 220   2.0000      -0.438682       -11.9371
 221   2.0000      -0.434847       -11.8328
 222   2.0000      -0.433149       -11.7866
 223   2.0000      -0.431690       -11.7469
 224   2.0000      -0.425601       -11.5812
 225   2.0000      -0.425196       -11.5702
 226   2.0000      -0.421965       -11.4822
 227   2.0000      -0.419262       -11.4087
 228   2.0000      -0.418662       -11.3924
 229   2.0000      -0.416157       -11.3242
 230   2.0000      -0.410671       -11.1749
 231   2.0000      -0.409311       -11.1379
 232   2.0000      -0.406290       -11.0557
 233   2.0000      -0.404266       -11.0006
 234   2.0000      -0.402387       -10.9495
 235   2.0000      -0.396997       -10.8028
 236   2.0000      -0.390243       -10.6191
 237   2.0000      -0.387616       -10.5476
 238   2.0000      -0.387346       -10.5402
 239   2.0000      -0.381053       -10.3690
 240   2.0000      -0.378014       -10.2863
 241   2.0000      -0.373720       -10.1695
 242   2.0000      -0.370358       -10.0780
 243   2.0000      -0.369682       -10.0596
 244   2.0000      -0.358038        -9.7427
 245   2.0000      -0.344081        -9.3629
 246   2.0000      -0.342718        -9.3258
 247   2.0000      -0.331530        -9.0214
 248   2.0000      -0.326704        -8.8901
 249   2.0000      -0.323844        -8.8122
 250   2.0000      -0.321452        -8.7471
 251   2.0000      -0.313270        -8.5245
 252   2.0000      -0.313023        -8.5178
 253   2.0000      -0.307429        -8.3656
 254   2.0000      -0.302305        -8.2261
 255   2.0000      -0.299239        -8.1427
 256   2.0000      -0.287781        -7.8309
 257   2.0000      -0.275929        -7.5084
 258   2.0000      -0.248112        -6.7515
 259   2.0000      -0.209777        -5.7083
 260   0.0000      -0.102740        -2.7957
 261   0.0000      -0.078246        -2.1292
 262   0.0000      -0.059611        -1.6221
 263   0.0000      -0.051146        -1.3918
 264   0.0000      -0.025657        -0.6982

MULLIKEN ATOMIC CHARGES
-----------------------
   0 C :    0.314864
   1 C :   -0.377544
   2 C :   -0.189103
   3 N :    0.139656
   4 C :   -0.169009
   5 N :    0.126300
   6 C :    0.014086
   7 C :   -0.002523
   8 C :   -0.079658
   9 C :    0.121232
  10 C :   -0.094527
  11 C :   -0.023183
  12 S :    0.181128
  13 C :   -0.123157
  14 C :    0.036141
  15 Br:    0.017634
  16 C :    0.121340
  17 O :   -0.138317
  18 C :   -0.070388
  19 C :   -0.060863
  20 C :    0.153305
  21 C :    0.206034
  22 O :   -0.243815
  23 C :    0.207861
  24 C :    0.230035
  25 C :   -0.164829
  26 S :    0.114030
  27 C :   -0.168834
  28 O :   -0.225698
  29 C :   -0.110052
  30 C :    0.087089
  31 C :   -0.120393
  32 S :    0.118181
  33 C :   -0.123044
  34 C :   -0.058878
  35 C :   -0.075267
  36 C :    0.108137
  37 C :    0.051671
  38 C :   -0.132313
  39 C :    0.156617
  40 O :   -0.176127
  41 C :    0.150702
  42 C :   -0.016371
  43 C :   -0.008600
  44 C :    0.021914
  45 C :    0.038848
  46 C :   -0.041593
  47 S :    0.069927
  48 C :   -0.035480
  49 C :    0.027922
  50 C :    0.040126
  51 C :   -0.030318
  52 S :    0.076876
  53 C :   -0.004802
  54 C :   -0.197100
  55 S :    0.162969
  56 C :   -0.127080
  57 C :    0.121160
  58 C :    0.193842
  59 O :   -0.182424
  60 C :    0.230988
  61 N :    0.273784
  62 O :   -0.250421
  63 O :   -0.231022
  64 C :   -0.066580
  65 H :   -0.015032
  66 H :   -0.009445
  67 H :   -0.005421
  68 H :   -0.009817
  69 H :    0.032407
  70 H :    0.025325
  71 H :   -0.000353
  72 H :    0.002350
  73 H :    0.028635
  74 H :    0.043228
  75 H :    0.009323
  76 H :    0.014854
  77 H :    0.020356
  78 H :   -0.005338
  79 H :    0.044221
  80 H :    0.027767
  81 H :   -0.012170
  82 H :   -0.010004
  83 H :   -0.010889
  84 H :   -0.012264
  85 H :   -0.007408
  86 H :    0.005568
  87 H :    0.036412
  88 H :    0.012607
Sum of atomic charges:   -0.0000000

LOEWDIN ATOMIC CHARGES
----------------------
   0 C :    0.082226
   1 C :   -0.166259
   2 C :   -0.020329
   3 N :   -0.067216
   4 C :   -0.002644
   5 N :   -0.076352
   6 C :   -0.022841
   7 C :   -0.045220
   8 C :    0.015958
   9 C :   -0.033134
  10 C :   -0.146976
  11 C :   -0.011564
  12 S :    0.427741
  13 C :   -0.273193
  14 C :   -0.071160
  15 Br:    0.132184
  16 C :    0.072029
  17 O :   -0.140337
  18 C :   -0.102945
  19 C :    0.039408
  20 C :   -0.000829
  21 C :    0.088917
  22 O :   -0.033051
  23 C :   -0.013890
  24 C :   -0.004642
  25 C :   -0.202477
  26 S :    0.442070
  27 C :   -0.206823
  28 O :   -0.032592
  29 C :   -0.072566
  30 C :    0.006597
  31 C :   -0.186264
  32 S :    0.433114
  33 C :   -0.150762
  34 C :   -0.058730
  35 C :   -0.028324
  36 C :   -0.026827
  37 C :   -0.010979
  38 C :   -0.070459
  39 C :    0.120427
  40 O :   -0.126468
  41 C :   -0.033521
  42 C :   -0.091575
  43 C :   -0.141030
  44 C :   -0.034409
  45 C :   -0.029280
  46 C :   -0.183780
  47 S :    0.415701
  48 C :   -0.171530
  49 C :   -0.037890
  50 C :   -0.024493
  51 C :   -0.155710
  52 S :    0.376062
  53 C :   -0.061184
  54 C :   -0.207659
  55 S :    0.490027
  56 C :   -0.185130
  57 C :   -0.086016
  58 C :    0.021735
  59 O :    0.001974
  60 C :    0.023611
  61 N :    0.271895
  62 O :   -0.211160
  63 O :   -0.193102
  64 C :   -0.007406
  65 H :    0.038733
  66 H :    0.039853
  67 H :    0.037863
  68 H :    0.041380
  69 H :    0.033448
  70 H :    0.029515
  71 H :    0.035349
  72 H :    0.033341
  73 H :    0.036858
  74 H :    0.035574
  75 H :    0.025283
  76 H :    0.029255
  77 H :    0.038255
  78 H :   -0.005550
  79 H :    0.026494
  80 H :    0.030820
  81 H :    0.033573
  82 H :    0.033252
  83 H :    0.033132
  84 H :    0.032593
  85 H :    0.035565
  86 H :    0.046640
  87 H :    0.030665
  88 H :    0.047154

  Mayer bond orders larger than 0.100000
B(  0-C ,  1-C ) :   1.5598 B(  0-C ,  6-C ) :   0.9966 B(  0-C , 18-C ) :   1.1313
B(  1-C ,  2-C ) :   1.1492 B(  1-C ,  4-C ) :   1.1601 B(  2-C ,  3-N ) :   2.9664
B(  4-C ,  5-N ) :   2.9329 B(  6-C ,  7-C ) :   1.2774 B(  6-C , 11-C ) :   1.4103
B(  7-C ,  8-C ) :   1.4356 B(  7-C , 16-C ) :   0.9186 B(  8-C ,  9-C ) :   1.2376
B(  8-C , 65-H ) :   1.0165 B(  9-C , 10-C ) :   1.3142 B(  9-C , 14-C ) :   1.1618
B( 10-C , 11-C ) :   1.3295 B( 10-C , 12-S ) :   1.0816 B( 11-C , 66-H ) :   0.9798
B( 12-S , 13-C ) :   1.0872 B( 13-C , 14-C ) :   1.6184 B( 13-C , 15-Br) :   1.0151
B( 14-C , 67-H ) :   1.0006 B( 16-C , 17-O ) :   2.2684 B( 16-C , 18-C ) :   0.9311
B( 18-C , 19-C ) :   1.4790 B( 19-C , 20-C ) :   1.3054 B( 19-C , 68-H ) :   0.9176
B( 20-C , 21-C ) :   1.2959 B( 20-C , 28-O ) :   1.0847 B( 21-C , 22-O ) :   1.1136
B( 21-C , 29-C ) :   1.2515 B( 22-O , 23-C ) :   1.0179 B( 23-C , 24-C ) :   1.2086
B( 23-C , 27-C ) :   1.5671 B( 24-C , 25-C ) :   1.5750 B( 24-C , 28-O ) :   1.0588
B( 25-C , 26-S ) :   1.1380 B( 25-C , 69-H ) :   0.9693 B( 26-S , 27-C ) :   1.1515
B( 27-C , 70-H ) :   0.9735 B( 29-C , 30-C ) :   1.5585 B( 29-C , 71-H ) :   0.9392
B( 30-C , 31-C ) :   1.1913 B( 30-C , 72-H ) :   0.9501 B( 31-C , 32-S ) :   1.0952
B( 31-C , 35-C ) :   1.4096 B( 32-S , 33-C ) :   1.1365 B( 33-C , 34-C ) :   1.4121
B( 33-C , 42-C ) :   1.1636 B( 34-C , 35-C ) :   1.3903 B( 34-C , 41-C ) :   1.0402
B( 35-C , 36-C ) :   1.0344 B( 36-C , 37-C ) :   1.0979 B( 36-C , 73-H ) :   0.9141
B( 36-C , 74-H ) :   0.8951 B( 37-C , 38-C ) :   1.0340 B( 37-C , 75-H ) :   0.9357
B( 37-C , 76-H ) :   0.9256 B( 38-C , 39-C ) :   0.9286 B( 38-C , 41-C ) :   1.0237
B( 38-C , 77-H ) :   0.9034 B( 39-C , 40-O ) :   2.2083 B( 39-C , 78-H ) :   0.9541
B( 41-C , 79-H ) :   0.8907 B( 41-C , 80-H ) :   0.9204 B( 42-C , 43-C ) :   1.5944
B( 42-C , 81-H ) :   0.9346 B( 43-C , 44-C ) :   1.1475 B( 43-C , 47-S ) :   1.0380
B( 44-C , 45-C ) :   1.5842 B( 44-C , 82-H ) :   0.9995 B( 45-C , 46-C ) :   1.1894
B( 45-C , 83-H ) :   0.9930 B( 46-C , 47-S ) :   1.0414 B( 46-C , 48-C ) :   1.5015
B( 48-C , 49-C ) :   1.1854 B( 48-C , 52-S ) :   1.0519 B( 49-C , 50-C ) :   1.5929
B( 49-C , 84-H ) :   0.9927 B( 50-C , 51-C ) :   1.1397 B( 50-C , 85-H ) :   1.0004
B( 51-C , 52-S ) :   1.0327 B( 51-C , 53-C ) :   1.5688 B( 53-C , 54-C ) :   1.1757
B( 53-C , 86-H ) :   0.9744 B( 54-C , 55-S ) :   1.1064 B( 54-C , 56-C ) :   0.1073
B( 54-C , 58-C ) :   1.4375 B( 55-S , 56-C ) :   1.2022 B( 56-C , 57-C ) :   1.4084
B( 56-C , 87-H ) :   0.9762 B( 57-C , 58-C ) :   1.2322 B( 57-C , 64-C ) :   1.0624
B( 58-C , 59-O ) :   1.1273 B( 59-O , 60-C ) :   1.1202 B( 60-C , 61-N ) :   0.9175
B( 60-C , 64-C ) :   1.5775 B( 61-N , 62-O ) :   1.5326 B( 61-N , 63-O ) :   1.5141
B( 62-O , 63-O ) :   0.2793 B( 64-C , 88-H ) :   1.0245

-----------------------------------------------------------------------------
         ABSORPTION SPECTRUM VIA TRANSITION ELECTRIC DIPOLE MOMENTS
-----------------------------------------------------------------------------
State   Energy  Wavelength   fosc         T2         TX        TY        TZ
        (cm-1)    (nm)                  (au**2)     (au)      (au)      (au)
-----------------------------------------------------------------------------
   0   10542.2    948.6   1.367351048  42.69979  -0.30682  -6.34092  -1.54865
   1   16533.5    604.8   0.798106213  15.89171   1.61834   1.78232  -3.17742
   2   17864.6    559.8   0.284008599   5.23377   1.14216  -0.01605  -1.98217
   3   19849.7    503.8   0.169537435   2.81181  -0.25256  -1.64570  -0.19927
   4   22194.1    450.6   0.018608894   0.27603  -0.17713  -0.14438   0.47308
   5   23294.5    429.3   0.292878389   4.13914   0.15445   1.38680   1.48056
   6   24908.0    401.5   0.024331607   0.32159  -0.26789   0.14048   0.47968
   7   26096.6    383.2   0.124172397   1.56645  -0.45480  -0.32899   1.11865
   8   26624.7    375.6   0.326793355   4.04077   0.09741   1.48625   1.34995
   9   27182.7    367.9   0.020341173   0.24635   0.40812  -0.01659   0.28199
  10   28117.5    355.7   0.022854068   0.26759  -0.22890  -0.33096   0.32505
  11   28643.0    349.1   0.118493471   1.36192  -0.68108   0.27789   0.90599
  12   28891.9    346.1   0.067872500   0.77338   0.28272  -0.34713  -0.75693
  13   29466.3    339.4   0.035748302   0.39940  -0.02569   0.56494   0.28210
  14   30314.8    329.9   0.028520202   0.30972   0.30149   0.00854  -0.46771
  15   30510.7    327.8   0.000170436   0.00184   0.00113  -0.04282   0.00194
  16   30834.3    324.3   0.031048089   0.33149   0.26482  -0.22703  -0.45806
  17   31242.4    320.1   0.126020026   1.32791   0.26184   1.07321  -0.32798
  18   31789.7    314.6   0.071417064   0.73959   0.45334   0.10929  -0.72258
  19   31907.3    313.4   0.172447628   1.77927   0.64048  -0.06090  -1.16848
  20   32281.2    309.8   0.108300683   1.10448  -0.03318  -0.94030  -0.46820
  21   33173.3    301.4   0.089230713   0.88553   0.01794  -0.68950  -0.64015
  22   33244.3    300.8   0.439862651   4.35588   0.26046  -1.85222  -0.92592
  23   33690.6    296.8   0.005055303   0.04940   0.03927  -0.01730  -0.21807
  24   34629.2    288.8   0.098373149   0.93521  -0.52940  -0.71273   0.38336
  25   34774.0    287.6   0.032811190   0.31063  -0.18289  -0.52591  -0.02440
  26   35266.5    283.6   0.046669308   0.43566  -0.10662   0.53329   0.37402
  27   35478.7    281.9   0.056946651   0.52842  -0.21694  -0.63207   0.28608
  28   36063.9    277.3   0.055103820   0.50302  -0.25257  -0.50711   0.42669
  29   36247.9    275.9   0.102451403   0.93049   0.27833   0.76606  -0.51592
  30   36486.7    274.1   0.081227150   0.73290   0.41706   0.67923  -0.31240
  31   36691.8    272.5   0.005110473   0.04585  -0.02668   0.21161   0.01899
  32   36919.1    270.9   0.048538114   0.43282   0.34846   0.55753  -0.02344
  33   37074.7    269.7   0.033512348   0.29758   0.27740   0.24001  -0.40376
  34   37259.6    268.4   0.073689365   0.65109  -0.28841  -0.74337   0.12372
  35   38307.9    261.0   0.436196106   3.74860   0.63580   1.68094  -0.72029
  36   38452.4    260.1   0.012587587   0.10777  -0.16904  -0.27075   0.07675
  37   38649.0    258.7   0.046574255   0.39672  -0.21979   0.39959   0.43444
  38   38724.7    258.2   0.025958294   0.22068  -0.15182  -0.44362  -0.02889
  39   39028.5    256.2   0.029047261   0.24502  -0.05941  -0.49077  -0.02517
  40   39406.0    253.8   0.089489902   0.74763   0.20849  -0.63911  -0.54379
  41   39555.3    252.8   0.020626869   0.17167   0.22584   0.09660  -0.33368
  42   39998.2    250.0   0.039362127   0.32398  -0.13202  -0.52694   0.16994

FINAL SINGLE POINT ENERGY     -7493.359211390787

DIPOLE MOMENT
-------------
                                X             Y             Z
Electronic contribution:     23.09633    -128.80720    -102.99426
Nuclear contribution   :    -24.60182     127.00818     105.27034
                        -----------------------------------------
Total Dipole Moment    :     -1.50549      -1.79903       2.27608
                        -----------------------------------------
Magnitude (a.u.)       :      3.26857
Magnitude (Debye)      :      8.30805

Rotational constants in cm-1:     0.001147     0.000257     0.000212
Rotational constants in MHz :    34.395748     7.699838     6.358223

                             ****ORCA TERMINATED NORMALLY****
TOTAL RUN TIME: 0 days 0 hours 8 minutes 55 seconds 323 msec
