                         Program Version 4.2.0 -  RELEASE  -
|  1> # ORCA input file
|  2> # SCF done       -154.263596437525          0.000520812188
|  3> ! CAM-B3LYP def2-SVP def2/J RIJCOSX Grid4 TightSCF
|  4> %maxcore 5000
|  5> %tddft
|  6>     Mode sTDDFT
|  7>     Ethresh 5.0
|  8>     maxcore 5000
|  9> end
| 10>
| 11> %pal
| 12>   nprocs 6
| 13>   end
| 14> * xyz 0 1
| 15>    C       -6.92173        -3.01086        -5.17586
| 16>    C       -5.98196        -3.78279        -4.53959
| 17>    C       -5.94424        -5.19121        -4.60386
| 18>    N       -5.85140        -6.33564        -4.61899
| 19>    C       -4.95235        -3.31011        -3.69918
| 20>    N       -4.09835        -3.01933        -2.98749
| 21>    C       -8.04265        -3.53053        -5.95087
| 22>    C       -8.88871        -2.45031        -6.29577
| 23>    C      -10.04062        -2.61300        -7.02562
| 24>    C      -10.36862        -3.90653        -7.44525
| 25>    C       -9.51266        -4.97991        -7.10283
| 26>    C       -8.35173        -4.81513        -6.35727
| 27>    S      -10.09737        -6.49003        -7.73342
| 28>    C      -11.46586        -5.66996        -8.43712
| 29>    C      -11.48612        -4.33476        -8.21319
| 30>   Br      -12.73525        -6.65381        -9.40591
| 31>    C       -8.32194        -1.19123        -5.77019
| 32>    O       -8.83438        -0.09521        -5.86784
| 33>    C       -7.03502        -1.56366        -5.14494
| 34>    C       -6.02472        -0.73925        -4.71530
| 35>    C       -5.94288         0.65588        -4.59883
| 36>    S       -4.34746         1.29320        -4.15715
| 37>    C       -4.94615         2.88380        -4.18462
| 38>    C       -6.31703         2.92789        -4.50236
| 39>    C       -6.87558         1.68640        -4.73542
| 40>    C       -6.72026         4.34587        -4.47748
| 41>    O       -7.80146         4.84084        -4.67153
| 42>    C       -5.44425         5.09550        -4.13923
| 43>    C       -4.42544         4.18305        -3.97242
| 44>    C       -5.44796         6.49992        -4.04701
| 45>    C       -4.34033         7.26406        -3.81522
| 46>    C       -4.32047         8.66814        -3.72054
| 47>    S       -2.77043         9.47621        -3.49604
| 48>    C       -3.53427        11.00005        -3.48369
| 49>    C       -4.92243        10.89217        -3.63845
| 50>    C       -5.36792         9.58888        -3.77430
| 51>    C       -5.46836        12.26599        -3.59684
| 52>    O       -6.61409        12.63308        -3.67490
| 53>    C       -4.25233        13.15061        -3.42038
| 54>    C       -3.13472        12.35920        -3.35634
| 55>    C       -4.40631        14.55806        -3.34426
| 56>    C       -3.41207        15.46577        -3.22331
| 57>    C       -3.64408        16.89157        -3.14586
| 58>    C       -2.62716        17.77311        -3.05899
| 59>    C       -4.98833        17.32736        -3.16030
| 60>    C       -6.16092        17.62776        -3.16528
| 61>    C       -7.51548        17.95835        -3.17229
| 62>    C       -8.47741        17.01249        -3.25176
| 63>    C       -9.87665        17.31895        -3.25219
| 64>    C      -10.87722        16.39052        -3.32052
| 65>    O      -12.21478        16.73637        -3.31081
| 66>    C      -12.48014        18.06842        -3.23041
| 67>    C      -11.43896        19.03884        -3.16008
| 68>    C      -11.90626        20.30850        -3.08555
| 69>    S      -13.63173        20.34116        -3.09995
| 70>    C      -13.71747        18.62172        -3.20789
| 71>    O      -10.12609        18.68310        -3.16932
| 72>    C      -10.67235        14.96163        -3.40788
| 73>    C      -11.67349        14.08322        -3.45160
| 74>    H      -10.66643        -1.76864        -7.26866
| 75>    H       -7.73143        -5.66471        -6.12626
| 76>    H      -12.25509        -3.67688        -8.57493
| 77>    H       -5.10273        -1.23781        -4.43809
| 78>    H       -7.90153         1.50372        -5.00010
| 79>    H       -3.40315         4.39615        -3.72042
| 80>    H       -6.41227         6.96837        -4.18918
| 81>    H       -3.38394         6.77135        -3.70186
| 82>    H       -6.39552         9.30341        -3.90239
| 83>    H       -2.11935        12.68666        -3.22984
| 84>    H       -5.43050        14.90693        -3.39542
| 85>    H       -2.37927        15.14840        -3.18220
| 86>    H       -1.60238        17.44385        -3.04643
| 87>    H       -2.80521        18.83249        -3.00206
| 88>    H       -7.77301        19.00618        -3.10725
| 89>    H       -8.19320        15.97498        -3.31596
| 90>    H      -11.34532        21.21722        -3.02365
| 91>    H      -14.66424        18.12555        -3.24797
| 92>    H       -9.65247        14.61541        -3.43922
| 93>    H      -12.70247        14.39649        -3.42270
| 94>    H      -11.48260        13.02725        -3.51806
| 95> *
| 96>
| 97>                          ****END OF INPUT****

CARTESIAN COORDINATES (ANGSTROEM)
---------------------------------
  C     -6.921730   -3.010860   -5.175860
  C     -5.981960   -3.782790   -4.539590
  C     -5.944240   -5.191210   -4.603860
  N     -5.851400   -6.335640   -4.618990
  C     -4.952350   -3.310110   -3.699180
  N     -4.098350   -3.019330   -2.987490
  C     -8.042650   -3.530530   -5.950870
  C     -8.888710   -2.450310   -6.295770
  C    -10.040620   -2.613000   -7.025620
  C    -10.368620   -3.906530   -7.445250
  C     -9.512660   -4.979910   -7.102830
  C     -8.351730   -4.815130   -6.357270
  S    -10.097370   -6.490030   -7.733420
  C    -11.465860   -5.669960   -8.437120
  C    -11.486120   -4.334760   -8.213190
  Br   -12.735250   -6.653810   -9.405910
  C     -8.321940   -1.191230   -5.770190
  O     -8.834380   -0.095210   -5.867840
  C     -7.035020   -1.563660   -5.144940
  C     -6.024720   -0.739250   -4.715300
  C     -5.942880    0.655880   -4.598830
  S     -4.347460    1.293200   -4.157150
  C     -4.946150    2.883800   -4.184620
  C     -6.317030    2.927890   -4.502360
  C     -6.875580    1.686400   -4.735420
  C     -6.720260    4.345870   -4.477480
  O     -7.801460    4.840840   -4.671530
  C     -5.444250    5.095500   -4.139230
  C     -4.425440    4.183050   -3.972420
  C     -5.447960    6.499920   -4.047010
  C     -4.340330    7.264060   -3.815220
  C     -4.320470    8.668140   -3.720540
  S     -2.770430    9.476210   -3.496040
  C     -3.534270   11.000050   -3.483690
  C     -4.922430   10.892170   -3.638450
  C     -5.367920    9.588880   -3.774300
  C     -5.468360   12.265990   -3.596840
  O     -6.614090   12.633080   -3.674900
  C     -4.252330   13.150610   -3.420380
  C     -3.134720   12.359200   -3.356340
  C     -4.406310   14.558060   -3.344260
  C     -3.412070   15.465770   -3.223310
  C     -3.644080   16.891570   -3.145860
  C     -2.627160   17.773110   -3.058990
  C     -4.988330   17.327360   -3.160300
  C     -6.160920   17.627760   -3.165280
  C     -7.515480   17.958350   -3.172290
  C     -8.477410   17.012490   -3.251760
  C     -9.876650   17.318950   -3.252190
  C    -10.877220   16.390520   -3.320520
  O    -12.214780   16.736370   -3.310810
  C    -12.480140   18.068420   -3.230410
  C    -11.438960   19.038840   -3.160080
  C    -11.906260   20.308500   -3.085550
  S    -13.631730   20.341160   -3.099950
  C    -13.717470   18.621720   -3.207890
  O    -10.126090   18.683100   -3.169320
  C    -10.672350   14.961630   -3.407880
  C    -11.673490   14.083220   -3.451600
  H    -10.666430   -1.768640   -7.268660
  H     -7.731430   -5.664710   -6.126260
  H    -12.255090   -3.676880   -8.574930
  H     -5.102730   -1.237810   -4.438090
  H     -7.901530    1.503720   -5.000100
  H     -3.403150    4.396150   -3.720420
  H     -6.412270    6.968370   -4.189180
  H     -3.383940    6.771350   -3.701860
  H     -6.395520    9.303410   -3.902390
  H     -2.119350   12.686660   -3.229840
  H     -5.430500   14.906930   -3.395420
  H     -2.379270   15.148400   -3.182200
  H     -1.602380   17.443850   -3.046430
  H     -2.805210   18.832490   -3.002060
  H     -7.773010   19.006180   -3.107250
  H     -8.193200   15.974980   -3.315960
  H    -11.345320   21.217220   -3.023650
  H    -14.664240   18.125550   -3.247970
  H     -9.652470   14.615410   -3.439220
  H    -12.702470   14.396490   -3.422700
  H    -11.482600   13.027250   -3.518060

 Total Charge           Charge          ....    0
 Multiplicity           Mult            ....    1
 Number of Electrons    NEL             ....  456
 Basis Dimension        Dim             ....  965

ORBITAL ENERGIES
----------------

  NO   OCC          E(Eh)            E(eV)
   0   2.0000    -482.882463    -13139.8998
   1   2.0000     -88.987916     -2421.4843
   2   2.0000     -88.984209     -2421.3834
   3   2.0000     -88.971619     -2421.0408
   4   2.0000     -88.953529     -2420.5486
   5   2.0000     -62.560157     -1702.3484
   6   2.0000     -56.394103     -1534.5616
   7   2.0000     -56.391396     -1534.4879
   8   2.0000     -56.391362     -1534.4870
   9   2.0000     -19.271346      -524.4000
  10   2.0000     -19.269068      -524.3380
  11   2.0000     -19.238346      -523.5020
  12   2.0000     -19.234136      -523.3875
  13   2.0000     -19.213395      -522.8230
  14   2.0000     -14.410749      -392.1364
  15   2.0000     -14.408237      -392.0681
  16   2.0000     -10.378901      -282.4243
  17   2.0000     -10.376431      -282.3570
  18   2.0000     -10.364436      -282.0307
  19   2.0000     -10.355099      -281.7766
  20   2.0000     -10.344450      -281.4868
  21   2.0000     -10.341159      -281.3972
  22   2.0000     -10.336507      -281.2707
  23   2.0000     -10.336248      -281.2636
  24   2.0000     -10.335787      -281.2511
  25   2.0000     -10.334329      -281.2114
  26   2.0000     -10.332071      -281.1499
  27   2.0000     -10.326722      -281.0044
  28   2.0000     -10.321925      -280.8739
  29   2.0000     -10.321036      -280.8497
  30   2.0000     -10.320339      -280.8307
  31   2.0000     -10.317722      -280.7595
  32   2.0000     -10.314198      -280.6636
  33   2.0000     -10.311874      -280.6004
  34   2.0000     -10.309844      -280.5451
  35   2.0000     -10.309063      -280.5239
  36   2.0000     -10.306349      -280.4500
  37   2.0000     -10.304728      -280.4059
  38   2.0000     -10.303948      -280.3847
  39   2.0000     -10.303073      -280.3609
  40   2.0000     -10.302632      -280.3489
  41   2.0000     -10.302153      -280.3358
  42   2.0000     -10.300578      -280.2930
  43   2.0000     -10.298044      -280.2240
  44   2.0000     -10.297789      -280.2171
  45   2.0000     -10.296113      -280.1715
  46   2.0000     -10.292959      -280.0857
  47   2.0000     -10.292386      -280.0701
  48   2.0000     -10.290516      -280.0192
  49   2.0000     -10.290312      -280.0136
  50   2.0000     -10.289702      -279.9970
  51   2.0000     -10.289518      -279.9920
  52   2.0000     -10.287881      -279.9475
  53   2.0000     -10.287326      -279.9324
  54   2.0000     -10.287066      -279.9253
  55   2.0000     -10.285647      -279.8867
  56   2.0000     -10.283518      -279.8288
  57   2.0000     -10.281103      -279.7630
  58   2.0000     -10.279262      -279.7129
  59   2.0000     -10.277453      -279.6637
  60   2.0000     -10.269178      -279.4386
  61   2.0000     -10.264798      -279.3193
  62   2.0000     -10.264528      -279.3120
  63   2.0000      -8.789577      -239.1765
  64   2.0000      -8.083025      -219.9503
  65   2.0000      -8.079371      -219.8509
  66   2.0000      -8.067568      -219.5297
  67   2.0000      -8.049269      -219.0318
  68   2.0000      -6.625845      -180.2984
  69   2.0000      -6.611324      -179.9033
  70   2.0000      -6.611131      -179.8980
  71   2.0000      -6.052023      -164.6839
  72   2.0000      -6.048331      -164.5835
  73   2.0000      -6.048071      -164.5764
  74   2.0000      -6.045631      -164.5100
  75   2.0000      -6.044368      -164.4756
  76   2.0000      -6.041981      -164.4107
  77   2.0000      -6.037255      -164.2821
  78   2.0000      -6.032994      -164.1661
  79   2.0000      -6.028799      -164.0520
  80   2.0000      -6.018795      -163.7797
  81   2.0000      -6.014638      -163.6666
  82   2.0000      -6.010934      -163.5658
  83   2.0000      -2.741749       -74.6068
  84   2.0000      -2.737638       -74.4949
  85   2.0000      -2.737491       -74.4909
  86   2.0000      -2.725955       -74.1770
  87   2.0000      -2.725932       -74.1764
  88   2.0000      -1.196326       -32.5537
  89   2.0000      -1.158984       -31.5376
  90   2.0000      -1.148024       -31.2393
  91   2.0000      -1.145030       -31.1579
  92   2.0000      -1.128253       -30.7013
  93   2.0000      -1.019063       -27.7301
  94   2.0000      -1.018578       -27.7169
  95   2.0000      -1.016708       -27.6660
  96   2.0000      -1.008409       -27.4402
  97   2.0000      -0.988511       -26.8988
  98   2.0000      -0.984662       -26.7940
  99   2.0000      -0.982169       -26.7262
 100   2.0000      -0.959629       -26.1128
 101   2.0000      -0.951991       -25.9050
 102   2.0000      -0.937063       -25.4988
 103   2.0000      -0.929940       -25.3050
 104   2.0000      -0.919134       -25.0109
 105   2.0000      -0.904711       -24.6184
 106   2.0000      -0.903435       -24.5837
 107   2.0000      -0.889963       -24.2171
 108   2.0000      -0.887454       -24.1488
 109   2.0000      -0.881126       -23.9766
 110   2.0000      -0.865739       -23.5579
 111   2.0000      -0.860980       -23.4284
 112   2.0000      -0.859382       -23.3850
 113   2.0000      -0.852029       -23.1849
 114   2.0000      -0.845545       -23.0085
 115   2.0000      -0.824919       -22.4472
 116   2.0000      -0.820474       -22.3262
 117   2.0000      -0.816430       -22.2162
 118   2.0000      -0.810544       -22.0560
 119   2.0000      -0.798091       -21.7171
 120   2.0000      -0.788858       -21.4659
 121   2.0000      -0.765028       -20.8175
 122   2.0000      -0.764987       -20.8164
 123   2.0000      -0.761755       -20.7284
 124   2.0000      -0.754963       -20.5436
 125   2.0000      -0.740360       -20.1462
 126   2.0000      -0.731963       -19.9177
 127   2.0000      -0.707551       -19.2534
 128   2.0000      -0.703036       -19.1306
 129   2.0000      -0.689466       -18.7613
 130   2.0000      -0.686297       -18.6751
 131   2.0000      -0.682641       -18.5756
 132   2.0000      -0.678465       -18.4620
 133   2.0000      -0.673503       -18.3269
 134   2.0000      -0.663359       -18.0509
 135   2.0000      -0.660091       -17.9620
 136   2.0000      -0.654228       -17.8025
 137   2.0000      -0.649361       -17.6700
 138   2.0000      -0.647103       -17.6086
 139   2.0000      -0.642311       -17.4782
 140   2.0000      -0.636296       -17.3145
 141   2.0000      -0.628606       -17.1053
 142   2.0000      -0.619483       -16.8570
 143   2.0000      -0.612699       -16.6724
 144   2.0000      -0.594864       -16.1871
 145   2.0000      -0.589456       -16.0399
 146   2.0000      -0.585837       -15.9414
 147   2.0000      -0.582020       -15.8376
 148   2.0000      -0.581250       -15.8166
 149   2.0000      -0.577929       -15.7262
 150   2.0000      -0.577314       -15.7095
 151   2.0000      -0.568438       -15.4680
 152   2.0000      -0.565275       -15.3819
 153   2.0000      -0.563004       -15.3201
 154   2.0000      -0.561680       -15.2841
 155   2.0000      -0.548367       -14.9218
 156   2.0000      -0.544560       -14.8182
 157   2.0000      -0.539684       -14.6855
 158   2.0000      -0.538514       -14.6537
 159   2.0000      -0.537725       -14.6322
 160   2.0000      -0.536005       -14.5854
 161   2.0000      -0.532791       -14.4980
 162   2.0000      -0.529872       -14.4186
 163   2.0000      -0.528716       -14.3871
 164   2.0000      -0.525399       -14.2968
 165   2.0000      -0.521550       -14.1921
 166   2.0000      -0.516937       -14.0666
 167   2.0000      -0.512869       -13.9559
 168   2.0000      -0.510027       -13.8785
 169   2.0000      -0.505292       -13.7497
 170   2.0000      -0.505039       -13.7428
 171   2.0000      -0.502392       -13.6708
 172   2.0000      -0.497013       -13.5244
 173   2.0000      -0.495980       -13.4963
 174   2.0000      -0.495585       -13.4856
 175   2.0000      -0.490501       -13.3472
 176   2.0000      -0.489407       -13.3174
 177   2.0000      -0.487719       -13.2715
 178   2.0000      -0.484453       -13.1826
 179   2.0000      -0.480095       -13.0640
 180   2.0000      -0.477770       -13.0008
 181   2.0000      -0.476913       -12.9775
 182   2.0000      -0.471816       -12.8388
 183   2.0000      -0.469443       -12.7742
 184   2.0000      -0.468903       -12.7595
 185   2.0000      -0.467212       -12.7135
 186   2.0000      -0.463913       -12.6237
 187   2.0000      -0.457975       -12.4621
 188   2.0000      -0.453385       -12.3372
 189   2.0000      -0.453326       -12.3356
 190   2.0000      -0.446443       -12.1483
 191   2.0000      -0.443855       -12.0779
 192   2.0000      -0.443735       -12.0746
 193   2.0000      -0.443535       -12.0692
 194   2.0000      -0.441453       -12.0126
 195   2.0000      -0.437611       -11.9080
 196   2.0000      -0.436496       -11.8777
 197   2.0000      -0.435499       -11.8505
 198   2.0000      -0.434030       -11.8106
 199   2.0000      -0.428370       -11.6566
 200   2.0000      -0.423446       -11.5226
 201   2.0000      -0.420897       -11.4532
 202   2.0000      -0.417479       -11.3602
 203   2.0000      -0.414933       -11.2909
 204   2.0000      -0.412478       -11.2241
 205   2.0000      -0.402503       -10.9527
 206   2.0000      -0.401962       -10.9379
 207   2.0000      -0.390188       -10.6176
 208   2.0000      -0.382629       -10.4119
 209   2.0000      -0.378386       -10.2964
 210   2.0000      -0.371863       -10.1189
 211   2.0000      -0.365653        -9.9499
 212   2.0000      -0.350602        -9.5404
 213   2.0000      -0.350235        -9.5304
 214   2.0000      -0.348069        -9.4714
 215   2.0000      -0.346734        -9.4351
 216   2.0000      -0.345885        -9.4120
 217   2.0000      -0.339322        -9.2334
 218   2.0000      -0.335530        -9.1302
 219   2.0000      -0.330665        -8.9978
 220   2.0000      -0.314685        -8.5630
 221   2.0000      -0.311438        -8.4746
 222   2.0000      -0.299673        -8.1545
 223   2.0000      -0.290909        -7.9160
 224   2.0000      -0.288213        -7.8427
 225   2.0000      -0.275887        -7.5073
 226   2.0000      -0.244375        -6.6498
 227   2.0000      -0.239318        -6.5122
 228   0.0000      -0.109856        -2.9893
 229   0.0000      -0.085479        -2.3260
 230   0.0000      -0.073500        -2.0000
 231   0.0000      -0.051683        -1.4064
 232   0.0000      -0.039635        -1.0785

MULLIKEN ATOMIC CHARGES
-----------------------
   0 C :    0.303548
   1 C :   -0.357143
   2 C :   -0.185215
   3 N :    0.144575
   4 C :   -0.197165
   5 N :    0.148706
   6 C :    0.013684
   7 C :   -0.009018
   8 C :   -0.075253
   9 C :    0.118376
  10 C :   -0.093576
  11 C :   -0.019741
  12 S :    0.184219
  13 C :   -0.122533
  14 C :    0.038835
  15 Br:    0.020654
  16 C :    0.155986
  17 O :   -0.162661
  18 C :   -0.098371
  19 C :    0.045180
  20 C :   -0.140748
  21 S :    0.185734
  22 C :   -0.019007
  23 C :   -0.023156
  24 C :    0.025419
  25 C :    0.166198
  26 O :   -0.103846
  27 C :   -0.021908
  28 C :   -0.045631
  29 C :   -0.008974
  30 C :    0.077262
  31 C :   -0.106095
  32 S :    0.175228
  33 C :   -0.051364
  34 C :   -0.006860
  35 C :    0.005123
  36 C :    0.161368
  37 O :   -0.112915
  38 C :   -0.019082
  39 C :   -0.031039
  40 C :    0.039703
  41 C :    0.007214
  42 C :   -0.007436
  43 C :   -0.012875
  44 C :   -0.003437
  45 C :    0.001661
  46 C :   -0.061209
  47 C :   -0.046185
  48 C :    0.167453
  49 C :    0.150020
  50 O :   -0.254217
  51 C :    0.216801
  52 C :    0.227941
  53 C :   -0.176574
  54 S :    0.105492
  55 C :   -0.174147
  56 O :   -0.267072
  57 C :   -0.058238
  58 C :    0.011267
  59 H :   -0.011366
  60 H :   -0.006662
  61 H :   -0.003726
  62 H :    0.009964
  63 H :    0.028019
  64 H :   -0.007736
  65 H :   -0.000040
  66 H :   -0.016211
  67 H :    0.005969
  68 H :   -0.006429
  69 H :    0.004433
  70 H :   -0.029568
  71 H :    0.017661
  72 H :    0.031921
  73 H :    0.033990
  74 H :    0.017288
  75 H :    0.022711
  76 H :    0.023263
  77 H :    0.005262
  78 H :    0.031264
  79 H :    0.025038
Sum of atomic charges:    0.0000000

LOEWDIN ATOMIC CHARGES
----------------------
   0 C :    0.077854
   1 C :   -0.150070
   2 C :   -0.018451
   3 N :   -0.059547
   4 C :   -0.025308
   5 N :   -0.058283
   6 C :   -0.020945
   7 C :   -0.049254
   8 C :    0.020315
   9 C :   -0.033513
  10 C :   -0.144568
  11 C :   -0.010719
  12 S :    0.430867
  13 C :   -0.272434
  14 C :   -0.070534
  15 Br:    0.134600
  16 C :    0.086605
  17 O :   -0.147339
  18 C :   -0.108066
  19 C :    0.042190
  20 C :   -0.185311
  21 S :    0.484316
  22 C :   -0.137508
  23 C :   -0.118462
  24 C :    0.031526
  25 C :    0.098210
  26 O :   -0.096563
  27 C :   -0.029586
  28 C :   -0.029776
  29 C :   -0.032728
  30 C :   -0.007321
  31 C :   -0.177048
  32 S :    0.471616
  33 C :   -0.162154
  34 C :   -0.106288
  35 C :   -0.001212
  36 C :    0.102490
  37 O :   -0.103588
  38 C :   -0.046335
  39 C :   -0.005189
  40 C :   -0.022815
  41 C :    0.013249
  42 C :   -0.042524
  43 C :   -0.009646
  44 C :   -0.035799
  45 C :   -0.026717
  46 C :   -0.041257
  47 C :   -0.007050
  48 C :    0.019426
  49 C :    0.035670
  50 O :   -0.050001
  51 C :   -0.007867
  52 C :   -0.006685
  53 C :   -0.212123
  54 S :    0.432050
  55 C :   -0.210354
  56 O :   -0.059690
  57 C :   -0.040185
  58 C :   -0.024145
  59 H :    0.040434
  60 H :    0.040789
  61 H :    0.038630
  62 H :    0.042307
  63 H :    0.043740
  64 H :    0.029447
  65 H :    0.034417
  66 H :    0.028434
  67 H :    0.042300
  68 H :    0.031435
  69 H :    0.037800
  70 H :    0.026147
  71 H :    0.023593
  72 H :    0.031593
  73 H :    0.043581
  74 H :    0.040175
  75 H :    0.028324
  76 H :    0.028594
  77 H :    0.037590
  78 H :    0.026359
  79 H :    0.028284

  Mayer bond orders larger than 0.100000
B(  0-C ,  1-C ) :   1.6115 B(  0-C ,  6-C ) :   0.9956 B(  0-C , 18-C ) :   1.0922
B(  1-C ,  2-C ) :   1.1456 B(  1-C ,  4-C ) :   1.1405 B(  2-C ,  3-N ) :   2.9690
B(  4-C ,  5-N ) :   2.9818 B(  6-C ,  7-C ) :   1.2774 B(  6-C , 11-C ) :   1.4126
B(  7-C ,  8-C ) :   1.4265 B(  7-C , 16-C ) :   0.9487 B(  8-C ,  9-C ) :   1.2414
B(  8-C , 59-H ) :   1.0166 B(  9-C , 10-C ) :   1.3096 B(  9-C , 14-C ) :   1.1634
B( 10-C , 11-C ) :   1.3281 B( 10-C , 12-S ) :   1.0851 B( 11-C , 60-H ) :   0.9795
B( 12-S , 13-C ) :   1.0859 B( 13-C , 14-C ) :   1.6194 B( 13-C , 15-Br) :   1.0168
B( 14-C , 61-H ) :   0.9996 B( 16-C , 17-O ) :   2.1622 B( 16-C , 18-C ) :   0.9506
B( 18-C , 19-C ) :   1.5577 B( 19-C , 20-C ) :   1.2594 B( 19-C , 62-H ) :   0.9118
B( 20-C , 21-S ) :   1.0696 B( 20-C , 24-C ) :   1.3694 B( 21-S , 22-C ) :   1.1862
B( 22-C , 23-C ) :   1.3686 B( 22-C , 28-C ) :   1.0958 B( 23-C , 24-C ) :   1.3389
B( 23-C , 25-C ) :   0.9233 B( 24-C , 63-H ) :   0.9843 B( 25-C , 26-O ) :   2.2760
B( 25-C , 27-C ) :   0.9077 B( 27-C , 28-C ) :   1.5666 B( 27-C , 29-C ) :   1.1870
B( 28-C , 64-H ) :   1.0139 B( 29-C , 30-C ) :   1.5920 B( 29-C , 65-H ) :   0.9712
B( 30-C , 31-C ) :   1.1674 B( 30-C , 66-H ) :   0.9600 B( 31-C , 32-S ) :   1.0977
B( 31-C , 35-C ) :   1.4102 B( 32-S , 33-C ) :   1.1544 B( 33-C , 34-C ) :   1.4254
B( 33-C , 39-C ) :   1.0682 B( 34-C , 35-C ) :   1.3427 B( 34-C , 36-C ) :   0.9142
B( 35-C , 67-H ) :   1.0016 B( 36-C , 37-O ) :   2.2671 B( 36-C , 38-C ) :   0.9158
B( 38-C , 39-C ) :   1.6223 B( 38-C , 40-C ) :   1.1236 B( 39-C , 68-H ) :   1.0164
B( 40-C , 41-C ) :   1.6531 B( 40-C , 69-H ) :   0.9610 B( 41-C , 42-C ) :   1.0871
B( 41-C , 70-H ) :   0.9891 B( 42-C , 43-C ) :   1.8479 B( 42-C , 44-C ) :   0.8785
B( 43-C , 71-H ) :   0.9496 B( 43-C , 72-H ) :   0.9490 B( 44-C , 45-C ) :   2.3477
B( 45-C , 46-C ) :   0.9581 B( 46-C , 47-C ) :   1.7114 B( 46-C , 73-H ) :   0.9636
B( 47-C , 48-C ) :   1.1635 B( 47-C , 74-H ) :   0.9641 B( 48-C , 49-C ) :   1.5062
B( 48-C , 56-O ) :   1.0484 B( 49-C , 50-O ) :   1.0607 B( 49-C , 57-C ) :   1.1345
B( 50-O , 51-C ) :   1.0535 B( 51-C , 52-C ) :   1.2011 B( 51-C , 55-C ) :   1.5725
B( 52-C , 53-C ) :   1.5733 B( 52-C , 56-O ) :   1.0527 B( 53-C , 54-S ) :   1.1375
B( 53-C , 75-H ) :   0.9732 B( 54-S , 55-C ) :   1.1410 B( 55-C , 76-H ) :   0.9736
B( 57-C , 58-C ) :   1.9309 B( 57-C , 77-H ) :   0.9546 B( 58-C , 78-H ) :   0.9522
B( 58-C , 79-H ) :   0.9429

-----------------------------------------------------------------------------
         ABSORPTION SPECTRUM VIA TRANSITION ELECTRIC DIPOLE MOMENTS
-----------------------------------------------------------------------------
State   Energy  Wavelength   fosc         T2         TX        TY        TZ
        (cm-1)    (nm)                  (au**2)     (au)      (au)      (au)
-----------------------------------------------------------------------------
   0   13154.9    760.2   1.476186860  36.94264   1.06719   5.94233   0.70177
   1   16956.6    589.7   0.020345069   0.39500  -0.28162  -0.54102  -0.15162
   2   17980.2    556.2   0.003016810   0.05524  -0.23493  -0.00034  -0.00663
   3   21448.1    466.2   0.446035029   6.84629   0.33626   2.57629   0.30979
   4   22490.7    444.6   0.062443278   0.91403   0.65887   0.67205   0.16814
   5   23502.4    425.5   0.002580609   0.03615  -0.07195  -0.17540  -0.01433
   6   25886.0    386.3   0.000115903   0.00147  -0.01113  -0.00463   0.03645
   7   25993.7    384.7   0.053591093   0.67874  -0.22588  -0.78964  -0.06468
   8   26669.4    375.0   0.129472345   1.59823  -1.09814  -0.42393  -0.46110
   9   26714.5    374.3   0.056198824   0.69256   0.72759   0.29173   0.27939
  10   27630.0    361.9   0.078902764   0.94013  -0.14389  -0.52931  -0.79953
  11   28100.3    355.9   0.565929087   6.63021  -2.47812  -0.62104  -0.32164
  12   28655.5    349.0   0.082966146   0.95316  -0.59435  -0.77425   0.02114
  13   29204.5    342.4   0.017307364   0.19510   0.11398   0.42088   0.07049
  14   29746.3    336.2   0.048460430   0.53633  -0.35105  -0.59056  -0.25363
  15   30195.9    331.2   0.296461667   3.23218   0.62410   1.65716   0.31062
  16   30309.9    329.9   0.037654005   0.40898   0.04939   0.63668   0.03442
  17   31234.9    320.2   0.142296818   1.49979   0.17980   1.21135  -0.00962
  18   31525.5    317.2   0.017860713   0.18651   0.35828   0.23997  -0.02374
  19   32351.1    309.1   0.565096915   5.75056  -1.90785  -0.43579  -1.38592
  20   32686.8    305.9   0.039850757   0.40136   0.15738   0.60690   0.09096
  21   33076.3    302.3   0.003976749   0.03958   0.14376  -0.03241   0.13365
  22   33105.1    302.1   0.002536548   0.02522   0.07148  -0.12909   0.05875
  23   33758.7    296.2   0.006066272   0.05916  -0.21666   0.00296  -0.11048
  24   33983.6    294.3   0.117029526   1.13371  -0.24932   1.03479  -0.02761
  25   34010.3    294.0   0.010456620   0.10122  -0.19191  -0.09339  -0.23593
  26   34881.6    286.7   0.000186002   0.00176   0.01785  -0.03272  -0.01915
  27   35576.9    281.1   0.494412788   4.57507   1.60444  -1.41203   0.08368
  28   35636.1    280.6   0.021152833   0.19541   0.25268   0.28790   0.22063
  29   35919.1    278.4   0.102682144   0.94112  -0.95235  -0.06900  -0.17146
  30   36096.2    277.0   0.092254855   0.84140   0.60121   0.67035  -0.17487
  31   36456.7    274.3   0.073615828   0.66477   0.43553  -0.67825   0.12268
  32   36588.6    273.3   0.118946636   1.07024   0.86249  -0.13284   0.55561
  33   36744.2    272.2   0.025914219   0.23218   0.46341   0.12899   0.02808
  34   37061.3    269.8   0.005438927   0.04831  -0.02468  -0.15656  -0.15229
  35   37441.3    267.1   0.086359686   0.75934   0.86221  -0.03393   0.12161
  36   37826.4    264.4   0.015913137   0.13850   0.35942   0.06620   0.07020
  37   38114.0    262.4   0.026302051   0.22719  -0.46761   0.01458  -0.09118
  38   38319.8    261.0   0.080285121   0.68974   0.31248  -0.69290   0.33465
  39   38750.3    258.1   0.009840203   0.08360   0.03912   0.27863  -0.06661
  40   38799.9    257.7   0.002096500   0.01779   0.09795  -0.04147   0.08046
  41   39064.5    256.0   0.035455862   0.29880   0.51100   0.17109   0.09169
  42   39533.9    252.9   0.057459938   0.47849  -0.63705  -0.20500  -0.17500
  43   39625.8    252.4   0.036712321   0.30501   0.31275   0.42877   0.15279
  44   39733.7    251.7   0.018722097   0.15512  -0.22555   0.31958  -0.04598
  45   40108.5    249.3   0.274759329   2.25523  -0.34629  -1.42384  -0.32864
  46   40208.6    248.7   0.031080467   0.25447  -0.41952  -0.27192   0.06734

FINAL SINGLE POINT ENERGY     -6452.371821214347

DIPOLE MOMENT
-------------
                                X             Y             Z
Electronic contribution:    -55.35512    -197.73886     -57.51389
Nuclear contribution   :     56.23252     200.57419      56.92947
                        -----------------------------------------
Total Dipole Moment    :      0.87740       2.83533      -0.58441
                        -----------------------------------------
Magnitude (a.u.)       :      3.02498
Magnitude (Debye)      :      7.68888

Rotational constants in cm-1:     0.001471     0.000203     0.000181
Rotational constants in MHz :    44.103278     6.093344     5.419729

                             ****ORCA TERMINATED NORMALLY****
TOTAL RUN TIME: 0 days 0 hours 5 minutes 40 seconds 210 msec
