                         Program Version 4.2.0 -  RELEASE  -
|  1> # ORCA input file
|  2> # SCF done       -183.417261328665          0.000761669855
|  3> ! CAM-B3LYP def2-SVP def2/J RIJCOSX Grid4 TightSCF
|  4> %maxcore 5000
|  5> %tddft
|  6>     Mode sTDDFT
|  7>     Ethresh 5.0
|  8>     maxcore 5000
|  9> end
| 10>
| 11> %pal
| 12>   nprocs 6
| 13>   end
| 14> * xyz 0 1
| 15>    C       -0.92865         0.39384        -2.15892
| 16>    C       -0.86876        -0.10819        -3.43443
| 17>    C        0.11917        -1.00819        -3.88292
| 18>    N        0.90348        -1.73427        -4.30185
| 19>    C       -1.80956         0.17551        -4.44629
| 20>    N       -2.55481         0.34263        -5.30390
| 21>    C       -0.05883         0.02221        -1.04986
| 22>    C       -0.53355         0.65181         0.12730
| 23>    C        0.06865         0.48586         1.35050
| 24>    C        1.19303        -0.34390         1.41588
| 25>    C        1.66395        -0.96389         0.23361
| 26>    C        1.05479        -0.79465        -1.00415
| 27>    S        3.06817        -1.93906         0.53947
| 28>    C        3.00296        -1.51065         2.22848
| 29>    C        1.98341        -0.67871         2.54891
| 30>   Br        4.28790        -2.19905         3.40730
| 31>    C       -1.71722         1.47189        -0.19241
| 32>    O       -2.31977         2.19840         0.57135
| 33>    C       -1.93077         1.30538        -1.65057
| 34>    C       -2.76645         2.08389        -2.41203
| 35>    C       -3.84834         2.84814        -1.94392
| 36>    S       -4.27401         4.30774        -2.78352
| 37>    C       -5.51642         4.70041        -1.63981
| 38>    C       -5.65239         3.68755        -0.66500
| 39>    C       -4.72088         2.62835        -0.86063
| 40>    C       -4.81021         1.48211        -0.05804
| 41>    C       -5.71876         1.44489         0.97328
| 42>    C       -5.79758         0.29284         1.78907
| 43>    N       -5.83523        -0.65367         2.43330
| 44>    C       -6.59370         2.54621         1.23433
| 45>    O       -7.41120         2.39372         2.28927
| 46>    C       -8.30991         3.42966         2.62143
| 47>    C       -6.56965         3.63897         0.39539
| 48>    C       -6.21108         5.90985        -1.79047
| 49>    S       -7.48701         6.49410        -0.73554
| 50>    C       -7.75470         7.98302        -1.62473
| 51>    C       -6.86585         8.00916        -2.71107
| 52>    C       -6.03088         6.86630        -2.78010
| 53>    O       -5.19464         6.93790        -3.83000
| 54>    C       -5.48611         8.11929        -4.43810
| 55>    N       -4.74642         8.47598        -5.59149
| 56>    O       -5.04107         9.53668        -6.10977
| 57>    O       -3.88545         7.71437        -5.97146
| 58>    C       -6.48852         8.81597        -3.81123
| 59>    C       -8.70588         8.94290        -1.27103
| 60>    S       -8.88825        10.36485        -2.25145
| 61>    C      -10.15529        11.01449        -1.25926
| 62>    C      -10.44335        10.14879        -0.18810
| 63>    C       -9.61762         8.98056        -0.19395
| 64>    C       -9.77958         8.02691         0.81682
| 65>    C      -10.73053         8.20915         1.79441
| 66>    C      -10.86593         7.22275         2.79635
| 67>    N      -10.93000         6.38650         3.57751
| 68>    C      -11.57269         9.36500         1.79865
| 69>    O      -12.46666         9.41686         2.79721
| 70>    C      -13.36812        10.50341         2.86356
| 71>    C      -11.41795        10.31332         0.81208
| 72>    C      -10.70458        12.26711        -1.63317
| 73>    S      -10.19087        13.00979        -3.14514
| 74>    C      -11.16360        14.40430        -2.94960
| 75>    C      -11.87065        14.33099        -1.77493
| 76>    C      -11.60868        13.12834        -1.04224
| 77>    O      -12.32150        13.12032         0.10729
| 78>    C      -13.02504        14.28733         0.11270
| 79>    N      -13.86143        14.51769         1.23179
| 80>    O      -14.49297        15.55336         1.24056
| 81>    O      -13.88359        13.66225         2.09348
| 82>    C      -12.80343        15.06322        -0.98904
| 83>    H       -0.31870         0.97614         2.22974
| 84>    H        1.45272        -1.28434        -1.87725
| 85>    H        1.79468        -0.31529         3.54249
| 86>    H       -2.54720         2.18571        -3.46857
| 87>    H       -4.19121         0.62223        -0.25726
| 88>    H       -8.83335         3.08927         3.51205
| 89>    H       -9.03488         3.60305         1.82099
| 90>    H       -7.78192         4.36076         2.84527
| 91>    H       -7.25661         4.45422         0.54254
| 92>    H       -6.87485         9.76540        -4.11887
| 93>    H       -9.16593         7.14196         0.84502
| 94>    H      -13.97942        10.31958         3.74405
| 95>    H      -14.00869        10.54148         1.97891
| 96>    H      -12.85146        11.45888         2.97482
| 97>    H      -12.03854        11.18843         0.80490
| 98>    H      -11.15749        15.17718        -3.68958
| 99>    H      -13.24802        16.01512        -1.19255
|100> *
|101>
|102>                          ****END OF INPUT****

CARTESIAN COORDINATES (ANGSTROEM)
---------------------------------
  C     -0.928650    0.393840   -2.158920
  C     -0.868760   -0.108190   -3.434430
  C      0.119170   -1.008190   -3.882920
  N      0.903480   -1.734270   -4.301850
  C     -1.809560    0.175510   -4.446290
  N     -2.554810    0.342630   -5.303900
  C     -0.058830    0.022210   -1.049860
  C     -0.533550    0.651810    0.127300
  C      0.068650    0.485860    1.350500
  C      1.193030   -0.343900    1.415880
  C      1.663950   -0.963890    0.233610
  C      1.054790   -0.794650   -1.004150
  S      3.068170   -1.939060    0.539470
  C      3.002960   -1.510650    2.228480
  C      1.983410   -0.678710    2.548910
  Br     4.287900   -2.199050    3.407300
  C     -1.717220    1.471890   -0.192410
  O     -2.319770    2.198400    0.571350
  C     -1.930770    1.305380   -1.650570
  C     -2.766450    2.083890   -2.412030
  C     -3.848340    2.848140   -1.943920
  S     -4.274010    4.307740   -2.783520
  C     -5.516420    4.700410   -1.639810
  C     -5.652390    3.687550   -0.665000
  C     -4.720880    2.628350   -0.860630
  C     -4.810210    1.482110   -0.058040
  C     -5.718760    1.444890    0.973280
  C     -5.797580    0.292840    1.789070
  N     -5.835230   -0.653670    2.433300
  C     -6.593700    2.546210    1.234330
  O     -7.411200    2.393720    2.289270
  C     -8.309910    3.429660    2.621430
  C     -6.569650    3.638970    0.395390
  C     -6.211080    5.909850   -1.790470
  S     -7.487010    6.494100   -0.735540
  C     -7.754700    7.983020   -1.624730
  C     -6.865850    8.009160   -2.711070
  C     -6.030880    6.866300   -2.780100
  O     -5.194640    6.937900   -3.830000
  C     -5.486110    8.119290   -4.438100
  N     -4.746420    8.475980   -5.591490
  O     -5.041070    9.536680   -6.109770
  O     -3.885450    7.714370   -5.971460
  C     -6.488520    8.815970   -3.811230
  C     -8.705880    8.942900   -1.271030
  S     -8.888250   10.364850   -2.251450
  C    -10.155290   11.014490   -1.259260
  C    -10.443350   10.148790   -0.188100
  C     -9.617620    8.980560   -0.193950
  C     -9.779580    8.026910    0.816820
  C    -10.730530    8.209150    1.794410
  C    -10.865930    7.222750    2.796350
  N    -10.930000    6.386500    3.577510
  C    -11.572690    9.365000    1.798650
  O    -12.466660    9.416860    2.797210
  C    -13.368120   10.503410    2.863560
  C    -11.417950   10.313320    0.812080
  C    -10.704580   12.267110   -1.633170
  S    -10.190870   13.009790   -3.145140
  C    -11.163600   14.404300   -2.949600
  C    -11.870650   14.330990   -1.774930
  C    -11.608680   13.128340   -1.042240
  O    -12.321500   13.120320    0.107290
  C    -13.025040   14.287330    0.112700
  N    -13.861430   14.517690    1.231790
  O    -14.492970   15.553360    1.240560
  O    -13.883590   13.662250    2.093480
  C    -12.803430   15.063220   -0.989040
  H     -0.318700    0.976140    2.229740
  H      1.452720   -1.284340   -1.877250
  H      1.794680   -0.315290    3.542490
  H     -2.547200    2.185710   -3.468570
  H     -4.191210    0.622230   -0.257260
  H     -8.833350    3.089270    3.512050
  H     -9.034880    3.603050    1.820990
  H     -7.781920    4.360760    2.845270
  H     -7.256610    4.454220    0.542540
  H     -6.874850    9.765400   -4.118870
  H     -9.165930    7.141960    0.845020
  H    -13.979420   10.319580    3.744050
  H    -14.008690   10.541480    1.978910
  H    -12.851460   11.458880    2.974820
  H    -12.038540   11.188430    0.804900
  H    -11.157490   15.177180   -3.689580
  H    -13.248020   16.015120   -1.192550

 Total Charge           Charge          ....    0
 Multiplicity           Mult            ....    1
 Number of Electrons    NEL             ....  528
 Basis Dimension        Dim             .... 1075

ORBITAL ENERGIES
----------------

  NO   OCC          E(Eh)            E(eV)
   0   2.0000    -482.882856    -13139.9105
   1   2.0000     -89.006146     -2421.9804
   2   2.0000     -89.003205     -2421.9003
   3   2.0000     -89.001914     -2421.8652
   4   2.0000     -88.989220     -2421.5198
   5   2.0000     -88.972755     -2421.0717
   6   2.0000     -62.560579     -1702.3599
   7   2.0000     -56.394529     -1534.5731
   8   2.0000     -56.391814     -1534.4993
   9   2.0000     -56.391780     -1534.4984
  10   2.0000     -19.337814      -526.2087
  11   2.0000     -19.337289      -526.1944
  12   2.0000     -19.271548      -524.4055
  13   2.0000     -19.270502      -524.3770
  14   2.0000     -19.270089      -524.3658
  15   2.0000     -19.266576      -524.2702
  16   2.0000     -19.259076      -524.0661
  17   2.0000     -19.256686      -524.0011
  18   2.0000     -19.214008      -522.8397
  19   2.0000     -14.683238      -399.5512
  20   2.0000     -14.671367      -399.2282
  21   2.0000     -14.415193      -392.2573
  22   2.0000     -14.411918      -392.1682
  23   2.0000     -14.411625      -392.1603
  24   2.0000     -14.400095      -391.8465
  25   2.0000     -10.414144      -283.3833
  26   2.0000     -10.408431      -283.2278
  27   2.0000     -10.377927      -282.3978
  28   2.0000     -10.375931      -282.3434
  29   2.0000     -10.369099      -282.1575
  30   2.0000     -10.365332      -282.0550
  31   2.0000     -10.363586      -282.0075
  32   2.0000     -10.357683      -281.8469
  33   2.0000     -10.356010      -281.8014
  34   2.0000     -10.352866      -281.7158
  35   2.0000     -10.349566      -281.6260
  36   2.0000     -10.349423      -281.6221
  37   2.0000     -10.346475      -281.5419
  38   2.0000     -10.345882      -281.5258
  39   2.0000     -10.340229      -281.3719
  40   2.0000     -10.339539      -281.3531
  41   2.0000     -10.338997      -281.3384
  42   2.0000     -10.337816      -281.3063
  43   2.0000     -10.335039      -281.2307
  44   2.0000     -10.332886      -281.1721
  45   2.0000     -10.331674      -281.1391
  46   2.0000     -10.330266      -281.1008
  47   2.0000     -10.326033      -280.9856
  48   2.0000     -10.325217      -280.9634
  49   2.0000     -10.325143      -280.9614
  50   2.0000     -10.323096      -280.9057
  51   2.0000     -10.322783      -280.8972
  52   2.0000     -10.322552      -280.8909
  53   2.0000     -10.321950      -280.8745
  54   2.0000     -10.320758      -280.8421
  55   2.0000     -10.318738      -280.7871
  56   2.0000     -10.315903      -280.7100
  57   2.0000     -10.314792      -280.6797
  58   2.0000     -10.314643      -280.6757
  59   2.0000     -10.312035      -280.6048
  60   2.0000     -10.309068      -280.5240
  61   2.0000     -10.306043      -280.4417
  62   2.0000     -10.305250      -280.4201
  63   2.0000     -10.304643      -280.4036
  64   2.0000     -10.302853      -280.3549
  65   2.0000     -10.300387      -280.2878
  66   2.0000     -10.298274      -280.2303
  67   2.0000     -10.298127      -280.2263
  68   2.0000     -10.293811      -280.1088
  69   2.0000     -10.293108      -280.0897
  70   2.0000     -10.292259      -280.0666
  71   2.0000     -10.289932      -280.0033
  72   2.0000      -8.790014      -239.1884
  73   2.0000      -8.099117      -220.3882
  74   2.0000      -8.098308      -220.3662
  75   2.0000      -8.096810      -220.3254
  76   2.0000      -8.084174      -219.9815
  77   2.0000      -8.068801      -219.5632
  78   2.0000      -6.626329      -180.3116
  79   2.0000      -6.611738      -179.9145
  80   2.0000      -6.611551      -179.9095
  81   2.0000      -6.068830      -165.1413
  82   2.0000      -6.067778      -165.1126
  83   2.0000      -6.066118      -165.0675
  84   2.0000      -6.064604      -165.0263
  85   2.0000      -6.063239      -164.9891
  86   2.0000      -6.061835      -164.9509
  87   2.0000      -6.060827      -164.9235
  88   2.0000      -6.060496      -164.9145
  89   2.0000      -6.059126      -164.8772
  90   2.0000      -6.053366      -164.7205
  91   2.0000      -6.049004      -164.6018
  92   2.0000      -6.046667      -164.5382
  93   2.0000      -6.038473      -164.3152
  94   2.0000      -6.034214      -164.1993
  95   2.0000      -6.030022      -164.0852
  96   2.0000      -2.742178       -74.6185
  97   2.0000      -2.738117       -74.5080
  98   2.0000      -2.737955       -74.5036
  99   2.0000      -2.726380       -74.1886
 100   2.0000      -2.726357       -74.1880
 101   2.0000      -1.354848       -36.8673
 102   2.0000      -1.342759       -36.5383
 103   2.0000      -1.257685       -34.2233
 104   2.0000      -1.257160       -34.2091
 105   2.0000      -1.177363       -32.0377
 106   2.0000      -1.173731       -31.9388
 107   2.0000      -1.171808       -31.8865
 108   2.0000      -1.159418       -31.5494
 109   2.0000      -1.129491       -30.7350
 110   2.0000      -1.043417       -28.3928
 111   2.0000      -1.031324       -28.0638
 112   2.0000      -1.021390       -27.7934
 113   2.0000      -1.019782       -27.7497
 114   2.0000      -1.011269       -27.5180
 115   2.0000      -1.009702       -27.4754
 116   2.0000      -1.001238       -27.2451
 117   2.0000      -0.990588       -26.9553
 118   2.0000      -0.988070       -26.8867
 119   2.0000      -0.986514       -26.8444
 120   2.0000      -0.966551       -26.3012
 121   2.0000      -0.962961       -26.2035
 122   2.0000      -0.958655       -26.0863
 123   2.0000      -0.951990       -25.9050
 124   2.0000      -0.941106       -25.6088
 125   2.0000      -0.927449       -25.2372
 126   2.0000      -0.921062       -25.0634
 127   2.0000      -0.912737       -24.8368
 128   2.0000      -0.905673       -24.6446
 129   2.0000      -0.904080       -24.6013
 130   2.0000      -0.883896       -24.0520
 131   2.0000      -0.883079       -24.0298
 132   2.0000      -0.881681       -23.9918
 133   2.0000      -0.878349       -23.9011
 134   2.0000      -0.867934       -23.6177
 135   2.0000      -0.862000       -23.4562
 136   2.0000      -0.856760       -23.3136
 137   2.0000      -0.832837       -22.6627
 138   2.0000      -0.826381       -22.4870
 139   2.0000      -0.818238       -22.2654
 140   2.0000      -0.814117       -22.1532
 141   2.0000      -0.809943       -22.0397
 142   2.0000      -0.804319       -21.8866
 143   2.0000      -0.794496       -21.6193
 144   2.0000      -0.773281       -21.0420
 145   2.0000      -0.760674       -20.6990
 146   2.0000      -0.756272       -20.5792
 147   2.0000      -0.753266       -20.4974
 148   2.0000      -0.742371       -20.2009
 149   2.0000      -0.736924       -20.0527
 150   2.0000      -0.727099       -19.7854
 151   2.0000      -0.718470       -19.5506
 152   2.0000      -0.710934       -19.3455
 153   2.0000      -0.699098       -19.0234
 154   2.0000      -0.691792       -18.8246
 155   2.0000      -0.689359       -18.7584
 156   2.0000      -0.685731       -18.6597
 157   2.0000      -0.680373       -18.5139
 158   2.0000      -0.672798       -18.3078
 159   2.0000      -0.668644       -18.1947
 160   2.0000      -0.668039       -18.1783
 161   2.0000      -0.664219       -18.0743
 162   2.0000      -0.657895       -17.9022
 163   2.0000      -0.657484       -17.8911
 164   2.0000      -0.654326       -17.8051
 165   2.0000      -0.647431       -17.6175
 166   2.0000      -0.636427       -17.3181
 167   2.0000      -0.634084       -17.2543
 168   2.0000      -0.623933       -16.9781
 169   2.0000      -0.622627       -16.9425
 170   2.0000      -0.622310       -16.9339
 171   2.0000      -0.617503       -16.8031
 172   2.0000      -0.614290       -16.7157
 173   2.0000      -0.612638       -16.6707
 174   2.0000      -0.603531       -16.4229
 175   2.0000      -0.599758       -16.3203
 176   2.0000      -0.594986       -16.1904
 177   2.0000      -0.594167       -16.1681
 178   2.0000      -0.593515       -16.1504
 179   2.0000      -0.589530       -16.0419
 180   2.0000      -0.584997       -15.9186
 181   2.0000      -0.574578       -15.6351
 182   2.0000      -0.572656       -15.5828
 183   2.0000      -0.571082       -15.5399
 184   2.0000      -0.569643       -15.5008
 185   2.0000      -0.566718       -15.4212
 186   2.0000      -0.562971       -15.3192
 187   2.0000      -0.553012       -15.0482
 188   2.0000      -0.552387       -15.0312
 189   2.0000      -0.547019       -14.8851
 190   2.0000      -0.542787       -14.7700
 191   2.0000      -0.539660       -14.6849
 192   2.0000      -0.539207       -14.6726
 193   2.0000      -0.537629       -14.6296
 194   2.0000      -0.534993       -14.5579
 195   2.0000      -0.531358       -14.4590
 196   2.0000      -0.527820       -14.3627
 197   2.0000      -0.525197       -14.2913
 198   2.0000      -0.521557       -14.1923
 199   2.0000      -0.518408       -14.1066
 200   2.0000      -0.513552       -13.9745
 201   2.0000      -0.508611       -13.8400
 202   2.0000      -0.505266       -13.7490
 203   2.0000      -0.505112       -13.7448
 204   2.0000      -0.501822       -13.6553
 205   2.0000      -0.500539       -13.6203
 206   2.0000      -0.497696       -13.5430
 207   2.0000      -0.492873       -13.4118
 208   2.0000      -0.491611       -13.3774
 209   2.0000      -0.487220       -13.2579
 210   2.0000      -0.482345       -13.1253
 211   2.0000      -0.481611       -13.1053
 212   2.0000      -0.474485       -12.9114
 213   2.0000      -0.473531       -12.8854
 214   2.0000      -0.470355       -12.7990
 215   2.0000      -0.469335       -12.7712
 216   2.0000      -0.464630       -12.6432
 217   2.0000      -0.455459       -12.3937
 218   2.0000      -0.450465       -12.2578
 219   2.0000      -0.447724       -12.1832
 220   2.0000      -0.446242       -12.1429
 221   2.0000      -0.445292       -12.1170
 222   2.0000      -0.444327       -12.0907
 223   2.0000      -0.443413       -12.0659
 224   2.0000      -0.441907       -12.0249
 225   2.0000      -0.439980       -11.9725
 226   2.0000      -0.436750       -11.8846
 227   2.0000      -0.436044       -11.8654
 228   2.0000      -0.431029       -11.7289
 229   2.0000      -0.430329       -11.7098
 230   2.0000      -0.427032       -11.6201
 231   2.0000      -0.426347       -11.6015
 232   2.0000      -0.423650       -11.5281
 233   2.0000      -0.421769       -11.4769
 234   2.0000      -0.420699       -11.4478
 235   2.0000      -0.417910       -11.3719
 236   2.0000      -0.416598       -11.3362
 237   2.0000      -0.412758       -11.2317
 238   2.0000      -0.408986       -11.1291
 239   2.0000      -0.405955       -11.0466
 240   2.0000      -0.404961       -11.0196
 241   2.0000      -0.404284       -11.0011
 242   2.0000      -0.403959       -10.9923
 243   2.0000      -0.399187       -10.8624
 244   2.0000      -0.397915       -10.8278
 245   2.0000      -0.397450       -10.8152
 246   2.0000      -0.392410       -10.6780
 247   2.0000      -0.386891       -10.5278
 248   2.0000      -0.385798       -10.4981
 249   2.0000      -0.383809       -10.4440
 250   2.0000      -0.372318       -10.1313
 251   2.0000      -0.363478        -9.8907
 252   2.0000      -0.354161        -9.6372
 253   2.0000      -0.350516        -9.5380
 254   2.0000      -0.345193        -9.3932
 255   2.0000      -0.340150        -9.2559
 256   2.0000      -0.328636        -8.9426
 257   2.0000      -0.327856        -8.9214
 258   2.0000      -0.319721        -8.7001
 259   2.0000      -0.312530        -8.5044
 260   2.0000      -0.308497        -8.3946
 261   2.0000      -0.291103        -7.9213
 262   2.0000      -0.278754        -7.5853
 263   2.0000      -0.237116        -6.4523
 264   0.0000      -0.125664        -3.4195
 265   0.0000      -0.093527        -2.5450
 266   0.0000      -0.086913        -2.3650
 267   0.0000      -0.066681        -1.8145
 268   0.0000      -0.059382        -1.6159

MULLIKEN ATOMIC CHARGES
-----------------------
   0 C :    0.294089
   1 C :   -0.335545
   2 C :   -0.183640
   3 N :    0.146436
   4 C :   -0.208712
   5 N :    0.161043
   6 C :    0.021597
   7 C :   -0.020102
   8 C :   -0.067171
   9 C :    0.118393
  10 C :   -0.089933
  11 C :   -0.022899
  12 S :    0.186322
  13 C :   -0.124182
  14 C :    0.040160
  15 Br:    0.023323
  16 C :    0.128106
  17 O :   -0.149042
  18 C :   -0.114436
  19 C :    0.012726
  20 C :   -0.128367
  21 S :    0.221400
  22 C :   -0.092518
  23 C :    0.116840
  24 C :    0.149307
  25 C :    0.014551
  26 C :   -0.161535
  27 C :   -0.142000
  28 N :    0.127049
  29 C :    0.271775
  30 O :   -0.278615
  31 C :    0.179010
  32 C :   -0.194166
  33 C :   -0.119196
  34 S :    0.082061
  35 C :   -0.069958
  36 C :    0.086332
  37 C :    0.158020
  38 O :   -0.177680
  39 C :    0.243252
  40 N :    0.275769
  41 O :   -0.245923
  42 O :   -0.221425
  43 C :   -0.095950
  44 C :   -0.072433
  45 S :    0.132743
  46 C :   -0.053510
  47 C :    0.121230
  48 C :    0.092619
  49 C :   -0.059818
  50 C :   -0.137859
  51 C :   -0.138293
  52 N :    0.117743
  53 C :    0.261384
  54 O :   -0.280795
  55 C :    0.178550
  56 C :   -0.192906
  57 C :   -0.191872
  58 S :    0.158253
  59 C :   -0.124681
  60 C :    0.120277
  61 C :    0.197717
  62 O :   -0.211182
  63 C :    0.253272
  64 N :    0.273002
  65 O :   -0.230652
  66 O :   -0.234032
  67 C :   -0.063488
  68 H :   -0.009795
  69 H :   -0.006775
  70 H :   -0.003187
  71 H :    0.032362
  72 H :    0.000770
  73 H :    0.058223
  74 H :    0.029871
  75 H :    0.030123
  76 H :   -0.033349
  77 H :    0.022431
  78 H :   -0.002933
  79 H :    0.046457
  80 H :    0.026836
  81 H :    0.044001
  82 H :   -0.030001
  83 H :    0.044268
  84 H :    0.020862
Sum of atomic charges:   -0.0000000

LOEWDIN ATOMIC CHARGES
----------------------
   0 C :    0.072759
   1 C :   -0.141771
   2 C :   -0.018678
   3 N :   -0.054027
   4 C :   -0.025947
   5 N :   -0.052345
   6 C :   -0.020934
   7 C :   -0.050016
   8 C :    0.022863
   9 C :   -0.032471
  10 C :   -0.144301
  11 C :   -0.009836
  12 S :    0.433119
  13 C :   -0.272010
  14 C :   -0.069198
  15 Br:    0.136783
  16 C :    0.074833
  17 O :   -0.142891
  18 C :   -0.104456
  19 C :    0.037455
  20 C :   -0.176195
  21 S :    0.517717
  22 C :   -0.169596
  23 C :   -0.031139
  24 C :   -0.026203
  25 C :    0.054883
  26 C :   -0.071599
  27 C :   -0.025346
  28 N :   -0.047656
  29 C :    0.080960
  30 O :   -0.074257
  31 C :    0.084452
  32 C :   -0.093323
  33 C :   -0.211518
  34 S :    0.487687
  35 C :   -0.173961
  36 C :   -0.083774
  37 C :    0.021849
  38 O :    0.011960
  39 C :    0.031785
  40 N :    0.271098
  41 O :   -0.207354
  42 O :   -0.183570
  43 C :   -0.016211
  44 C :   -0.180169
  45 S :    0.478539
  46 C :   -0.193748
  47 C :   -0.023291
  48 C :   -0.055260
  49 C :    0.017986
  50 C :   -0.073605
  51 C :   -0.024248
  52 N :   -0.054612
  53 C :    0.073837
  54 O :   -0.077134
  55 C :    0.083050
  56 C :   -0.078195
  57 C :   -0.212208
  58 S :    0.476503
  59 C :   -0.175932
  60 C :   -0.079990
  61 C :    0.020747
  62 O :    0.000257
  63 C :    0.027752
  64 N :    0.274747
  65 O :   -0.192153
  66 O :   -0.197352
  67 C :    0.000686
  68 H :    0.041414
  69 H :    0.040991
  70 H :    0.039080
  71 H :    0.046352
  72 H :    0.043419
  73 H :    0.039982
  74 H :    0.018848
  75 H :    0.019461
  76 H :    0.011430
  77 H :    0.041036
  78 H :    0.021684
  79 H :    0.035117
  80 H :    0.019339
  81 H :    0.020779
  82 H :    0.028947
  83 H :    0.034757
  84 H :    0.051536

  Mayer bond orders larger than 0.100000
B(  0-C ,  1-C ) :   1.6329 B(  0-C ,  6-C ) :   1.0065 B(  0-C , 18-C ) :   1.0802
B(  1-C ,  2-C ) :   1.1390 B(  1-C ,  4-C ) :   1.1425 B(  2-C ,  3-N ) :   2.9703
B(  4-C ,  5-N ) :   2.9972 B(  6-C ,  7-C ) :   1.2716 B(  6-C , 11-C ) :   1.4100
B(  7-C ,  8-C ) :   1.4294 B(  7-C , 16-C ) :   0.9387 B(  8-C ,  9-C ) :   1.2407
B(  8-C , 68-H ) :   1.0176 B(  9-C , 10-C ) :   1.3069 B(  9-C , 14-C ) :   1.1635
B( 10-C , 11-C ) :   1.3258 B( 10-C , 12-S ) :   1.0865 B( 11-C , 69-H ) :   0.9816
B( 12-S , 13-C ) :   1.0866 B( 13-C , 14-C ) :   1.6181 B( 13-C , 15-Br) :   1.0181
B( 14-C , 70-H ) :   1.0006 B( 16-C , 17-O ) :   2.2035 B( 16-C , 18-C ) :   0.9564
B( 18-C , 19-C ) :   1.5420 B( 19-C , 20-C ) :   1.2367 B( 19-C , 71-H ) :   0.9331
B( 20-C , 21-S ) :   1.1100 B( 20-C , 24-C ) :   1.2762 B( 21-S , 22-C ) :   1.1804
B( 22-C , 23-C ) :   1.2951 B( 22-C , 33-C ) :   1.2370 B( 23-C , 24-C ) :   1.2460
B( 23-C , 32-C ) :   1.1766 B( 24-C , 25-C ) :   1.1901 B( 25-C , 26-C ) :   1.5712
B( 25-C , 72-H ) :   0.9862 B( 26-C , 27-C ) :   1.0616 B( 26-C , 29-C ) :   1.2068
B( 27-C , 28-N ) :   3.0490 B( 29-C , 30-O ) :   1.2506 B( 29-C , 32-C ) :   1.4366
B( 30-O , 31-C ) :   0.9398 B( 31-C , 73-H ) :   0.9760 B( 31-C , 74-H ) :   0.9676
B( 31-C , 75-H ) :   0.9677 B( 32-C , 76-H ) :   0.9749 B( 33-C , 34-S ) :   1.0878
B( 33-C , 37-C ) :   1.4099 B( 34-S , 35-C ) :   1.1239 B( 35-C , 36-C ) :   1.3075
B( 35-C , 44-C ) :   1.2766 B( 36-C , 37-C ) :   1.2570 B( 36-C , 43-C ) :   1.0971
B( 37-C , 38-O ) :   1.1302 B( 38-O , 39-C ) :   1.1205 B( 39-C , 40-N ) :   0.9177
B( 39-C , 43-C ) :   1.5611 B( 40-N , 41-O ) :   1.5280 B( 40-N , 42-O ) :   1.5131
B( 41-O , 42-O ) :   0.2829 B( 43-C , 77-H ) :   1.0149 B( 44-C , 45-S ) :   1.1418
B( 44-C , 46-C ) :   0.1115 B( 44-C , 48-C ) :   1.2853 B( 45-S , 46-C ) :   1.1303
B( 46-C , 47-C ) :   1.3810 B( 46-C , 57-C ) :   1.1481 B( 47-C , 48-C ) :   1.2006
B( 47-C , 56-C ) :   1.1873 B( 48-C , 49-C ) :   1.1856 B( 49-C , 50-C ) :   1.5818
B( 49-C , 78-H ) :   0.9819 B( 50-C , 51-C ) :   1.0591 B( 50-C , 53-C ) :   1.1927
B( 51-C , 52-N ) :   3.0348 B( 53-C , 54-O ) :   1.2599 B( 53-C , 56-C ) :   1.4232
B( 54-O , 55-C ) :   0.9306 B( 55-C , 79-H ) :   0.9757 B( 55-C , 80-H ) :   0.9695
B( 55-C , 81-H ) :   0.9667 B( 56-C , 82-H ) :   0.9869 B( 57-C , 58-S ) :   1.1348
B( 57-C , 59-C ) :   0.1232 B( 57-C , 61-C ) :   1.4926 B( 58-S , 59-C ) :   1.1830
B( 59-C , 60-C ) :   1.4436 B( 59-C , 83-H ) :   0.9757 B( 60-C , 61-C ) :   1.2172
B( 60-C , 67-C ) :   1.0606 B( 61-C , 62-O ) :   1.0795 B( 62-O , 63-C ) :   1.0961
B( 63-C , 64-N ) :   0.9136 B( 63-C , 67-C ) :   1.5895 B( 64-N , 65-O ) :   1.5458
B( 64-N , 66-O ) :   1.5021 B( 65-O , 66-O ) :   0.2781 B( 67-C , 84-H ) :   1.0255

-----------------------------------------------------------------------------
         ABSORPTION SPECTRUM VIA TRANSITION ELECTRIC DIPOLE MOMENTS
-----------------------------------------------------------------------------
State   Energy  Wavelength   fosc         T2         TX        TY        TZ
        (cm-1)    (nm)                  (au**2)     (au)      (au)      (au)
-----------------------------------------------------------------------------
   0   10495.0    952.8   1.319056179  41.37682  -4.23224   4.82375   0.44318
   1   16963.2    589.5   0.106732911   2.07141  -1.13782   0.88094  -0.02660
   2   18363.9    544.5   0.052616004   0.94325  -0.01285   0.67881  -0.69449
   3   18696.0    534.9   0.008496034   0.14960  -0.15013   0.13449  -0.33011
   4   22528.2    443.9   0.014388252   0.21026   0.09315   0.35148  -0.27937
   5   22772.5    439.1   0.056389382   0.81520   0.02921   0.64653  -0.62956
   6   23249.7    430.1   0.064340187   0.91105   0.47898  -0.20985  -0.79849
   7   24366.6    410.4   0.070842513   0.95714  -0.71733   0.06543  -0.66204
   8   26056.6    383.8   0.047822676   0.60422   0.01197  -0.06744   0.77429
   9   27078.0    369.3   0.015025090   0.18267   0.09445  -0.19939   0.36606
  10   27177.7    367.9   0.172359091   2.08784  -1.13336  -0.23572   0.86474
  11   27744.8    360.4   0.060708799   0.72035  -0.71553   0.11480   0.44180
  12   28838.6    346.8   0.069081439   0.78861  -0.59808   0.62495   0.20086
  13   29338.9    340.8   0.002603089   0.02921  -0.08889   0.02568   0.14370
  14   29421.7    339.9   0.058375217   0.65319  -0.39049  -0.41829   0.57073
  15   29901.9    334.4   0.063403563   0.69806   0.13280   0.61579  -0.54884
  16   30911.5    323.5   0.572906935   6.10155  -1.24781   0.50436  -2.07127
  17   31066.0    321.9   0.136691638   1.44855  -0.29857  -0.97778   0.63510
  18   31453.4    317.9   0.103725850   1.08566   1.00970  -0.03168   0.25529
  19   31798.3    314.5   0.102793856   1.06424   0.73868  -0.01383  -0.72000
  20   31898.4    313.5   0.060376957   0.62313   0.70762  -0.01763   0.34942
  21   32467.1    308.0   0.234342617   2.37620   0.33807  -1.34579   0.67140
  22   32503.4    307.7   0.014050291   0.14231   0.24826   0.08917   0.26967
  23   32601.7    306.7   0.011801248   0.11917   0.19514   0.28045  -0.04939
  24   32962.0    303.4   0.024391756   0.24362   0.30205  -0.36204   0.14597
  25   33461.9    298.8   0.252007733   2.47936  -0.23519   1.21017  -0.97956
  26   34012.8    294.0   0.045254691   0.43802   0.10671  -0.63333   0.15978
  27   34132.6    293.0   0.021359682   0.20602  -0.02704  -0.17011   0.41994
  28   34390.9    290.8   0.170325461   1.63047   0.75455   0.09364  -1.02584
  29   35025.0    285.5   0.205715580   1.93359   0.12132  -0.59800  -1.24951
  30   35864.5    278.8   0.199710327   1.83321   0.58477   0.31063  -1.18100
  31   36111.0    276.9   0.309318485   2.81995   0.64450   0.34224  -1.51243
  32   37197.0    268.8   0.048712928   0.43113  -0.55408   0.06417   0.34643
  33   37246.3    268.5   0.045814675   0.40495  -0.26011   0.06062   0.57759
  34   37317.2    268.0   0.024089692   0.21252  -0.20681  -0.41180  -0.01303
  35   37701.9    265.2   0.075163772   0.65633  -0.51234   0.61998   0.09727
  36   38154.3    262.1   0.039960610   0.34480  -0.26787   0.24263  -0.46279
  37   38316.9    261.0   0.012424395   0.10675   0.19971   0.05476   0.25272
  38   38378.4    260.6   0.010641282   0.09128  -0.27967  -0.07513  -0.08616
  39   38780.4    257.9   0.203218666   1.72515   0.75953  -0.56462  -0.91075
  40   39087.6    255.8   0.040826306   0.34386   0.22903  -0.52665  -0.11850
  41   39194.5    255.1   0.161830807   1.35929   0.75039   0.23342  -0.86123
  42   39559.4    252.8   0.018977736   0.15793   0.22586  -0.12709  -0.30127
  43   39980.5    250.1   0.009480108   0.07806  -0.20837  -0.16312   0.08965
  44   40119.3    249.3   0.026289986   0.21573  -0.45025   0.07581  -0.08521
  45   40209.2    248.7   0.017658017   0.14457  -0.33096   0.01698   0.18642

FINAL SINGLE POINT ENERGY     -7367.298238408967

DIPOLE MOMENT
-------------
                                X             Y             Z
Electronic contribution:    123.84063     -82.30446      18.75915
Nuclear contribution   :   -125.79303      87.45744     -18.48364
                        -----------------------------------------
Total Dipole Moment    :     -1.95240       5.15298       0.27551
                        -----------------------------------------
Magnitude (a.u.)       :      5.51733
Magnitude (Debye)      :     14.02395

Rotational constants in cm-1:     0.001743     0.000276     0.000254
Rotational constants in MHz :    52.248322     8.282013     7.618979

                             ****ORCA TERMINATED NORMALLY****
TOTAL RUN TIME: 0 days 0 hours 8 minutes 24 seconds 654 msec
