                         Program Version 4.2.0 -  RELEASE  -
|  1> # ORCA input file
|  2> # SCF done       -136.313116730541          0.000963795776
|  3> ! CAM-B3LYP def2-SVP def2/J RIJCOSX Grid4 TightSCF
|  4> %maxcore 5000
|  5> %tddft
|  6>     Mode sTDDFT
|  7>     Ethresh 5.0
|  8>     maxcore 5000
|  9> end
| 10>
| 11> %pal
| 12>   nprocs 6
| 13>   end
| 14> * xyz 0 1
| 15>    C       -1.09148         1.34708         2.19691
| 16>    C       -0.60620         0.12800         2.60911
| 17>    C       -0.22563        -0.11370         4.02562
| 18>    O       -0.35376         0.75754         4.84315
| 19>    O        0.25223        -1.30983         4.36002
| 20>    C       -0.62783        -0.63607         1.38866
| 21>    N       -1.08421         0.11278         0.40619
| 22>    O       -1.36614         1.32325         0.90452
| 23>    C       -0.26060        -1.99321         1.09267
| 24>    O        0.29472        -2.78748         2.05431
| 25>    C       -0.35964        -2.72243        -0.06557
| 26>    C       -0.79956        -2.69237        -1.47418
| 27>    O       -1.29856        -1.83016        -2.13777
| 28>    N       -0.50352        -3.97927        -1.92869
| 29>    C        0.06762        -4.83540        -0.99512
| 30>    O        0.38796        -5.97785        -1.20011
| 31>    C        0.15820        -4.01593         0.21584
| 32>    C        0.55446        -4.02455         1.53620
| 33>    C        1.13201        -5.01542         2.37792
| 34>    C        1.39941        -6.26516         1.94957
| 35>    C        1.97251        -7.29581         2.78831
| 36>    C        2.17202        -8.54372         2.31584
| 37>    C        2.31573        -6.96970         4.11822
| 38>    C        2.62041        -6.68899         5.25786
| 39>    C        2.98431        -6.42008         6.57143
| 40>    C        3.40601        -7.40505         7.41021
| 41>    C        3.79784        -7.19888         8.74511
| 42>    C        4.20238        -8.21470         9.57368
| 43>    C        4.62592        -8.11776        10.92348
| 44>    C        4.96340        -9.30907        11.48980
| 45>    C        4.82072       -10.41422        10.61936
| 46>    S        4.25203        -9.89264         9.05285
| 47>    C        5.05756       -11.75227        10.87098
| 48>    C        5.51686       -12.36852        12.05564
| 49>    C        5.62903       -13.72140        11.95893
| 50>    C        5.26234       -14.25108        10.69218
| 51>    S        4.77562       -12.94902         9.62660
| 52>    C        5.28104       -15.58211        10.36205
| 53>    C        4.92206       -16.17819         9.13718
| 54>    S        5.01387       -17.92869         8.97854
| 55>    C        4.46450       -17.94868         7.35078
| 56>    C        4.21296       -16.66821         6.92079
| 57>    C        4.47139       -15.68140         7.92504
| 58>    O        4.21049       -14.44576         7.44703
| 59>    C        3.79324       -14.62671         6.16795
| 60>    N        3.45052       -13.47580         5.42240
| 61>    O        3.07986       -13.66170         4.27672
| 62>    O        3.54253       -12.39325         5.96139
| 63>    C        3.76912       -15.94073         5.78267
| 64>    H       -1.26348         2.25021         2.74840
| 65>    H        0.31653        -1.93057         3.61298
| 66>    H       -0.69592        -4.26848        -2.87754
| 67>    H        1.34594        -4.72038         3.39619
| 68>    H        1.17582        -6.54510         0.92913
| 69>    H        1.91378        -8.79867         1.30264
| 70>    H        2.58952        -9.31914         2.93400
| 71>    H        2.92071        -5.39292         6.90814
| 72>    H        3.44615        -8.42015         7.03437
| 73>    H        3.78283        -6.19286         9.14423
| 74>    H        4.66708        -7.16956        11.43043
| 75>    H        5.30545        -9.42482        12.50281
| 76>    H        5.75032       -11.80249        12.93968
| 77>    H        5.96108       -14.36402        12.75518
| 78>    H        5.60461       -16.26917        11.13257
| 79>    H        4.36361       -18.87550         6.82672
| 80>    H        3.47513       -16.31254         4.82327
| 81> *
| 82>
| 83>                          ****END OF INPUT****

CARTESIAN COORDINATES (ANGSTROEM)
---------------------------------
  C     -1.091480    1.347080    2.196910
  C     -0.606200    0.128000    2.609110
  C     -0.225630   -0.113700    4.025620
  O     -0.353760    0.757540    4.843150
  O      0.252230   -1.309830    4.360020
  C     -0.627830   -0.636070    1.388660
  N     -1.084210    0.112780    0.406190
  O     -1.366140    1.323250    0.904520
  C     -0.260600   -1.993210    1.092670
  O      0.294720   -2.787480    2.054310
  C     -0.359640   -2.722430   -0.065570
  C     -0.799560   -2.692370   -1.474180
  O     -1.298560   -1.830160   -2.137770
  N     -0.503520   -3.979270   -1.928690
  C      0.067620   -4.835400   -0.995120
  O      0.387960   -5.977850   -1.200110
  C      0.158200   -4.015930    0.215840
  C      0.554460   -4.024550    1.536200
  C      1.132010   -5.015420    2.377920
  C      1.399410   -6.265160    1.949570
  C      1.972510   -7.295810    2.788310
  C      2.172020   -8.543720    2.315840
  C      2.315730   -6.969700    4.118220
  C      2.620410   -6.688990    5.257860
  C      2.984310   -6.420080    6.571430
  C      3.406010   -7.405050    7.410210
  C      3.797840   -7.198880    8.745110
  C      4.202380   -8.214700    9.573680
  C      4.625920   -8.117760   10.923480
  C      4.963400   -9.309070   11.489800
  C      4.820720  -10.414220   10.619360
  S      4.252030   -9.892640    9.052850
  C      5.057560  -11.752270   10.870980
  C      5.516860  -12.368520   12.055640
  C      5.629030  -13.721400   11.958930
  C      5.262340  -14.251080   10.692180
  S      4.775620  -12.949020    9.626600
  C      5.281040  -15.582110   10.362050
  C      4.922060  -16.178190    9.137180
  S      5.013870  -17.928690    8.978540
  C      4.464500  -17.948680    7.350780
  C      4.212960  -16.668210    6.920790
  C      4.471390  -15.681400    7.925040
  O      4.210490  -14.445760    7.447030
  C      3.793240  -14.626710    6.167950
  N      3.450520  -13.475800    5.422400
  O      3.079860  -13.661700    4.276720
  O      3.542530  -12.393250    5.961390
  C      3.769120  -15.940730    5.782670
  H     -1.263480    2.250210    2.748400
  H      0.316530   -1.930570    3.612980
  H     -0.695920   -4.268480   -2.877540
  H      1.345940   -4.720380    3.396190
  H      1.175820   -6.545100    0.929130
  H      1.913780   -8.798670    1.302640
  H      2.589520   -9.319140    2.934000
  H      2.920710   -5.392920    6.908140
  H      3.446150   -8.420150    7.034370
  H      3.782830   -6.192860    9.144230
  H      4.667080   -7.169560   11.430430
  H      5.305450   -9.424820   12.502810
  H      5.750320  -11.802490   12.939680
  H      5.961080  -14.364020   12.755180
  H      5.604610  -16.269170   11.132570
  H      4.363610  -18.875500    6.826720
  H      3.475130  -16.312540    4.823270

 Total Charge           Charge          ....    0
 Multiplicity           Mult            ....    1
 Number of Electrons    NEL             ....  362
 Basis Dimension        Dim             ....  783

ORBITAL ENERGIES
----------------

  NO   OCC          E(Eh)            E(eV)
   0   2.0000     -88.977041     -2421.1884
   1   2.0000     -88.940912     -2420.2053
   2   2.0000     -88.940787     -2420.2019
   3   2.0000     -19.339117      -526.2441
   4   2.0000     -19.335805      -526.1540
   5   2.0000     -19.310332      -525.4608
   6   2.0000     -19.250472      -523.8320
   7   2.0000     -19.246494      -523.7237
   8   2.0000     -19.243786      -523.6500
   9   2.0000     -19.216880      -522.9179
  10   2.0000     -19.211499      -522.7715
  11   2.0000     -19.191750      -522.2341
  12   2.0000     -14.657601      -398.8536
  13   2.0000     -14.471348      -393.7854
  14   2.0000     -14.457857      -393.4183
  15   2.0000     -10.406647      -283.1793
  16   2.0000     -10.405373      -283.1446
  17   2.0000     -10.402575      -283.0685
  18   2.0000     -10.389859      -282.7224
  19   2.0000     -10.377695      -282.3914
  20   2.0000     -10.376180      -282.3502
  21   2.0000     -10.358939      -281.8811
  22   2.0000     -10.349848      -281.6337
  23   2.0000     -10.344412      -281.4858
  24   2.0000     -10.321936      -280.8742
  25   2.0000     -10.314336      -280.6673
  26   2.0000     -10.314254      -280.6651
  27   2.0000     -10.312047      -280.6051
  28   2.0000     -10.309657      -280.5400
  29   2.0000     -10.307507      -280.4815
  30   2.0000     -10.307051      -280.4691
  31   2.0000     -10.305636      -280.4306
  32   2.0000     -10.305494      -280.4267
  33   2.0000     -10.301273      -280.3119
  34   2.0000     -10.300410      -280.2884
  35   2.0000     -10.297410      -280.2068
  36   2.0000     -10.295017      -280.1417
  37   2.0000     -10.292346      -280.0690
  38   2.0000     -10.292284      -280.0673
  39   2.0000     -10.289300      -279.9861
  40   2.0000     -10.288954      -279.9767
  41   2.0000     -10.286109      -279.8992
  42   2.0000     -10.284859      -279.8652
  43   2.0000     -10.283786      -279.8360
  44   2.0000     -10.279604      -279.7222
  45   2.0000     -10.279348      -279.7153
  46   2.0000     -10.276451      -279.6365
  47   2.0000     -10.267751      -279.3997
  48   2.0000     -10.263129      -279.2739
  49   2.0000      -8.072070      -219.6522
  50   2.0000      -8.037302      -218.7061
  51   2.0000      -8.037114      -218.7010
  52   2.0000      -6.041402      -164.3949
  53   2.0000      -6.037112      -164.2782
  54   2.0000      -6.034352      -164.2031
  55   2.0000      -6.007043      -163.4599
  56   2.0000      -6.006887      -163.4557
  57   2.0000      -6.002975      -163.3493
  58   2.0000      -6.002731      -163.3426
  59   2.0000      -5.998153      -163.2180
  60   2.0000      -5.997823      -163.2091
  61   2.0000      -1.328511       -36.1506
  62   2.0000      -1.278536       -34.7907
  63   2.0000      -1.249107       -33.9899
  64   2.0000      -1.232544       -33.5392
  65   2.0000      -1.178426       -32.0666
  66   2.0000      -1.159951       -31.5639
  67   2.0000      -1.144180       -31.1347
  68   2.0000      -1.139316       -31.0024
  69   2.0000      -1.091876       -29.7115
  70   2.0000      -1.046782       -28.4844
  71   2.0000      -0.999609       -27.2007
  72   2.0000      -0.993556       -27.0360
  73   2.0000      -0.990981       -26.9660
  74   2.0000      -0.972779       -26.4706
  75   2.0000      -0.943172       -25.6650
  76   2.0000      -0.937710       -25.5164
  77   2.0000      -0.929320       -25.2881
  78   2.0000      -0.915442       -24.9104
  79   2.0000      -0.911111       -24.7926
  80   2.0000      -0.900840       -24.5131
  81   2.0000      -0.897891       -24.4329
  82   2.0000      -0.881981       -23.9999
  83   2.0000      -0.861989       -23.4559
  84   2.0000      -0.848265       -23.0825
  85   2.0000      -0.838719       -22.8227
  86   2.0000      -0.827635       -22.5211
  87   2.0000      -0.819881       -22.3101
  88   2.0000      -0.806456       -21.9448
  89   2.0000      -0.792015       -21.5518
  90   2.0000      -0.780959       -21.2510
  91   2.0000      -0.777021       -21.1438
  92   2.0000      -0.771016       -20.9804
  93   2.0000      -0.766153       -20.8481
  94   2.0000      -0.739888       -20.1334
  95   2.0000      -0.736341       -20.0369
  96   2.0000      -0.712046       -19.3758
  97   2.0000      -0.711140       -19.3511
  98   2.0000      -0.705398       -19.1949
  99   2.0000      -0.702464       -19.1150
 100   2.0000      -0.685743       -18.6600
 101   2.0000      -0.674080       -18.3426
 102   2.0000      -0.672260       -18.2931
 103   2.0000      -0.668583       -18.1931
 104   2.0000      -0.657999       -17.9051
 105   2.0000      -0.651764       -17.7354
 106   2.0000      -0.642436       -17.4816
 107   2.0000      -0.633101       -17.2276
 108   2.0000      -0.626419       -17.0457
 109   2.0000      -0.620619       -16.8879
 110   2.0000      -0.617919       -16.8144
 111   2.0000      -0.616891       -16.7865
 112   2.0000      -0.613130       -16.6841
 113   2.0000      -0.606462       -16.5027
 114   2.0000      -0.606159       -16.4944
 115   2.0000      -0.603127       -16.4119
 116   2.0000      -0.590986       -16.0816
 117   2.0000      -0.589166       -16.0320
 118   2.0000      -0.588186       -16.0054
 119   2.0000      -0.578765       -15.7490
 120   2.0000      -0.572095       -15.5675
 121   2.0000      -0.568672       -15.4744
 122   2.0000      -0.563045       -15.3212
 123   2.0000      -0.561503       -15.2793
 124   2.0000      -0.551665       -15.0116
 125   2.0000      -0.551231       -14.9998
 126   2.0000      -0.546283       -14.8651
 127   2.0000      -0.542242       -14.7552
 128   2.0000      -0.528836       -14.3904
 129   2.0000      -0.528350       -14.3771
 130   2.0000      -0.525780       -14.3072
 131   2.0000      -0.521800       -14.1989
 132   2.0000      -0.520148       -14.1539
 133   2.0000      -0.516375       -14.0513
 134   2.0000      -0.514995       -14.0137
 135   2.0000      -0.509500       -13.8642
 136   2.0000      -0.498789       -13.5727
 137   2.0000      -0.497912       -13.5489
 138   2.0000      -0.497164       -13.5285
 139   2.0000      -0.487016       -13.2524
 140   2.0000      -0.486282       -13.2324
 141   2.0000      -0.483864       -13.1666
 142   2.0000      -0.477254       -12.9868
 143   2.0000      -0.475805       -12.9473
 144   2.0000      -0.474777       -12.9193
 145   2.0000      -0.471764       -12.8374
 146   2.0000      -0.462217       -12.5776
 147   2.0000      -0.460766       -12.5381
 148   2.0000      -0.455433       -12.3930
 149   2.0000      -0.454624       -12.3710
 150   2.0000      -0.449087       -12.2203
 151   2.0000      -0.445718       -12.1286
 152   2.0000      -0.437417       -11.9027
 153   2.0000      -0.432014       -11.7557
 154   2.0000      -0.430913       -11.7257
 155   2.0000      -0.420230       -11.4350
 156   2.0000      -0.416806       -11.3419
 157   2.0000      -0.407648       -11.0927
 158   2.0000      -0.398137       -10.8339
 159   2.0000      -0.394079       -10.7234
 160   2.0000      -0.393102       -10.6969
 161   2.0000      -0.389737       -10.6053
 162   2.0000      -0.389433       -10.5970
 163   2.0000      -0.382896       -10.4191
 164   2.0000      -0.378973       -10.3124
 165   2.0000      -0.373031       -10.1507
 166   2.0000      -0.372239       -10.1291
 167   2.0000      -0.366609        -9.9759
 168   2.0000      -0.360804        -9.8180
 169   2.0000      -0.350312        -9.5325
 170   2.0000      -0.349102        -9.4995
 171   2.0000      -0.345987        -9.4148
 172   2.0000      -0.343982        -9.3602
 173   2.0000      -0.338504        -9.2112
 174   2.0000      -0.336875        -9.1668
 175   2.0000      -0.324289        -8.8244
 176   2.0000      -0.321314        -8.7434
 177   2.0000      -0.306935        -8.3521
 178   2.0000      -0.282390        -7.6842
 179   2.0000      -0.265490        -7.2243
 180   2.0000      -0.209053        -5.6886
 181   0.0000      -0.084382        -2.2961
 182   0.0000      -0.063282        -1.7220
 183   0.0000      -0.056775        -1.5449
 184   0.0000      -0.045912        -1.2493
 185   0.0000      -0.021413        -0.5827

MULLIKEN ATOMIC CHARGES
-----------------------
   0 C :    0.184539
   1 C :   -0.162145
   2 C :    0.161521
   3 O :   -0.179382
   4 O :   -0.158795
   5 C :   -0.041176
   6 N :    0.019295
   7 O :   -0.123037
   8 C :    0.139623
   9 O :   -0.274456
  10 C :   -0.039256
  11 C :    0.159868
  12 O :   -0.101246
  13 N :   -0.162582
  14 C :    0.188162
  15 O :   -0.150922
  16 C :   -0.084210
  17 C :    0.165028
  18 C :    0.019948
  19 C :   -0.001730
  20 C :   -0.032444
  21 C :    0.004711
  22 C :    0.017164
  23 C :   -0.012263
  24 C :   -0.094830
  25 C :    0.018758
  26 C :   -0.020774
  27 C :   -0.011181
  28 C :    0.035010
  29 C :    0.031231
  30 C :   -0.052350
  31 S :    0.090510
  32 C :   -0.040258
  33 C :    0.036831
  34 C :    0.031239
  35 C :   -0.030988
  36 S :    0.095647
  37 C :    0.047218
  38 C :   -0.230783
  39 S :    0.147323
  40 C :   -0.139388
  41 C :    0.127763
  42 C :    0.194011
  43 O :   -0.192709
  44 C :    0.249600
  45 N :    0.271765
  46 O :   -0.251767
  47 O :   -0.229474
  48 C :   -0.079630
  49 H :    0.053838
  50 H :    0.182017
  51 H :    0.141328
  52 H :   -0.001139
  53 H :    0.002122
  54 H :    0.033623
  55 H :    0.045802
  56 H :    0.019298
  57 H :    0.027751
  58 H :   -0.012629
  59 H :   -0.010868
  60 H :   -0.012963
  61 H :   -0.014225
  62 H :   -0.013734
  63 H :   -0.023398
  64 H :    0.031720
  65 H :    0.012468
Sum of atomic charges:   -0.0000000

LOEWDIN ATOMIC CHARGES
----------------------
   0 C :    0.103257
   1 C :   -0.151803
   2 C :    0.074605
   3 O :   -0.167835
   4 O :   -0.028148
   5 C :   -0.052046
   6 N :   -0.018325
   7 O :    0.068469
   8 C :    0.049087
   9 O :    0.016415
  10 C :   -0.065515
  11 C :    0.085786
  12 O :   -0.125460
  13 N :   -0.002551
  14 C :    0.087178
  15 O :   -0.159620
  16 C :   -0.103045
  17 C :    0.086281
  18 C :   -0.056451
  19 C :    0.043475
  20 C :   -0.050767
  21 C :    0.018899
  22 C :   -0.038637
  23 C :   -0.028125
  24 C :   -0.049676
  25 C :    0.000280
  26 C :   -0.060968
  27 C :   -0.135717
  28 C :   -0.033562
  29 C :   -0.027946
  30 C :   -0.177473
  31 S :    0.386229
  32 C :   -0.181355
  33 C :   -0.030288
  34 C :   -0.034997
  35 C :   -0.142574
  36 S :    0.400595
  37 C :   -0.088400
  38 C :   -0.197755
  39 S :    0.473010
  40 C :   -0.190674
  41 C :   -0.080722
  42 C :    0.010308
  43 O :   -0.000749
  44 C :    0.026619
  45 N :    0.273170
  46 O :   -0.213141
  47 O :   -0.191841
  48 C :   -0.009051
  49 H :    0.043976
  50 H :    0.058140
  51 H :    0.096955
  52 H :    0.042152
  53 H :    0.036988
  54 H :    0.030700
  55 H :    0.037700
  56 H :    0.039904
  57 H :    0.032557
  58 H :    0.033176
  59 H :    0.034050
  60 H :    0.032076
  61 H :    0.031690
  62 H :    0.032352
  63 H :    0.033338
  64 H :    0.028741
  65 H :    0.047060

  Mayer bond orders larger than 0.100000
B(  0-C ,  1-C ) :   1.5487 B(  0-C ,  7-O ) :   1.2254 B(  0-C , 49-H ) :   0.9754
B(  1-C ,  2-C ) :   0.8999 B(  1-C ,  5-C ) :   1.1375 B(  2-C ,  3-O ) :   2.2023
B(  2-C ,  4-O ) :   1.2932 B(  4-O , 50-H ) :   0.9212 B(  5-C ,  6-N ) :   1.7350
B(  5-C ,  8-C ) :   1.0393 B(  6-N ,  7-O ) :   1.0165 B(  8-C ,  9-O ) :   1.0969
B(  8-C , 10-C ) :   1.5311 B(  9-O , 17-C ) :   1.0719 B( 10-C , 11-C ) :   0.8459
B( 10-C , 16-C ) :   1.2614 B( 11-C , 12-O ) :   2.3122 B( 11-C , 13-N ) :   1.0713
B( 13-N , 14-C ) :   1.1047 B( 13-N , 51-H ) :   0.9134 B( 14-C , 15-O ) :   2.1818
B( 14-C , 16-C ) :   0.8840 B( 16-C , 17-C ) :   1.4525 B( 17-C , 18-C ) :   1.1279
B( 18-C , 19-C ) :   1.6640 B( 18-C , 52-H ) :   0.9532 B( 19-C , 20-C ) :   1.0803
B( 19-C , 53-H ) :   0.9751 B( 20-C , 21-C ) :   1.8574 B( 20-C , 22-C ) :   0.8603
B( 21-C , 54-H ) :   0.9482 B( 21-C , 55-H ) :   0.9482 B( 22-C , 23-C ) :   2.3321
B( 23-C , 24-C ) :   0.9913 B( 24-C , 25-C ) :   1.6652 B( 24-C , 56-H ) :   0.9650
B( 25-C , 26-C ) :   1.1537 B( 25-C , 57-H ) :   0.9752 B( 26-C , 27-C ) :   1.5696
B( 26-C , 58-H ) :   0.9822 B( 27-C , 28-C ) :   1.1386 B( 27-C , 31-S ) :   1.0368
B( 28-C , 29-C ) :   1.5901 B( 28-C , 59-H ) :   1.0001 B( 29-C , 30-C ) :   1.1889
B( 29-C , 60-H ) :   0.9936 B( 30-C , 31-S ) :   1.0522 B( 30-C , 32-C ) :   1.5032
B( 32-C , 33-C ) :   1.1861 B( 32-C , 36-S ) :   1.0377 B( 33-C , 34-C ) :   1.5954
B( 33-C , 61-H ) :   0.9924 B( 34-C , 35-C ) :   1.1382 B( 34-C , 62-H ) :   0.9993
B( 35-C , 36-S ) :   1.0464 B( 35-C , 37-C ) :   1.6041 B( 37-C , 38-C ) :   1.1521
B( 37-C , 63-H ) :   0.9427 B( 38-C , 39-S ) :   1.1345 B( 38-C , 40-C ) :   0.1088
B( 38-C , 42-C ) :   1.4245 B( 39-S , 40-C ) :   1.1803 B( 40-C , 41-C ) :   1.4294
B( 40-C , 64-H ) :   0.9772 B( 41-C , 42-C ) :   1.2341 B( 41-C , 48-C ) :   1.0649
B( 42-C , 43-O ) :   1.0891 B( 43-O , 44-C ) :   1.1208 B( 44-C , 45-N ) :   0.9150
B( 44-C , 48-C ) :   1.5771 B( 45-N , 46-O ) :   1.5296 B( 45-N , 47-O ) :   1.5155
B( 46-O , 47-O ) :   0.2799 B( 48-C , 65-H ) :   1.0254

-----------------------------------------------------------------------------
         ABSORPTION SPECTRUM VIA TRANSITION ELECTRIC DIPOLE MOMENTS
-----------------------------------------------------------------------------
State   Energy  Wavelength   fosc         T2         TX        TY        TZ
        (cm-1)    (nm)                  (au**2)     (au)      (au)      (au)
-----------------------------------------------------------------------------
   0   13526.1    739.3   0.643585835  15.66430   0.62929  -3.85347   0.64734
   1   15987.9    625.5   0.479233628   9.86802   0.73860  -2.77385   1.27604
   2   21440.6    466.4   0.054635658   0.83891   0.03729  -0.84873  -0.34231
   3   23752.9    421.0   0.022436737   0.31097   0.05491   0.38330   0.40129
   4   26785.9    373.3   0.007419176   0.09119   0.12250  -0.00400   0.27598
   5   27044.1    369.8   0.683245122   8.31725   0.95134   0.29504   2.70650
   6   28243.0    354.1   0.537843052   6.26933  -0.87068   0.37435  -2.31756
   7   30364.7    329.3   0.001295051   0.01404   0.07669  -0.03969   0.08114
   8   31387.9    318.6   0.490268555   5.14219   0.87575  -1.89455   0.88653
   9   32480.8    307.9   0.035096153   0.35572   0.05256   0.47760   0.35334
  10   32550.7    307.2   0.000017188   0.00017  -0.00914   0.00357  -0.00881
  11   32623.8    306.5   0.251078376   2.53367  -0.11103  -0.89582  -1.31105
  12   32804.7    304.8   0.316582861   3.17707   0.61333  -1.62191   0.41269
  13   34061.7    293.6   0.000109617   0.00106  -0.00413   0.01372   0.02923
  14   34415.4    290.6   0.013379186   0.12798   0.00028   0.26576   0.23949
  15   34552.8    289.4   0.112097001   1.06804   0.28026  -0.98180   0.15986
  16   34775.5    287.6   0.019620738   0.18575   0.22222  -0.36793  -0.03142
  17   35732.8    279.9   0.153345690   1.41280  -0.27688   0.61258  -0.98025
  18   37208.3    268.8   0.000608846   0.00539   0.05319  -0.04890   0.01290
  19   37236.0    268.6   0.000868421   0.00768  -0.02477   0.07532  -0.03730
  20   37238.0    268.5   0.000729911   0.00645   0.02391  -0.07395   0.02033
  21   37685.1    265.4   0.084142997   0.73506  -0.21396   0.76692  -0.31799
  22   38119.2    262.3   0.206298276   1.78167  -0.33152   1.25229  -0.32175
  23   38262.5    261.4   0.229127215   1.97142  -0.24338   1.37343  -0.16084
  24   39082.2    255.9   0.055043344   0.46366   0.13447  -0.65925  -0.10473
  25   39152.0    255.4   0.037929423   0.31893   0.11942  -0.23048   0.50155
  26   39342.7    254.2   0.003460617   0.02896  -0.01571  -0.12009   0.11954
  27   39753.3    251.6   0.060597262   0.50183  -0.14061   0.07517  -0.69022

FINAL SINGLE POINT ENERGY     -3338.437623786063

DIPOLE MOMENT
-------------
                                X             Y             Z
Electronic contribution:     -6.50525       1.67338     -12.62034
Nuclear contribution   :      7.81323      -4.77205      14.47025
                        -----------------------------------------
Total Dipole Moment    :      1.30798      -3.09867       1.84991
                        -----------------------------------------
Magnitude (a.u.)       :      3.83858
Magnitude (Debye)      :      9.75690

Rotational constants in cm-1:     0.003319     0.000484     0.000424
Rotational constants in MHz :    99.505823    14.500569    12.712040

                             ****ORCA TERMINATED NORMALLY****
TOTAL RUN TIME: 0 days 0 hours 4 minutes 21 seconds 368 msec
