                         Program Version 4.2.0 -  RELEASE  -
|  1> # ORCA input file
|  2> # SCF done       -136.650642656507          0.000437560078
|  3> ! CAM-B3LYP def2-SVP def2/J RIJCOSX Grid4 TightSCF
|  4> %maxcore 5000
|  5> %tddft
|  6>     Mode sTDDFT
|  7>     Ethresh 5.0
|  8>     maxcore 5000
|  9> end
| 10>
| 11> %pal
| 12>   nprocs 6
| 13>   end
| 14> * xyz 0 1
| 15>    N        7.41619       -18.28389        -1.09384
| 16>    C        7.45463       -16.92297        -1.39079
| 17>    C        8.53322       -16.10637        -1.25875
| 18>    S        8.19716       -14.49562        -1.76939
| 19>    C        6.58313       -14.91070        -2.17622
| 20>    C        6.32334       -16.23282        -1.94785
| 21>    N        5.15066       -16.91090        -2.23504
| 22>    C        3.99485       -16.35032        -2.63547
| 23>    C        2.91872       -17.05484        -3.09613
| 24>    C        1.68113       -16.51616        -3.49296
| 25>    C        1.20476       -15.23183        -3.35069
| 26>    C       -0.04351       -14.74316        -3.80519
| 27>    C       -0.29794       -13.43511        -3.49868
| 28>    C        0.73379       -12.81384        -2.77125
| 29>    S        2.04550       -13.93759        -2.51155
| 30>    C        0.86662       -11.53611        -2.25029
| 31>    C        0.06646       -10.38304        -2.32550
| 32>    C        0.58809        -9.30633        -1.66023
| 33>    C        1.82291        -9.55532        -1.01659
| 34>    S        2.29905       -11.21165        -1.29439
| 35>    C        2.60022        -8.69321        -0.27211
| 36>    C        3.79867        -9.05132         0.35427
| 37>    S        4.44668       -10.68142         0.33357
| 38>    C        5.86096       -10.29769         1.28686
| 39>    C        5.83561        -8.93912         1.60573
| 40>    C        4.68937        -8.27242         1.08957
| 41>    O        4.69717        -6.96743         1.42789
| 42>    C        5.83077        -6.79222         2.15543
| 43>    N        6.11039        -5.50305         2.65186
| 44>    O        7.13529        -5.38357         3.30185
| 45>    O        5.32716        -4.60956         2.40480
| 46>    C        6.56330        -7.94535         2.30127
| 47>    C        6.76831       -11.33769         1.57491
| 48>    S        6.30527       -12.96062         1.15616
| 49>    C        7.82643       -13.61260         1.73836
| 50>    C        7.99471       -15.04124         1.86084
| 51>    O        8.96041       -15.58148         2.34947
| 52>    O        6.96243       -15.80895         1.41405
| 53>    C        8.66401       -12.57651         2.16471
| 54>    C        8.03580       -11.31099         2.10667
| 55>    N        9.94789       -12.69871         2.59753
| 56>    C       10.88822       -13.62830         2.18524
| 57>    C       10.92128       -14.23250         0.96509
| 58>    S       12.30049       -15.23165         0.77337
| 59>    C       12.86227       -14.82767         2.34764
| 60>    C       12.01930       -13.97671         2.99544
| 61>    N       12.25962       -13.41524         4.24843
| 62>    C       11.33530       -13.46895         5.29196
| 63>    C       10.14743       -14.05687         5.26785
| 64>    H        8.26841       -18.59016        -0.64325
| 65>    H        6.61706       -18.54124        -0.52724
| 66>    H        9.50141       -16.35458        -0.87345
| 67>    H        5.93699       -14.15773        -2.57765
| 68>    H        5.22817       -17.92067        -2.23931
| 69>    H        3.97657       -15.27497        -2.58310
| 70>    H        3.02402       -18.12795        -3.19566
| 71>    H        0.99493       -17.20806        -3.96553
| 72>    H       -0.72401       -15.37562        -4.34877
| 73>    H       -1.20048       -12.91348        -3.76300
| 74>    H       -0.86261       -10.36629        -2.86761
| 75>    H        0.11822        -8.33982        -1.61166
| 76>    H        2.27659        -7.66876        -0.15549
| 77>    H        7.48420        -8.03216         2.83880
| 78>    H        6.22960       -15.27234         1.08570
| 79>    H        8.52195       -10.40264         2.41295
| 80>    H       10.29160       -11.98324         3.22136
| 81>    H       10.21829       -14.12788         0.16450
| 82>    H       13.78381       -15.24175         2.70470
| 83>    H       13.22305       -13.48700         4.54651
| 84>    H       11.68143       -12.93283         6.16749
| 85>    H        9.79840       -14.62430         4.42363
| 86>    H        9.49127       -13.98686         6.11600
| 87> *
| 88>
| 89>                          ****END OF INPUT****

CARTESIAN COORDINATES (ANGSTROEM)
---------------------------------
  N      7.416190  -18.283890   -1.093840
  C      7.454630  -16.922970   -1.390790
  C      8.533220  -16.106370   -1.258750
  S      8.197160  -14.495620   -1.769390
  C      6.583130  -14.910700   -2.176220
  C      6.323340  -16.232820   -1.947850
  N      5.150660  -16.910900   -2.235040
  C      3.994850  -16.350320   -2.635470
  C      2.918720  -17.054840   -3.096130
  C      1.681130  -16.516160   -3.492960
  C      1.204760  -15.231830   -3.350690
  C     -0.043510  -14.743160   -3.805190
  C     -0.297940  -13.435110   -3.498680
  C      0.733790  -12.813840   -2.771250
  S      2.045500  -13.937590   -2.511550
  C      0.866620  -11.536110   -2.250290
  C      0.066460  -10.383040   -2.325500
  C      0.588090   -9.306330   -1.660230
  C      1.822910   -9.555320   -1.016590
  S      2.299050  -11.211650   -1.294390
  C      2.600220   -8.693210   -0.272110
  C      3.798670   -9.051320    0.354270
  S      4.446680  -10.681420    0.333570
  C      5.860960  -10.297690    1.286860
  C      5.835610   -8.939120    1.605730
  C      4.689370   -8.272420    1.089570
  O      4.697170   -6.967430    1.427890
  C      5.830770   -6.792220    2.155430
  N      6.110390   -5.503050    2.651860
  O      7.135290   -5.383570    3.301850
  O      5.327160   -4.609560    2.404800
  C      6.563300   -7.945350    2.301270
  C      6.768310  -11.337690    1.574910
  S      6.305270  -12.960620    1.156160
  C      7.826430  -13.612600    1.738360
  C      7.994710  -15.041240    1.860840
  O      8.960410  -15.581480    2.349470
  O      6.962430  -15.808950    1.414050
  C      8.664010  -12.576510    2.164710
  C      8.035800  -11.310990    2.106670
  N      9.947890  -12.698710    2.597530
  C     10.888220  -13.628300    2.185240
  C     10.921280  -14.232500    0.965090
  S     12.300490  -15.231650    0.773370
  C     12.862270  -14.827670    2.347640
  C     12.019300  -13.976710    2.995440
  N     12.259620  -13.415240    4.248430
  C     11.335300  -13.468950    5.291960
  C     10.147430  -14.056870    5.267850
  H      8.268410  -18.590160   -0.643250
  H      6.617060  -18.541240   -0.527240
  H      9.501410  -16.354580   -0.873450
  H      5.936990  -14.157730   -2.577650
  H      5.228170  -17.920670   -2.239310
  H      3.976570  -15.274970   -2.583100
  H      3.024020  -18.127950   -3.195660
  H      0.994930  -17.208060   -3.965530
  H     -0.724010  -15.375620   -4.348770
  H     -1.200480  -12.913480   -3.763000
  H     -0.862610  -10.366290   -2.867610
  H      0.118220   -8.339820   -1.611660
  H      2.276590   -7.668760   -0.155490
  H      7.484200   -8.032160    2.838800
  H      6.229600  -15.272340    1.085700
  H      8.521950  -10.402640    2.412950
  H     10.291600  -11.983240    3.221360
  H     10.218290  -14.127880    0.164500
  H     13.783810  -15.241750    2.704700
  H     13.223050  -13.487000    4.546510
  H     11.681430  -12.932830    6.167490
  H      9.798400  -14.624300    4.423630
  H      9.491270  -13.986860    6.116000

 Total Charge           Charge          ....    0
 Multiplicity           Mult            ....    1
 Number of Electrons    NEL             ....  392
 Basis Dimension        Dim             ....  825

ORBITAL ENERGIES
----------------

  NO   OCC          E(Eh)            E(eV)
   0   2.0000     -88.967936     -2420.9406
   1   2.0000     -88.955661     -2420.6066
   2   2.0000     -88.948949     -2420.4240
   3   2.0000     -88.947870     -2420.3946
   4   2.0000     -88.945070     -2420.3184
   5   2.0000     -88.935066     -2420.0462
   6   2.0000     -19.307428      -525.3818
   7   2.0000     -19.240761      -523.5677
   8   2.0000     -19.239785      -523.5412
   9   2.0000     -19.237398      -523.4762
  10   2.0000     -19.176799      -521.8272
  11   2.0000     -14.651395      -398.6847
  12   2.0000     -14.466040      -393.6410
  13   2.0000     -14.434818      -392.7914
  14   2.0000     -14.420787      -392.4096
  15   2.0000     -14.416074      -392.2813
  16   2.0000     -10.385498      -282.6038
  17   2.0000     -10.383432      -282.5476
  18   2.0000     -10.342093      -281.4227
  19   2.0000     -10.331985      -281.1476
  20   2.0000     -10.329011      -281.0667
  21   2.0000     -10.322688      -280.8946
  22   2.0000     -10.318284      -280.7748
  23   2.0000     -10.317328      -280.7488
  24   2.0000     -10.316034      -280.7135
  25   2.0000     -10.311893      -280.6009
  26   2.0000     -10.309435      -280.5340
  27   2.0000     -10.308906      -280.5196
  28   2.0000     -10.305950      -280.4392
  29   2.0000     -10.301894      -280.3288
  30   2.0000     -10.301139      -280.3082
  31   2.0000     -10.297355      -280.2053
  32   2.0000     -10.295276      -280.1487
  33   2.0000     -10.294732      -280.1339
  34   2.0000     -10.294610      -280.1306
  35   2.0000     -10.291357      -280.0421
  36   2.0000     -10.287422      -279.9350
  37   2.0000     -10.286983      -279.9230
  38   2.0000     -10.286020      -279.8968
  39   2.0000     -10.285385      -279.8796
  40   2.0000     -10.283163      -279.8191
  41   2.0000     -10.282341      -279.7967
  42   2.0000     -10.279445      -279.7179
  43   2.0000     -10.276960      -279.6503
  44   2.0000     -10.275624      -279.6139
  45   2.0000     -10.273308      -279.5509
  46   2.0000     -10.269821      -279.4560
  47   2.0000     -10.267344      -279.3886
  48   2.0000     -10.227679      -278.3093
  49   2.0000      -8.062560      -219.3934
  50   2.0000      -8.051289      -219.0867
  51   2.0000      -8.044895      -218.9127
  52   2.0000      -8.042665      -218.8520
  53   2.0000      -8.041647      -218.8243
  54   2.0000      -8.030804      -218.5293
  55   2.0000      -6.032003      -164.1391
  56   2.0000      -6.027692      -164.0218
  57   2.0000      -6.024501      -163.9350
  58   2.0000      -6.020907      -163.8372
  59   2.0000      -6.016811      -163.7257
  60   2.0000      -6.014607      -163.6658
  61   2.0000      -6.012754      -163.6154
  62   2.0000      -6.012277      -163.6024
  63   2.0000      -6.011326      -163.5765
  64   2.0000      -6.010490      -163.5538
  65   2.0000      -6.007863      -163.4823
  66   2.0000      -6.007087      -163.4611
  67   2.0000      -6.006014      -163.4320
  68   2.0000      -6.004662      -163.3952
  69   2.0000      -6.002708      -163.3420
  70   2.0000      -6.000232      -163.2746
  71   2.0000      -5.996038      -163.1605
  72   2.0000      -5.992819      -163.0729
  73   2.0000      -1.321762       -35.9670
  74   2.0000      -1.226950       -33.3870
  75   2.0000      -1.160427       -31.5768
  76   2.0000      -1.137662       -30.9573
  77   2.0000      -1.074978       -29.2516
  78   2.0000      -1.069286       -29.0967
  79   2.0000      -1.049242       -28.5513
  80   2.0000      -1.017399       -27.6848
  81   2.0000      -1.004084       -27.3225
  82   2.0000      -1.002267       -27.2731
  83   2.0000      -0.994889       -27.0723
  84   2.0000      -0.975122       -26.5344
  85   2.0000      -0.966634       -26.3034
  86   2.0000      -0.951646       -25.8956
  87   2.0000      -0.945281       -25.7224
  88   2.0000      -0.932584       -25.3769
  89   2.0000      -0.906944       -24.6792
  90   2.0000      -0.895721       -24.3738
  91   2.0000      -0.879966       -23.9451
  92   2.0000      -0.863507       -23.4972
  93   2.0000      -0.845051       -22.9950
  94   2.0000      -0.840829       -22.8801
  95   2.0000      -0.839214       -22.8362
  96   2.0000      -0.827357       -22.5135
  97   2.0000      -0.822683       -22.3863
  98   2.0000      -0.815395       -22.1880
  99   2.0000      -0.798369       -21.7247
 100   2.0000      -0.795930       -21.6583
 101   2.0000      -0.783258       -21.3135
 102   2.0000      -0.780843       -21.2478
 103   2.0000      -0.778804       -21.1923
 104   2.0000      -0.770798       -20.9745
 105   2.0000      -0.746549       -20.3146
 106   2.0000      -0.720896       -19.6166
 107   2.0000      -0.710174       -19.3248
 108   2.0000      -0.706039       -19.2123
 109   2.0000      -0.686725       -18.6867
 110   2.0000      -0.678220       -18.4553
 111   2.0000      -0.674733       -18.3604
 112   2.0000      -0.671844       -18.2818
 113   2.0000      -0.662533       -18.0284
 114   2.0000      -0.661604       -18.0032
 115   2.0000      -0.658479       -17.9181
 116   2.0000      -0.654739       -17.8164
 117   2.0000      -0.647079       -17.6079
 118   2.0000      -0.640067       -17.4171
 119   2.0000      -0.636455       -17.3188
 120   2.0000      -0.628910       -17.1135
 121   2.0000      -0.624804       -17.0018
 122   2.0000      -0.617483       -16.8026
 123   2.0000      -0.615209       -16.7407
 124   2.0000      -0.609209       -16.5774
 125   2.0000      -0.603100       -16.4112
 126   2.0000      -0.599307       -16.3080
 127   2.0000      -0.593913       -16.1612
 128   2.0000      -0.584243       -15.8981
 129   2.0000      -0.581173       -15.8145
 130   2.0000      -0.573545       -15.6069
 131   2.0000      -0.567306       -15.4372
 132   2.0000      -0.563715       -15.3395
 133   2.0000      -0.563029       -15.3208
 134   2.0000      -0.556388       -15.1401
 135   2.0000      -0.549313       -14.9476
 136   2.0000      -0.538148       -14.6438
 137   2.0000      -0.532912       -14.5013
 138   2.0000      -0.527825       -14.3628
 139   2.0000      -0.523834       -14.2542
 140   2.0000      -0.520638       -14.1673
 141   2.0000      -0.518263       -14.1027
 142   2.0000      -0.513172       -13.9641
 143   2.0000      -0.509102       -13.8534
 144   2.0000      -0.508059       -13.8250
 145   2.0000      -0.503968       -13.7137
 146   2.0000      -0.498671       -13.5695
 147   2.0000      -0.497279       -13.5317
 148   2.0000      -0.494580       -13.4582
 149   2.0000      -0.491919       -13.3858
 150   2.0000      -0.485499       -13.2111
 151   2.0000      -0.478623       -13.0240
 152   2.0000      -0.477126       -12.9833
 153   2.0000      -0.470154       -12.7935
 154   2.0000      -0.469361       -12.7720
 155   2.0000      -0.469221       -12.7682
 156   2.0000      -0.467603       -12.7241
 157   2.0000      -0.463486       -12.6121
 158   2.0000      -0.460395       -12.5280
 159   2.0000      -0.457397       -12.4464
 160   2.0000      -0.454865       -12.3775
 161   2.0000      -0.451182       -12.2773
 162   2.0000      -0.450023       -12.2457
 163   2.0000      -0.443148       -12.0587
 164   2.0000      -0.441241       -12.0068
 165   2.0000      -0.428632       -11.6637
 166   2.0000      -0.428230       -11.6527
 167   2.0000      -0.424473       -11.5505
 168   2.0000      -0.423431       -11.5221
 169   2.0000      -0.420815       -11.4509
 170   2.0000      -0.412835       -11.2338
 171   2.0000      -0.410278       -11.1642
 172   2.0000      -0.402019       -10.9395
 173   2.0000      -0.393789       -10.7155
 174   2.0000      -0.390352       -10.6220
 175   2.0000      -0.387424       -10.5423
 176   2.0000      -0.386098       -10.5063
 177   2.0000      -0.375830       -10.2268
 178   2.0000      -0.374889       -10.2012
 179   2.0000      -0.373941       -10.1755
 180   2.0000      -0.366929        -9.9847
 181   2.0000      -0.360402        -9.8070
 182   2.0000      -0.341625        -9.2961
 183   2.0000      -0.338750        -9.2179
 184   2.0000      -0.334412        -9.0998
 185   2.0000      -0.327673        -8.9164
 186   2.0000      -0.322506        -8.7758
 187   2.0000      -0.314728        -8.5642
 188   2.0000      -0.307729        -8.3737
 189   2.0000      -0.299546        -8.1511
 190   2.0000      -0.281389        -7.6570
 191   2.0000      -0.269783        -7.3412
 192   2.0000      -0.252328        -6.8662
 193   2.0000      -0.251191        -6.8353
 194   2.0000      -0.244920        -6.6646
 195   2.0000      -0.201408        -5.4806
 196   0.0000      -0.088565        -2.4100
 197   0.0000      -0.058948        -1.6041
 198   0.0000      -0.021709        -0.5907
 199   0.0000       0.001139         0.0310
 200   0.0000       0.009925         0.2701

MULLIKEN ATOMIC CHARGES
-----------------------
   0 N :   -0.088523
   1 C :    0.099627
   2 C :   -0.194627
   3 S :    0.096919
   4 C :   -0.207791
   5 C :    0.067729
   6 N :   -0.027233
   7 C :    0.061527
   8 C :   -0.035159
   9 C :    0.025537
  10 C :   -0.047011
  11 C :    0.049218
  12 C :    0.012330
  13 C :   -0.011244
  14 S :    0.020856
  15 C :   -0.033499
  16 C :    0.040373
  17 C :    0.020595
  18 C :   -0.011473
  19 S :    0.017828
  20 C :   -0.002670
  21 C :   -0.151339
  22 S :    0.096127
  23 C :   -0.094768
  24 C :    0.132684
  25 C :    0.176790
  26 O :   -0.175929
  27 C :    0.230552
  28 N :    0.278696
  29 O :   -0.255257
  30 O :   -0.232841
  31 C :   -0.102639
  32 C :    0.008337
  33 S :    0.043781
  34 C :   -0.256955
  35 C :    0.189840
  36 O :   -0.190559
  37 O :   -0.185407
  38 C :    0.133297
  39 C :   -0.070092
  40 N :   -0.013000
  41 C :    0.126929
  42 C :   -0.144042
  43 S :    0.091910
  44 C :   -0.186416
  45 C :    0.097361
  46 N :   -0.088595
  47 C :   -0.002238
  48 C :   -0.073135
  49 H :    0.117612
  50 H :    0.116242
  51 H :    0.002817
  52 H :    0.019805
  53 H :    0.120981
  54 H :    0.037940
  55 H :   -0.020858
  56 H :   -0.008428
  57 H :   -0.010820
  58 H :   -0.015830
  59 H :   -0.014858
  60 H :   -0.013775
  61 H :   -0.003355
  62 H :    0.007110
  63 H :    0.176374
  64 H :   -0.042325
  65 H :    0.134359
  66 H :   -0.013783
  67 H :   -0.005904
  68 H :    0.120263
  69 H :   -0.001352
  70 H :    0.050925
  71 H :    0.010461
Sum of atomic charges:   -0.0000000

LOEWDIN ATOMIC CHARGES
----------------------
   0 N :   -0.057226
   1 C :   -0.032477
   2 C :   -0.228424
   3 S :    0.437709
   4 C :   -0.237747
   5 C :   -0.041913
   6 N :    0.052759
   7 C :    0.058993
   8 C :   -0.120724
   9 C :   -0.016802
  10 C :   -0.182297
  11 C :   -0.011109
  12 C :   -0.062151
  13 C :   -0.152329
  14 S :    0.377893
  15 C :   -0.205148
  16 C :   -0.026711
  17 C :   -0.050904
  18 C :   -0.140764
  19 S :    0.369983
  20 C :   -0.094116
  21 C :   -0.179354
  22 S :    0.450766
  23 C :   -0.218557
  24 C :   -0.068589
  25 C :    0.011140
  26 O :    0.009588
  27 C :    0.024436
  28 N :    0.273150
  29 O :   -0.215508
  30 O :   -0.194483
  31 C :   -0.014526
  32 C :   -0.147024
  33 S :    0.393297
  34 C :   -0.292346
  35 C :    0.062929
  36 O :   -0.174057
  37 O :   -0.052228
  38 C :    0.036732
  39 C :   -0.090666
  40 N :    0.039318
  41 C :   -0.024708
  42 C :   -0.210370
  43 S :    0.424332
  44 C :   -0.229285
  45 C :   -0.029865
  46 N :   -0.023651
  47 C :   -0.001032
  48 C :   -0.118484
  49 H :    0.080699
  50 H :    0.067773
  51 H :    0.019123
  52 H :    0.020798
  53 H :    0.087446
  54 H :    0.013822
  55 H :    0.026507
  56 H :    0.038137
  57 H :    0.033932
  58 H :    0.031585
  59 H :    0.032792
  60 H :    0.032654
  61 H :    0.043357
  62 H :    0.043151
  63 H :    0.062003
  64 H :    0.026046
  65 H :    0.088697
  66 H :    0.007382
  67 H :    0.016673
  68 H :    0.081708
  69 H :    0.019199
  70 H :    0.025916
  71 H :    0.023147

  Mayer bond orders larger than 0.100000
B(  0-N ,  1-C ) :   1.1741 B(  0-N , 49-H ) :   0.9455 B(  0-N , 50-H ) :   0.9427
B(  1-C ,  2-C ) :   1.5455 B(  1-C ,  5-C ) :   1.2496 B(  2-C ,  3-S ) :   1.1373
B(  2-C , 51-H ) :   0.9695 B(  3-S ,  4-C ) :   1.1473 B(  4-C ,  5-C ) :   1.5180
B(  4-C , 52-H ) :   0.9757 B(  5-C ,  6-N ) :   1.0988 B(  6-N ,  7-C ) :   1.2431
B(  6-N , 53-H ) :   0.9124 B(  7-C ,  8-C ) :   1.5321 B(  7-C , 54-H ) :   0.9496
B(  8-C ,  9-C ) :   1.2540 B(  8-C , 55-H ) :   0.9639 B(  9-C , 10-C ) :   1.5436
B(  9-C , 56-H ) :   0.9613 B( 10-C , 11-C ) :   1.1809 B( 10-C , 14-S ) :   1.0121
B( 11-C , 12-C ) :   1.5539 B( 11-C , 57-H ) :   0.9965 B( 12-C , 13-C ) :   1.2149
B( 12-C , 58-H ) :   0.9955 B( 13-C , 14-S ) :   1.0672 B( 13-C , 15-C ) :   1.4600
B( 15-C , 16-C ) :   1.2216 B( 15-C , 19-S ) :   1.0222 B( 16-C , 17-C ) :   1.5544
B( 16-C , 59-H ) :   0.9937 B( 17-C , 18-C ) :   1.1712 B( 17-C , 60-H ) :   0.9993
B( 18-C , 19-S ) :   1.0600 B( 18-C , 20-C ) :   1.4907 B( 20-C , 21-C ) :   1.2276
B( 20-C , 61-H ) :   0.9799 B( 21-C , 22-S ) :   1.0883 B( 21-C , 23-C ) :   0.1091
B( 21-C , 25-C ) :   1.3891 B( 22-S , 23-C ) :   1.1067 B( 23-C , 24-C ) :   1.3444
B( 23-C , 32-C ) :   1.1816 B( 24-C , 25-C ) :   1.2541 B( 24-C , 31-C ) :   1.0951
B( 25-C , 26-O ) :   1.1277 B( 26-O , 27-C ) :   1.1355 B( 27-C , 28-N ) :   0.9239
B( 27-C , 31-C ) :   1.5460 B( 28-N , 29-O ) :   1.5235 B( 28-N , 30-O ) :   1.5084
B( 29-O , 30-O ) :   0.2783 B( 31-C , 62-H ) :   1.0225 B( 32-C , 33-S ) :   1.1314
B( 32-C , 39-C ) :   1.4867 B( 33-S , 34-C ) :   1.0144 B( 34-C , 35-C ) :   1.0014
B( 34-C , 38-C ) :   1.4738 B( 35-C , 36-O ) :   2.0687 B( 35-C , 37-O ) :   1.2007
B( 37-O , 63-H ) :   0.9460 B( 38-C , 39-C ) :   1.2223 B( 38-C , 40-N ) :   1.2013
B( 39-C , 64-H ) :   1.0032 B( 40-N , 41-C ) :   1.0879 B( 40-N , 65-H ) :   0.9046
B( 41-C , 42-C ) :   1.5600 B( 41-C , 45-C ) :   1.2714 B( 42-C , 43-S ) :   1.1435
B( 42-C , 66-H ) :   0.9582 B( 43-S , 44-C ) :   1.1469 B( 44-C , 45-C ) :   1.5333
B( 44-C , 67-H ) :   0.9759 B( 45-C , 46-N ) :   1.0922 B( 46-N , 47-C ) :   1.0839
B( 46-N , 68-H ) :   0.9286 B( 47-C , 48-C ) :   1.9357 B( 47-C , 69-H ) :   0.9666
B( 48-C , 70-H ) :   0.9384 B( 48-C , 71-H ) :   0.9546

-----------------------------------------------------------------------------
         ABSORPTION SPECTRUM VIA TRANSITION ELECTRIC DIPOLE MOMENTS
-----------------------------------------------------------------------------
State   Energy  Wavelength   fosc         T2         TX        TY        TZ
        (cm-1)    (nm)                  (au**2)     (au)      (au)      (au)
-----------------------------------------------------------------------------
   0    9852.2   1015.0   0.309456674  10.34047  -1.32959  -2.15277  -1.98451
   1   16726.0    597.9   0.224976819   4.42813   0.93557  -1.86030  -0.30354
   2   19729.4    506.9   0.145202849   2.42291   0.82782  -1.31131   0.13451
   3   20806.8    480.6   0.208612387   3.30073   1.70131  -0.07245   0.63328
   4   23479.7    425.9   0.001660203   0.02328   0.14047  -0.05066   0.03131
   5   24161.0    413.9   0.511533917   6.97004   2.35959  -0.68687   0.96466
   6   25096.0    398.5   0.400238204   5.25036  -1.39762   1.80918  -0.15457
   7   26040.9    384.0   0.194240450   2.45561   1.35582  -0.61707   0.48641
   8   26575.2    376.3   0.244574757   3.02977  -0.55140   1.63940   0.19518
   9   27127.0    368.6   0.251344149   3.05030   1.00839  -1.42559  -0.03386
  10   28347.3    352.8   0.112561101   1.30723   0.48071   0.97605   0.35138
  11   29125.8    343.3   0.619849832   7.00622  -1.46914  -1.92069  -1.07647
  12   30355.7    329.4   0.090612312   0.98270  -0.49417  -0.74494  -0.42844
  13   31382.7    318.6   0.005439030   0.05706   0.18976   0.09658  -0.10825
  14   31518.0    317.3   0.006224075   0.06501  -0.22118  -0.10742   0.06747
  15   32388.6    308.8   0.025790914   0.26215  -0.27593  -0.42762  -0.05614
  16   33044.4    302.6   0.079667964   0.79371  -0.88867  -0.04770  -0.04128
  17   33457.4    298.9   0.038948185   0.38324   0.27612   0.49833   0.24221
  18   33705.0    296.7   0.125503108   1.22585   0.88738   0.58324   0.31344
  19   34383.3    290.8   0.003658374   0.03503  -0.10708   0.12046   0.09514
  20   35212.7    284.0   0.174362333   1.63016  -0.31864  -1.12534  -0.51209
  21   35352.3    282.9   0.106447069   0.99127  -0.07939   0.98337   0.13397
  22   35395.4    282.5   0.048489209   0.45100   0.35129  -0.55291   0.14795
  23   35550.0    281.3   0.061593448   0.57039  -0.17939  -0.71496  -0.16445
  24   36159.4    276.6   0.000559489   0.00509   0.05762  -0.04032  -0.01216
  25   36957.7    270.6   0.055714780   0.49630   0.40722   0.46308   0.34063
  26   37289.3    268.2   0.088236467   0.77900   0.80790   0.21577   0.28239
  27   37430.4    267.2   0.004495639   0.03954   0.05217  -0.18903   0.03297
  28   37775.9    264.7   0.106783661   0.93061   0.31545   0.81623   0.40604
  29   38049.2    262.8   0.019882008   0.17202   0.26345   0.27659   0.16160
  30   38579.9    259.2   0.000845506   0.00721  -0.05298  -0.03506   0.05638
  31   38766.7    258.0   0.025648097   0.21781   0.46238   0.05063   0.03806
  32   39239.4    254.8   0.025285762   0.21214  -0.27100   0.31849   0.19304
  33   39728.4    251.7   0.018364458   0.15218  -0.32329   0.21411  -0.04269

FINAL SINGLE POINT ENERGY     -4307.073089984404

DIPOLE MOMENT
-------------
                                X             Y             Z
Electronic contribution:     -5.61248      27.08977      -1.01086
Nuclear contribution   :      4.52014     -29.36786      -0.24921
                        -----------------------------------------
Total Dipole Moment    :     -1.09234      -2.27809      -1.26007
                        -----------------------------------------
Magnitude (a.u.)       :      2.82324
Magnitude (Debye)      :      7.17611

Rotational constants in cm-1:     0.001721     0.001289     0.000778
Rotational constants in MHz :    51.580151    38.657454    23.314458

                             ****ORCA TERMINATED NORMALLY****
TOTAL RUN TIME: 0 days 0 hours 5 minutes 16 seconds 30 msec
