                         Program Version 4.2.0 -  RELEASE  -
|  1> # ORCA input file
|  2> # SCF done       -179.830485607901          0.000776055921
|  3> ! CAM-B3LYP def2-SVP def2/J RIJCOSX Grid4 TightSCF
|  4> %maxcore 5000
|  5> %tddft
|  6>     Mode sTDDFT
|  7>     Ethresh 5.0
|  8>     maxcore 5000
|  9> end
| 10>
| 11> %pal
| 12>   nprocs 6
| 13>   end
| 14> * xyz 0 1
| 15>    C       -4.79663         1.47111         3.95875
| 16>    C       -5.43949         2.48444         4.62286
| 17>    C       -5.58702         2.54450         6.02463
| 18>    N       -5.73487         2.65637         7.15743
| 19>    C       -6.02148         3.61609         4.01539
| 20>    N       -6.51653         4.56294         3.59452
| 21>    C       -4.20072         0.29411         4.57945
| 22>    C       -3.58093        -0.49234         3.57673
| 23>    C       -2.93927        -1.67503         3.85173
| 24>    C       -2.91924        -2.11234         5.18003
| 25>    C       -3.53992        -1.32037         6.17651
| 26>    C       -4.18003        -0.11922         5.89944
| 27>    S       -3.39533        -2.04372         7.74934
| 28>    C       -2.51968        -3.38340         7.05711
| 29>    C       -2.34150        -3.29471         5.71743
| 30>   Br       -1.92195        -4.76978         8.16815
| 31>    C       -3.74401         0.16332         2.26803
| 32>    O       -3.17403        -0.11782         1.23946
| 33>    C       -4.61497         1.34939         2.52442
| 34>    C       -5.05531         2.20524         1.56157
| 35>    C       -5.07393         1.89915         0.17767
| 36>    O       -5.09427         2.91934        -0.72775
| 37>    C       -5.17728         0.70510        -0.51357
| 38>    C       -5.36993        -0.74844        -0.36631
| 39>    O       -5.51451        -1.43405         0.61028
| 40>    N       -5.43014        -1.20118        -1.67950
| 41>    C       -5.36141        -0.21006        -2.65918
| 42>    O       -5.41643        -0.40174        -3.84546
| 43>    C       -5.22631         1.02606        -1.88507
| 44>    C       -5.16663         2.40985        -1.98417
| 45>    C       -5.18414         3.23695        -3.12860
| 46>    C       -5.20961         4.59625        -3.08640
| 47>    C       -5.22721         5.41428        -4.23610
| 48>    O       -5.15186         4.83357        -5.48346
| 49>    C       -5.19111         5.84334        -6.36068
| 50>    C       -5.15728         6.10370        -7.73612
| 51>    C       -5.04543         5.16296        -8.86325
| 52>    O       -5.01862         5.50842       -10.02833
| 53>    N       -4.97227         3.86726        -8.48084
| 54>    C       -5.25461         7.51060        -7.82034
| 55>    O       -5.34069         8.08676        -6.57925
| 56>    C       -5.29825         7.07594        -5.69490
| 57>    C       -5.31737         6.80481        -4.33041
| 58>    C       -5.27050         8.30025        -8.97313
| 59>    C       -5.40535         9.66705        -8.98794
| 60>    C       -5.42329        10.48836       -10.14267
| 61>    C       -5.59035        11.81262        -9.87966
| 62>    C       -5.71712        12.10818        -8.50173
| 63>    S       -5.60135        10.64319        -7.54868
| 64>    C       -5.92062        13.34914        -7.93019
| 65>    C       -6.03176        14.59515        -8.59238
| 66>    C       -6.25126        15.64503        -7.75812
| 67>    C       -6.32874        15.29209        -6.38451
| 68>    S       -6.09788        13.56154        -6.20109
| 69>    C       -6.55940        16.16218        -5.35403
| 70>    C       -6.65763        15.86553        -3.98353
| 71>    S       -6.48364        14.27209        -3.26656
| 72>    C       -6.74592        14.82769        -1.66370
| 73>    C       -6.96334        16.18618        -1.64745
| 74>    C       -6.91070        16.75751        -2.95399
| 75>    O       -7.12838        18.08699        -2.90952
| 76>    C       -7.31969        18.37210        -1.59232
| 77>    N       -7.57614        19.72126        -1.24362
| 78>    O       -7.74217        19.95073        -0.06102
| 79>    O       -7.60835        20.54137        -2.13433
| 80>    C       -7.23380        17.27727        -0.77566
| 81>    H       -2.47947        -2.24979         3.06366
| 82>    H       -4.63633         0.44673         6.69426
| 83>    H       -1.82486        -4.03200         5.13059
| 84>    H       -5.43854         3.18277         1.82177
| 85>    H       -5.54590        -2.17849        -1.90747
| 86>    H       -5.18902         2.71579        -4.07388
| 87>    H       -5.22633         5.10685        -2.13513
| 88>    H       -4.99718         3.59039        -7.51560
| 89>    H       -4.89453         3.15914        -9.19090
| 90>    H       -5.38872         7.48718        -3.50978
| 91>    H       -5.17458         7.76179        -9.90491
| 92>    H       -5.31392        10.06546       -11.12509
| 93>    H       -5.63094        12.57795       -10.63333
| 94>    H       -5.94796        14.67990        -9.66050
| 95>    H       -6.36462        16.66590        -8.07691
| 96>    H       -6.69030        17.20735        -5.60360
| 97>    H       -6.72566        14.13663        -0.84698
| 98>    H       -7.35104        17.27411         0.28803
| 99> *
|100>
|101>                          ****END OF INPUT****

CARTESIAN COORDINATES (ANGSTROEM)
---------------------------------
  C     -4.796630    1.471110    3.958750
  C     -5.439490    2.484440    4.622860
  C     -5.587020    2.544500    6.024630
  N     -5.734870    2.656370    7.157430
  C     -6.021480    3.616090    4.015390
  N     -6.516530    4.562940    3.594520
  C     -4.200720    0.294110    4.579450
  C     -3.580930   -0.492340    3.576730
  C     -2.939270   -1.675030    3.851730
  C     -2.919240   -2.112340    5.180030
  C     -3.539920   -1.320370    6.176510
  C     -4.180030   -0.119220    5.899440
  S     -3.395330   -2.043720    7.749340
  C     -2.519680   -3.383400    7.057110
  C     -2.341500   -3.294710    5.717430
  Br    -1.921950   -4.769780    8.168150
  C     -3.744010    0.163320    2.268030
  O     -3.174030   -0.117820    1.239460
  C     -4.614970    1.349390    2.524420
  C     -5.055310    2.205240    1.561570
  C     -5.073930    1.899150    0.177670
  O     -5.094270    2.919340   -0.727750
  C     -5.177280    0.705100   -0.513570
  C     -5.369930   -0.748440   -0.366310
  O     -5.514510   -1.434050    0.610280
  N     -5.430140   -1.201180   -1.679500
  C     -5.361410   -0.210060   -2.659180
  O     -5.416430   -0.401740   -3.845460
  C     -5.226310    1.026060   -1.885070
  C     -5.166630    2.409850   -1.984170
  C     -5.184140    3.236950   -3.128600
  C     -5.209610    4.596250   -3.086400
  C     -5.227210    5.414280   -4.236100
  O     -5.151860    4.833570   -5.483460
  C     -5.191110    5.843340   -6.360680
  C     -5.157280    6.103700   -7.736120
  C     -5.045430    5.162960   -8.863250
  O     -5.018620    5.508420  -10.028330
  N     -4.972270    3.867260   -8.480840
  C     -5.254610    7.510600   -7.820340
  O     -5.340690    8.086760   -6.579250
  C     -5.298250    7.075940   -5.694900
  C     -5.317370    6.804810   -4.330410
  C     -5.270500    8.300250   -8.973130
  C     -5.405350    9.667050   -8.987940
  C     -5.423290   10.488360  -10.142670
  C     -5.590350   11.812620   -9.879660
  C     -5.717120   12.108180   -8.501730
  S     -5.601350   10.643190   -7.548680
  C     -5.920620   13.349140   -7.930190
  C     -6.031760   14.595150   -8.592380
  C     -6.251260   15.645030   -7.758120
  C     -6.328740   15.292090   -6.384510
  S     -6.097880   13.561540   -6.201090
  C     -6.559400   16.162180   -5.354030
  C     -6.657630   15.865530   -3.983530
  S     -6.483640   14.272090   -3.266560
  C     -6.745920   14.827690   -1.663700
  C     -6.963340   16.186180   -1.647450
  C     -6.910700   16.757510   -2.953990
  O     -7.128380   18.086990   -2.909520
  C     -7.319690   18.372100   -1.592320
  N     -7.576140   19.721260   -1.243620
  O     -7.742170   19.950730   -0.061020
  O     -7.608350   20.541370   -2.134330
  C     -7.233800   17.277270   -0.775660
  H     -2.479470   -2.249790    3.063660
  H     -4.636330    0.446730    6.694260
  H     -1.824860   -4.032000    5.130590
  H     -5.438540    3.182770    1.821770
  H     -5.545900   -2.178490   -1.907470
  H     -5.189020    2.715790   -4.073880
  H     -5.226330    5.106850   -2.135130
  H     -4.997180    3.590390   -7.515600
  H     -4.894530    3.159140   -9.190900
  H     -5.388720    7.487180   -3.509780
  H     -5.174580    7.761790   -9.904910
  H     -5.313920   10.065460  -11.125090
  H     -5.630940   12.577950  -10.633330
  H     -5.947960   14.679900   -9.660500
  H     -6.364620   16.665900   -8.076910
  H     -6.690300   17.207350   -5.603600
  H     -6.725660   14.136630   -0.846980
  H     -7.351040   17.274110    0.288030

 Total Charge           Charge          ....    0
 Multiplicity           Mult            ....    1
 Number of Electrons    NEL             ....  508
 Basis Dimension        Dim             .... 1048

ORBITAL ENERGIES
----------------

  NO   OCC          E(Eh)            E(eV)
   0   2.0000    -482.885936    -13139.9943
   1   2.0000     -88.982096     -2421.3259
   2   2.0000     -88.975645     -2421.1504
   3   2.0000     -88.957655     -2420.6609
   4   2.0000     -88.952094     -2420.5095
   5   2.0000     -62.563664     -1702.4439
   6   2.0000     -56.397617     -1534.6572
   7   2.0000     -56.394896     -1534.5831
   8   2.0000     -56.394866     -1534.5823
   9   2.0000     -19.316996      -525.6422
  10   2.0000     -19.316483      -525.6282
  11   2.0000     -19.314339      -525.5699
  12   2.0000     -19.312504      -525.5200
  13   2.0000     -19.247035      -523.7385
  14   2.0000     -19.244801      -523.6777
  15   2.0000     -19.215876      -522.8906
  16   2.0000     -19.215476      -522.8797
  17   2.0000     -19.213323      -522.8211
  18   2.0000     -19.178509      -521.8738
  19   2.0000     -14.658733      -398.8844
  20   2.0000     -14.456953      -393.3937
  21   2.0000     -14.429550      -392.6480
  22   2.0000     -14.419476      -392.3739
  23   2.0000     -14.416962      -392.3055
  24   2.0000     -10.403593      -283.0962
  25   2.0000     -10.402512      -283.0667
  26   2.0000     -10.391010      -282.7537
  27   2.0000     -10.379458      -282.4394
  28   2.0000     -10.371415      -282.2205
  29   2.0000     -10.368584      -282.1435
  30   2.0000     -10.363464      -282.0042
  31   2.0000     -10.359421      -281.8942
  32   2.0000     -10.358666      -281.8736
  33   2.0000     -10.352053      -281.6937
  34   2.0000     -10.352043      -281.6934
  35   2.0000     -10.348357      -281.5931
  36   2.0000     -10.345140      -281.5056
  37   2.0000     -10.344406      -281.4856
  38   2.0000     -10.342859      -281.4435
  39   2.0000     -10.326137      -280.9885
  40   2.0000     -10.324082      -280.9326
  41   2.0000     -10.323393      -280.9138
  42   2.0000     -10.322847      -280.8989
  43   2.0000     -10.322155      -280.8801
  44   2.0000     -10.319783      -280.8156
  45   2.0000     -10.319373      -280.8044
  46   2.0000     -10.318471      -280.7799
  47   2.0000     -10.318389      -280.7776
  48   2.0000     -10.316427      -280.7243
  49   2.0000     -10.316080      -280.7148
  50   2.0000     -10.309942      -280.5478
  51   2.0000     -10.309505      -280.5359
  52   2.0000     -10.308199      -280.5003
  53   2.0000     -10.307219      -280.4737
  54   2.0000     -10.306670      -280.4588
  55   2.0000     -10.306194      -280.4458
  56   2.0000     -10.303600      -280.3752
  57   2.0000     -10.303076      -280.3609
  58   2.0000     -10.301135      -280.3081
  59   2.0000     -10.300707      -280.2965
  60   2.0000     -10.296903      -280.1930
  61   2.0000     -10.295998      -280.1683
  62   2.0000     -10.295955      -280.1672
  63   2.0000     -10.295954      -280.1672
  64   2.0000     -10.295888      -280.1654
  65   2.0000     -10.295367      -280.1512
  66   2.0000     -10.293517      -280.1008
  67   2.0000     -10.292413      -280.0708
  68   2.0000     -10.290112      -280.0082
  69   2.0000     -10.282081      -279.7896
  70   2.0000      -8.793105      -239.2725
  71   2.0000      -8.076672      -219.7774
  72   2.0000      -8.071739      -219.6432
  73   2.0000      -8.053747      -219.1536
  74   2.0000      -8.048034      -218.9982
  75   2.0000      -6.629429      -180.3959
  76   2.0000      -6.614834      -179.9988
  77   2.0000      -6.614620      -179.9930
  78   2.0000      -6.045997      -164.5199
  79   2.0000      -6.041598      -164.4002
  80   2.0000      -6.041431      -164.3957
  81   2.0000      -6.039103      -164.3323
  82   2.0000      -6.037148      -164.2792
  83   2.0000      -6.032927      -164.1643
  84   2.0000      -6.023523      -163.9084
  85   2.0000      -6.019439      -163.7973
  86   2.0000      -6.017799      -163.7526
  87   2.0000      -6.014626      -163.6663
  88   2.0000      -6.013595      -163.6382
  89   2.0000      -6.008995      -163.5131
  90   2.0000      -2.745252       -74.7021
  91   2.0000      -2.741236       -74.5928
  92   2.0000      -2.741053       -74.5878
  93   2.0000      -2.729457       -74.2723
  94   2.0000      -2.729440       -74.2718
  95   2.0000      -1.330478       -36.2041
  96   2.0000      -1.237342       -33.6698
  97   2.0000      -1.234461       -33.5914
  98   2.0000      -1.232343       -33.5337
  99   2.0000      -1.219280       -33.1783
 100   2.0000      -1.159198       -31.5434
 101   2.0000      -1.146931       -31.2096
 102   2.0000      -1.139621       -31.0107
 103   2.0000      -1.131069       -30.7780
 104   2.0000      -1.118505       -30.4361
 105   2.0000      -1.046032       -28.4640
 106   2.0000      -1.024243       -27.8711
 107   2.0000      -1.015207       -27.6252
 108   2.0000      -1.007419       -27.4133
 109   2.0000      -0.999679       -27.2026
 110   2.0000      -0.996885       -27.1266
 111   2.0000      -0.991390       -26.9771
 112   2.0000      -0.989822       -26.9344
 113   2.0000      -0.981492       -26.7077
 114   2.0000      -0.948510       -25.8103
 115   2.0000      -0.939901       -25.5760
 116   2.0000      -0.939620       -25.5684
 117   2.0000      -0.929216       -25.2853
 118   2.0000      -0.926047       -25.1990
 119   2.0000      -0.921683       -25.0803
 120   2.0000      -0.911794       -24.8112
 121   2.0000      -0.909584       -24.7510
 122   2.0000      -0.904411       -24.6103
 123   2.0000      -0.891454       -24.2577
 124   2.0000      -0.886451       -24.1216
 125   2.0000      -0.882519       -24.0146
 126   2.0000      -0.871900       -23.7256
 127   2.0000      -0.858614       -23.3641
 128   2.0000      -0.848286       -23.0830
 129   2.0000      -0.838965       -22.8294
 130   2.0000      -0.830341       -22.5947
 131   2.0000      -0.828988       -22.5579
 132   2.0000      -0.813816       -22.1451
 133   2.0000      -0.796270       -21.6676
 134   2.0000      -0.787819       -21.4376
 135   2.0000      -0.779282       -21.2053
 136   2.0000      -0.770445       -20.9649
 137   2.0000      -0.764304       -20.7978
 138   2.0000      -0.760745       -20.7009
 139   2.0000      -0.752501       -20.4766
 140   2.0000      -0.740825       -20.1589
 141   2.0000      -0.730394       -19.8750
 142   2.0000      -0.727434       -19.7945
 143   2.0000      -0.712609       -19.3911
 144   2.0000      -0.705818       -19.2063
 145   2.0000      -0.704040       -19.1579
 146   2.0000      -0.695547       -18.9268
 147   2.0000      -0.690598       -18.7921
 148   2.0000      -0.682565       -18.5735
 149   2.0000      -0.677162       -18.4265
 150   2.0000      -0.675530       -18.3821
 151   2.0000      -0.659506       -17.9461
 152   2.0000      -0.657217       -17.8838
 153   2.0000      -0.648575       -17.6486
 154   2.0000      -0.644010       -17.5244
 155   2.0000      -0.641018       -17.4430
 156   2.0000      -0.634049       -17.2534
 157   2.0000      -0.633539       -17.2395
 158   2.0000      -0.630039       -17.1442
 159   2.0000      -0.627635       -17.0788
 160   2.0000      -0.624390       -16.9905
 161   2.0000      -0.614264       -16.7150
 162   2.0000      -0.607593       -16.5334
 163   2.0000      -0.606045       -16.4913
 164   2.0000      -0.600025       -16.3275
 165   2.0000      -0.598642       -16.2899
 166   2.0000      -0.596807       -16.2399
 167   2.0000      -0.595636       -16.2081
 168   2.0000      -0.593792       -16.1579
 169   2.0000      -0.588387       -16.0108
 170   2.0000      -0.587543       -15.9879
 171   2.0000      -0.582828       -15.8596
 172   2.0000      -0.580966       -15.8089
 173   2.0000      -0.571183       -15.5427
 174   2.0000      -0.569091       -15.4857
 175   2.0000      -0.565848       -15.3975
 176   2.0000      -0.560387       -15.2489
 177   2.0000      -0.557378       -15.1670
 178   2.0000      -0.552273       -15.0281
 179   2.0000      -0.548591       -14.9279
 180   2.0000      -0.545791       -14.8517
 181   2.0000      -0.544713       -14.8224
 182   2.0000      -0.538703       -14.6589
 183   2.0000      -0.536439       -14.5973
 184   2.0000      -0.533856       -14.5270
 185   2.0000      -0.526633       -14.3304
 186   2.0000      -0.524691       -14.2776
 187   2.0000      -0.524327       -14.2677
 188   2.0000      -0.521908       -14.2019
 189   2.0000      -0.519779       -14.1439
 190   2.0000      -0.513930       -13.9847
 191   2.0000      -0.511892       -13.9293
 192   2.0000      -0.509477       -13.8636
 193   2.0000      -0.508083       -13.8256
 194   2.0000      -0.506172       -13.7736
 195   2.0000      -0.504553       -13.7296
 196   2.0000      -0.501856       -13.6562
 197   2.0000      -0.499314       -13.5870
 198   2.0000      -0.498251       -13.5581
 199   2.0000      -0.495130       -13.4732
 200   2.0000      -0.494579       -13.4582
 201   2.0000      -0.490776       -13.3547
 202   2.0000      -0.486302       -13.2329
 203   2.0000      -0.484050       -13.1717
 204   2.0000      -0.481906       -13.1133
 205   2.0000      -0.481443       -13.1007
 206   2.0000      -0.476988       -12.9795
 207   2.0000      -0.476122       -12.9559
 208   2.0000      -0.470434       -12.8012
 209   2.0000      -0.464202       -12.6316
 210   2.0000      -0.459316       -12.4986
 211   2.0000      -0.458691       -12.4816
 212   2.0000      -0.455609       -12.3978
 213   2.0000      -0.451816       -12.2945
 214   2.0000      -0.446852       -12.1595
 215   2.0000      -0.446203       -12.1418
 216   2.0000      -0.443403       -12.0656
 217   2.0000      -0.440127       -11.9765
 218   2.0000      -0.435594       -11.8531
 219   2.0000      -0.432029       -11.7561
 220   2.0000      -0.429360       -11.6835
 221   2.0000      -0.426655       -11.6099
 222   2.0000      -0.424334       -11.5467
 223   2.0000      -0.420240       -11.4353
 224   2.0000      -0.416798       -11.3417
 225   2.0000      -0.411090       -11.1863
 226   2.0000      -0.401704       -10.9309
 227   2.0000      -0.401093       -10.9143
 228   2.0000      -0.392599       -10.6831
 229   2.0000      -0.391988       -10.6665
 230   2.0000      -0.385906       -10.5010
 231   2.0000      -0.384716       -10.4686
 232   2.0000      -0.382288       -10.4026
 233   2.0000      -0.375370       -10.2143
 234   2.0000      -0.374626       -10.1941
 235   2.0000      -0.374119       -10.1803
 236   2.0000      -0.373374       -10.1600
 237   2.0000      -0.362805        -9.8724
 238   2.0000      -0.360104        -9.7989
 239   2.0000      -0.358427        -9.7533
 240   2.0000      -0.348456        -9.4820
 241   2.0000      -0.347008        -9.4426
 242   2.0000      -0.343669        -9.3517
 243   2.0000      -0.341794        -9.3007
 244   2.0000      -0.338414        -9.2087
 245   2.0000      -0.335424        -9.1274
 246   2.0000      -0.334589        -9.1046
 247   2.0000      -0.323225        -8.7954
 248   2.0000      -0.315204        -8.5771
 249   2.0000      -0.310902        -8.4601
 250   2.0000      -0.294757        -8.0207
 251   2.0000      -0.287961        -7.8358
 252   2.0000      -0.258086        -7.0229
 253   2.0000      -0.214930        -5.8485
 254   0.0000      -0.106161        -2.8888
 255   0.0000      -0.092209        -2.5091
 256   0.0000      -0.066408        -1.8070
 257   0.0000      -0.062050        -1.6885
 258   0.0000      -0.052717        -1.4345

MULLIKEN ATOMIC CHARGES
-----------------------
   0 C :    0.308475
   1 C :   -0.351776
   2 C :   -0.184724
   3 N :    0.149824
   4 C :   -0.186064
   5 N :    0.152117
   6 C :    0.019154
   7 C :   -0.007603
   8 C :   -0.061119
   9 C :    0.116196
  10 C :   -0.087983
  11 C :   -0.022095
  12 S :    0.186607
  13 C :   -0.123591
  14 C :    0.039663
  15 Br:    0.024668
  16 C :    0.152214
  17 O :   -0.147175
  18 C :   -0.069597
  19 C :   -0.032411
  20 C :    0.113523
  21 O :   -0.205725
  22 C :   -0.017105
  23 C :    0.183324
  24 O :   -0.143304
  25 N :   -0.161489
  26 C :    0.168294
  27 O :   -0.145111
  28 C :   -0.054314
  29 C :    0.112506
  30 C :   -0.044227
  31 C :    0.005697
  32 C :    0.174698
  33 O :   -0.224260
  34 C :    0.112056
  35 C :   -0.059346
  36 C :    0.062677
  37 O :   -0.212616
  38 N :   -0.083526
  39 C :    0.107573
  40 O :   -0.211688
  41 C :    0.219564
  42 C :   -0.118625
  43 C :   -0.071616
  44 C :    0.007746
  45 C :    0.029102
  46 C :    0.032864
  47 C :   -0.052510
  48 S :    0.111593
  49 C :   -0.036427
  50 C :    0.026682
  51 C :    0.042656
  52 C :   -0.030222
  53 S :    0.071555
  54 C :   -0.006998
  55 C :   -0.194111
  56 S :    0.144677
  57 C :   -0.128117
  58 C :    0.123962
  59 C :    0.196161
  60 O :   -0.182204
  61 C :    0.234629
  62 N :    0.271778
  63 O :   -0.247401
  64 O :   -0.228159
  65 C :   -0.069195
  66 H :   -0.008814
  67 H :   -0.006941
  68 H :   -0.002091
  69 H :    0.025743
  70 H :    0.139345
  71 H :    0.016937
  72 H :    0.016242
  73 H :    0.124458
  74 H :    0.131867
  75 H :    0.004027
  76 H :    0.024479
  77 H :   -0.002081
  78 H :   -0.008815
  79 H :   -0.008700
  80 H :   -0.005137
  81 H :    0.008326
  82 H :    0.035797
  83 H :    0.015561
Sum of atomic charges:   -0.0000000

LOEWDIN ATOMIC CHARGES
----------------------
   0 C :    0.074983
   1 C :   -0.138289
   2 C :   -0.018200
   3 N :   -0.051639
   4 C :   -0.019638
   5 N :   -0.052042
   6 C :   -0.019681
   7 C :   -0.044187
   8 C :    0.026750
   9 C :   -0.030701
  10 C :   -0.142768
  11 C :   -0.009874
  12 S :    0.432903
  13 C :   -0.270849
  14 C :   -0.069660
  15 Br:    0.138089
  16 C :    0.088324
  17 O :   -0.133373
  18 C :   -0.071275
  19 C :    0.043469
  20 C :    0.044165
  21 O :    0.016084
  22 C :   -0.050951
  23 C :    0.089834
  24 O :   -0.148485
  25 N :   -0.001320
  26 C :    0.086257
  27 O :   -0.160447
  28 C :   -0.104202
  29 C :    0.085585
  30 C :   -0.058710
  31 C :    0.000691
  32 C :    0.029010
  33 O :   -0.000129
  34 C :    0.015315
  35 C :   -0.127543
  36 C :    0.065881
  37 O :   -0.220148
  38 N :   -0.000307
  39 C :    0.084245
  40 O :    0.002838
  41 C :   -0.001948
  42 C :   -0.044345
  43 C :   -0.079223
  44 C :   -0.127039
  45 C :   -0.031041
  46 C :   -0.023991
  47 C :   -0.184318
  48 S :    0.392490
  49 C :   -0.167021
  50 C :   -0.035926
  51 C :   -0.022849
  52 C :   -0.154124
  53 S :    0.367911
  54 C :   -0.060724
  55 C :   -0.206257
  56 S :    0.475540
  57 C :   -0.185567
  58 C :   -0.084025
  59 C :    0.022608
  60 O :    0.002769
  61 C :    0.026150
  62 N :    0.271338
  63 O :   -0.208457
  64 O :   -0.190593
  65 C :   -0.008096
  66 H :    0.042254
  67 H :    0.040879
  68 H :    0.039343
  69 H :    0.050497
  70 H :    0.095562
  71 H :    0.044551
  72 H :    0.045715
  73 H :    0.074139
  74 H :    0.083556
  75 H :    0.041994
  76 H :    0.050595
  77 H :    0.037915
  78 H :    0.033107
  79 H :    0.033741
  80 H :    0.036637
  81 H :    0.047931
  82 H :    0.030219
  83 H :    0.048097

  Mayer bond orders larger than 0.100000
B(  0-C ,  1-C ) :   1.6292 B(  0-C ,  6-C ) :   1.0087 B(  0-C , 18-C ) :   1.0818
B(  1-C ,  2-C ) :   1.1418 B(  1-C ,  4-C ) :   1.1449 B(  2-C ,  3-N ) :   2.9695
B(  4-C ,  5-N ) :   2.9686 B(  6-C ,  7-C ) :   1.2719 B(  6-C , 11-C ) :   1.4029
B(  7-C ,  8-C ) :   1.4245 B(  7-C , 16-C ) :   0.9383 B(  8-C ,  9-C ) :   1.2491
B(  8-C , 66-H ) :   1.0158 B(  9-C , 10-C ) :   1.3008 B(  9-C , 14-C ) :   1.1628
B( 10-C , 11-C ) :   1.3369 B( 10-C , 12-S ) :   1.0860 B( 11-C , 67-H ) :   0.9797
B( 12-S , 13-C ) :   1.0867 B( 13-C , 14-C ) :   1.6174 B( 13-C , 15-Br) :   1.0190
B( 14-C , 68-H ) :   1.0005 B( 16-C , 17-O ) :   2.2265 B( 16-C , 18-C ) :   0.9247
B( 18-C , 19-C ) :   1.6047 B( 19-C , 20-C ) :   1.1680 B( 19-C , 69-H ) :   0.9300
B( 20-C , 21-O ) :   1.1193 B( 20-C , 22-C ) :   1.4291 B( 21-O , 29-C ) :   1.1737
B( 22-C , 23-C ) :   0.8652 B( 22-C , 28-C ) :   1.3233 B( 23-C , 24-O ) :   2.2346
B( 23-C , 25-N ) :   1.0927 B( 25-N , 26-C ) :   1.0740 B( 25-N , 70-H ) :   0.9148
B( 26-C , 27-O ) :   2.2640 B( 26-C , 28-C ) :   0.8853 B( 28-C , 29-C ) :   1.3447
B( 29-C , 30-C ) :   1.1999 B( 30-C , 31-C ) :   1.5606 B( 30-C , 71-H ) :   0.9642
B( 31-C , 32-C ) :   1.1829 B( 31-C , 72-H ) :   0.9703 B( 32-C , 33-O ) :   1.0809
B( 32-C , 42-C ) :   1.3760 B( 33-O , 34-C ) :   1.1397 B( 34-C , 35-C ) :   1.2116
B( 34-C , 41-C ) :   1.3444 B( 35-C , 36-C ) :   0.9027 B( 35-C , 39-C ) :   1.3640
B( 36-C , 37-O ) :   2.1337 B( 36-C , 38-N ) :   1.3043 B( 38-N , 73-H ) :   0.9387
B( 38-N , 74-H ) :   0.9324 B( 39-C , 40-O ) :   1.1064 B( 39-C , 43-C ) :   1.2706
B( 40-O , 41-C ) :   1.1196 B( 41-C , 42-C ) :   1.2450 B( 42-C , 75-H ) :   1.0328
B( 43-C , 44-C ) :   1.4919 B( 43-C , 76-H ) :   0.9427 B( 44-C , 45-C ) :   1.1501
B( 44-C , 48-S ) :   1.0576 B( 45-C , 46-C ) :   1.5787 B( 45-C , 77-H ) :   1.0032
B( 46-C , 47-C ) :   1.1880 B( 46-C , 78-H ) :   0.9953 B( 47-C , 48-S ) :   1.0269
B( 47-C , 49-C ) :   1.5140 B( 49-C , 50-C ) :   1.1828 B( 49-C , 53-S ) :   1.0477
B( 50-C , 51-C ) :   1.5954 B( 50-C , 79-H ) :   0.9929 B( 51-C , 52-C ) :   1.1385
B( 51-C , 80-H ) :   1.0006 B( 52-C , 53-S ) :   1.0304 B( 52-C , 54-C ) :   1.5722
B( 54-C , 55-C ) :   1.1764 B( 54-C , 81-H ) :   0.9730 B( 55-C , 56-S ) :   1.1050
B( 55-C , 57-C ) :   0.1079 B( 55-C , 59-C ) :   1.4396 B( 56-S , 57-C ) :   1.1924
B( 57-C , 58-C ) :   1.4148 B( 57-C , 82-H ) :   0.9752 B( 58-C , 59-C ) :   1.2318
B( 58-C , 65-C ) :   1.0601 B( 59-C , 60-O ) :   1.1265 B( 60-O , 61-C ) :   1.1205
B( 61-C , 62-N ) :   0.9143 B( 61-C , 65-C ) :   1.5805 B( 62-N , 63-O ) :   1.5348
B( 62-N , 64-O ) :   1.5167 B( 63-O , 64-O ) :   0.2808 B( 65-C , 83-H ) :   1.0259

-----------------------------------------------------------------------------
         ABSORPTION SPECTRUM VIA TRANSITION ELECTRIC DIPOLE MOMENTS
-----------------------------------------------------------------------------
State   Energy  Wavelength   fosc         T2         TX        TY        TZ
        (cm-1)    (nm)                  (au**2)     (au)      (au)      (au)
-----------------------------------------------------------------------------
   0   11587.3    863.0   1.328989541  37.75851   0.77184  -5.80890   1.84917
   1   15594.3    641.3   0.690539372  14.57802   0.27058  -1.94938  -3.27180
   2   19301.5    518.1   0.088929452   1.51681  -0.00464  -1.12628  -0.49827
   3   20220.7    494.5   0.658504832  10.72108  -0.08676   1.00948  -3.11360
   4   22328.5    447.9   0.155825923   2.29750  -0.04765   0.19830   1.50197
   5   23458.5    426.3   0.591046631   8.29463  -0.33878  -1.10196   2.63923
   6   23670.7    422.5   0.009202858   0.12799   0.09703   0.03271  -0.34280
   7   25698.9    389.1   0.186550384   2.38978   0.63746  -1.34032   0.43239
   8   26039.9    384.0   0.001192334   0.01507  -0.07893   0.08893  -0.03060
   9   27295.7    366.4   0.130621099   1.57541   0.01617  -0.16711   1.24388
  10   28348.6    352.8   0.028510417   0.33109  -0.22907   0.52751   0.01871
  11   28756.3    347.8   0.012272668   0.14050   0.20974   0.19553  -0.24141
  12   29493.3    339.1   0.073988863   0.82588   0.32264  -0.49840  -0.68803
  13   30029.0    333.0   0.029320260   0.32144   0.36857  -0.23634   0.36020
  14   30544.4    327.4   0.201627065   2.17317   0.41766  -0.43959   1.34368
  15   31338.0    319.1   0.058149155   0.61087   0.11260  -0.75459  -0.16966
  16   31547.2    317.0   0.226646608   2.36518   0.26399  -1.51270   0.08509
  17   32340.7    309.2   0.205119562   2.08801  -0.61100   1.28455  -0.25423
  18   32650.8    306.3   0.254913426   2.57025   0.85580  -1.29923   0.38711
  19   32703.9    305.8   0.001073755   0.01081  -0.08607   0.04986   0.03024
  20   33016.6    302.9   0.016675294   0.16627  -0.07899  -0.25207   0.31064
  21   33410.3    299.3   0.081552098   0.80358  -0.22349   0.74675  -0.44272
  22   33881.2    295.1   0.000294089   0.00286   0.04672  -0.01924   0.01745
  23   34016.5    294.0   0.069217270   0.66989  -0.36958   0.72587   0.08004
  24   34749.1    287.8   0.078767184   0.74624  -0.08730  -0.42213  -0.74861
  25   35047.4    285.3   0.048707256   0.45752   0.04860  -0.61179  -0.28439
  26   35995.4    277.8   0.035643527   0.32599   0.10821  -0.51046  -0.23176
  27   36224.9    276.1   0.191041099   1.73618  -0.30257   1.16730   0.53107
  28   36507.4    273.9   0.000773225   0.00697  -0.07960   0.01469  -0.02051
  29   37147.9    269.2   0.056495070   0.50067  -0.06199   0.30021  -0.63773
  30   37627.5    265.8   0.103256586   0.90342  -0.11167  -0.13331   0.93444
  31   37771.3    264.8   0.006761220   0.05893  -0.19995  -0.10931   0.08368
  32   38017.5    263.0   0.109800498   0.95082  -0.26754   0.69651   0.62778
  33   38400.1    260.4   0.062547529   0.53623   0.01576   0.12032  -0.72216
  34   38531.7    259.5   0.069589221   0.59457   0.20200  -0.74005   0.07798
  35   38937.8    256.8   0.029780982   0.25179   0.00026  -0.45912  -0.20249
  36   39006.9    256.4   0.004452463   0.03758   0.04609  -0.04441   0.18298
  37   39361.3    254.1   0.000727167   0.00608  -0.03212  -0.04722   0.05311
  38   39388.0    253.9   0.033972654   0.28395   0.00270   0.50571   0.16791
  39   39796.4    251.3   0.305767444   2.52943  -0.54896   1.26764   0.78814
  40   40256.4    248.4   0.011024960   0.09016   0.14736  -0.22371  -0.13565

FINAL SINGLE POINT ENERGY     -6952.373640779168

DIPOLE MOMENT
-------------
                                X             Y             Z
Electronic contribution:     33.27415    -119.87999     127.95617
Nuclear contribution   :    -32.28917     118.65774    -129.63295
                        -----------------------------------------
Total Dipole Moment    :      0.98497      -1.22225      -1.67679
                        -----------------------------------------
Magnitude (a.u.)       :      2.29688
Magnitude (Debye)      :      5.83822

Rotational constants in cm-1:     0.001099     0.000225     0.000189
Rotational constants in MHz :    32.949852     6.747445     5.668002

                             ****ORCA TERMINATED NORMALLY****
TOTAL RUN TIME: 0 days 0 hours 7 minutes 40 seconds 483 msec
