                         Program Version 4.2.0 -  RELEASE  -
|  1> # ORCA input file
|  2> # SCF done       -180.870105164220          0.000716356563
|  3> ! CAM-B3LYP def2-SVP def2/J RIJCOSX Grid4 TightSCF
|  4> %maxcore 5000
|  5> %tddft
|  6>     Mode sTDDFT
|  7>     Ethresh 5.0
|  8>     maxcore 5000
|  9> end
| 10>
| 11> %pal
| 12>   nprocs 6
| 13>   end
| 14> * xyz 0 1
| 15>    C      -12.47722         5.48745         2.95423
| 16>    C      -12.40175         4.93207         4.20342
| 17>    C      -13.10594         5.42112         5.32551
| 18>    N      -13.63632         5.77236         6.28052
| 19>    C      -11.58830         3.84396         4.58869
| 20>    N      -10.95371         2.98710         5.01445
| 21>    C      -13.28718         6.63975         2.58794
| 22>    C      -12.99436         6.99408         1.24773
| 23>    C      -13.63142         8.02446         0.59896
| 24>    C      -14.60819         8.73740         1.30317
| 25>    C      -14.88221         8.38823         2.65033
| 26>    C      -14.23275         7.34996         3.30540
| 27>    S      -16.12101         9.39056         3.33259
| 28>    C      -16.26801        10.24628         1.82515
| 29>    C      -15.42087         9.81299         0.85654
| 30>   Br      -17.52098        11.62327         1.65735
| 31>    C      -11.94008         6.10761         0.72087
| 32>    O      -11.35109         6.24592        -0.32860
| 33>    C      -11.73795         5.07028         1.77019
| 34>    C      -11.08261         3.88261         1.64722
| 35>    C      -10.37210         3.35506         0.54320
| 36>    O      -10.09008         4.03618        -0.59583
| 37>    C       -9.84347         2.07864         0.41820
| 38>    C       -9.61244         0.81106         1.12363
| 39>    O       -9.91574         0.45218         2.22877
| 40>    N       -8.89233         0.05422         0.20064
| 41>    C       -8.62531         0.68642        -1.01442
| 42>    O       -8.00120         0.20113        -1.92174
| 43>    C       -9.24989         2.00113        -0.86014
| 44>    C       -9.40822         3.24665        -1.44772
| 45>    C       -8.83877         3.76291        -2.64824
| 46>    C       -8.65259         5.08598        -2.81871
| 47>    C       -7.89389         5.71962        -3.85644
| 48>    C       -7.92127         7.08031        -4.07134
| 49>    O       -7.14588         7.43152        -5.09699
| 50>    C       -6.59774         6.30832        -5.57536
| 51>    C       -6.99012         5.21117        -4.85858
| 52>    C       -6.49441         3.86213        -5.23060
| 53>    O       -6.47087         3.53187        -6.40441
| 54>    C       -5.99306         2.97340        -4.19689
| 55>    C       -5.60375         1.66131        -4.41289
| 56>    C       -5.24381         0.99342        -3.25412
| 57>    C       -5.37366         1.77304        -2.10907
| 58>    S       -5.84224         3.39588        -2.52176
| 59>    C       -5.30252         1.30315        -0.78352
| 60>    C       -5.80326         1.93047         0.32525
| 61>    C       -5.95153         1.36801         1.62338
| 62>    C       -6.64016         2.14607         2.50064
| 63>    C       -7.05070         3.38514         1.95551
| 64>    S       -6.50784         3.53699         0.29697
| 65>    C       -7.79486         4.39412         2.52745
| 66>    C       -8.32085         4.49391         3.83491
| 67>    C       -9.05458         5.62009         4.04262
| 68>    C       -9.16666         6.46393         2.90502
| 69>    S       -8.24685         5.79523         1.57413
| 70>    C       -9.92665         7.59780         2.80620
| 71>    C      -10.07328         8.42014         1.67351
| 72>    S       -9.20569         8.24293         0.15931
| 73>    C       -9.99024         9.57037        -0.58911
| 74>    C      -10.90199        10.14677         0.26681
| 75>    C      -10.93920         9.49045         1.53358
| 76>    O      -11.86076        10.05223         2.34417
| 77>    C      -12.40826        11.06079         1.61021
| 78>    N      -13.45911        11.79479         2.19679
| 79>    O      -13.92007        12.71096         1.54204
| 80>    O      -13.85496        11.44346         3.29068
| 81>    C      -11.87675        11.17671         0.35293
| 82>    H      -13.39178         8.26743        -0.42515
| 83>    H      -14.48153         7.11866         4.32733
| 84>    H      -15.37612        10.23690        -0.13050
| 85>    H      -11.11346         3.18693         2.47682
| 86>    H       -8.58951        -0.88891         0.39781
| 87>    H       -8.47616         3.02551        -3.34747
| 88>    H       -9.07995         5.76008        -2.08676
| 89>    H       -8.46713         7.85086        -3.56359
| 90>    H       -5.92638         6.38625        -6.40747
| 91>    H       -5.62310         1.22397        -5.39498
| 92>    H       -4.95621        -0.04111        -3.21583
| 93>    H       -4.92628         0.29657        -0.65706
| 94>    H       -5.56767         0.38915         1.85049
| 95>    H       -6.88628         1.86054         3.50712
| 96>    H       -8.15985         3.73206         4.57516
| 97>    H       -9.52568         5.87582         4.97531
| 98>    H      -10.49560         7.90519         3.67473
| 99>    H       -9.74573         9.84746        -1.59322
|100>    H      -12.16090        11.89803        -0.38499
|101> *
|102>
|103>                          ****END OF INPUT****

CARTESIAN COORDINATES (ANGSTROEM)
---------------------------------
  C    -12.477220    5.487450    2.954230
  C    -12.401750    4.932070    4.203420
  C    -13.105940    5.421120    5.325510
  N    -13.636320    5.772360    6.280520
  C    -11.588300    3.843960    4.588690
  N    -10.953710    2.987100    5.014450
  C    -13.287180    6.639750    2.587940
  C    -12.994360    6.994080    1.247730
  C    -13.631420    8.024460    0.598960
  C    -14.608190    8.737400    1.303170
  C    -14.882210    8.388230    2.650330
  C    -14.232750    7.349960    3.305400
  S    -16.121010    9.390560    3.332590
  C    -16.268010   10.246280    1.825150
  C    -15.420870    9.812990    0.856540
  Br   -17.520980   11.623270    1.657350
  C    -11.940080    6.107610    0.720870
  O    -11.351090    6.245920   -0.328600
  C    -11.737950    5.070280    1.770190
  C    -11.082610    3.882610    1.647220
  C    -10.372100    3.355060    0.543200
  O    -10.090080    4.036180   -0.595830
  C     -9.843470    2.078640    0.418200
  C     -9.612440    0.811060    1.123630
  O     -9.915740    0.452180    2.228770
  N     -8.892330    0.054220    0.200640
  C     -8.625310    0.686420   -1.014420
  O     -8.001200    0.201130   -1.921740
  C     -9.249890    2.001130   -0.860140
  C     -9.408220    3.246650   -1.447720
  C     -8.838770    3.762910   -2.648240
  C     -8.652590    5.085980   -2.818710
  C     -7.893890    5.719620   -3.856440
  C     -7.921270    7.080310   -4.071340
  O     -7.145880    7.431520   -5.096990
  C     -6.597740    6.308320   -5.575360
  C     -6.990120    5.211170   -4.858580
  C     -6.494410    3.862130   -5.230600
  O     -6.470870    3.531870   -6.404410
  C     -5.993060    2.973400   -4.196890
  C     -5.603750    1.661310   -4.412890
  C     -5.243810    0.993420   -3.254120
  C     -5.373660    1.773040   -2.109070
  S     -5.842240    3.395880   -2.521760
  C     -5.302520    1.303150   -0.783520
  C     -5.803260    1.930470    0.325250
  C     -5.951530    1.368010    1.623380
  C     -6.640160    2.146070    2.500640
  C     -7.050700    3.385140    1.955510
  S     -6.507840    3.536990    0.296970
  C     -7.794860    4.394120    2.527450
  C     -8.320850    4.493910    3.834910
  C     -9.054580    5.620090    4.042620
  C     -9.166660    6.463930    2.905020
  S     -8.246850    5.795230    1.574130
  C     -9.926650    7.597800    2.806200
  C    -10.073280    8.420140    1.673510
  S     -9.205690    8.242930    0.159310
  C     -9.990240    9.570370   -0.589110
  C    -10.901990   10.146770    0.266810
  C    -10.939200    9.490450    1.533580
  O    -11.860760   10.052230    2.344170
  C    -12.408260   11.060790    1.610210
  N    -13.459110   11.794790    2.196790
  O    -13.920070   12.710960    1.542040
  O    -13.854960   11.443460    3.290680
  C    -11.876750   11.176710    0.352930
  H    -13.391780    8.267430   -0.425150
  H    -14.481530    7.118660    4.327330
  H    -15.376120   10.236900   -0.130500
  H    -11.113460    3.186930    2.476820
  H     -8.589510   -0.888910    0.397810
  H     -8.476160    3.025510   -3.347470
  H     -9.079950    5.760080   -2.086760
  H     -8.467130    7.850860   -3.563590
  H     -5.926380    6.386250   -6.407470
  H     -5.623100    1.223970   -5.394980
  H     -4.956210   -0.041110   -3.215830
  H     -4.926280    0.296570   -0.657060
  H     -5.567670    0.389150    1.850490
  H     -6.886280    1.860540    3.507120
  H     -8.159850    3.732060    4.575160
  H     -9.525680    5.875820    4.975310
  H    -10.495600    7.905190    3.674730
  H     -9.745730    9.847460   -1.593220
  H    -12.160900   11.898030   -0.384990

 Total Charge           Charge          ....    0
 Multiplicity           Mult            ....    1
 Number of Electrons    NEL             ....  522
 Basis Dimension        Dim             .... 1071

ORBITAL ENERGIES
----------------

  NO   OCC          E(Eh)            E(eV)
   0   2.0000    -482.880132    -13139.8364
   1   2.0000     -88.984958     -2421.4038
   2   2.0000     -88.971345     -2421.0334
   3   2.0000     -88.964803     -2420.8554
   4   2.0000     -88.960377     -2420.7349
   5   2.0000     -88.959200     -2420.7029
   6   2.0000     -62.557834     -1702.2852
   7   2.0000     -56.391785     -1534.4985
   8   2.0000     -56.389062     -1534.4244
   9   2.0000     -56.389045     -1534.4239
  10   2.0000     -19.318164      -525.6740
  11   2.0000     -19.311644      -525.4966
  12   2.0000     -19.311196      -525.4844
  13   2.0000     -19.253152      -523.9049
  14   2.0000     -19.250845      -523.8421
  15   2.0000     -19.218925      -522.9735
  16   2.0000     -19.218113      -522.9514
  17   2.0000     -19.215289      -522.8746
  18   2.0000     -19.198185      -522.4092
  19   2.0000     -14.663044      -399.0017
  20   2.0000     -14.459353      -393.4590
  21   2.0000     -14.417611      -392.3231
  22   2.0000     -14.417298      -392.3146
  23   2.0000     -10.406293      -283.1696
  24   2.0000     -10.403927      -283.1052
  25   2.0000     -10.395372      -282.8724
  26   2.0000     -10.370739      -282.2021
  27   2.0000     -10.370435      -282.1939
  28   2.0000     -10.365738      -282.0661
  29   2.0000     -10.364581      -282.0346
  30   2.0000     -10.356402      -281.8120
  31   2.0000     -10.354411      -281.7578
  32   2.0000     -10.345054      -281.5032
  33   2.0000     -10.344441      -281.4865
  34   2.0000     -10.341569      -281.4084
  35   2.0000     -10.338344      -281.3207
  36   2.0000     -10.325091      -280.9600
  37   2.0000     -10.323783      -280.9244
  38   2.0000     -10.323393      -280.9138
  39   2.0000     -10.322791      -280.8974
  40   2.0000     -10.322330      -280.8849
  41   2.0000     -10.322116      -280.8791
  42   2.0000     -10.321228      -280.8549
  43   2.0000     -10.321024      -280.8494
  44   2.0000     -10.321019      -280.8492
  45   2.0000     -10.320954      -280.8474
  46   2.0000     -10.320259      -280.8285
  47   2.0000     -10.313527      -280.6453
  48   2.0000     -10.308402      -280.5059
  49   2.0000     -10.307776      -280.4888
  50   2.0000     -10.307737      -280.4878
  51   2.0000     -10.305828      -280.4358
  52   2.0000     -10.305398      -280.4241
  53   2.0000     -10.303711      -280.3782
  54   2.0000     -10.303525      -280.3732
  55   2.0000     -10.301571      -280.3200
  56   2.0000     -10.300773      -280.2983
  57   2.0000     -10.298034      -280.2237
  58   2.0000     -10.297453      -280.2079
  59   2.0000     -10.297247      -280.2023
  60   2.0000     -10.296847      -280.1914
  61   2.0000     -10.296036      -280.1694
  62   2.0000     -10.294665      -280.1321
  63   2.0000     -10.293987      -280.1136
  64   2.0000     -10.293968      -280.1131
  65   2.0000     -10.293663      -280.1048
  66   2.0000     -10.292553      -280.0746
  67   2.0000     -10.291887      -280.0565
  68   2.0000     -10.286368      -279.9063
  69   2.0000     -10.280673      -279.7513
  70   2.0000     -10.276118      -279.6274
  71   2.0000      -8.787277      -239.1140
  72   2.0000      -8.078703      -219.8327
  73   2.0000      -8.067262      -219.5214
  74   2.0000      -8.059169      -219.3011
  75   2.0000      -8.055911      -219.2125
  76   2.0000      -8.054498      -219.1740
  77   2.0000      -6.623604      -180.2374
  78   2.0000      -6.609009      -179.8403
  79   2.0000      -6.608778      -179.8340
  80   2.0000      -6.048092      -164.5769
  81   2.0000      -6.043623      -164.4554
  82   2.0000      -6.041157      -164.3882
  83   2.0000      -6.036954      -164.2739
  84   2.0000      -6.032673      -164.1574
  85   2.0000      -6.028436      -164.0421
  86   2.0000      -6.028405      -164.0412
  87   2.0000      -6.025707      -163.9678
  88   2.0000      -6.024330      -163.9304
  89   2.0000      -6.024198      -163.9268
  90   2.0000      -6.021585      -163.8557
  91   2.0000      -6.021571      -163.8553
  92   2.0000      -6.020143      -163.8164
  93   2.0000      -6.016868      -163.7273
  94   2.0000      -6.015439      -163.6884
  95   2.0000      -2.739530       -74.5464
  96   2.0000      -2.735355       -74.4328
  97   2.0000      -2.735199       -74.4286
  98   2.0000      -2.723589       -74.1126
  99   2.0000      -2.723579       -74.1124
 100   2.0000      -1.334642       -36.3175
 101   2.0000      -1.236968       -33.6596
 102   2.0000      -1.234215       -33.5847
 103   2.0000      -1.232347       -33.5339
 104   2.0000      -1.161196       -31.5978
 105   2.0000      -1.150670       -31.3113
 106   2.0000      -1.140783       -31.0423
 107   2.0000      -1.134355       -30.8674
 108   2.0000      -1.116241       -30.3745
 109   2.0000      -1.047750       -28.5107
 110   2.0000      -1.024155       -27.8687
 111   2.0000      -1.014322       -27.6011
 112   2.0000      -1.011541       -27.5254
 113   2.0000      -1.004164       -27.3247
 114   2.0000      -0.996570       -27.1180
 115   2.0000      -0.992088       -26.9961
 116   2.0000      -0.990727       -26.9590
 117   2.0000      -0.979907       -26.6646
 118   2.0000      -0.947825       -25.7916
 119   2.0000      -0.944718       -25.7071
 120   2.0000      -0.940786       -25.6001
 121   2.0000      -0.930055       -25.3081
 122   2.0000      -0.920756       -25.0551
 123   2.0000      -0.912945       -24.8425
 124   2.0000      -0.908044       -24.7091
 125   2.0000      -0.898534       -24.4504
 126   2.0000      -0.892619       -24.2894
 127   2.0000      -0.885756       -24.1027
 128   2.0000      -0.883901       -24.0522
 129   2.0000      -0.871473       -23.7140
 130   2.0000      -0.863107       -23.4863
 131   2.0000      -0.858767       -23.3682
 132   2.0000      -0.846488       -23.0341
 133   2.0000      -0.841435       -22.8966
 134   2.0000      -0.830280       -22.5931
 135   2.0000      -0.829172       -22.5629
 136   2.0000      -0.822981       -22.3944
 137   2.0000      -0.820663       -22.3314
 138   2.0000      -0.796010       -21.6605
 139   2.0000      -0.786528       -21.4025
 140   2.0000      -0.784987       -21.3606
 141   2.0000      -0.772211       -21.0129
 142   2.0000      -0.764981       -20.8162
 143   2.0000      -0.760489       -20.6940
 144   2.0000      -0.754876       -20.5412
 145   2.0000      -0.740683       -20.1550
 146   2.0000      -0.723802       -19.6957
 147   2.0000      -0.715747       -19.4765
 148   2.0000      -0.710130       -19.3236
 149   2.0000      -0.705593       -19.2002
 150   2.0000      -0.699213       -19.0265
 151   2.0000      -0.690168       -18.7804
 152   2.0000      -0.684878       -18.6365
 153   2.0000      -0.680628       -18.5208
 154   2.0000      -0.676205       -18.4005
 155   2.0000      -0.670437       -18.2435
 156   2.0000      -0.658818       -17.9273
 157   2.0000      -0.654314       -17.8048
 158   2.0000      -0.653091       -17.7715
 159   2.0000      -0.650237       -17.6939
 160   2.0000      -0.641496       -17.4560
 161   2.0000      -0.637414       -17.3449
 162   2.0000      -0.634125       -17.2554
 163   2.0000      -0.629872       -17.1397
 164   2.0000      -0.621902       -16.9228
 165   2.0000      -0.621023       -16.8989
 166   2.0000      -0.612529       -16.6677
 167   2.0000      -0.607144       -16.5212
 168   2.0000      -0.604285       -16.4434
 169   2.0000      -0.602465       -16.3939
 170   2.0000      -0.599181       -16.3045
 171   2.0000      -0.596252       -16.2248
 172   2.0000      -0.596020       -16.2185
 173   2.0000      -0.593721       -16.1560
 174   2.0000      -0.591677       -16.1003
 175   2.0000      -0.580226       -15.7888
 176   2.0000      -0.578851       -15.7513
 177   2.0000      -0.577431       -15.7127
 178   2.0000      -0.569486       -15.4965
 179   2.0000      -0.565298       -15.3826
 180   2.0000      -0.561226       -15.2717
 181   2.0000      -0.557945       -15.1825
 182   2.0000      -0.552816       -15.0429
 183   2.0000      -0.552144       -15.0246
 184   2.0000      -0.546909       -14.8821
 185   2.0000      -0.543727       -14.7956
 186   2.0000      -0.541212       -14.7271
 187   2.0000      -0.536453       -14.5976
 188   2.0000      -0.533340       -14.5129
 189   2.0000      -0.530140       -14.4258
 190   2.0000      -0.526200       -14.3186
 191   2.0000      -0.524739       -14.2789
 192   2.0000      -0.522249       -14.2111
 193   2.0000      -0.521267       -14.1844
 194   2.0000      -0.516640       -14.0585
 195   2.0000      -0.514313       -13.9952
 196   2.0000      -0.511404       -13.9160
 197   2.0000      -0.510367       -13.8878
 198   2.0000      -0.507089       -13.7986
 199   2.0000      -0.506475       -13.7819
 200   2.0000      -0.504202       -13.7200
 201   2.0000      -0.502493       -13.6735
 202   2.0000      -0.500182       -13.6106
 203   2.0000      -0.498778       -13.5724
 204   2.0000      -0.497209       -13.5297
 205   2.0000      -0.492544       -13.4028
 206   2.0000      -0.490936       -13.3591
 207   2.0000      -0.482258       -13.1229
 208   2.0000      -0.479238       -13.0407
 209   2.0000      -0.478683       -13.0256
 210   2.0000      -0.475737       -12.9455
 211   2.0000      -0.472418       -12.8551
 212   2.0000      -0.468098       -12.7376
 213   2.0000      -0.463663       -12.6169
 214   2.0000      -0.462201       -12.5771
 215   2.0000      -0.461243       -12.5511
 216   2.0000      -0.460483       -12.5304
 217   2.0000      -0.457077       -12.4377
 218   2.0000      -0.454495       -12.3674
 219   2.0000      -0.450902       -12.2697
 220   2.0000      -0.448601       -12.2071
 221   2.0000      -0.445523       -12.1233
 222   2.0000      -0.444882       -12.1059
 223   2.0000      -0.439171       -11.9505
 224   2.0000      -0.437916       -11.9163
 225   2.0000      -0.435119       -11.8402
 226   2.0000      -0.429664       -11.6917
 227   2.0000      -0.429086       -11.6760
 228   2.0000      -0.425263       -11.5720
 229   2.0000      -0.420785       -11.4501
 230   2.0000      -0.420090       -11.4312
 231   2.0000      -0.412704       -11.2303
 232   2.0000      -0.410233       -11.1630
 233   2.0000      -0.401710       -10.9311
 234   2.0000      -0.398647       -10.8477
 235   2.0000      -0.395727       -10.7683
 236   2.0000      -0.392372       -10.6770
 237   2.0000      -0.388947       -10.5838
 238   2.0000      -0.381681       -10.3861
 239   2.0000      -0.381010       -10.3678
 240   2.0000      -0.377382       -10.2691
 241   2.0000      -0.375270       -10.2116
 242   2.0000      -0.369766       -10.0618
 243   2.0000      -0.369140       -10.0448
 244   2.0000      -0.363661        -9.8957
 245   2.0000      -0.357148        -9.7185
 246   2.0000      -0.350970        -9.5504
 247   2.0000      -0.348856        -9.4929
 248   2.0000      -0.345707        -9.4072
 249   2.0000      -0.339631        -9.2418
 250   2.0000      -0.337866        -9.1938
 251   2.0000      -0.333094        -9.0639
 252   2.0000      -0.328886        -8.9494
 253   2.0000      -0.318387        -8.6638
 254   2.0000      -0.318095        -8.6558
 255   2.0000      -0.310919        -8.4605
 256   2.0000      -0.305026        -8.3002
 257   2.0000      -0.292430        -7.9574
 258   2.0000      -0.281356        -7.6561
 259   2.0000      -0.269567        -7.3353
 260   2.0000      -0.224869        -6.1190
 261   0.0000      -0.099591        -2.7100
 262   0.0000      -0.095056        -2.5866
 263   0.0000      -0.072140        -1.9630
 264   0.0000      -0.061737        -1.6799
 265   0.0000      -0.047740        -1.2991

MULLIKEN ATOMIC CHARGES
-----------------------
   0 C :    0.312280
   1 C :   -0.376362
   2 C :   -0.198641
   3 N :    0.163299
   4 C :   -0.205045
   5 N :    0.168536
   6 C :    0.021361
   7 C :   -0.011378
   8 C :   -0.087619
   9 C :    0.108596
  10 C :   -0.073005
  11 C :   -0.027037
  12 S :    0.213368
  13 C :   -0.125148
  14 C :    0.018705
  15 Br:    0.036934
  16 C :    0.133376
  17 O :   -0.136197
  18 C :   -0.012445
  19 C :   -0.088588
  20 C :    0.087945
  21 O :   -0.164740
  22 C :   -0.021467
  23 C :    0.172361
  24 O :   -0.127277
  25 N :   -0.171529
  26 C :    0.179512
  27 O :   -0.141414
  28 C :   -0.039602
  29 C :    0.084175
  30 C :   -0.011755
  31 C :    0.007553
  32 C :    0.062494
  33 C :    0.093161
  34 O :   -0.155974
  35 C :    0.111897
  36 C :   -0.056677
  37 C :    0.119022
  38 O :   -0.184678
  39 C :   -0.144477
  40 C :    0.053183
  41 C :    0.062755
  42 C :   -0.077886
  43 S :    0.123645
  44 C :    0.048543
  45 C :   -0.050923
  46 C :    0.024526
  47 C :    0.053471
  48 C :   -0.044692
  49 S :    0.052083
  50 C :   -0.046677
  51 C :    0.040607
  52 C :    0.038304
  53 C :   -0.028079
  54 S :    0.056682
  55 C :   -0.012407
  56 C :   -0.221397
  57 S :    0.169785
  58 C :   -0.118547
  59 C :    0.110474
  60 C :    0.224761
  61 O :   -0.193455
  62 C :    0.240557
  63 N :    0.272330
  64 O :   -0.246240
  65 O :   -0.226186
  66 C :   -0.070713
  67 H :   -0.015454
  68 H :   -0.008120
  69 H :   -0.007501
  70 H :    0.029091
  71 H :    0.136207
  72 H :    0.026836
  73 H :    0.014392
  74 H :   -0.001566
  75 H :    0.023498
  76 H :    0.004926
  77 H :   -0.014877
  78 H :   -0.008896
  79 H :   -0.009062
  80 H :    0.002567
  81 H :    0.006429
  82 H :    0.005342
  83 H :    0.011124
  84 H :    0.026431
  85 H :    0.010607
Sum of atomic charges:   -0.0000000

LOEWDIN ATOMIC CHARGES
----------------------
   0 C :    0.076110
   1 C :   -0.144617
   2 C :   -0.021526
   3 N :   -0.051105
   4 C :   -0.025189
   5 N :   -0.048798
   6 C :   -0.026160
   7 C :   -0.050201
   8 C :    0.013672
   9 C :   -0.039209
  10 C :   -0.142312
  11 C :   -0.006839
  12 S :    0.456388
  13 C :   -0.269050
  14 C :   -0.086971
  15 Br:    0.149712
  16 C :    0.074344
  17 O :   -0.142521
  18 C :   -0.074554
  19 C :    0.034829
  20 C :    0.037670
  21 O :    0.050589
  22 C :   -0.063290
  23 C :    0.082988
  24 O :   -0.145269
  25 N :   -0.004224
  26 C :    0.087537
  27 O :   -0.155638
  28 C :   -0.113452
  29 C :    0.089010
  30 C :   -0.059655
  31 C :    0.019853
  32 C :   -0.075251
  33 C :    0.048296
  34 O :    0.044303
  35 C :    0.071554
  36 C :   -0.104526
  37 C :    0.056697
  38 O :   -0.161355
  39 C :   -0.239043
  40 C :   -0.000689
  41 C :   -0.044041
  42 C :   -0.155727
  43 S :    0.469764
  44 C :   -0.059432
  45 C :   -0.154671
  46 C :   -0.029843
  47 C :   -0.027995
  48 C :   -0.177554
  49 S :    0.380224
  50 C :   -0.174973
  51 C :   -0.017239
  52 C :   -0.028877
  53 C :   -0.150028
  54 S :    0.377588
  55 C :   -0.069970
  56 C :   -0.208555
  57 S :    0.501087
  58 C :   -0.188023
  59 C :   -0.086438
  60 C :    0.022859
  61 O :    0.005480
  62 C :    0.022513
  63 N :    0.275585
  64 O :   -0.206790
  65 O :   -0.193271
  66 C :   -0.010087
  67 H :    0.037644
  68 H :    0.041145
  69 H :    0.036065
  70 H :    0.057915
  71 H :    0.092988
  72 H :    0.040903
  73 H :    0.037923
  74 H :    0.022110
  75 H :    0.032495
  76 H :    0.040115
  77 H :    0.032193
  78 H :    0.041704
  79 H :    0.035071
  80 H :    0.039551
  81 H :    0.040230
  82 H :    0.038006
  83 H :    0.047384
  84 H :    0.026283
  85 H :    0.046583

  Mayer bond orders larger than 0.100000
B(  0-C ,  1-C ) :   1.6330 B(  0-C ,  6-C ) :   1.0050 B(  0-C , 18-C ) :   1.0521
B(  1-C ,  2-C ) :   1.1424 B(  1-C ,  4-C ) :   1.1488 B(  2-C ,  3-N ) :   2.9780
B(  4-C ,  5-N ) :   2.9474 B(  6-C ,  7-C ) :   1.2707 B(  6-C , 11-C ) :   1.3947
B(  7-C ,  8-C ) :   1.4121 B(  7-C , 16-C ) :   0.9394 B(  8-C ,  9-C ) :   1.2396
B(  8-C , 67-H ) :   1.0228 B(  9-C , 10-C ) :   1.2996 B(  9-C , 14-C ) :   1.1631
B( 10-C , 11-C ) :   1.3319 B( 10-C , 12-S ) :   1.0972 B( 11-C , 68-H ) :   0.9801
B( 12-S , 13-C ) :   1.1033 B( 13-C , 14-C ) :   1.5939 B( 13-C , 15-Br) :   1.0300
B( 14-C , 69-H ) :   1.0088 B( 16-C , 17-O ) :   2.2299 B( 16-C , 18-C ) :   0.9237
B( 18-C , 19-C ) :   1.5470 B( 19-C , 20-C ) :   1.1982 B( 19-C , 70-H ) :   0.9338
B( 20-C , 21-O ) :   1.1470 B( 20-C , 22-C ) :   1.3828 B( 21-O , 29-C ) :   1.2066
B( 22-C , 23-C ) :   0.8714 B( 22-C , 28-C ) :   1.3102 B( 23-C , 24-O ) :   2.2614
B( 23-C , 25-N ) :   1.0829 B( 25-N , 26-C ) :   1.0754 B( 25-N , 71-H ) :   0.9139
B( 26-C , 27-O ) :   2.2312 B( 26-C , 28-C ) :   0.8875 B( 28-C , 29-C ) :   1.3535
B( 29-C , 30-C ) :   1.1909 B( 30-C , 31-C ) :   1.6752 B( 30-C , 72-H ) :   0.9446
B( 31-C , 32-C ) :   1.0917 B( 31-C , 73-H ) :   0.9688 B( 32-C , 33-C ) :   1.4804
B( 32-C , 36-C ) :   1.2164 B( 33-C , 34-O ) :   1.1749 B( 33-C , 74-H ) :   1.0042
B( 34-O , 35-C ) :   1.1643 B( 35-C , 36-C ) :   1.5684 B( 35-C , 75-H ) :   1.0069
B( 36-C , 37-C ) :   0.9205 B( 37-C , 38-O ) :   2.2113 B( 37-C , 39-C ) :   1.0230
B( 39-C , 40-C ) :   1.4371 B( 39-C , 43-S ) :   1.1135 B( 40-C , 41-C ) :   1.3143
B( 40-C , 76-H ) :   1.0041 B( 41-C , 42-C ) :   1.3972 B( 41-C , 77-H ) :   1.0006
B( 42-C , 43-S ) :   1.1413 B( 42-C , 44-C ) :   1.1775 B( 44-C , 45-C ) :   1.5736
B( 44-C , 78-H ) :   0.9682 B( 45-C , 46-C ) :   1.1310 B( 45-C , 49-S ) :   1.0397
B( 46-C , 47-C ) :   1.5922 B( 46-C , 79-H ) :   1.0020 B( 47-C , 48-C ) :   1.1821
B( 47-C , 80-H ) :   0.9951 B( 48-C , 49-S ) :   1.0409 B( 48-C , 50-C ) :   1.5141
B( 50-C , 51-C ) :   1.1846 B( 50-C , 54-S ) :   1.0393 B( 51-C , 52-C ) :   1.5820
B( 51-C , 81-H ) :   0.9933 B( 52-C , 53-C ) :   1.1405 B( 52-C , 82-H ) :   0.9944
B( 53-C , 54-S ) :   1.0435 B( 53-C , 55-C ) :   1.5473 B( 55-C , 56-C ) :   1.1705
B( 55-C , 83-H ) :   0.9722 B( 56-C , 57-S ) :   1.1304 B( 56-C , 58-C ) :   0.1047
B( 56-C , 60-C ) :   1.4357 B( 57-S , 58-C ) :   1.2050 B( 58-C , 59-C ) :   1.4171
B( 58-C , 84-H ) :   0.9706 B( 59-C , 60-C ) :   1.2389 B( 59-C , 66-C ) :   1.0502
B( 60-C , 61-O ) :   1.1139 B( 61-O , 62-C ) :   1.1090 B( 62-C , 63-N ) :   0.9155
B( 62-C , 66-C ) :   1.5787 B( 63-N , 64-O ) :   1.5284 B( 63-N , 65-O ) :   1.5071
B( 64-O , 65-O ) :   0.2720 B( 66-C , 85-H ) :   1.0279

-----------------------------------------------------------------------------
         ABSORPTION SPECTRUM VIA TRANSITION ELECTRIC DIPOLE MOMENTS
-----------------------------------------------------------------------------
State   Energy  Wavelength   fosc         T2         TX        TY        TZ
        (cm-1)    (nm)                  (au**2)     (au)      (au)      (au)
-----------------------------------------------------------------------------
   0   10308.9    970.0   0.046084390   1.47169  -1.18896  -0.01253   0.24065
   1   14355.6    696.6   0.643462963  14.75634  -1.92678   2.85202   1.70583
   2   17762.2    563.0   0.024851929   0.46062  -0.13394   0.06034   0.66260
   3   19667.0    508.5   0.008736619   0.14625  -0.28844   0.20159  -0.14968
   4   20315.6    492.2   0.423965233   6.87031  -1.28383   1.12233   1.99059
   5   20595.2    485.5   0.015849397   0.25335   0.22727  -0.35082  -0.28040
   6   20971.9    476.8   0.439626706   6.90115  -1.52675   1.22898   1.74923
   7   23124.0    432.5   0.072341498   1.02991  -0.71955  -0.19118   0.68965
   8   23876.9    418.8   0.085632867   1.18070  -0.63240   0.34498   0.81349
   9   25664.6    389.6   0.052034559   0.66747  -0.59456   0.56029  -0.00689
  10   26578.0    376.3   0.120753756   1.49573  -0.09131  -0.45611   1.13108
  11   26919.5    371.5   0.266634035   3.26081   0.84620  -0.84654   1.35208
  12   27069.3    369.4   0.031781783   0.38652   0.44842  -0.36144  -0.23409
  13   27551.8    363.0   0.270339071   3.23024   0.66572  -1.09288   1.26201
  14   27707.6    360.9   0.007748233   0.09206  -0.04727   0.22047  -0.20303
  15   28623.1    349.4   0.005511821   0.06339  -0.04137   0.24329   0.04994
  16   29032.8    344.4   0.007786489   0.08829   0.24018  -0.07153  -0.15965
  17   29199.9    342.5   0.003741445   0.04218  -0.07427   0.03728   0.18782
  18   29978.6    333.6   0.028919930   0.31759   0.43336  -0.22220  -0.28357
  19   30101.7    332.2   0.040133243   0.43892   0.62509  -0.21584   0.03998
  20   30374.1    329.2   0.033101302   0.35877  -0.12269  -0.28392   0.51294
  21   30497.6    327.9   0.041710226   0.45025   0.59038  -0.24346  -0.20598
  22   30616.6    326.6   0.034220164   0.36796  -0.52377  -0.26687   0.14969
  23   30695.5    325.8   0.005070006   0.05438   0.09855  -0.08794  -0.19217
  24   31027.2    322.3   0.199060600   2.11212   0.58079   0.77086  -1.08654
  25   31416.3    318.3   0.028087583   0.29433  -0.00905   0.04409  -0.54065
  26   31744.4    315.0   0.033626181   0.34873  -0.51745   0.22483   0.17444
  27   31826.7    314.2   0.146477487   1.51515   0.51767  -1.10679   0.14892
  28   32014.5    312.4   0.449673751   4.62409   0.78618  -1.67951   1.08870
  29   32265.8    309.9   0.189975630   1.93834  -0.69715   0.85782  -0.84645
  30   32324.6    309.4   0.372808804   3.79690  -0.46119   1.79509  -0.60154
  31   32519.0    307.5   0.166444617   1.68503   0.41514  -1.19121   0.30611
  32   32983.5    303.2   0.061006518   0.60891  -0.17217   0.41399   0.63866
  33   33159.1    301.6   0.063730240   0.63273   0.29976  -0.56292   0.47539
  34   33518.6    298.3   0.090127606   0.88521  -0.39439   0.84742  -0.10747
  35   33565.9    297.9   0.020521150   0.20127   0.28075  -0.34772  -0.03923
  36   33922.2    294.8   0.027667106   0.26851  -0.06176   0.20801  -0.47056
  37   34154.4    292.8   0.013071143   0.12599  -0.27194   0.22564   0.03356
  38   34250.9    292.0   0.018211653   0.17505  -0.03470   0.36404  -0.20327
  39   34627.4    288.8   0.132758079   1.26217  -0.29208  -0.45580   0.98443
  40   34723.7    288.0   0.065419120   0.62023  -0.46616   0.14651   0.61763
  41   35209.1    284.0   0.011247459   0.10517   0.09828   0.06280   0.30259
  42   35406.3    282.4   0.037084137   0.34481   0.47931  -0.20871  -0.26743
  43   35877.6    278.7   0.020504324   0.18815  -0.10203   0.17560  -0.38328
  44   36196.1    276.3   0.196276843   1.78518  -0.85604   0.98044   0.30187
  45   36525.8    273.8   0.152395733   1.37356  -0.87578   0.63341   0.45317
  46   36770.9    272.0   0.009183312   0.08222  -0.15666  -0.23700  -0.03886
  47   37136.5    269.3   0.141034257   1.25026   0.71434  -0.80641  -0.29946
  48   37431.4    267.2   0.018498738   0.16270   0.15804   0.36550  -0.06429
  49   37520.5    266.5   0.027318237   0.23970  -0.22386   0.43538  -0.00540
  50   37655.1    265.6   0.058118667   0.50812   0.25625  -0.52264   0.41147
  51   38100.3    262.5   0.049218078   0.42528   0.11201  -0.26533   0.58509
  52   38386.5    260.5   0.029911632   0.25653   0.08017  -0.28972   0.40763
  53   38433.0    260.2   0.051050713   0.43729  -0.18329  -0.37639   0.51189
  54   38655.4    258.7   0.028044928   0.23885   0.16304  -0.07355  -0.45481
  55   38879.2    257.2   0.012335185   0.10445  -0.11780   0.27946  -0.11169
  56   38916.8    257.0   0.015191801   0.12851  -0.13804   0.30370   0.13124
  57   39309.5    254.4   0.024493691   0.20513   0.13905  -0.34549  -0.25775
  58   39460.1    253.4   0.108333904   0.90382   0.65395  -0.05813  -0.68760
  59   39679.0    252.0   0.052321570   0.43411  -0.04365  -0.55434  -0.35342
  60   40068.6    249.6   0.032950089   0.27072   0.02754   0.49481  -0.15852
  61   40149.3    249.1   0.040922472   0.33555  -0.14659   0.55558   0.07345
  62   40176.5    248.9   0.118628999   0.97206  -0.51140   0.84170   0.04547

FINAL SINGLE POINT ENERGY     -7297.285542372137

DIPOLE MOMENT
-------------
                                X             Y             Z
Electronic contribution:    -88.62994      71.58379      20.04945
Nuclear contribution   :     89.88402     -71.40030     -21.34116
                        -----------------------------------------
Total Dipole Moment    :      1.25409       0.18349      -1.29171
                        -----------------------------------------
Magnitude (a.u.)       :      1.80967
Magnitude (Debye)      :      4.59982

Rotational constants in cm-1:     0.001917     0.000622     0.000534
Rotational constants in MHz :    57.482946    18.656249    16.013386

                             ****ORCA TERMINATED NORMALLY****
TOTAL RUN TIME: 0 days 0 hours 11 minutes 26 seconds 994 msec
