                         Program Version 4.2.0 -  RELEASE  -
|  1> # ORCA input file
|  2> # SCF done       -162.673443603372          0.000553151346
|  3> ! CAM-B3LYP def2-SVP def2/J RIJCOSX Grid4 TightSCF
|  4> %maxcore 5000
|  5> %tddft
|  6>     Mode sTDDFT
|  7>     Ethresh 5.0
|  8>     maxcore 5000
|  9> end
| 10>
| 11> %pal
| 12>   nprocs 6
| 13>   end
| 14> * xyz 0 1
| 15>    C       -0.58081         1.97834         1.91246
| 16>    C        0.19732         3.09242         2.10843
| 17>    C        1.31664         3.13932         2.96503
| 18>    N        2.24122         3.25116         3.63682
| 19>    C        0.02495         4.33276         1.46427
| 20>    N       -0.03735         5.37303         0.98009
| 21>    C       -0.38911         0.68554         2.55968
| 22>    C       -1.31676        -0.24118         2.02223
| 23>    C       -1.38834        -1.54736         2.43835
| 24>    C       -0.51218        -1.95787         3.44853
| 25>    C        0.41131        -1.02634         3.98168
| 26>    C        0.49157         0.29216         3.55137
| 27>    S        1.39904        -1.74391         5.21833
| 28>    C        0.56850        -3.26260         5.00694
| 29>    C       -0.39853        -3.23651         4.05916
| 30>   Br        1.05709        -4.73766         6.05562
| 31>    C       -2.13411         0.42710         0.99521
| 32>    O       -2.84703        -0.10180         0.17480
| 33>    C       -1.74425         1.86852         1.05612
| 34>    C       -2.36183         2.86204         0.35791
| 35>    C       -3.65876         2.72716        -0.19814
| 36>    O       -4.04975         3.54038        -1.21680
| 37>    C       -4.74125         1.94720         0.16986
| 38>    C       -5.22887         0.99935         1.18609
| 39>    O       -4.69222         0.54185         2.16140
| 40>    N       -6.54512         0.77626         0.81265
| 41>    C       -6.99100         1.50883        -0.29345
| 42>    O       -8.10266         1.46349        -0.74131
| 43>    C       -5.80849         2.28689        -0.68523
| 44>    C       -5.34436         3.27632        -1.54252
| 45>    C       -5.98780         3.98270        -2.58614
| 46>    C       -5.39195         5.02519        -3.22354
| 47>    C       -5.99380         5.76794        -4.26250
| 48>    O       -5.33207         6.85149        -4.76198
| 49>    C       -7.19219         5.64452        -4.94622
| 50>    C       -8.41785         4.84279        -5.06403
| 51>    O       -8.78124         3.86667        -4.46142
| 52>    N       -9.12428         5.47484        -6.07946
| 53>    C       -8.49812         6.59587        -6.63500
| 54>    O       -8.95512         7.27072        -7.52125
| 55>    C       -7.24492         6.69113        -5.89040
| 56>    C       -6.07373         7.43200        -5.74807
| 57>    C       -5.62093         8.58638        -6.40598
| 58>    C       -4.45000         9.21264        -6.06126
| 59>    C       -3.95343        10.37069        -6.65589
| 60>    C       -2.79301        10.99494        -6.24184
| 61>    C       -2.21299        12.16949        -6.76857
| 62>    C       -1.06745        12.56156        -6.13596
| 63>    C       -0.68433        11.71562        -5.07703
| 64>    S       -1.82304        10.39798        -4.91154
| 65>    C        0.40922        11.83274        -4.23425
| 66>    C        1.40360        12.83372        -4.22984
| 67>    C        2.34744        12.66224        -3.26216
| 68>    C        2.15929        11.51878        -2.44509
| 69>    S        0.71461        10.67036        -2.96846
| 70>    C        2.99438        11.14594        -1.41700
| 71>    C        2.93263        10.04314        -0.54068
| 72>    C        1.94398         9.08040        -0.50940
| 73>    C        2.10673         8.04729         0.47214
| 74>    C        3.21285         8.13939         1.25400
| 75>   Si        4.19992         9.63649         0.78890
| 76>    H       -2.10795        -2.22536         2.00815
| 77>    H        1.21231         0.96220         3.98979
| 78>    H       -1.00840        -4.08266         3.80024
| 79>    H       -1.89157         3.82687         0.22420
| 80>    H       -7.15294         0.14916         1.32040
| 81>    H       -6.98647         3.66021        -2.84410
| 82>    H       -4.40063         5.34253        -2.93030
| 83>    H      -10.02654         5.14876        -6.39484
| 84>    H       -6.25526         8.97078        -7.18997
| 85>    H       -3.86896         8.78173        -5.25490
| 86>    H       -4.49978        10.81703        -7.47548
| 87>    H       -2.65813        12.69141        -7.59703
| 88>    H       -0.49682        13.43221        -6.40523
| 89>    H        1.39768        13.64674        -4.93317
| 90>    H        3.18089        13.32471        -3.10636
| 91>    H        3.83954        11.80901        -1.26797
| 92>    H        1.08277         9.06979        -1.15877
| 93>    H        1.37364         7.25902         0.55708
| 94>    H        3.41653         7.40543         2.01676
| 95>    H        5.52392         9.35567         0.22957
| 96>    H        4.27628        10.67126         1.82237
| 97> *
| 98>
| 99>                          ****END OF INPUT****

CARTESIAN COORDINATES (ANGSTROEM)
---------------------------------
  C     -0.580810    1.978340    1.912460
  C      0.197320    3.092420    2.108430
  C      1.316640    3.139320    2.965030
  N      2.241220    3.251160    3.636820
  C      0.024950    4.332760    1.464270
  N     -0.037350    5.373030    0.980090
  C     -0.389110    0.685540    2.559680
  C     -1.316760   -0.241180    2.022230
  C     -1.388340   -1.547360    2.438350
  C     -0.512180   -1.957870    3.448530
  C      0.411310   -1.026340    3.981680
  C      0.491570    0.292160    3.551370
  S      1.399040   -1.743910    5.218330
  C      0.568500   -3.262600    5.006940
  C     -0.398530   -3.236510    4.059160
  Br     1.057090   -4.737660    6.055620
  C     -2.134110    0.427100    0.995210
  O     -2.847030   -0.101800    0.174800
  C     -1.744250    1.868520    1.056120
  C     -2.361830    2.862040    0.357910
  C     -3.658760    2.727160   -0.198140
  O     -4.049750    3.540380   -1.216800
  C     -4.741250    1.947200    0.169860
  C     -5.228870    0.999350    1.186090
  O     -4.692220    0.541850    2.161400
  N     -6.545120    0.776260    0.812650
  C     -6.991000    1.508830   -0.293450
  O     -8.102660    1.463490   -0.741310
  C     -5.808490    2.286890   -0.685230
  C     -5.344360    3.276320   -1.542520
  C     -5.987800    3.982700   -2.586140
  C     -5.391950    5.025190   -3.223540
  C     -5.993800    5.767940   -4.262500
  O     -5.332070    6.851490   -4.761980
  C     -7.192190    5.644520   -4.946220
  C     -8.417850    4.842790   -5.064030
  O     -8.781240    3.866670   -4.461420
  N     -9.124280    5.474840   -6.079460
  C     -8.498120    6.595870   -6.635000
  O     -8.955120    7.270720   -7.521250
  C     -7.244920    6.691130   -5.890400
  C     -6.073730    7.432000   -5.748070
  C     -5.620930    8.586380   -6.405980
  C     -4.450000    9.212640   -6.061260
  C     -3.953430   10.370690   -6.655890
  C     -2.793010   10.994940   -6.241840
  C     -2.212990   12.169490   -6.768570
  C     -1.067450   12.561560   -6.135960
  C     -0.684330   11.715620   -5.077030
  S     -1.823040   10.397980   -4.911540
  C      0.409220   11.832740   -4.234250
  C      1.403600   12.833720   -4.229840
  C      2.347440   12.662240   -3.262160
  C      2.159290   11.518780   -2.445090
  S      0.714610   10.670360   -2.968460
  C      2.994380   11.145940   -1.417000
  C      2.932630   10.043140   -0.540680
  C      1.943980    9.080400   -0.509400
  C      2.106730    8.047290    0.472140
  C      3.212850    8.139390    1.254000
  Si     4.199920    9.636490    0.788900
  H     -2.107950   -2.225360    2.008150
  H      1.212310    0.962200    3.989790
  H     -1.008400   -4.082660    3.800240
  H     -1.891570    3.826870    0.224200
  H     -7.152940    0.149160    1.320400
  H     -6.986470    3.660210   -2.844100
  H     -4.400630    5.342530   -2.930300
  H    -10.026540    5.148760   -6.394840
  H     -6.255260    8.970780   -7.189970
  H     -3.868960    8.781730   -5.254900
  H     -4.499780   10.817030   -7.475480
  H     -2.658130   12.691410   -7.597030
  H     -0.496820   13.432210   -6.405230
  H      1.397680   13.646740   -4.933170
  H      3.180890   13.324710   -3.106360
  H      3.839540   11.809010   -1.267970
  H      1.082770    9.069790   -1.158770
  H      1.373640    7.259020    0.557080
  H      3.416530    7.405430    2.016760
  H      5.523920    9.355670    0.229570
  H      4.276280   10.671260    1.822370

 Total Charge           Charge          ....    0
 Multiplicity           Mult            ....    1
 Number of Electrons    NEL             ....  472
 Basis Dimension        Dim             ....  993

ORBITAL ENERGIES
----------------

  NO   OCC          E(Eh)            E(eV)
   0   2.0000    -482.886825    -13140.0185
   1   2.0000     -88.976889     -2421.1842
   2   2.0000     -88.951602     -2420.4962
   3   2.0000     -88.948950     -2420.4240
   4   2.0000     -66.182572     -1800.9193
   5   2.0000     -62.564562     -1702.4683
   6   2.0000     -56.398516     -1534.6816
   7   2.0000     -56.395790     -1534.6075
   8   2.0000     -56.395762     -1534.6067
   9   2.0000     -19.317029      -525.6431
  10   2.0000     -19.303614      -525.2780
  11   2.0000     -19.216537      -522.9086
  12   2.0000     -19.215822      -522.8891
  13   2.0000     -19.211535      -522.7725
  14   2.0000     -19.208844      -522.6992
  15   2.0000     -19.202502      -522.5266
  16   2.0000     -14.456030      -393.3686
  17   2.0000     -14.448284      -393.1578
  18   2.0000     -14.427132      -392.5822
  19   2.0000     -14.419986      -392.3878
  20   2.0000     -10.403587      -283.0960
  21   2.0000     -10.401105      -283.0285
  22   2.0000     -10.396291      -282.8975
  23   2.0000     -10.391965      -282.7797
  24   2.0000     -10.371022      -282.2099
  25   2.0000     -10.370267      -282.1893
  26   2.0000     -10.365144      -282.0499
  27   2.0000     -10.360514      -281.9239
  28   2.0000     -10.357182      -281.8332
  29   2.0000     -10.355648      -281.7915
  30   2.0000     -10.348665      -281.6015
  31   2.0000     -10.347718      -281.5757
  32   2.0000     -10.330653      -281.1114
  33   2.0000     -10.327675      -281.0303
  34   2.0000     -10.327024      -281.0126
  35   2.0000     -10.322958      -280.9020
  36   2.0000     -10.319473      -280.8071
  37   2.0000     -10.315384      -280.6959
  38   2.0000     -10.311875      -280.6004
  39   2.0000     -10.311435      -280.5884
  40   2.0000     -10.309615      -280.5389
  41   2.0000     -10.309258      -280.5292
  42   2.0000     -10.308286      -280.5027
  43   2.0000     -10.306753      -280.4610
  44   2.0000     -10.305095      -280.4159
  45   2.0000     -10.303562      -280.3742
  46   2.0000     -10.301682      -280.3230
  47   2.0000     -10.297828      -280.2181
  48   2.0000     -10.296620      -280.1853
  49   2.0000     -10.295901      -280.1657
  50   2.0000     -10.294911      -280.1388
  51   2.0000     -10.293850      -280.1099
  52   2.0000     -10.291309      -280.0408
  53   2.0000     -10.289897      -280.0023
  54   2.0000     -10.287976      -279.9501
  55   2.0000     -10.287921      -279.9486
  56   2.0000     -10.286911      -279.9211
  57   2.0000     -10.285790      -279.8906
  58   2.0000     -10.281881      -279.7842
  59   2.0000     -10.279153      -279.7100
  60   2.0000     -10.276753      -279.6447
  61   2.0000     -10.276735      -279.6442
  62   2.0000     -10.267227      -279.3855
  63   2.0000     -10.258056      -279.1359
  64   2.0000     -10.247299      -278.8432
  65   2.0000      -8.794004      -239.2970
  66   2.0000      -8.072941      -219.6759
  67   2.0000      -8.047413      -218.9812
  68   2.0000      -8.045301      -218.9238
  69   2.0000      -6.630336      -180.4206
  70   2.0000      -6.615727      -180.0231
  71   2.0000      -6.615516      -180.0173
  72   2.0000      -6.042650      -164.4289
  73   2.0000      -6.038350      -164.3118
  74   2.0000      -6.034126      -164.1969
  75   2.0000      -6.017103      -163.7337
  76   2.0000      -6.014980      -163.6759
  77   2.0000      -6.012988      -163.6217
  78   2.0000      -6.010969      -163.5668
  79   2.0000      -6.008543      -163.5008
  80   2.0000      -6.006294      -163.4396
  81   2.0000      -5.354293      -145.6977
  82   2.0000      -3.717067      -101.1465
  83   2.0000      -3.715690      -101.1091
  84   2.0000      -3.715656      -101.1081
  85   2.0000      -2.746180       -74.7274
  86   2.0000      -2.742132       -74.6172
  87   2.0000      -2.741939       -74.6120
  88   2.0000      -2.730346       -74.2965
  89   2.0000      -2.730337       -74.2963
  90   2.0000      -1.232930       -33.5497
  91   2.0000      -1.218907       -33.1682
  92   2.0000      -1.158943       -31.5364
  93   2.0000      -1.150255       -31.3000
  94   2.0000      -1.139694       -31.0127
  95   2.0000      -1.131835       -30.7988
  96   2.0000      -1.129066       -30.7234
  97   2.0000      -1.045365       -28.4458
  98   2.0000      -1.036919       -28.2160
  99   2.0000      -1.027323       -27.9549
 100   2.0000      -1.018454       -27.7135
 101   2.0000      -1.001698       -27.2576
 102   2.0000      -0.999980       -27.2109
 103   2.0000      -0.993977       -27.0475
 104   2.0000      -0.977744       -26.6058
 105   2.0000      -0.950186       -25.8559
 106   2.0000      -0.940036       -25.5797
 107   2.0000      -0.929735       -25.2994
 108   2.0000      -0.923315       -25.1247
 109   2.0000      -0.917813       -24.9750
 110   2.0000      -0.917046       -24.9541
 111   2.0000      -0.911848       -24.8126
 112   2.0000      -0.905017       -24.6268
 113   2.0000      -0.888559       -24.1789
 114   2.0000      -0.888046       -24.1650
 115   2.0000      -0.876864       -23.8607
 116   2.0000      -0.864203       -23.5161
 117   2.0000      -0.851099       -23.1596
 118   2.0000      -0.842086       -22.9143
 119   2.0000      -0.831483       -22.6258
 120   2.0000      -0.825977       -22.4760
 121   2.0000      -0.819488       -22.2994
 122   2.0000      -0.799759       -21.7626
 123   2.0000      -0.785687       -21.3796
 124   2.0000      -0.774705       -21.0808
 125   2.0000      -0.768741       -20.9185
 126   2.0000      -0.765648       -20.8343
 127   2.0000      -0.763770       -20.7832
 128   2.0000      -0.758386       -20.6367
 129   2.0000      -0.754293       -20.5254
 130   2.0000      -0.741372       -20.1738
 131   2.0000      -0.722485       -19.6598
 132   2.0000      -0.709794       -19.3145
 133   2.0000      -0.705404       -19.1950
 134   2.0000      -0.698496       -19.0070
 135   2.0000      -0.693503       -18.8712
 136   2.0000      -0.689306       -18.7570
 137   2.0000      -0.682007       -18.5584
 138   2.0000      -0.675607       -18.3842
 139   2.0000      -0.666652       -18.1405
 140   2.0000      -0.659408       -17.9434
 141   2.0000      -0.640796       -17.4369
 142   2.0000      -0.631036       -17.1714
 143   2.0000      -0.628944       -17.1144
 144   2.0000      -0.622086       -16.9278
 145   2.0000      -0.619884       -16.8679
 146   2.0000      -0.618357       -16.8263
 147   2.0000      -0.610409       -16.6101
 148   2.0000      -0.606241       -16.4967
 149   2.0000      -0.598848       -16.2955
 150   2.0000      -0.596195       -16.2233
 151   2.0000      -0.595008       -16.1910
 152   2.0000      -0.593385       -16.1468
 153   2.0000      -0.589211       -16.0332
 154   2.0000      -0.586402       -15.9568
 155   2.0000      -0.580083       -15.7849
 156   2.0000      -0.578029       -15.7290
 157   2.0000      -0.575861       -15.6700
 158   2.0000      -0.571191       -15.5429
 159   2.0000      -0.568349       -15.4655
 160   2.0000      -0.558310       -15.1924
 161   2.0000      -0.552578       -15.0364
 162   2.0000      -0.551906       -15.0181
 163   2.0000      -0.549899       -14.9635
 164   2.0000      -0.545471       -14.8430
 165   2.0000      -0.539765       -14.6878
 166   2.0000      -0.537740       -14.6326
 167   2.0000      -0.537013       -14.6129
 168   2.0000      -0.536328       -14.5942
 169   2.0000      -0.527042       -14.3415
 170   2.0000      -0.526465       -14.3258
 171   2.0000      -0.519614       -14.1394
 172   2.0000      -0.518189       -14.1006
 173   2.0000      -0.513970       -13.9858
 174   2.0000      -0.512790       -13.9537
 175   2.0000      -0.511660       -13.9230
 176   2.0000      -0.510745       -13.8981
 177   2.0000      -0.508571       -13.8389
 178   2.0000      -0.501663       -13.6509
 179   2.0000      -0.496976       -13.5234
 180   2.0000      -0.496398       -13.5077
 181   2.0000      -0.496316       -13.5054
 182   2.0000      -0.495698       -13.4886
 183   2.0000      -0.491703       -13.3799
 184   2.0000      -0.487477       -13.2649
 185   2.0000      -0.482052       -13.1173
 186   2.0000      -0.479231       -13.0405
 187   2.0000      -0.477350       -12.9894
 188   2.0000      -0.476374       -12.9628
 189   2.0000      -0.472295       -12.8518
 190   2.0000      -0.471842       -12.8395
 191   2.0000      -0.466166       -12.6850
 192   2.0000      -0.461338       -12.5536
 193   2.0000      -0.460109       -12.5202
 194   2.0000      -0.459011       -12.4903
 195   2.0000      -0.453235       -12.3332
 196   2.0000      -0.451727       -12.2921
 197   2.0000      -0.450048       -12.2464
 198   2.0000      -0.448378       -12.2010
 199   2.0000      -0.447859       -12.1869
 200   2.0000      -0.442238       -12.0339
 201   2.0000      -0.435850       -11.8601
 202   2.0000      -0.434484       -11.8229
 203   2.0000      -0.433030       -11.7833
 204   2.0000      -0.431077       -11.7302
 205   2.0000      -0.423458       -11.5229
 206   2.0000      -0.421541       -11.4707
 207   2.0000      -0.415996       -11.3198
 208   2.0000      -0.412631       -11.2282
 209   2.0000      -0.402705       -10.9582
 210   2.0000      -0.395971       -10.7749
 211   2.0000      -0.390900       -10.6369
 212   2.0000      -0.388872       -10.5817
 213   2.0000      -0.387116       -10.5340
 214   2.0000      -0.380460       -10.3528
 215   2.0000      -0.376552       -10.2465
 216   2.0000      -0.376139       -10.2353
 217   2.0000      -0.373409       -10.1610
 218   2.0000      -0.370042       -10.0693
 219   2.0000      -0.369228       -10.0472
 220   2.0000      -0.364236        -9.9114
 221   2.0000      -0.361775        -9.8444
 222   2.0000      -0.356717        -9.7068
 223   2.0000      -0.354646        -9.6504
 224   2.0000      -0.347215        -9.4482
 225   2.0000      -0.341671        -9.2973
 226   2.0000      -0.340229        -9.2581
 227   2.0000      -0.339209        -9.2304
 228   2.0000      -0.335981        -9.1425
 229   2.0000      -0.325941        -8.8693
 230   2.0000      -0.316449        -8.6110
 231   2.0000      -0.308699        -8.4001
 232   2.0000      -0.296220        -8.0605
 233   2.0000      -0.281956        -7.6724
 234   2.0000      -0.256319        -6.9748
 235   2.0000      -0.208900        -5.6845
 236   0.0000      -0.107518        -2.9257
 237   0.0000      -0.092527        -2.5178
 238   0.0000      -0.066529        -1.8103
 239   0.0000      -0.060631        -1.6499
 240   0.0000      -0.038829        -1.0566

MULLIKEN ATOMIC CHARGES
-----------------------
   0 C :    0.310088
   1 C :   -0.357658
   2 C :   -0.186487
   3 N :    0.152083
   4 C :   -0.158361
   5 N :    0.150149
   6 C :    0.022280
   7 C :    0.000763
   8 C :   -0.060148
   9 C :    0.114948
  10 C :   -0.088250
  11 C :   -0.025234
  12 S :    0.186375
  13 C :   -0.122011
  14 C :    0.040228
  15 Br:    0.026446
  16 C :    0.151590
  17 O :   -0.146452
  18 C :   -0.075367
  19 C :   -0.032910
  20 C :    0.126961
  21 O :   -0.204151
  22 C :   -0.029114
  23 C :    0.186621
  24 O :   -0.151868
  25 N :   -0.162361
  26 C :    0.169813
  27 O :   -0.121826
  28 C :   -0.039878
  29 C :    0.097284
  30 C :   -0.037234
  31 C :    0.014622
  32 C :    0.126469
  33 O :   -0.217098
  34 C :   -0.065267
  35 C :    0.181665
  36 O :   -0.144474
  37 N :   -0.165193
  38 C :    0.157810
  39 O :   -0.145760
  40 C :   -0.034358
  41 C :    0.112278
  42 C :   -0.060524
  43 C :    0.038312
  44 C :   -0.021443
  45 C :   -0.005717
  46 C :    0.025239
  47 C :    0.038026
  48 C :   -0.057114
  49 S :    0.078723
  50 C :   -0.022543
  51 C :    0.016284
  52 C :    0.043807
  53 C :   -0.026324
  54 S :    0.072061
  55 C :    0.018679
  56 C :   -0.175856
  57 C :   -0.024181
  58 C :    0.036161
  59 C :   -0.164403
  60 Si:    0.502608
  61 H :   -0.007198
  62 H :   -0.005130
  63 H :   -0.001330
  64 H :    0.027034
  65 H :    0.140304
  66 H :    0.034805
  67 H :    0.008887
  68 H :    0.137518
  69 H :    0.006474
  70 H :    0.014661
  71 H :   -0.013483
  72 H :   -0.010738
  73 H :   -0.010359
  74 H :   -0.012828
  75 H :   -0.008152
  76 H :   -0.018814
  77 H :    0.004592
  78 H :   -0.011604
  79 H :    0.015919
  80 H :   -0.080403
  81 H :   -0.078961
Sum of atomic charges:   -0.0000000

LOEWDIN ATOMIC CHARGES
----------------------
   0 C :    0.079085
   1 C :   -0.142480
   2 C :   -0.019079
   3 N :   -0.052282
   4 C :   -0.005110
   5 N :   -0.053652
   6 C :   -0.019742
   7 C :   -0.041354
   8 C :    0.028028
   9 C :   -0.029276
  10 C :   -0.142539
  11 C :   -0.009675
  12 S :    0.432602
  13 C :   -0.270136
  14 C :   -0.069177
  15 Br:    0.139216
  16 C :    0.088551
  17 O :   -0.133435
  18 C :   -0.069292
  19 C :    0.044444
  20 C :    0.045879
  21 O :    0.019227
  22 C :   -0.052325
  23 C :    0.088991
  24 O :   -0.153370
  25 N :   -0.000855
  26 C :    0.087797
  27 O :   -0.141013
  28 C :   -0.094976
  29 C :    0.085728
  30 C :   -0.027424
  31 C :   -0.003013
  32 C :    0.049536
  33 O :    0.008457
  34 C :   -0.081117
  35 C :    0.085189
  36 O :   -0.154542
  37 N :   -0.006203
  38 C :    0.084406
  39 O :   -0.163149
  40 C :   -0.110042
  41 C :    0.082970
  42 C :   -0.066382
  43 C :    0.006521
  44 C :   -0.077294
  45 C :   -0.123538
  46 C :   -0.046079
  47 C :   -0.017452
  48 C :   -0.191635
  49 S :    0.380333
  50 C :   -0.160019
  51 C :   -0.049623
  52 C :   -0.015374
  53 C :   -0.156770
  54 S :    0.397304
  55 C :   -0.039212
  56 C :   -0.192202
  57 C :   -0.007843
  58 C :   -0.011996
  59 C :   -0.183483
  60 Si:    0.544608
  61 H :    0.042939
  62 H :    0.041036
  63 H :    0.039780
  64 H :    0.050236
  65 H :    0.096138
  66 H :    0.050117
  67 H :    0.043199
  68 H :    0.094309
  69 H :    0.043329
  70 H :    0.025344
  71 H :    0.033364
  72 H :    0.034097
  73 H :    0.033423
  74 H :    0.031649
  75 H :    0.034995
  76 H :    0.031003
  77 H :    0.010997
  78 H :    0.025575
  79 H :    0.023370
  80 H :   -0.090093
  81 H :   -0.089520

  Mayer bond orders larger than 0.100000
B(  0-C ,  1-C ) :   1.6182 B(  0-C ,  6-C ) :   1.0119 B(  0-C , 18-C ) :   1.0867
B(  1-C ,  2-C ) :   1.1398 B(  1-C ,  4-C ) :   1.1553 B(  2-C ,  3-N ) :   2.9728
B(  4-C ,  5-N ) :   2.9001 B(  6-C ,  7-C ) :   1.2727 B(  6-C , 11-C ) :   1.3978
B(  7-C ,  8-C ) :   1.4295 B(  7-C , 16-C ) :   0.9328 B(  8-C ,  9-C ) :   1.2476
B(  8-C , 61-H ) :   1.0150 B(  9-C , 10-C ) :   1.3002 B(  9-C , 14-C ) :   1.1654
B( 10-C , 11-C ) :   1.3404 B( 10-C , 12-S ) :   1.0856 B( 11-C , 62-H ) :   0.9801
B( 12-S , 13-C ) :   1.0857 B( 13-C , 14-C ) :   1.6165 B( 13-C , 15-Br) :   1.0202
B( 14-C , 63-H ) :   1.0002 B( 16-C , 17-O ) :   2.2334 B( 16-C , 18-C ) :   0.9194
B( 18-C , 19-C ) :   1.6067 B( 19-C , 20-C ) :   1.1603 B( 19-C , 64-H ) :   0.9344
B( 20-C , 21-O ) :   1.1267 B( 20-C , 22-C ) :   1.4264 B( 21-O , 29-C ) :   1.1665
B( 22-C , 23-C ) :   0.8666 B( 22-C , 28-C ) :   1.3277 B( 23-C , 24-O ) :   2.2189
B( 23-C , 25-N ) :   1.1036 B( 25-N , 26-C ) :   1.0612 B( 25-N , 65-H ) :   0.9149
B( 26-C , 27-O ) :   2.2863 B( 26-C , 28-C ) :   0.8767 B( 28-C , 29-C ) :   1.3429
B( 29-C , 30-C ) :   1.2063 B( 30-C , 31-C ) :   1.5748 B( 30-C , 66-H ) :   0.9441
B( 31-C , 32-C ) :   1.1591 B( 31-C , 67-H ) :   0.9701 B( 32-C , 33-O ) :   1.1183
B( 32-C , 34-C ) :   1.4156 B( 33-O , 41-C ) :   1.1452 B( 34-C , 35-C ) :   0.8754
B( 34-C , 40-C ) :   1.2989 B( 35-C , 36-O ) :   2.1973 B( 35-C , 37-N ) :   1.1047
B( 37-N , 38-C ) :   1.0619 B( 37-N , 68-H ) :   0.9149 B( 38-C , 39-O ) :   2.2662
B( 38-C , 40-C ) :   0.8939 B( 40-C , 41-C ) :   1.3282 B( 41-C , 42-C ) :   1.2254
B( 42-C , 43-C ) :   1.5291 B( 42-C , 69-H ) :   0.9710 B( 43-C , 44-C ) :   1.1945
B( 43-C , 70-H ) :   0.9753 B( 44-C , 45-C ) :   1.4949 B( 44-C , 71-H ) :   0.9874
B( 45-C , 46-C ) :   1.1713 B( 45-C , 49-S ) :   1.0583 B( 46-C , 47-C ) :   1.5538
B( 46-C , 72-H ) :   1.0006 B( 47-C , 48-C ) :   1.2176 B( 47-C , 73-H ) :   0.9939
B( 48-C , 49-S ) :   1.0400 B( 48-C , 50-C ) :   1.4729 B( 50-C , 51-C ) :   1.1982
B( 50-C , 54-S ) :   1.0622 B( 51-C , 52-C ) :   1.5743 B( 51-C , 74-H ) :   0.9938
B( 52-C , 53-C ) :   1.1539 B( 52-C , 75-H ) :   0.9989 B( 53-C , 54-S ) :   1.0293
B( 53-C , 55-C ) :   1.5619 B( 55-C , 56-C ) :   1.1954 B( 55-C , 76-H ) :   0.9646
B( 56-C , 57-C ) :   1.6085 B( 56-C , 60-Si) :   0.9128 B( 57-C , 58-C ) :   1.1237
B( 57-C , 77-H ) :   0.9776 B( 58-C , 59-C ) :   1.7845 B( 58-C , 78-H ) :   0.9703
B( 59-C , 60-Si) :   0.9560 B( 59-C , 79-H ) :   0.9463 B( 60-Si, 80-H ) :   0.9493
B( 60-Si, 81-H ) :   0.9494

-----------------------------------------------------------------------------
         ABSORPTION SPECTRUM VIA TRANSITION ELECTRIC DIPOLE MOMENTS
-----------------------------------------------------------------------------
State   Energy  Wavelength   fosc         T2         TX        TY        TZ
        (cm-1)    (nm)                  (au**2)     (au)      (au)      (au)
-----------------------------------------------------------------------------
   0    9873.6   1012.8   0.274318688   9.14648   1.67202   2.48942  -0.39193
   1   13362.7    748.4   0.770768340  18.98914   3.65927   0.61658   2.28445
   2   18516.0    540.1   1.134360139  20.16878  -2.97550   1.52261  -2.99948
   3   19028.2    525.5   0.086224407   1.49179   0.26234  -0.65763   0.99523
   4   21104.6    473.8   0.047832095   0.74613  -0.47409  -0.59179   0.41372
   5   21690.3    461.0   0.084012081   1.27512  -0.40667   0.53300  -0.90866
   6   24082.3    415.2   0.188260362   2.57358  -0.46300   1.02197  -1.14664
   7   24257.3    412.2   1.017193857  13.80499  -1.08572  -2.97427   1.94420
   8   25221.3    396.5   0.202540871   2.64375   0.29909   1.49473  -0.56575
   9   26313.0    380.0   0.154133982   1.92843  -1.28191  -0.39120  -0.36345
  10   27352.9    365.6   0.038198605   0.45975   0.12447   0.58571  -0.31813
  11   27645.3    361.7   0.173581509   2.06708   0.65005  -0.92017   0.89320
  12   27959.0    357.7   0.080886708   0.95242   0.06006   0.92222  -0.31357
  13   28361.8    352.6   0.059502054   0.69068  -0.36083  -0.03893  -0.74764
  14   29846.2    335.1   0.037252863   0.41091  -0.52118   0.13968  -0.34607
  15   31023.6    322.3   0.092424869   0.98078  -0.85610   0.38779  -0.31224
  16   31241.2    320.1   0.020165580   0.21250   0.45339  -0.07320   0.03973
  17   31345.1    319.0   0.009166677   0.09628  -0.19577  -0.12027  -0.20853
  18   31957.5    312.9   0.002118389   0.02182  -0.01318  -0.14686   0.00900
  19   32368.7    308.9   0.110047718   1.11926  -0.12287  -1.00661   0.30150
  20   32729.7    305.5   0.543820488   5.47002   0.11162   2.16882  -0.86821
  21   33163.2    301.5   0.003000191   0.02978  -0.12065  -0.11138   0.05311
  22   33675.9    296.9   0.012793920   0.12507   0.02189   0.28897  -0.20270
  23   33834.3    295.6   0.001118456   0.01088  -0.02153   0.05862  -0.08356
  24   33975.6    294.3   0.009754105   0.09451   0.07364  -0.01229   0.29823
  25   34566.1    289.3   0.021060736   0.20059   0.25744   0.36291  -0.05106
  26   35194.3    284.1   0.048834459   0.45680  -0.55935  -0.36608  -0.09957
  27   35374.7    282.7   0.010920863   0.10163   0.17670   0.18038   0.19462
  28   35505.0    281.7   0.002063778   0.01914   0.09159   0.06463   0.08105
  29   35980.5    277.9   0.006077702   0.05561   0.15217  -0.08044  -0.16119
  30   36386.9    274.8   0.002486822   0.02250  -0.00785   0.02976  -0.14681
  31   36686.8    272.6   0.008496050   0.07624   0.24347  -0.03767   0.12467
  32   37215.0    268.7   0.081431869   0.72036   0.69622   0.01706   0.48513
  33   37687.4    265.3   0.045113747   0.39408   0.48331   0.18472   0.35549
  34   37816.9    264.4   0.000308432   0.00269  -0.02801  -0.00160   0.04356
  35   38459.1    260.0   0.010998380   0.09415  -0.23784  -0.08087  -0.17618
  36   38496.9    259.8   0.000537258   0.00459   0.02023   0.02020  -0.06146
  37   38805.7    257.7   0.105005812   0.89083   0.70457   0.38971   0.49248
  38   38967.8    256.6   0.096178375   0.81254   0.59322   0.67132   0.09986
  39   39196.0    255.1   0.013027013   0.10942   0.27218   0.18794   0.00326
  40   39499.7    253.2   0.025952071   0.21630   0.36391   0.14281   0.25194
  41   39946.7    250.3   0.004817255   0.03970   0.13992  -0.13730   0.03566
  42   40017.5    249.9   0.001586873   0.01305  -0.02823   0.06805  -0.08733

FINAL SINGLE POINT ENERGY     -6527.439975474521

DIPOLE MOMENT
-------------
                                X             Y             Z
Electronic contribution:     16.27439    -137.68162      87.66987
Nuclear contribution   :    -14.76213     138.47201     -87.70029
                        -----------------------------------------
Total Dipole Moment    :      1.51226       0.79039      -0.03042
                        -----------------------------------------
Magnitude (a.u.)       :      1.70663
Magnitude (Debye)      :      4.33790

Rotational constants in cm-1:     0.001076     0.000445     0.000319
Rotational constants in MHz :    32.242851    13.343252     9.574184

                             ****ORCA TERMINATED NORMALLY****
TOTAL RUN TIME: 0 days 0 hours 11 minutes 17 seconds 180 msec
