                         Program Version 4.2.0 -  RELEASE  -
|  1> # ORCA input file
|  2> # SCF done       -178.729784740772          0.000933483375
|  3> ! CAM-B3LYP def2-SVP def2/J RIJCOSX Grid4 TightSCF
|  4> %maxcore 5000
|  5> %tddft
|  6>     Mode sTDDFT
|  7>     Ethresh 5.0
|  8>     maxcore 5000
|  9> end
| 10>
| 11> %pal
| 12>   nprocs 6
| 13>   end
| 14> * xyz 0 1
| 15>    C       -3.92785         6.35760         1.79105
| 16>    C       -2.72705         7.00932         1.62994
| 17>    C       -2.39170         8.21734         2.27260
| 18>    N       -2.04590         9.19881         2.76072
| 19>    C       -1.64561         6.58262         0.83962
| 20>    N       -0.70627         6.33013         0.22432
| 21>    C       -5.03399         6.84188         2.61355
| 22>    C       -6.06097         5.86843         2.61106
| 23>    C       -7.26375         6.05305         3.24405
| 24>    C       -7.47611         7.27542         3.89164
| 25>    C       -6.43666         8.23266         3.90951
| 26>    C       -5.20969         8.03433         3.28811
| 27>    S       -6.91045         9.67479         4.75328
| 28>    C       -8.48887         8.99094         5.04204
| 29>    C       -8.64720         7.73995         4.55031
| 30>   Br       -9.77885        10.00535         5.94793
| 31>    C       -5.63070         4.71730         1.79233
| 32>    O       -6.18305         3.63685         1.71812
| 33>    C       -4.34953         5.12059         1.17788
| 34>    C       -3.61648         4.40377         0.25786
| 35>    C       -4.00744         3.36508        -0.60793
| 36>    C       -5.29046         3.09926        -1.07523
| 37>    O       -5.57672         2.04544        -1.87622
| 38>    C       -4.50840         1.33862        -2.34084
| 39>    C       -3.17571         1.66337        -1.95774
| 40>    C       -2.25063         0.87503        -2.55757
| 41>    S       -2.99911        -0.28315        -3.59496
| 42>    C       -4.57083         0.30684        -3.22011
| 43>    O       -2.90850         2.65266        -1.06321
| 44>    C       -6.39426         3.95287        -0.79500
| 45>    C       -7.68929         3.54968        -0.80655
| 46>    C       -8.73332         4.40137        -0.37108
| 47>    O       -8.45682         5.67732         0.01763
| 48>    C      -10.07427         4.16054        -0.13036
| 49>    C      -11.13891         3.15359        -0.22870
| 50>    O      -11.13128         2.02897        -0.65545
| 51>    N      -12.24871         3.80148         0.30764
| 52>    C      -12.02706         5.11144         0.74027
| 53>    O      -12.85947         5.82262         1.24234
| 54>    C      -10.61389         5.33505         0.44324
| 55>    C       -9.58093         6.26128         0.52008
| 56>    C       -9.53336         7.58220         1.00618
| 57>    C       -8.38590         8.32282         0.92311
| 58>    C       -8.19378         9.61571         1.41360
| 59>    C       -6.98718        10.27060         1.28351
| 60>    C       -6.60711        11.52044         1.82435
| 61>    C       -5.31267        11.86890         1.56865
| 62>    C       -4.61169        10.92159         0.79372
| 63>    S       -5.64491         9.56671         0.40144
| 64>    C       -3.29826        10.94287         0.36231
| 65>    C       -2.28609        11.88280         0.65494
| 66>    C       -1.07658        11.56053         0.12306
| 67>    C       -1.06684        10.35081        -0.62167
| 68>    S       -2.67552         9.65771        -0.64186
| 69>    C        0.04120         9.80073        -1.21062
| 70>    C        0.14106         8.58658        -1.91599
| 71>    S        1.71751         8.06972        -2.49871
| 72>    C        1.14487         6.60124        -3.16436
| 73>    C       -0.21029         6.48188        -2.96052
| 74>    C       -0.76859         7.60014        -2.26115
| 75>    O       -2.09539         7.43502        -2.09435
| 76>    C       -2.38637         6.22847        -2.64792
| 77>    N       -3.70661         5.76603        -2.54280
| 78>    O       -3.96985         4.71500        -3.10705
| 79>    O       -4.49507         6.40586        -1.87301
| 80>    C       -1.29692         5.60082        -3.19512
| 81>    H       -8.02704         5.29126         3.22215
| 82>    H       -4.45311         8.80001         3.32937
| 83>    H       -9.55431         7.17045         4.63666
| 84>    H       -2.55746         4.62609         0.18130
| 85>    H       -1.18709         0.90106        -2.44542
| 86>    H       -5.44145        -0.13008        -3.66248
| 87>    H       -6.16053         4.97672        -0.54028
| 88>    H       -7.96323         2.53195        -1.03825
| 89>    H      -13.15223         3.35497         0.38103
| 90>    H      -10.43980         7.97533         1.44004
| 91>    H       -7.53395         7.85808         0.44068
| 92>    H       -8.99951        10.11622         1.93285
| 93>    H       -7.29497        12.11542         2.39878
| 94>    H       -4.84967        12.77599         1.91289
| 95>    H       -2.47191        12.75006         1.26167
| 96>    H       -0.18020        12.14055         0.25085
| 97>    H        0.96747        10.34971        -1.10354
| 98>    H        1.81858         5.92432        -3.64690
| 99>    H       -1.29443         4.64389        -3.67484
|100> *
|101>
|102>                          ****END OF INPUT****

CARTESIAN COORDINATES (ANGSTROEM)
---------------------------------
  C     -3.927850    6.357600    1.791050
  C     -2.727050    7.009320    1.629940
  C     -2.391700    8.217340    2.272600
  N     -2.045900    9.198810    2.760720
  C     -1.645610    6.582620    0.839620
  N     -0.706270    6.330130    0.224320
  C     -5.033990    6.841880    2.613550
  C     -6.060970    5.868430    2.611060
  C     -7.263750    6.053050    3.244050
  C     -7.476110    7.275420    3.891640
  C     -6.436660    8.232660    3.909510
  C     -5.209690    8.034330    3.288110
  S     -6.910450    9.674790    4.753280
  C     -8.488870    8.990940    5.042040
  C     -8.647200    7.739950    4.550310
  Br    -9.778850   10.005350    5.947930
  C     -5.630700    4.717300    1.792330
  O     -6.183050    3.636850    1.718120
  C     -4.349530    5.120590    1.177880
  C     -3.616480    4.403770    0.257860
  C     -4.007440    3.365080   -0.607930
  C     -5.290460    3.099260   -1.075230
  O     -5.576720    2.045440   -1.876220
  C     -4.508400    1.338620   -2.340840
  C     -3.175710    1.663370   -1.957740
  C     -2.250630    0.875030   -2.557570
  S     -2.999110   -0.283150   -3.594960
  C     -4.570830    0.306840   -3.220110
  O     -2.908500    2.652660   -1.063210
  C     -6.394260    3.952870   -0.795000
  C     -7.689290    3.549680   -0.806550
  C     -8.733320    4.401370   -0.371080
  O     -8.456820    5.677320    0.017630
  C    -10.074270    4.160540   -0.130360
  C    -11.138910    3.153590   -0.228700
  O    -11.131280    2.028970   -0.655450
  N    -12.248710    3.801480    0.307640
  C    -12.027060    5.111440    0.740270
  O    -12.859470    5.822620    1.242340
  C    -10.613890    5.335050    0.443240
  C     -9.580930    6.261280    0.520080
  C     -9.533360    7.582200    1.006180
  C     -8.385900    8.322820    0.923110
  C     -8.193780    9.615710    1.413600
  C     -6.987180   10.270600    1.283510
  C     -6.607110   11.520440    1.824350
  C     -5.312670   11.868900    1.568650
  C     -4.611690   10.921590    0.793720
  S     -5.644910    9.566710    0.401440
  C     -3.298260   10.942870    0.362310
  C     -2.286090   11.882800    0.654940
  C     -1.076580   11.560530    0.123060
  C     -1.066840   10.350810   -0.621670
  S     -2.675520    9.657710   -0.641860
  C      0.041200    9.800730   -1.210620
  C      0.141060    8.586580   -1.915990
  S      1.717510    8.069720   -2.498710
  C      1.144870    6.601240   -3.164360
  C     -0.210290    6.481880   -2.960520
  C     -0.768590    7.600140   -2.261150
  O     -2.095390    7.435020   -2.094350
  C     -2.386370    6.228470   -2.647920
  N     -3.706610    5.766030   -2.542800
  O     -3.969850    4.715000   -3.107050
  O     -4.495070    6.405860   -1.873010
  C     -1.296920    5.600820   -3.195120
  H     -8.027040    5.291260    3.222150
  H     -4.453110    8.800010    3.329370
  H     -9.554310    7.170450    4.636660
  H     -2.557460    4.626090    0.181300
  H     -1.187090    0.901060   -2.445420
  H     -5.441450   -0.130080   -3.662480
  H     -6.160530    4.976720   -0.540280
  H     -7.963230    2.531950   -1.038250
  H    -13.152230    3.354970    0.381030
  H    -10.439800    7.975330    1.440040
  H     -7.533950    7.858080    0.440680
  H     -8.999510   10.116220    1.932850
  H     -7.294970   12.115420    2.398780
  H     -4.849670   12.775990    1.912890
  H     -2.471910   12.750060    1.261670
  H     -0.180200   12.140550    0.250850
  H      0.967470   10.349710   -1.103540
  H      1.818580    5.924320   -3.646900
  H     -1.294430    4.643890   -3.674840

 Total Charge           Charge          ....    0
 Multiplicity           Mult            ....    1
 Number of Electrons    NEL             ....  516
 Basis Dimension        Dim             .... 1057

ORBITAL ENERGIES
----------------

  NO   OCC          E(Eh)            E(eV)
   0   2.0000    -482.881359    -13139.8698
   1   2.0000     -88.979067     -2421.2435
   2   2.0000     -88.967743     -2420.9354
   3   2.0000     -88.959575     -2420.7131
   4   2.0000     -88.947151     -2420.3750
   5   2.0000     -88.946409     -2420.3548
   6   2.0000     -62.559023     -1702.3175
   7   2.0000     -56.392951     -1534.5302
   8   2.0000     -56.390271     -1534.4573
   9   2.0000     -56.390245     -1534.4566
  10   2.0000     -19.312479      -525.5193
  11   2.0000     -19.299322      -525.1613
  12   2.0000     -19.290122      -524.9109
  13   2.0000     -19.272537      -524.4324
  14   2.0000     -19.258650      -524.0545
  15   2.0000     -19.255401      -523.9661
  16   2.0000     -19.203864      -522.5637
  17   2.0000     -19.200239      -522.4651
  18   2.0000     -19.198416      -522.4155
  19   2.0000     -14.666212      -399.0879
  20   2.0000     -14.443416      -393.0253
  21   2.0000     -14.412322      -392.1792
  22   2.0000     -14.406308      -392.0156
  23   2.0000     -10.392317      -282.7893
  24   2.0000     -10.389859      -282.7224
  25   2.0000     -10.388068      -282.6737
  26   2.0000     -10.368974      -282.1541
  27   2.0000     -10.353808      -281.7414
  28   2.0000     -10.353367      -281.7294
  29   2.0000     -10.352451      -281.7045
  30   2.0000     -10.351854      -281.6883
  31   2.0000     -10.349933      -281.6360
  32   2.0000     -10.348065      -281.5852
  33   2.0000     -10.343332      -281.4564
  34   2.0000     -10.342144      -281.4240
  35   2.0000     -10.332224      -281.1541
  36   2.0000     -10.329734      -281.0864
  37   2.0000     -10.320166      -280.8260
  38   2.0000     -10.318771      -280.7880
  39   2.0000     -10.317552      -280.7549
  40   2.0000     -10.317362      -280.7497
  41   2.0000     -10.315228      -280.6916
  42   2.0000     -10.314565      -280.6736
  43   2.0000     -10.312881      -280.6278
  44   2.0000     -10.312565      -280.6191
  45   2.0000     -10.311213      -280.5824
  46   2.0000     -10.309450      -280.5344
  47   2.0000     -10.308881      -280.5189
  48   2.0000     -10.300943      -280.3029
  49   2.0000     -10.298744      -280.2431
  50   2.0000     -10.297965      -280.2219
  51   2.0000     -10.297824      -280.2180
  52   2.0000     -10.296326      -280.1773
  53   2.0000     -10.295560      -280.1564
  54   2.0000     -10.294654      -280.1318
  55   2.0000     -10.293137      -280.0905
  56   2.0000     -10.293009      -280.0870
  57   2.0000     -10.289340      -279.9872
  58   2.0000     -10.289267      -279.9852
  59   2.0000     -10.289228      -279.9841
  60   2.0000     -10.288369      -279.9607
  61   2.0000     -10.287838      -279.9463
  62   2.0000     -10.285864      -279.8926
  63   2.0000     -10.284487      -279.8551
  64   2.0000     -10.284429      -279.8536
  65   2.0000     -10.283845      -279.8377
  66   2.0000     -10.281013      -279.7606
  67   2.0000     -10.277592      -279.6675
  68   2.0000     -10.277290      -279.6593
  69   2.0000     -10.274623      -279.5867
  70   2.0000      -8.788425      -239.1452
  71   2.0000      -8.073974      -219.7040
  72   2.0000      -8.063224      -219.4115
  73   2.0000      -8.055314      -219.1962
  74   2.0000      -8.042625      -218.8509
  75   2.0000      -8.041929      -218.8320
  76   2.0000      -6.624614      -180.2649
  77   2.0000      -6.610238      -179.8737
  78   2.0000      -6.610003      -179.8673
  79   2.0000      -6.043257      -164.4454
  80   2.0000      -6.038927      -164.3276
  81   2.0000      -6.036443      -164.2600
  82   2.0000      -6.032997      -164.1662
  83   2.0000      -6.028685      -164.0489
  84   2.0000      -6.024836      -163.9441
  85   2.0000      -6.024433      -163.9331
  86   2.0000      -6.020620      -163.8294
  87   2.0000      -6.017031      -163.7317
  88   2.0000      -6.012340      -163.6041
  89   2.0000      -6.011711      -163.5870
  90   2.0000      -6.008295      -163.4940
  91   2.0000      -6.007582      -163.4746
  92   2.0000      -6.003681      -163.3685
  93   2.0000      -6.002748      -163.3431
  94   2.0000      -2.740532       -74.5737
  95   2.0000      -2.736455       -74.4627
  96   2.0000      -2.736321       -74.4591
  97   2.0000      -2.724873       -74.1476
  98   2.0000      -2.724856       -74.1471
  99   2.0000      -1.337471       -36.3944
 100   2.0000      -1.234751       -33.5993
 101   2.0000      -1.215792       -33.0834
 102   2.0000      -1.212686       -32.9989
 103   2.0000      -1.170777       -31.8585
 104   2.0000      -1.152287       -31.3553
 105   2.0000      -1.143997       -31.1297
 106   2.0000      -1.123325       -30.5672
 107   2.0000      -1.118626       -30.4394
 108   2.0000      -1.031243       -28.0615
 109   2.0000      -1.014954       -27.6183
 110   2.0000      -1.007382       -27.4123
 111   2.0000      -1.001385       -27.2491
 112   2.0000      -0.996647       -27.1201
 113   2.0000      -0.989949       -26.9379
 114   2.0000      -0.988456       -26.8973
 115   2.0000      -0.980700       -26.6862
 116   2.0000      -0.975876       -26.5549
 117   2.0000      -0.943845       -25.6833
 118   2.0000      -0.938911       -25.5491
 119   2.0000      -0.930480       -25.3197
 120   2.0000      -0.918775       -25.0011
 121   2.0000      -0.912117       -24.8200
 122   2.0000      -0.907005       -24.6809
 123   2.0000      -0.900773       -24.5113
 124   2.0000      -0.898824       -24.4582
 125   2.0000      -0.886234       -24.1157
 126   2.0000      -0.876769       -23.8581
 127   2.0000      -0.876104       -23.8400
 128   2.0000      -0.864975       -23.5372
 129   2.0000      -0.854803       -23.2604
 130   2.0000      -0.844621       -22.9833
 131   2.0000      -0.829815       -22.5804
 132   2.0000      -0.827997       -22.5309
 133   2.0000      -0.823354       -22.4046
 134   2.0000      -0.819825       -22.3086
 135   2.0000      -0.813863       -22.1463
 136   2.0000      -0.805628       -21.9223
 137   2.0000      -0.794576       -21.6215
 138   2.0000      -0.780560       -21.2401
 139   2.0000      -0.769598       -20.9418
 140   2.0000      -0.759125       -20.6568
 141   2.0000      -0.752756       -20.4835
 142   2.0000      -0.750642       -20.4260
 143   2.0000      -0.740007       -20.1366
 144   2.0000      -0.727844       -19.8057
 145   2.0000      -0.714039       -19.4300
 146   2.0000      -0.708960       -19.2918
 147   2.0000      -0.699496       -19.0343
 148   2.0000      -0.698357       -19.0032
 149   2.0000      -0.688716       -18.7409
 150   2.0000      -0.685626       -18.6568
 151   2.0000      -0.679505       -18.4903
 152   2.0000      -0.674694       -18.3594
 153   2.0000      -0.671030       -18.2597
 154   2.0000      -0.662515       -18.0280
 155   2.0000      -0.659879       -17.9562
 156   2.0000      -0.655582       -17.8393
 157   2.0000      -0.652909       -17.7666
 158   2.0000      -0.645991       -17.5783
 159   2.0000      -0.635571       -17.2948
 160   2.0000      -0.633044       -17.2260
 161   2.0000      -0.624133       -16.9835
 162   2.0000      -0.619874       -16.8676
 163   2.0000      -0.615328       -16.7439
 164   2.0000      -0.614392       -16.7185
 165   2.0000      -0.601814       -16.3762
 166   2.0000      -0.601340       -16.3633
 167   2.0000      -0.595234       -16.1971
 168   2.0000      -0.591019       -16.0824
 169   2.0000      -0.589631       -16.0447
 170   2.0000      -0.582249       -15.8438
 171   2.0000      -0.581403       -15.8208
 172   2.0000      -0.579804       -15.7773
 173   2.0000      -0.575623       -15.6635
 174   2.0000      -0.574386       -15.6298
 175   2.0000      -0.572261       -15.5720
 176   2.0000      -0.564552       -15.3622
 177   2.0000      -0.559645       -15.2287
 178   2.0000      -0.557379       -15.1671
 179   2.0000      -0.551164       -14.9979
 180   2.0000      -0.543461       -14.7883
 181   2.0000      -0.539159       -14.6713
 182   2.0000      -0.536743       -14.6055
 183   2.0000      -0.536538       -14.5999
 184   2.0000      -0.531979       -14.4759
 185   2.0000      -0.530496       -14.4355
 186   2.0000      -0.526975       -14.3397
 187   2.0000      -0.523476       -14.2445
 188   2.0000      -0.521650       -14.1948
 189   2.0000      -0.517840       -14.0912
 190   2.0000      -0.516601       -14.0574
 191   2.0000      -0.513681       -13.9780
 192   2.0000      -0.510614       -13.8945
 193   2.0000      -0.506809       -13.7910
 194   2.0000      -0.505174       -13.7465
 195   2.0000      -0.504732       -13.7345
 196   2.0000      -0.501587       -13.6489
 197   2.0000      -0.499475       -13.5914
 198   2.0000      -0.495762       -13.4904
 199   2.0000      -0.492976       -13.4146
 200   2.0000      -0.486087       -13.2271
 201   2.0000      -0.484902       -13.1948
 202   2.0000      -0.483729       -13.1629
 203   2.0000      -0.482230       -13.1222
 204   2.0000      -0.480851       -13.0846
 205   2.0000      -0.477339       -12.9890
 206   2.0000      -0.473600       -12.8873
 207   2.0000      -0.471903       -12.8411
 208   2.0000      -0.470022       -12.7899
 209   2.0000      -0.468453       -12.7472
 210   2.0000      -0.463157       -12.6032
 211   2.0000      -0.462171       -12.5763
 212   2.0000      -0.458323       -12.4716
 213   2.0000      -0.451911       -12.2971
 214   2.0000      -0.450430       -12.2568
 215   2.0000      -0.449157       -12.2222
 216   2.0000      -0.446052       -12.1377
 217   2.0000      -0.441308       -12.0086
 218   2.0000      -0.439061       -11.9475
 219   2.0000      -0.437909       -11.9161
 220   2.0000      -0.434747       -11.8301
 221   2.0000      -0.434329       -11.8187
 222   2.0000      -0.431703       -11.7472
 223   2.0000      -0.427387       -11.6298
 224   2.0000      -0.423344       -11.5198
 225   2.0000      -0.420397       -11.4396
 226   2.0000      -0.419000       -11.4016
 227   2.0000      -0.416995       -11.3470
 228   2.0000      -0.410041       -11.1578
 229   2.0000      -0.407518       -11.0891
 230   2.0000      -0.404960       -11.0195
 231   2.0000      -0.402072       -10.9409
 232   2.0000      -0.394876       -10.7451
 233   2.0000      -0.393685       -10.7127
 234   2.0000      -0.390399       -10.6233
 235   2.0000      -0.384595       -10.4654
 236   2.0000      -0.380210       -10.3461
 237   2.0000      -0.374620       -10.1939
 238   2.0000      -0.370622       -10.0851
 239   2.0000      -0.367468        -9.9993
 240   2.0000      -0.362942        -9.8761
 241   2.0000      -0.358671        -9.7599
 242   2.0000      -0.353403        -9.6166
 243   2.0000      -0.350884        -9.5481
 244   2.0000      -0.340710        -9.2712
 245   2.0000      -0.334712        -9.1080
 246   2.0000      -0.334334        -9.0977
 247   2.0000      -0.326659        -8.8889
 248   2.0000      -0.325820        -8.8660
 249   2.0000      -0.321417        -8.7462
 250   2.0000      -0.313150        -8.5212
 251   2.0000      -0.304498        -8.2858
 252   2.0000      -0.303244        -8.2517
 253   2.0000      -0.292636        -7.9630
 254   2.0000      -0.283640        -7.7182
 255   2.0000      -0.267961        -7.2916
 256   2.0000      -0.247318        -6.7299
 257   2.0000      -0.208770        -5.6809
 258   0.0000      -0.095871        -2.6088
 259   0.0000      -0.088071        -2.3965
 260   0.0000      -0.071836        -1.9548
 261   0.0000      -0.053955        -1.4682
 262   0.0000      -0.032009        -0.8710

MULLIKEN ATOMIC CHARGES
-----------------------
   0 C :    0.337437
   1 C :   -0.374629
   2 C :   -0.187193
   3 N :    0.139644
   4 C :   -0.170953
   5 N :    0.124134
   6 C :    0.023917
   7 C :    0.011540
   8 C :   -0.092623
   9 C :    0.142287
  10 C :   -0.098051
  11 C :   -0.023815
  12 S :    0.172728
  13 C :   -0.131380
  14 C :    0.037034
  15 Br:    0.014714
  16 C :    0.100030
  17 O :   -0.149888
  18 C :   -0.084488
  19 C :   -0.061428
  20 C :    0.153400
  21 C :    0.205455
  22 O :   -0.218719
  23 C :    0.210464
  24 C :    0.234938
  25 C :   -0.183286
  26 S :    0.111408
  27 C :   -0.160859
  28 O :   -0.254137
  29 C :   -0.037316
  30 C :    0.009949
  31 C :    0.085082
  32 O :   -0.229619
  33 C :   -0.019541
  34 C :    0.158671
  35 O :   -0.141783
  36 N :   -0.168824
  37 C :    0.151762
  38 O :   -0.148989
  39 C :   -0.039792
  40 C :    0.105611
  41 C :   -0.065968
  42 C :    0.040897
  43 C :   -0.010216
  44 C :   -0.018097
  45 C :    0.037012
  46 C :    0.035613
  47 C :   -0.061916
  48 S :    0.067937
  49 C :   -0.017804
  50 C :    0.053769
  51 C :    0.047340
  52 C :   -0.033012
  53 S :    0.084660
  54 C :    0.062642
  55 C :   -0.235462
  56 S :    0.159668
  57 C :   -0.119827
  58 C :    0.132184
  59 C :    0.231568
  60 O :   -0.199445
  61 C :    0.237185
  62 N :    0.278858
  63 O :   -0.244826
  64 O :   -0.224649
  65 C :   -0.059591
  66 H :   -0.013237
  67 H :   -0.011267
  68 H :   -0.003052
  69 H :    0.030161
  70 H :    0.025181
  71 H :    0.031118
  72 H :    0.050148
  73 H :    0.022380
  74 H :    0.135367
  75 H :    0.003459
  76 H :    0.029257
  77 H :   -0.011944
  78 H :   -0.011694
  79 H :   -0.011733
  80 H :   -0.012829
  81 H :   -0.010685
  82 H :   -0.018568
  83 H :    0.033105
  84 H :    0.013421
Sum of atomic charges:   -0.0000000

LOEWDIN ATOMIC CHARGES
----------------------
   0 C :    0.084022
   1 C :   -0.156000
   2 C :   -0.020146
   3 N :   -0.072537
   4 C :   -0.012750
   5 N :   -0.072601
   6 C :   -0.023245
   7 C :   -0.046900
   8 C :    0.015489
   9 C :   -0.029533
  10 C :   -0.144804
  11 C :   -0.013709
  12 S :    0.431579
  13 C :   -0.276485
  14 C :   -0.067273
  15 Br:    0.130048
  16 C :    0.068867
  17 O :   -0.144536
  18 C :   -0.102081
  19 C :    0.038819
  20 C :   -0.002697
  21 C :    0.091704
  22 O :   -0.015204
  23 C :   -0.008311
  24 C :   -0.003324
  25 C :   -0.215380
  26 S :    0.440280
  27 C :   -0.200245
  28 O :   -0.059753
  29 C :   -0.008599
  30 C :    0.007588
  31 C :    0.061694
  32 O :    0.011417
  33 C :   -0.083672
  34 C :    0.082989
  35 O :   -0.160565
  36 N :   -0.009320
  37 C :    0.081916
  38 O :   -0.168157
  39 C :   -0.113748
  40 C :    0.079781
  41 C :   -0.065859
  42 C :    0.005357
  43 C :   -0.077050
  44 C :   -0.125864
  45 C :   -0.048995
  46 C :   -0.018614
  47 C :   -0.191572
  48 S :    0.397550
  49 C :   -0.157391
  50 C :   -0.026147
  51 C :   -0.016019
  52 C :   -0.146094
  53 S :    0.414990
  54 C :   -0.064047
  55 C :   -0.199357
  56 S :    0.490224
  57 C :   -0.176750
  58 C :   -0.075895
  59 C :    0.023957
  60 O :    0.003740
  61 C :    0.016918
  62 N :    0.280583
  63 O :   -0.206076
  64 O :   -0.189989
  65 C :    0.009042
  66 H :    0.038370
  67 H :    0.037481
  68 H :    0.039032
  69 H :    0.046672
  70 H :    0.028807
  71 H :    0.032265
  72 H :    0.037337
  73 H :    0.049258
  74 H :    0.092996
  75 H :    0.041461
  76 H :    0.024157
  77 H :    0.032270
  78 H :    0.032091
  79 H :    0.033895
  80 H :    0.033210
  81 H :    0.034642
  82 H :    0.036215
  83 H :    0.030293
  84 H :    0.048286

  Mayer bond orders larger than 0.100000
B(  0-C ,  1-C ) :   1.5902 B(  0-C ,  6-C ) :   0.9915 B(  0-C , 18-C ) :   1.1161
B(  1-C ,  2-C ) :   1.1568 B(  1-C ,  4-C ) :   1.1685 B(  2-C ,  3-N ) :   2.9324
B(  4-C ,  5-N ) :   2.8891 B(  6-C ,  7-C ) :   1.2799 B(  6-C , 11-C ) :   1.4030
B(  7-C ,  8-C ) :   1.4242 B(  7-C , 16-C ) :   0.9123 B(  8-C ,  9-C ) :   1.2369
B(  8-C , 66-H ) :   1.0133 B(  9-C , 10-C ) :   1.3180 B(  9-C , 14-C ) :   1.1597
B( 10-C , 11-C ) :   1.3261 B( 10-C , 12-S ) :   1.0816 B( 11-C , 67-H ) :   0.9806
B( 12-S , 13-C ) :   1.0813 B( 13-C , 14-C ) :   1.6154 B( 13-C , 15-Br) :   1.0134
B( 14-C , 68-H ) :   1.0021 B( 16-C , 17-O ) :   2.2083 B( 16-C , 18-C ) :   0.9778
B( 18-C , 19-C ) :   1.4653 B( 19-C , 20-C ) :   1.2700 B( 19-C , 69-H ) :   0.9209
B( 20-C , 21-C ) :   1.3753 B( 20-C , 28-O ) :   1.0468 B( 21-C , 22-O ) :   1.1427
B( 21-C , 29-C ) :   1.1926 B( 22-O , 23-C ) :   1.0335 B( 23-C , 24-C ) :   1.2027
B( 23-C , 27-C ) :   1.5728 B( 24-C , 25-C ) :   1.5720 B( 24-C , 28-O ) :   1.0600
B( 25-C , 26-S ) :   1.1351 B( 25-C , 70-H ) :   0.9721 B( 26-S , 27-C ) :   1.1502
B( 27-C , 71-H ) :   0.9720 B( 29-C , 30-C ) :   1.6015 B( 29-C , 72-H ) :   0.9325
B( 30-C , 31-C ) :   1.1845 B( 30-C , 73-H ) :   0.9701 B( 31-C , 32-O ) :   1.1244
B( 31-C , 33-C ) :   1.3955 B( 32-O , 40-C ) :   1.1351 B( 33-C , 34-C ) :   0.8739
B( 33-C , 39-C ) :   1.2804 B( 34-C , 35-O ) :   2.2722 B( 34-C , 36-N ) :   1.0824
B( 36-N , 37-C ) :   1.0676 B( 36-N , 74-H ) :   0.9145 B( 37-C , 38-O ) :   2.2681
B( 37-C , 39-C ) :   0.8924 B( 39-C , 40-C ) :   1.3415 B( 40-C , 41-C ) :   1.2142
B( 41-C , 42-C ) :   1.5449 B( 41-C , 75-H ) :   0.9731 B( 42-C , 43-C ) :   1.1779
B( 42-C , 76-H ) :   0.9723 B( 43-C , 44-C ) :   1.5035 B( 43-C , 77-H ) :   0.9900
B( 44-C , 45-C ) :   1.1585 B( 44-C , 48-S ) :   1.0580 B( 45-C , 46-C ) :   1.5587
B( 45-C , 78-H ) :   1.0006 B( 46-C , 47-C ) :   1.2022 B( 46-C , 79-H ) :   0.9967
B( 47-C , 48-S ) :   1.0443 B( 47-C , 49-C ) :   1.4875 B( 49-C , 50-C ) :   1.1870
B( 49-C , 53-S ) :   1.0527 B( 50-C , 51-C ) :   1.5920 B( 50-C , 80-H ) :   0.9903
B( 51-C , 52-C ) :   1.1412 B( 51-C , 81-H ) :   0.9978 B( 52-C , 53-S ) :   1.0323
B( 52-C , 54-C ) :   1.6073 B( 54-C , 55-C ) :   1.1610 B( 54-C , 82-H ) :   0.9418
B( 55-C , 56-S ) :   1.1337 B( 55-C , 57-C ) :   0.1075 B( 55-C , 59-C ) :   1.4209
B( 56-S , 57-C ) :   1.2003 B( 57-C , 58-C ) :   1.4230 B( 57-C , 83-H ) :   0.9733
B( 58-C , 59-C ) :   1.2421 B( 58-C , 65-C ) :   1.0734 B( 59-C , 60-O ) :   1.0806
B( 60-O , 61-C ) :   1.1104 B( 61-C , 62-N ) :   0.9326 B( 61-C , 65-C ) :   1.5584
B( 62-N , 63-O ) :   1.5036 B( 62-N , 64-O ) :   1.4878 B( 63-O , 64-O ) :   0.2583
B( 65-C , 84-H ) :   1.0223

-----------------------------------------------------------------------------
         ABSORPTION SPECTRUM VIA TRANSITION ELECTRIC DIPOLE MOMENTS
-----------------------------------------------------------------------------
State   Energy  Wavelength   fosc         T2         TX        TY        TZ
        (cm-1)    (nm)                  (au**2)     (au)      (au)      (au)
-----------------------------------------------------------------------------
   0    8047.2   1242.7   0.030078963   1.23054  -0.47968  -0.73411   0.67936
   1   11524.0    867.8   0.235793467   6.73606  -2.43735  -0.25477   0.85468
   2   13840.7    722.5   0.218359696   5.19386   1.99355   0.84526  -0.71073
   3   16109.3    620.8   0.444592350   9.08573   2.77810   0.98968   0.62325
   4   17070.4    585.8   0.044576937   0.85969  -0.50465   0.44584   0.63738
   5   17586.0    568.6   0.094833060   1.77529  -1.31593  -0.01169   0.20852
   6   20514.9    487.4   0.017251595   0.27684  -0.34736  -0.36719  -0.14616
   7   20784.1    481.1   0.146739239   2.32429  -0.44090   1.19606   0.83626
   8   23129.3    432.4   0.193870500   2.75946  -0.52435   1.37267   0.77478
   9   23721.0    421.6   0.089274100   1.23899  -0.61259  -0.82707  -0.42388
  10   24114.2    414.7   0.051040276   0.69681  -0.74673  -0.13647   0.34725
  11   24306.9    411.4   0.338108667   4.57933  -0.59191   1.88889   0.81307
  12   24815.6    403.0   0.137638594   1.82596  -1.12404   0.63789   0.39445
  13   25523.5    391.8   0.051904492   0.66948  -0.78562   0.13455  -0.18487
  14   26347.4    379.5   0.242763693   3.03335  -0.12181   1.42757   0.99023
  15   26711.7    374.4   0.124830460   1.53849   1.00856   0.71986  -0.05580
  16   27089.0    369.2   0.016616149   0.20194  -0.25291   0.11044   0.35465
  17   27939.5    357.9   0.242745578   2.86028   0.98614   1.26741   0.53054
  18   28393.3    352.2   0.097164045   1.12659  -0.10294   0.84451   0.63467
  19   28562.7    350.1   0.081162853   0.93548  -0.09846   0.72668   0.63065
  20   29066.1    344.0   0.060733981   0.68789   0.51985  -0.34557  -0.54611
  21   29326.6    341.0   0.075483052   0.84735  -0.14177   0.64277   0.64350
  22   29455.0    339.5   0.038535628   0.43070  -0.13305   0.56076   0.31392
  23   30060.4    332.7   0.031340844   0.34323  -0.53374   0.17636   0.16509
  24   30809.7    324.6   0.068886880   0.73608   0.60450  -0.46061  -0.39812
  25   30887.8    323.8   0.009540663   0.10169   0.26670   0.12202  -0.12519
  26   31590.0    316.6   0.034581534   0.36039  -0.09972  -0.53768  -0.24768
  27   31745.2    315.0   0.600395265   6.22638  -1.68024   1.12076   1.46529
  28   31852.5    313.9   0.060725724   0.62763  -0.39209   0.49111   0.48240
  29   32089.6    311.6   0.078963414   0.81010   0.84475   0.26029  -0.16954
  30   32369.5    308.9   0.044755003   0.45518   0.12374  -0.60002  -0.28257
  31   32596.0    306.8   0.106155228   1.07214  -0.95352   0.18623   0.35814
  32   33046.6    302.6   0.209764351   2.08968   1.33170   0.55071  -0.11394
  33   33143.0    301.7   0.076460681   0.75949  -0.84215  -0.18175  -0.13130
  34   33458.6    298.9   0.086788446   0.85395   0.88938   0.23034  -0.09944
  35   33614.3    297.5   0.011841084   0.11597   0.32417   0.05927  -0.08585
  36   33767.9    296.1   0.196517754   1.91590   1.27754   0.52629  -0.08260
  37   34181.7    292.6   0.027262724   0.26257  -0.07580  -0.44179  -0.24830
  38   34297.3    291.6   0.030368554   0.29150  -0.35938   0.35664   0.18749
  39   34696.5    288.2   0.040245169   0.38186  -0.35361  -0.49285  -0.11796
  40   34958.7    286.1   0.000952891   0.00897  -0.02559  -0.03135   0.08565
  41   35088.8    285.0   0.005464216   0.05127  -0.19294  -0.01938   0.11689
  42   35301.0    283.3   0.372948241   3.47806   1.77525   0.45714  -0.34287
  43   35471.0    281.9   0.078979636   0.73302   0.85284  -0.06941   0.02943
  44   35589.1    281.0   0.130645045   1.20851   0.99315   0.21639  -0.41873
  45   35726.9    279.9   0.043876789   0.40431  -0.24370   0.53328   0.24604
  46   36201.6    276.2   0.032261788   0.29338  -0.41686   0.34006  -0.06305
  47   36280.0    275.6   0.048427896   0.43944   0.60293   0.27332   0.03482
  48   36616.0    273.1   0.033874533   0.30456  -0.36805  -0.40031  -0.09408
  49   36745.6    272.1   0.029361234   0.26305  -0.41226   0.28714   0.10316
  50   36991.9    270.3   0.042345452   0.37686   0.00589   0.38709   0.47642
  51   37183.0    268.9   0.087635732   0.77591   0.77431   0.40904   0.09513
  52   37328.2    267.9   0.080552132   0.71042   0.17668  -0.75056  -0.34039
  53   37455.6    267.0   0.001375559   0.01209  -0.02524  -0.10468   0.02225
  54   37490.0    266.7   0.062231732   0.54648   0.55542  -0.28354  -0.39697
  55   37558.8    266.2   0.078298250   0.68630   0.69025   0.35883  -0.28477
  56   37885.1    264.0   0.000647474   0.00563   0.03646  -0.04751   0.04517
  57   37974.4    263.3   0.005563989   0.04824   0.21457  -0.00212  -0.04680
  58   38009.3    263.1   0.042827527   0.37094   0.59902  -0.05638  -0.09457
  59   38255.3    261.4   0.002294915   0.01975  -0.05141  -0.09146   0.09350
  60   38393.6    260.5   0.025656116   0.21999  -0.03175  -0.40996  -0.22566
  61   38493.3    259.8   0.023714463   0.20282  -0.43783   0.00221   0.10544
  62   38751.6    258.1   0.045837882   0.38941  -0.33237  -0.52335  -0.07109
  63   39177.7    255.2   0.027544373   0.23146  -0.25442  -0.37694  -0.15697
  64   39437.2    253.6   0.009016324   0.07527  -0.15352  -0.22615  -0.02354
  65   39703.7    251.9   0.001099842   0.00912  -0.00909  -0.09220   0.02314
  66   40217.6    248.6   0.051301780   0.41994   0.49003   0.33550  -0.25935

FINAL SINGLE POINT ENERGY     -7259.209460418712

DIPOLE MOMENT
-------------
                                X             Y             Z
Electronic contribution:    -41.33876      26.10961      53.97287
Nuclear contribution   :     43.36171     -24.78500     -54.84585
                        -----------------------------------------
Total Dipole Moment    :      2.02295       1.32462      -0.87298
                        -----------------------------------------
Magnitude (a.u.)       :      2.57080
Magnitude (Debye)      :      6.53447

Rotational constants in cm-1:     0.001261     0.000891     0.000588
Rotational constants in MHz :    37.811652    26.724783    17.636731

                             ****ORCA TERMINATED NORMALLY****
TOTAL RUN TIME: 0 days 0 hours 12 minutes 43 seconds 969 msec
