                         Program Version 4.2.0 -  RELEASE  -
|  1> # ORCA input file
|  2> # SCF done       -172.409184647545          0.000458776631
|  3> ! CAM-B3LYP def2-SVP def2/J RIJCOSX Grid4 TightSCF
|  4> %maxcore 5000
|  5> %tddft
|  6>     Mode sTDDFT
|  7>     Ethresh 5.0
|  8>     maxcore 5000
|  9> end
| 10>
| 11> %pal
| 12>   nprocs 6
| 13>   end
| 14> * xyz 0 1
| 15>    C       -5.75271        -0.28171         2.60949
| 16>    C       -6.43527        -1.46683         2.66781
| 17>    C       -6.15962        -2.49596         3.59324
| 18>    N       -5.98170        -3.36668         4.31961
| 19>    C       -7.52884        -1.80958         1.84491
| 20>    N       -8.43631        -2.14235         1.22492
| 21>    C       -4.68061         0.13084         3.50183
| 22>    C       -4.33370         1.47638         3.22039
| 23>    C       -3.35935         2.15126         3.91553
| 24>    C       -2.68713         1.46486         4.93132
| 25>    C       -3.03427         0.11811         5.20099
| 26>    C       -4.02272        -0.56241         4.50375
| 27>    S       -2.07699        -0.54161         6.49250
| 28>    C       -1.23675         0.97831         6.65128
| 29>    C       -1.64952         1.93222         5.78274
| 30>   Br        0.10459         1.16200         7.94846
| 31>    C       -5.16517         1.97931         2.11083
| 32>    O       -5.17893         3.10195         1.66153
| 33>    C       -6.00108         0.81990         1.68578
| 34>    C       -6.82786         0.84220         0.62088
| 35>    C       -6.93285         1.96871        -0.29954
| 36>    C       -5.91509         2.26175        -1.15063
| 37>    S       -6.27168         3.51418        -2.27279
| 38>    C       -7.84435         3.70196        -1.56632
| 39>    C       -8.07736         2.81754        -0.50513
| 40>    C       -9.28684         2.90738         0.22094
| 41>    C       -9.44984         2.02026         1.42765
| 42>    C       -8.88145         2.69832         2.67632
| 43>    C      -10.24969         3.83982        -0.13723
| 44>    C      -11.52228         3.95294         0.66181
| 45>    C      -12.66892         3.20005        -0.01544
| 46>    C      -10.05435         4.67287        -1.27030
| 47>    C      -10.92885         5.62563        -1.92789
| 48>    C      -10.32288         6.19263        -3.01784
| 49>    S       -8.72184         5.66805        -3.31463
| 50>    C       -8.83109         4.59224        -1.95760
| 51>    C      -12.28438         5.99797        -1.60569
| 52>    C      -13.20196         6.34395        -2.54185
| 53>    C      -14.52222         6.73778        -2.23763
| 54>    C      -15.46376         7.03421        -3.18526
| 55>    C      -16.81146         7.42459        -2.97016
| 56>    C      -17.51896         7.64245        -4.11034
| 57>    C      -16.77526         7.43849        -5.29849
| 58>    S      -15.13799         6.96541        -4.91447
| 59>    C      -17.19147         7.55984        -6.60691
| 60>    C      -18.47388         7.91818        -7.08109
| 61>    C      -18.56171         7.93390        -8.43866
| 62>    C      -17.35436         7.58967        -9.10073
| 63>    S      -16.09078         7.24674        -7.94982
| 64>    C      -17.13662         7.51129       -10.45175
| 65>    C      -15.86694         7.14853       -10.95300
| 66>    N      -15.65773         7.06130       -12.29169
| 67>    C      -14.45954         6.72057       -12.66349
| 68>    C      -13.43578         6.46053       -11.71585
| 69>    N      -13.72249         6.56765       -10.40494
| 70>    N      -14.90812         6.90143       -10.04710
| 71>    C      -12.10541         6.09090       -12.03720
| 72>    S      -11.48384         5.87443       -13.65514
| 73>    C       -9.87779         5.45925       -13.11428
| 74>    C       -9.83393         5.49067       -11.72681
| 75>    C      -11.08296         5.84294       -11.13669
| 76>    N      -10.89942         5.83500        -9.79965
| 77>    N       -9.63296         5.50553        -9.49214
| 78>    C       -8.98013         5.29683       -10.60553
| 79>    C       -8.81719         5.14422       -14.01648
| 80>    C       -8.92280         5.12130       -15.34605
| 81>    H       -3.12250         3.17695         3.67982
| 82>    H       -4.24974        -1.58723         4.74560
| 83>    H       -1.24025         2.92511         5.74294
| 84>    H       -7.39636        -0.04024         0.35140
| 85>    H       -4.96248         1.77106        -1.20257
| 86>    H       -8.91123         1.08777         1.26272
| 87>    H      -10.49363         1.75283         1.58692
| 88>    H       -7.84169         2.97365         2.51560
| 89>    H       -8.93771         2.02700         3.53111
| 90>    H       -9.43295         3.60558         2.91166
| 91>    H      -11.77655         5.00417         0.78657
| 92>    H      -11.38053         3.55584         1.66431
| 93>    H      -12.84209         3.57885        -1.01976
| 94>    H      -13.58617         3.30862         0.55929
| 95>    H      -12.42994         2.14139        -0.08839
| 96>    H      -10.74072         6.94630        -3.65605
| 97>    H      -12.58896         6.02297        -0.57204
| 98>    H      -12.94671         6.29003        -3.59187
| 99>    H      -14.81493         6.80270        -1.19766
|100>    H      -17.20990         7.52800        -1.97591
|101>    H      -18.55166         7.94131        -4.13569
|102>    H      -19.29076         8.15077        -6.42039
|103>    H      -19.45083         8.17892        -8.99285
|104>    H      -17.92511         7.72080       -11.15605
|105>    H      -14.26679         6.64198       -13.72667
|106>    H      -11.58523         6.03747        -9.09027
|107>    H       -7.94534         5.02114       -10.58664
|108>    H       -7.87539         4.91193       -13.53564
|109>    H       -9.85411         5.34901       -15.83795
|110>    H       -8.08613         4.87493       -15.97436
|111> *
|112>
|113>                          ****END OF INPUT****

CARTESIAN COORDINATES (ANGSTROEM)
---------------------------------
  C     -5.752710   -0.281710    2.609490
  C     -6.435270   -1.466830    2.667810
  C     -6.159620   -2.495960    3.593240
  N     -5.981700   -3.366680    4.319610
  C     -7.528840   -1.809580    1.844910
  N     -8.436310   -2.142350    1.224920
  C     -4.680610    0.130840    3.501830
  C     -4.333700    1.476380    3.220390
  C     -3.359350    2.151260    3.915530
  C     -2.687130    1.464860    4.931320
  C     -3.034270    0.118110    5.200990
  C     -4.022720   -0.562410    4.503750
  S     -2.076990   -0.541610    6.492500
  C     -1.236750    0.978310    6.651280
  C     -1.649520    1.932220    5.782740
  Br     0.104590    1.162000    7.948460
  C     -5.165170    1.979310    2.110830
  O     -5.178930    3.101950    1.661530
  C     -6.001080    0.819900    1.685780
  C     -6.827860    0.842200    0.620880
  C     -6.932850    1.968710   -0.299540
  C     -5.915090    2.261750   -1.150630
  S     -6.271680    3.514180   -2.272790
  C     -7.844350    3.701960   -1.566320
  C     -8.077360    2.817540   -0.505130
  C     -9.286840    2.907380    0.220940
  C     -9.449840    2.020260    1.427650
  C     -8.881450    2.698320    2.676320
  C    -10.249690    3.839820   -0.137230
  C    -11.522280    3.952940    0.661810
  C    -12.668920    3.200050   -0.015440
  C    -10.054350    4.672870   -1.270300
  C    -10.928850    5.625630   -1.927890
  C    -10.322880    6.192630   -3.017840
  S     -8.721840    5.668050   -3.314630
  C     -8.831090    4.592240   -1.957600
  C    -12.284380    5.997970   -1.605690
  C    -13.201960    6.343950   -2.541850
  C    -14.522220    6.737780   -2.237630
  C    -15.463760    7.034210   -3.185260
  C    -16.811460    7.424590   -2.970160
  C    -17.518960    7.642450   -4.110340
  C    -16.775260    7.438490   -5.298490
  S    -15.137990    6.965410   -4.914470
  C    -17.191470    7.559840   -6.606910
  C    -18.473880    7.918180   -7.081090
  C    -18.561710    7.933900   -8.438660
  C    -17.354360    7.589670   -9.100730
  S    -16.090780    7.246740   -7.949820
  C    -17.136620    7.511290  -10.451750
  C    -15.866940    7.148530  -10.953000
  N    -15.657730    7.061300  -12.291690
  C    -14.459540    6.720570  -12.663490
  C    -13.435780    6.460530  -11.715850
  N    -13.722490    6.567650  -10.404940
  N    -14.908120    6.901430  -10.047100
  C    -12.105410    6.090900  -12.037200
  S    -11.483840    5.874430  -13.655140
  C     -9.877790    5.459250  -13.114280
  C     -9.833930    5.490670  -11.726810
  C    -11.082960    5.842940  -11.136690
  N    -10.899420    5.835000   -9.799650
  N     -9.632960    5.505530   -9.492140
  C     -8.980130    5.296830  -10.605530
  C     -8.817190    5.144220  -14.016480
  C     -8.922800    5.121300  -15.346050
  H     -3.122500    3.176950    3.679820
  H     -4.249740   -1.587230    4.745600
  H     -1.240250    2.925110    5.742940
  H     -7.396360   -0.040240    0.351400
  H     -4.962480    1.771060   -1.202570
  H     -8.911230    1.087770    1.262720
  H    -10.493630    1.752830    1.586920
  H     -7.841690    2.973650    2.515600
  H     -8.937710    2.027000    3.531110
  H     -9.432950    3.605580    2.911660
  H    -11.776550    5.004170    0.786570
  H    -11.380530    3.555840    1.664310
  H    -12.842090    3.578850   -1.019760
  H    -13.586170    3.308620    0.559290
  H    -12.429940    2.141390   -0.088390
  H    -10.740720    6.946300   -3.656050
  H    -12.588960    6.022970   -0.572040
  H    -12.946710    6.290030   -3.591870
  H    -14.814930    6.802700   -1.197660
  H    -17.209900    7.528000   -1.975910
  H    -18.551660    7.941310   -4.135690
  H    -19.290760    8.150770   -6.420390
  H    -19.450830    8.178920   -8.992850
  H    -17.925110    7.720800  -11.156050
  H    -14.266790    6.641980  -13.726670
  H    -11.585230    6.037470   -9.090270
  H     -7.945340    5.021140  -10.586640
  H     -7.875390    4.911930  -13.535640
  H     -9.854110    5.349010  -15.837950
  H     -8.086130    4.874930  -15.974360

 Total Charge           Charge          ....    0
 Multiplicity           Mult            ....    1
 Number of Electrons    NEL             ....  524
 Basis Dimension        Dim             .... 1116

ORBITAL ENERGIES
----------------

  NO   OCC          E(Eh)            E(eV)
   0   2.0000    -482.890473    -13140.1178
   1   2.0000     -88.980913     -2421.2937
   2   2.0000     -88.961711     -2420.7712
   3   2.0000     -88.950638     -2420.4699
   4   2.0000     -88.948327     -2420.4070
   5   2.0000     -88.938111     -2420.1290
   6   2.0000     -88.930986     -2419.9352
   7   2.0000     -62.568155     -1702.5661
   8   2.0000     -56.402114     -1534.7796
   9   2.0000     -56.399383     -1534.7052
  10   2.0000     -56.399358     -1534.7045
  11   2.0000     -19.220466      -523.0155
  12   2.0000     -14.465729      -393.6325
  13   2.0000     -14.448351      -393.1596
  14   2.0000     -14.434794      -392.7907
  15   2.0000     -14.428770      -392.6268
  16   2.0000     -14.423483      -392.4829
  17   2.0000     -14.422551      -392.4576
  18   2.0000     -14.418472      -392.3466
  19   2.0000     -10.371924      -282.2344
  20   2.0000     -10.364857      -282.0421
  21   2.0000     -10.351167      -281.6696
  22   2.0000     -10.349138      -281.6144
  23   2.0000     -10.332130      -281.1516
  24   2.0000     -10.330860      -281.1170
  25   2.0000     -10.325582      -280.9734
  26   2.0000     -10.324861      -280.9537
  27   2.0000     -10.323348      -280.9126
  28   2.0000     -10.323283      -280.9108
  29   2.0000     -10.320078      -280.8236
  30   2.0000     -10.315248      -280.6922
  31   2.0000     -10.314360      -280.6680
  32   2.0000     -10.312534      -280.6183
  33   2.0000     -10.309358      -280.5319
  34   2.0000     -10.308177      -280.4997
  35   2.0000     -10.307179      -280.4726
  36   2.0000     -10.306842      -280.4634
  37   2.0000     -10.304816      -280.4083
  38   2.0000     -10.301981      -280.3312
  39   2.0000     -10.301852      -280.3277
  40   2.0000     -10.300209      -280.2829
  41   2.0000     -10.298705      -280.2420
  42   2.0000     -10.298185      -280.2279
  43   2.0000     -10.296303      -280.1766
  44   2.0000     -10.295571      -280.1567
  45   2.0000     -10.294829      -280.1365
  46   2.0000     -10.289730      -279.9978
  47   2.0000     -10.287963      -279.9497
  48   2.0000     -10.286445      -279.9084
  49   2.0000     -10.285935      -279.8945
  50   2.0000     -10.284678      -279.8603
  51   2.0000     -10.284009      -279.8421
  52   2.0000     -10.283882      -279.8387
  53   2.0000     -10.279745      -279.7261
  54   2.0000     -10.279120      -279.7091
  55   2.0000     -10.278739      -279.6987
  56   2.0000     -10.277657      -279.6693
  57   2.0000     -10.277200      -279.6568
  58   2.0000     -10.277096      -279.6540
  59   2.0000     -10.273069      -279.5444
  60   2.0000     -10.273028      -279.5433
  61   2.0000     -10.272001      -279.5154
  62   2.0000     -10.271651      -279.5058
  63   2.0000     -10.271419      -279.4995
  64   2.0000     -10.269521      -279.4479
  65   2.0000     -10.264270      -279.3050
  66   2.0000     -10.262487      -279.2565
  67   2.0000     -10.259607      -279.1781
  68   2.0000     -10.254132      -279.0291
  69   2.0000     -10.250853      -278.9399
  70   2.0000      -8.797566      -239.3940
  71   2.0000      -8.077019      -219.7868
  72   2.0000      -8.056231      -219.2212
  73   2.0000      -8.046752      -218.9633
  74   2.0000      -8.044540      -218.9031
  75   2.0000      -8.034424      -218.6278
  76   2.0000      -8.024509      -218.3580
  77   2.0000      -6.633875      -180.5169
  78   2.0000      -6.619314      -180.1207
  79   2.0000      -6.619070      -180.1141
  80   2.0000      -6.046708      -164.5393
  81   2.0000      -6.042427      -164.4228
  82   2.0000      -6.038198      -164.3077
  83   2.0000      -6.025600      -163.9649
  84   2.0000      -6.021453      -163.8521
  85   2.0000      -6.018443      -163.7702
  86   2.0000      -6.016262      -163.7108
  87   2.0000      -6.013971      -163.6485
  88   2.0000      -6.012046      -163.5961
  89   2.0000      -6.009759      -163.5339
  90   2.0000      -6.008390      -163.4966
  91   2.0000      -6.006344      -163.4409
  92   2.0000      -6.004134      -163.3808
  93   2.0000      -6.000153      -163.2725
  94   2.0000      -5.995317      -163.1409
  95   2.0000      -5.994670      -163.1233
  96   2.0000      -5.989812      -162.9911
  97   2.0000      -5.985586      -162.8761
  98   2.0000      -2.749795       -74.8257
  99   2.0000      -2.745637       -74.7126
 100   2.0000      -2.745470       -74.7080
 101   2.0000      -2.733895       -74.3931
 102   2.0000      -2.733887       -74.3928
 103   2.0000      -1.136041       -30.9132
 104   2.0000      -1.135412       -30.8961
 105   2.0000      -1.131183       -30.7811
 106   2.0000      -1.029424       -28.0121
 107   2.0000      -1.020086       -27.7579
 108   2.0000      -1.017504       -27.6877
 109   2.0000      -1.001496       -27.2521
 110   2.0000      -1.000798       -27.2331
 111   2.0000      -0.995472       -27.0882
 112   2.0000      -0.987406       -26.8687
 113   2.0000      -0.983062       -26.7505
 114   2.0000      -0.971165       -26.4267
 115   2.0000      -0.965982       -26.2857
 116   2.0000      -0.948401       -25.8073
 117   2.0000      -0.936075       -25.4719
 118   2.0000      -0.923537       -25.1307
 119   2.0000      -0.915014       -24.8988
 120   2.0000      -0.911478       -24.8026
 121   2.0000      -0.907065       -24.6825
 122   2.0000      -0.903519       -24.5860
 123   2.0000      -0.892364       -24.2825
 124   2.0000      -0.880423       -23.9575
 125   2.0000      -0.876233       -23.8435
 126   2.0000      -0.871585       -23.7170
 127   2.0000      -0.862020       -23.4568
 128   2.0000      -0.854058       -23.2401
 129   2.0000      -0.848484       -23.0884
 130   2.0000      -0.842281       -22.9196
 131   2.0000      -0.837321       -22.7847
 132   2.0000      -0.835626       -22.7385
 133   2.0000      -0.825157       -22.4537
 134   2.0000      -0.817123       -22.2350
 135   2.0000      -0.811686       -22.0871
 136   2.0000      -0.802846       -21.8465
 137   2.0000      -0.790400       -21.5079
 138   2.0000      -0.784435       -21.3456
 139   2.0000      -0.772851       -21.0304
 140   2.0000      -0.768221       -20.9044
 141   2.0000      -0.763795       -20.7839
 142   2.0000      -0.759339       -20.6627
 143   2.0000      -0.745434       -20.2843
 144   2.0000      -0.718895       -19.5621
 145   2.0000      -0.717736       -19.5306
 146   2.0000      -0.711142       -19.3511
 147   2.0000      -0.700021       -19.0485
 148   2.0000      -0.698023       -18.9942
 149   2.0000      -0.695339       -18.9211
 150   2.0000      -0.690407       -18.7869
 151   2.0000      -0.687905       -18.7188
 152   2.0000      -0.681871       -18.5547
 153   2.0000      -0.679430       -18.4882
 154   2.0000      -0.672659       -18.3040
 155   2.0000      -0.663979       -18.0678
 156   2.0000      -0.661585       -18.0026
 157   2.0000      -0.654952       -17.8222
 158   2.0000      -0.644766       -17.5450
 159   2.0000      -0.636074       -17.3085
 160   2.0000      -0.632156       -17.2018
 161   2.0000      -0.627916       -17.0865
 162   2.0000      -0.621311       -16.9067
 163   2.0000      -0.618048       -16.8179
 164   2.0000      -0.615624       -16.7520
 165   2.0000      -0.610964       -16.6252
 166   2.0000      -0.607443       -16.5294
 167   2.0000      -0.602746       -16.4015
 168   2.0000      -0.594562       -16.1788
 169   2.0000      -0.593795       -16.1580
 170   2.0000      -0.585457       -15.9311
 171   2.0000      -0.572479       -15.5779
 172   2.0000      -0.567197       -15.4342
 173   2.0000      -0.561255       -15.2725
 174   2.0000      -0.556050       -15.1309
 175   2.0000      -0.552504       -15.0344
 176   2.0000      -0.546837       -14.8802
 177   2.0000      -0.546253       -14.8643
 178   2.0000      -0.542771       -14.7695
 179   2.0000      -0.540075       -14.6962
 180   2.0000      -0.534692       -14.5497
 181   2.0000      -0.532249       -14.4832
 182   2.0000      -0.530391       -14.4327
 183   2.0000      -0.530238       -14.4285
 184   2.0000      -0.527484       -14.3536
 185   2.0000      -0.525064       -14.2877
 186   2.0000      -0.521996       -14.2042
 187   2.0000      -0.516685       -14.0597
 188   2.0000      -0.515608       -14.0304
 189   2.0000      -0.514271       -13.9940
 190   2.0000      -0.509904       -13.8752
 191   2.0000      -0.507374       -13.8063
 192   2.0000      -0.504714       -13.7340
 193   2.0000      -0.502060       -13.6618
 194   2.0000      -0.498346       -13.5607
 195   2.0000      -0.498002       -13.5513
 196   2.0000      -0.492583       -13.4039
 197   2.0000      -0.490260       -13.3407
 198   2.0000      -0.488425       -13.2907
 199   2.0000      -0.484010       -13.1706
 200   2.0000      -0.482017       -13.1164
 201   2.0000      -0.480889       -13.0857
 202   2.0000      -0.476290       -12.9605
 203   2.0000      -0.474605       -12.9146
 204   2.0000      -0.467701       -12.7268
 205   2.0000      -0.464057       -12.6276
 206   2.0000      -0.463000       -12.5989
 207   2.0000      -0.461868       -12.5681
 208   2.0000      -0.459283       -12.4977
 209   2.0000      -0.455798       -12.4029
 210   2.0000      -0.455339       -12.3904
 211   2.0000      -0.453383       -12.3372
 212   2.0000      -0.452894       -12.3239
 213   2.0000      -0.452097       -12.3022
 214   2.0000      -0.450733       -12.2651
 215   2.0000      -0.450231       -12.2514
 216   2.0000      -0.448865       -12.2142
 217   2.0000      -0.445288       -12.1169
 218   2.0000      -0.442800       -12.0492
 219   2.0000      -0.440011       -11.9733
 220   2.0000      -0.438787       -11.9400
 221   2.0000      -0.434892       -11.8340
 222   2.0000      -0.433650       -11.8002
 223   2.0000      -0.428488       -11.6598
 224   2.0000      -0.425321       -11.5736
 225   2.0000      -0.425054       -11.5663
 226   2.0000      -0.423805       -11.5323
 227   2.0000      -0.422394       -11.4939
 228   2.0000      -0.421744       -11.4762
 229   2.0000      -0.420099       -11.4315
 230   2.0000      -0.415175       -11.2975
 231   2.0000      -0.413876       -11.2621
 232   2.0000      -0.412865       -11.2346
 233   2.0000      -0.407014       -11.0754
 234   2.0000      -0.402404       -10.9500
 235   2.0000      -0.401185       -10.9168
 236   2.0000      -0.393395       -10.7048
 237   2.0000      -0.388554       -10.5731
 238   2.0000      -0.384831       -10.4718
 239   2.0000      -0.379636       -10.3304
 240   2.0000      -0.377169       -10.2633
 241   2.0000      -0.374693       -10.1959
 242   2.0000      -0.370471       -10.0810
 243   2.0000      -0.361864        -9.8468
 244   2.0000      -0.357545        -9.7293
 245   2.0000      -0.354741        -9.6530
 246   2.0000      -0.346905        -9.4398
 247   2.0000      -0.340264        -9.2591
 248   2.0000      -0.333601        -9.0777
 249   2.0000      -0.331829        -9.0295
 250   2.0000      -0.323605        -8.8057
 251   2.0000      -0.321199        -8.7403
 252   2.0000      -0.319258        -8.6875
 253   2.0000      -0.312565        -8.5053
 254   2.0000      -0.310345        -8.4449
 255   2.0000      -0.299269        -8.1435
 256   2.0000      -0.292633        -7.9629
 257   2.0000      -0.283958        -7.7269
 258   2.0000      -0.265355        -7.2207
 259   2.0000      -0.264159        -7.1881
 260   2.0000      -0.244039        -6.6406
 261   2.0000      -0.207449        -5.6450
 262   0.0000      -0.090381        -2.4594
 263   0.0000      -0.078012        -2.1228
 264   0.0000      -0.058321        -1.5870
 265   0.0000      -0.043884        -1.1942
 266   0.0000      -0.012788        -0.3480

MULLIKEN ATOMIC CHARGES
-----------------------
   0 C :    0.320452
   1 C :   -0.345601
   2 C :   -0.185639
   3 N :    0.156256
   4 C :   -0.192115
   5 N :    0.161986
   6 C :    0.011860
   7 C :   -0.013707
   8 C :   -0.064936
   9 C :    0.116767
  10 C :   -0.089432
  11 C :   -0.018009
  12 S :    0.189679
  13 C :   -0.121785
  14 C :    0.039664
  15 Br:    0.029354
  16 C :    0.138976
  17 O :   -0.130022
  18 C :   -0.050495
  19 C :   -0.108796
  20 C :    0.046142
  21 C :   -0.073008
  22 S :    0.133848
  23 C :   -0.131246
  24 C :    0.125443
  25 C :   -0.118779
  26 C :    0.049581
  27 C :    0.044348
  28 C :   -0.136525
  29 C :    0.026521
  30 C :    0.035753
  31 C :    0.135838
  32 C :    0.076147
  33 C :   -0.121771
  34 S :    0.140789
  35 C :   -0.167667
  36 C :   -0.025560
  37 C :   -0.005868
  38 C :   -0.015504
  39 C :   -0.016670
  40 C :    0.040234
  41 C :    0.028231
  42 C :   -0.047625
  43 S :    0.075485
  44 C :   -0.049467
  45 C :    0.036274
  46 C :    0.027804
  47 C :    0.016001
  48 S :    0.128349
  49 C :   -0.036315
  50 C :    0.020389
  51 N :   -0.023058
  52 C :   -0.005839
  53 C :   -0.015001
  54 N :   -0.077046
  55 N :   -0.138411
  56 C :   -0.152086
  57 S :    0.129313
  58 C :   -0.124107
  59 C :    0.024178
  60 C :    0.139169
  61 N :   -0.027096
  62 N :   -0.051730
  63 C :   -0.005097
  64 C :    0.011490
  65 C :   -0.022423
  66 H :   -0.007120
  67 H :   -0.004412
  68 H :   -0.001565
  69 H :    0.063091
  70 H :    0.015097
  71 H :   -0.014779
  72 H :    0.007178
  73 H :    0.012103
  74 H :    0.012915
  75 H :    0.008732
  76 H :    0.004321
  77 H :   -0.003775
  78 H :    0.025289
  79 H :    0.010341
  80 H :    0.010022
  81 H :    0.025320
  82 H :   -0.007588
  83 H :    0.004098
  84 H :   -0.015983
  85 H :   -0.012722
  86 H :   -0.013509
  87 H :   -0.019832
  88 H :   -0.016618
  89 H :   -0.023085
  90 H :    0.010247
  91 H :    0.143255
  92 H :   -0.007220
  93 H :   -0.004982
  94 H :    0.023847
  95 H :    0.029452
Sum of atomic charges:   -0.0000000

LOEWDIN ATOMIC CHARGES
----------------------
   0 C :    0.076764
   1 C :   -0.133316
   2 C :   -0.018416
   3 N :   -0.047001
   4 C :   -0.020589
   5 N :   -0.044379
   6 C :   -0.023011
   7 C :   -0.051305
   8 C :    0.024022
   9 C :   -0.029930
  10 C :   -0.142658
  11 C :   -0.007894
  12 S :    0.434672
  13 C :   -0.268940
  14 C :   -0.069856
  15 Br:    0.141270
  16 C :    0.080624
  17 O :   -0.124872
  18 C :   -0.085288
  19 C :    0.084249
  20 C :   -0.066666
  21 C :   -0.152396
  22 S :    0.423732
  23 C :   -0.176062
  24 C :   -0.038074
  25 C :   -0.020314
  26 C :   -0.027953
  27 C :   -0.050760
  28 C :   -0.019315
  29 C :   -0.030853
  30 C :   -0.050235
  31 C :   -0.038168
  32 C :   -0.065318
  33 C :   -0.164102
  34 S :    0.426614
  35 C :   -0.177214
  36 C :   -0.007843
  37 C :   -0.034968
  38 C :   -0.045575
  39 C :   -0.149705
  40 C :   -0.025360
  41 C :   -0.034961
  42 C :   -0.159524
  43 S :    0.372858
  44 C :   -0.204158
  45 C :   -0.022200
  46 C :   -0.044509
  47 C :   -0.116037
  48 S :    0.422701
  49 C :   -0.098625
  50 C :   -0.005472
  51 N :   -0.055389
  52 C :    0.025484
  53 C :   -0.057281
  54 N :   -0.040665
  55 N :   -0.078930
  56 C :   -0.232296
  57 S :    0.448693
  58 C :   -0.161094
  59 C :   -0.091083
  60 C :   -0.002711
  61 N :    0.098070
  62 N :   -0.047873
  63 C :   -0.041775
  64 C :   -0.037782
  65 C :   -0.041849
  66 H :    0.042365
  67 H :    0.041553
  68 H :    0.039798
  69 H :    0.047929
  70 H :    0.023965
  71 H :    0.027134
  72 H :    0.028044
  73 H :    0.024552
  74 H :    0.023153
  75 H :    0.023720
  76 H :    0.022981
  77 H :    0.025388
  78 H :    0.026244
  79 H :    0.022862
  80 H :    0.025507
  81 H :    0.024308
  82 H :    0.026626
  83 H :    0.021832
  84 H :    0.032038
  85 H :    0.033465
  86 H :    0.031834
  87 H :    0.027791
  88 H :    0.031427
  89 H :    0.035054
  90 H :    0.022960
  91 H :    0.084426
  92 H :    0.020719
  93 H :    0.037577
  94 H :    0.019133
  95 H :    0.028409

  Mayer bond orders larger than 0.100000
B(  0-C ,  1-C ) :   1.6618 B(  0-C ,  6-C ) :   1.0168 B(  0-C , 18-C ) :   1.0043
B(  1-C ,  2-C ) :   1.1341 B(  1-C ,  4-C ) :   1.1558 B(  2-C ,  3-N ) :   2.9740
B(  4-C ,  5-N ) :   2.9525 B(  6-C ,  7-C ) :   1.2643 B(  6-C , 11-C ) :   1.3985
B(  7-C ,  8-C ) :   1.4232 B(  7-C , 16-C ) :   0.9369 B(  8-C ,  9-C ) :   1.2523
B(  8-C , 66-H ) :   1.0155 B(  9-C , 10-C ) :   1.2941 B(  9-C , 14-C ) :   1.1639
B( 10-C , 11-C ) :   1.3422 B( 10-C , 12-S ) :   1.0865 B( 11-C , 67-H ) :   0.9787
B( 12-S , 13-C ) :   1.0856 B( 13-C , 14-C ) :   1.6186 B( 13-C , 15-Br) :   1.0225
B( 14-C , 68-H ) :   1.0001 B( 16-C , 17-O ) :   2.2291 B( 16-C , 18-C ) :   0.9165
B( 18-C , 19-C ) :   1.7707 B( 19-C , 20-C ) :   0.9539 B( 19-C , 69-H ) :   0.9245
B( 20-C , 21-C ) :   1.6288 B( 20-C , 24-C ) :   1.1795 B( 21-C , 22-S ) :   1.1196
B( 21-C , 70-H ) :   0.9643 B( 22-S , 23-C ) :   1.0813 B( 23-C , 24-C ) :   1.3739
B( 23-C , 35-C ) :   1.3737 B( 24-C , 25-C ) :   1.2648 B( 25-C , 26-C ) :   1.0698
B( 25-C , 28-C ) :   1.5192 B( 26-C , 27-C ) :   1.1160 B( 26-C , 71-H ) :   0.8920
B( 26-C , 72-H ) :   0.9080 B( 27-C , 73-H ) :   0.9586 B( 27-C , 74-H ) :   0.9646
B( 27-C , 75-H ) :   0.9587 B( 28-C , 29-C ) :   1.0613 B( 28-C , 31-C ) :   1.2480
B( 29-C , 30-C ) :   1.1103 B( 29-C , 76-H ) :   0.9252 B( 29-C , 77-H ) :   0.9105
B( 30-C , 78-H ) :   0.9637 B( 30-C , 79-H ) :   0.9656 B( 30-C , 80-H ) :   0.9574
B( 31-C , 32-C ) :   1.1451 B( 31-C , 35-C ) :   1.3715 B( 32-C , 33-C ) :   1.5905
B( 32-C , 36-C ) :   1.0212 B( 33-C , 34-S ) :   1.1250 B( 33-C , 81-H ) :   0.9622
B( 34-S , 35-C ) :   1.0821 B( 36-C , 37-C ) :   1.7011 B( 36-C , 82-H ) :   0.9696
B( 37-C , 38-C ) :   1.1254 B( 37-C , 83-H ) :   0.9740 B( 38-C , 39-C ) :   1.5870
B( 38-C , 84-H ) :   0.9843 B( 39-C , 40-C ) :   1.1293 B( 39-C , 43-S ) :   1.0217
B( 40-C , 41-C ) :   1.6002 B( 40-C , 85-H ) :   0.9999 B( 41-C , 42-C ) :   1.1775
B( 41-C , 86-H ) :   0.9930 B( 42-C , 43-S ) :   1.0567 B( 42-C , 44-C ) :   1.5304
B( 44-C , 45-C ) :   1.1838 B( 44-C , 48-S ) :   0.9720 B( 45-C , 46-C ) :   1.5892
B( 45-C , 87-H ) :   0.9939 B( 46-C , 47-C ) :   1.1417 B( 46-C , 88-H ) :   1.0004
B( 47-C , 48-S ) :   1.0850 B( 47-C , 49-C ) :   1.5156 B( 48-S , 55-N ) :   0.1147
B( 49-C , 50-C ) :   1.1705 B( 49-C , 89-H ) :   0.9760 B( 50-C , 51-N ) :   1.3987
B( 50-C , 55-N ) :   1.4000 B( 51-N , 52-C ) :   1.6901 B( 52-C , 53-C ) :   1.2056
B( 52-C , 90-H ) :   0.9771 B( 53-C , 54-N ) :   1.5368 B( 53-C , 56-C ) :   1.1198
B( 54-N , 55-N ) :   1.3701 B( 56-C , 57-S ) :   1.0983 B( 56-C , 58-C ) :   0.1193
B( 56-C , 60-C ) :   1.3987 B( 57-S , 58-C ) :   1.1404 B( 58-C , 59-C ) :   1.3538
B( 58-C , 64-C ) :   1.1528 B( 59-C , 60-C ) :   1.2339 B( 59-C , 63-C ) :   1.1390
B( 60-C , 61-N ) :   1.1872 B( 61-N , 62-N ) :   1.1252 B( 61-N , 91-H ) :   0.9356
B( 62-N , 63-C ) :   1.7513 B( 63-C , 92-H ) :   0.9986 B( 64-C , 65-C ) :   1.8972
B( 64-C , 93-H ) :   0.9636 B( 65-C , 94-H ) :   0.9568 B( 65-C , 95-H ) :   0.9510

-----------------------------------------------------------------------------
         ABSORPTION SPECTRUM VIA TRANSITION ELECTRIC DIPOLE MOMENTS
-----------------------------------------------------------------------------
State   Energy  Wavelength   fosc         T2         TX        TY        TZ
        (cm-1)    (nm)                  (au**2)     (au)      (au)      (au)
-----------------------------------------------------------------------------
   0   14197.4    704.4   1.035725179  24.01660   0.18791  -0.13949   4.89508
   1   17598.7    568.2   0.000767037   0.01435   0.01667  -0.07032   0.09553
   2   20686.0    483.4   0.085315627   1.35778   0.57740  -0.70489   0.72630
   3   21686.3    461.1   0.019744878   0.29974  -0.45246   0.12886  -0.28002
   4   23043.9    434.0   1.183926772  16.91395  -3.93943   1.17478  -0.12129
   5   23354.6    428.2   0.000674593   0.00951  -0.04040  -0.04341   0.07741
   6   23975.9    417.1   0.000064759   0.00089  -0.00285   0.02961   0.00201
   7   24396.1    409.9   0.000524410   0.00708  -0.01550   0.06978  -0.04435
   8   25206.1    396.7   0.389024115   5.08098   2.15679  -0.63057   0.17779
   9   26045.6    383.9   0.000990751   0.01252  -0.00454   0.00132   0.11181
  10   26499.5    377.4   0.012066596   0.14991  -0.07346  -0.37849  -0.03545
  11   26525.2    377.0   0.012458825   0.15463   0.20119  -0.05408  -0.33351
  12   27489.6    363.8   0.000207023   0.00248   0.01260   0.01371  -0.04618
  13   28527.1    350.5   0.420759986   4.85571   1.65752   0.74803   1.24450
  14   28741.6    347.9   0.144092650   1.65047   0.84558  -0.21897  -0.94208
  15   28786.9    347.4   0.033510279   0.38323  -0.47150   0.24578   0.31702
  16   29344.4    340.8   0.018313659   0.20546  -0.35157   0.04418   0.28267
  17   29816.3    335.4   0.002813709   0.03107   0.00943  -0.13642   0.11121
  18   30093.4    332.3   0.009626463   0.10531   0.31787  -0.03483  -0.05529
  19   30577.3    327.0   0.073991019   0.79663   0.60326   0.58779   0.29531
  20   30668.4    326.1   0.008064560   0.08657  -0.22259  -0.14407  -0.12754
  21   32106.6    311.5   0.070903760   0.72703  -0.00062  -0.40833   0.74853
  22   32263.9    309.9   0.011284686   0.11515  -0.26524   0.06181   0.20242
  23   33042.1    302.6   0.023557940   0.23472  -0.32199  -0.30073  -0.20150
  24   33635.0    297.3   0.184206273   1.80297  -0.59837   0.74840  -0.94065
  25   33744.7    296.3   0.000942644   0.00920   0.02542   0.09226  -0.00612
  26   34180.6    292.6   0.181311696   1.74631  -0.96566   0.21731  -0.87556
  27   34308.5    291.5   0.458843018   4.40289   1.20161   1.65901   0.45465
  28   34506.5    289.8   0.077505897   0.73945  -0.72573   0.12326  -0.44449
  29   34690.4    288.3   0.146843807   1.39355  -1.07905   0.46997   0.09129
  30   35715.4    280.0   0.103941659   0.95810   0.80970  -0.31532   0.45062
  31   35956.4    278.1   0.111687457   1.02260   0.78876  -0.11727  -0.62185
  32   35959.9    278.1   0.000334505   0.00306  -0.04265   0.00235   0.03518
  33   36261.2    275.8   0.141983328   1.28905   0.33547  -0.27514   1.04920
  34   36522.7    273.8   0.013894804   0.12525  -0.14363   0.02951  -0.32209
  35   36859.9    271.3   0.023225133   0.20743  -0.34460  -0.23401  -0.18418
  36   37337.8    267.8   0.055961553   0.49342  -0.69958   0.06139   0.01534
  37   37499.9    266.7   0.014677078   0.12885   0.00147  -0.06357  -0.35328
  38   37611.3    265.9   0.048186892   0.42178  -0.33598   0.16857   0.52961
  39   38191.7    261.8   0.018581117   0.16017  -0.13344   0.21048  -0.31315
  40   38737.8    258.1   0.037363705   0.31753   0.08819   0.26906  -0.48720
  41   39544.6    252.9   0.026470995   0.22037   0.16904   0.14857  -0.41198
  42   39929.6    250.4   0.304772335   2.51279  -1.10342   0.50344  -1.02068
  43   40096.8    249.4   0.056446814   0.46345  -0.23186   0.63962  -0.02412

FINAL SINGLE POINT ENERGY     -7379.123702566329

DIPOLE MOMENT
-------------
                                X             Y             Z
Electronic contribution:    137.99164     -40.02089     114.55847
Nuclear contribution   :   -137.19930      41.35858    -113.62885
                        -----------------------------------------
Total Dipole Moment    :      0.79234       1.33770       0.92962
                        -----------------------------------------
Magnitude (a.u.)       :      1.81147
Magnitude (Debye)      :      4.60440

Rotational constants in cm-1:     0.001517     0.000229     0.000209
Rotational constants in MHz :    45.466804     6.857850     6.277309

                             ****ORCA TERMINATED NORMALLY****
TOTAL RUN TIME: 0 days 0 hours 9 minutes 7 seconds 627 msec
