                         Program Version 4.2.0 -  RELEASE  -
|  1> # ORCA input file
|  2> # SCF done       -199.674296134866          0.000688061062
|  3> ! CAM-B3LYP def2-SVP def2/J RIJCOSX Grid4 TightSCF
|  4> %maxcore 5000
|  5> %tddft
|  6>     Mode sTDDFT
|  7>     Ethresh 5.0
|  8>     maxcore 5000
|  9> end
| 10>
| 11> %pal
| 12>   nprocs 6
| 13>   end
| 14> * xyz 0 1
| 15>    C       -0.19726         0.45854         9.87586
| 16>    C       -0.55822        -0.41074         8.92170
| 17>    C       -1.85033        -0.56718         8.31863
| 18>    C       -1.91401        -1.53288         7.37487
| 19>    C       -0.68923        -2.21942         7.15159
| 20>    S        0.56201        -1.57917         8.20308
| 21>    C       -0.45157        -3.23849         6.26165
| 22>    C       -1.36313        -3.83669         5.35687
| 23>    C       -0.81824        -4.82207         4.59732
| 24>    C        0.55481        -5.07507         4.85481
| 25>    S        1.12882        -3.98981         6.11070
| 26>    C        1.29907        -6.04542         4.23531
| 27>    C        2.65431        -6.35773         4.43046
| 28>    S        3.71039        -5.22422         5.24863
| 29>    C        5.09684        -6.11456         4.81406
| 30>    C        4.80117        -7.25771         4.11277
| 31>    C        3.39024        -7.45785         3.94257
| 32>    C        2.86355        -8.64224         3.37101
| 33>    S        3.88755        -9.91725         2.82496
| 34>    O        4.23090       -10.87573         4.23628
| 35>    C        3.21291       -11.69068         4.75110
| 36>    C        5.50169        -9.21760         2.85284
| 37>    C        5.79518        -8.08748         3.51628
| 38>    O        6.33054       -10.02486         2.13761
| 39>    C        7.68660        -9.64917         2.04194
| 40>    C        1.47849        -8.97110         3.33151
| 41>    C        0.88416        -9.91515         2.55496
| 42>    C       -0.51898       -10.15274         2.60704
| 43>    C       -1.16809       -11.15280         1.92019
| 44>    O       -2.55441       -11.28974         1.95700
| 45>    C       -3.19821       -10.51160         2.86287
| 46>    C       -2.51749        -9.50285         3.60157
| 47>    C       -3.33089        -8.83395         4.45518
| 48>    S       -4.94500        -9.43310         4.37504
| 49>    C       -4.51579       -10.59244         3.16967
| 50>    O       -1.19272        -9.25859         3.41855
| 51>    C       -0.53416       -12.19879         1.18927
| 52>    C       -1.26925       -13.22583         0.69441
| 53>    C       -0.83010       -14.42254         0.07677
| 54>    S        0.60617       -14.53849        -0.90715
| 55>    C        0.19983       -16.12566        -1.40861
| 56>    C       -0.96305       -16.57867        -0.84043
| 57>    C       -1.53475       -15.62777         0.06099
| 58>    C       -2.64373       -15.90990         0.90923
| 59>    S       -3.72145       -17.24611         0.57822
| 60>    O       -3.40205       -18.21624         1.89071
| 61>    C       -4.48816       -18.87436         2.52312
| 62>    C       -2.80080       -18.15676        -0.65146
| 63>    C       -1.59885       -17.82300        -1.14294
| 64>    O       -3.55323       -19.25925        -0.91968
| 65>    C       -3.04923       -20.19706        -1.84673
| 66>    C       -2.95696       -15.17182         2.04572
| 67>    C       -4.10652       -15.25961         2.80307
| 68>    C       -4.27586       -14.45237         3.91653
| 69>    C       -5.39207       -14.43526         4.73845
| 70>    C       -5.64530       -13.51078         5.80516
| 71>    C       -4.81814       -12.50348         6.25841
| 72>    C       -5.15460       -11.60682         7.28882
| 73>    N       -5.36496       -10.84594         8.12471
| 74>    C       -3.52055       -12.23240         5.79155
| 75>    N       -2.44642       -11.94681         5.49006
| 76>    C       -6.96259       -13.82622         6.35803
| 77>    C       -7.48049       -14.95189         5.67206
| 78>    C       -6.50794       -15.37423         4.63834
| 79>    O       -6.62833       -16.33538         3.89058
| 80>    C       -8.69687       -15.50783         5.97610
| 81>    C       -9.44538       -14.92096         7.00408
| 82>    C       -8.92387       -13.79411         7.67619
| 83>    C       -7.68821       -13.23296         7.37122
| 84>    S      -10.01066       -13.22550         8.90947
| 85>    C      -11.13374       -14.49716         8.50855
| 86>    C      -10.72052       -15.30476         7.50455
| 87>   Br      -12.74890       -14.64036         9.45500
| 88>    H       -0.91098         1.15123        10.28560
| 89>    H        0.80544         0.49182        10.26030
| 90>    H       -2.67543         0.05270         8.62220
| 91>    H       -2.80364        -1.78491         6.82484
| 92>    H       -2.39003        -3.52369         5.29655
| 93>    H       -1.35730        -5.39365         3.86159
| 94>    H        0.77865        -6.60357         3.47073
| 95>    H        6.06974        -5.75371         5.08280
| 96>    H        2.90992       -12.45744         4.03191
| 97>    H        2.33801       -11.09808         5.03618
| 98>    H        3.62556       -12.17080         5.63849
| 99>    H        6.81739        -7.74619         3.58744
|100>    H        7.79203        -8.66234         1.58051
|101>    H        8.15555       -10.40104         1.41055
|102>    H        8.16684        -9.64590         3.02475
|103>    H        0.84411        -8.44102         4.02503
|104>    H        1.46245       -10.49044         1.85031
|105>    H       -3.07934        -8.04202         5.12895
|106>    H       -5.24887       -11.26051         2.76818
|107>    H        0.54073       -12.20301         1.11524
|108>    H       -2.34277       -13.16361         0.81420
|109>    H        0.83132       -16.63944        -2.10568
|110>    H       -5.01887       -19.51822         1.81855
|111>    H       -5.18376       -18.16115         2.97121
|112>    H       -4.03949       -19.48318         3.30662
|113>    H       -1.09066       -18.47972        -1.83433
|114>    H       -2.89012       -19.73591        -2.82572
|115>    H       -3.81025       -20.97052        -1.92564
|116>    H       -2.11306       -20.63806        -1.49274
|117>    H       -2.19415       -14.49374         2.40341
|118>    H       -4.90895       -15.91871         2.50630
|119>    H       -3.47380       -13.76126         4.13909
|120>    H       -9.06441       -16.36903         5.44000
|121>    H       -7.33332       -12.37349         7.91472
|122>    H      -11.28849       -16.13736         7.13102
|123> *
|124>
|125>                          ****END OF INPUT****

CARTESIAN COORDINATES (ANGSTROEM)
---------------------------------
  C     -0.197260    0.458540    9.875860
  C     -0.558220   -0.410740    8.921700
  C     -1.850330   -0.567180    8.318630
  C     -1.914010   -1.532880    7.374870
  C     -0.689230   -2.219420    7.151590
  S      0.562010   -1.579170    8.203080
  C     -0.451570   -3.238490    6.261650
  C     -1.363130   -3.836690    5.356870
  C     -0.818240   -4.822070    4.597320
  C      0.554810   -5.075070    4.854810
  S      1.128820   -3.989810    6.110700
  C      1.299070   -6.045420    4.235310
  C      2.654310   -6.357730    4.430460
  S      3.710390   -5.224220    5.248630
  C      5.096840   -6.114560    4.814060
  C      4.801170   -7.257710    4.112770
  C      3.390240   -7.457850    3.942570
  C      2.863550   -8.642240    3.371010
  S      3.887550   -9.917250    2.824960
  O      4.230900  -10.875730    4.236280
  C      3.212910  -11.690680    4.751100
  C      5.501690   -9.217600    2.852840
  C      5.795180   -8.087480    3.516280
  O      6.330540  -10.024860    2.137610
  C      7.686600   -9.649170    2.041940
  C      1.478490   -8.971100    3.331510
  C      0.884160   -9.915150    2.554960
  C     -0.518980  -10.152740    2.607040
  C     -1.168090  -11.152800    1.920190
  O     -2.554410  -11.289740    1.957000
  C     -3.198210  -10.511600    2.862870
  C     -2.517490   -9.502850    3.601570
  C     -3.330890   -8.833950    4.455180
  S     -4.945000   -9.433100    4.375040
  C     -4.515790  -10.592440    3.169670
  O     -1.192720   -9.258590    3.418550
  C     -0.534160  -12.198790    1.189270
  C     -1.269250  -13.225830    0.694410
  C     -0.830100  -14.422540    0.076770
  S      0.606170  -14.538490   -0.907150
  C      0.199830  -16.125660   -1.408610
  C     -0.963050  -16.578670   -0.840430
  C     -1.534750  -15.627770    0.060990
  C     -2.643730  -15.909900    0.909230
  S     -3.721450  -17.246110    0.578220
  O     -3.402050  -18.216240    1.890710
  C     -4.488160  -18.874360    2.523120
  C     -2.800800  -18.156760   -0.651460
  C     -1.598850  -17.823000   -1.142940
  O     -3.553230  -19.259250   -0.919680
  C     -3.049230  -20.197060   -1.846730
  C     -2.956960  -15.171820    2.045720
  C     -4.106520  -15.259610    2.803070
  C     -4.275860  -14.452370    3.916530
  C     -5.392070  -14.435260    4.738450
  C     -5.645300  -13.510780    5.805160
  C     -4.818140  -12.503480    6.258410
  C     -5.154600  -11.606820    7.288820
  N     -5.364960  -10.845940    8.124710
  C     -3.520550  -12.232400    5.791550
  N     -2.446420  -11.946810    5.490060
  C     -6.962590  -13.826220    6.358030
  C     -7.480490  -14.951890    5.672060
  C     -6.507940  -15.374230    4.638340
  O     -6.628330  -16.335380    3.890580
  C     -8.696870  -15.507830    5.976100
  C     -9.445380  -14.920960    7.004080
  C     -8.923870  -13.794110    7.676190
  C     -7.688210  -13.232960    7.371220
  S    -10.010660  -13.225500    8.909470
  C    -11.133740  -14.497160    8.508550
  C    -10.720520  -15.304760    7.504550
  Br   -12.748900  -14.640360    9.455000
  H     -0.910980    1.151230   10.285600
  H      0.805440    0.491820   10.260300
  H     -2.675430    0.052700    8.622200
  H     -2.803640   -1.784910    6.824840
  H     -2.390030   -3.523690    5.296550
  H     -1.357300   -5.393650    3.861590
  H      0.778650   -6.603570    3.470730
  H      6.069740   -5.753710    5.082800
  H      2.909920  -12.457440    4.031910
  H      2.338010  -11.098080    5.036180
  H      3.625560  -12.170800    5.638490
  H      6.817390   -7.746190    3.587440
  H      7.792030   -8.662340    1.580510
  H      8.155550  -10.401040    1.410550
  H      8.166840   -9.645900    3.024750
  H      0.844110   -8.441020    4.025030
  H      1.462450  -10.490440    1.850310
  H     -3.079340   -8.042020    5.128950
  H     -5.248870  -11.260510    2.768180
  H      0.540730  -12.203010    1.115240
  H     -2.342770  -13.163610    0.814200
  H      0.831320  -16.639440   -2.105680
  H     -5.018870  -19.518220    1.818550
  H     -5.183760  -18.161150    2.971210
  H     -4.039490  -19.483180    3.306620
  H     -1.090660  -18.479720   -1.834330
  H     -2.890120  -19.735910   -2.825720
  H     -3.810250  -20.970520   -1.925640
  H     -2.113060  -20.638060   -1.492740
  H     -2.194150  -14.493740    2.403410
  H     -4.908950  -15.918710    2.506300
  H     -3.473800  -13.761260    4.139090
  H     -9.064410  -16.369030    5.440000
  H     -7.333320  -12.373490    7.914720
  H    -11.288490  -16.137360    7.131020

 Total Charge           Charge          ....    0
 Multiplicity           Mult            ....    1
 Number of Electrons    NEL             ....  598
 Basis Dimension        Dim             .... 1247

ORBITAL ENERGIES
----------------

  NO   OCC          E(Eh)            E(eV)
   0   2.0000    -482.870214    -13139.5665
   1   2.0000     -89.085454     -2424.1385
   2   2.0000     -89.048150     -2423.1234
   3   2.0000     -88.958828     -2420.6928
   4   2.0000     -88.955800     -2420.6104
   5   2.0000     -88.943760     -2420.2828
   6   2.0000     -88.936040     -2420.0727
   7   2.0000     -88.924520     -2419.7592
   8   2.0000     -88.918371     -2419.5919
   9   2.0000     -62.547923     -1702.0155
  10   2.0000     -56.381850     -1534.2281
  11   2.0000     -56.379180     -1534.1555
  12   2.0000     -56.379135     -1534.1543
  13   2.0000     -19.286143      -524.8026
  14   2.0000     -19.268083      -524.3112
  15   2.0000     -19.264001      -524.2001
  16   2.0000     -19.255753      -523.9757
  17   2.0000     -19.250944      -523.8448
  18   2.0000     -19.216838      -522.9168
  19   2.0000     -19.187010      -522.1051
  20   2.0000     -14.385575      -391.4514
  21   2.0000     -14.381999      -391.3541
  22   2.0000     -10.385553      -282.6053
  23   2.0000     -10.363019      -281.9921
  24   2.0000     -10.352556      -281.7074
  25   2.0000     -10.339705      -281.3577
  26   2.0000     -10.336801      -281.2787
  27   2.0000     -10.334790      -281.2239
  28   2.0000     -10.328470      -281.0520
  29   2.0000     -10.326572      -281.0003
  30   2.0000     -10.318493      -280.7805
  31   2.0000     -10.317089      -280.7423
  32   2.0000     -10.316793      -280.7342
  33   2.0000     -10.314640      -280.6756
  34   2.0000     -10.307261      -280.4748
  35   2.0000     -10.303264      -280.3661
  36   2.0000     -10.302874      -280.3555
  37   2.0000     -10.302761      -280.3524
  38   2.0000     -10.302508      -280.3455
  39   2.0000     -10.301628      -280.3216
  40   2.0000     -10.297434      -280.2074
  41   2.0000     -10.292906      -280.0842
  42   2.0000     -10.292642      -280.0770
  43   2.0000     -10.290805      -280.0270
  44   2.0000     -10.290695      -280.0240
  45   2.0000     -10.289802      -279.9998
  46   2.0000     -10.289261      -279.9850
  47   2.0000     -10.287887      -279.9476
  48   2.0000     -10.287695      -279.9424
  49   2.0000     -10.287495      -279.9370
  50   2.0000     -10.285496      -279.8826
  51   2.0000     -10.284633      -279.8591
  52   2.0000     -10.284139      -279.8456
  53   2.0000     -10.283679      -279.8331
  54   2.0000     -10.281539      -279.7749
  55   2.0000     -10.281256      -279.7672
  56   2.0000     -10.281187      -279.7653
  57   2.0000     -10.280055      -279.7345
  58   2.0000     -10.279372      -279.7159
  59   2.0000     -10.278703      -279.6977
  60   2.0000     -10.277549      -279.6663
  61   2.0000     -10.275449      -279.6092
  62   2.0000     -10.271480      -279.5012
  63   2.0000     -10.270910      -279.4857
  64   2.0000     -10.270795      -279.4826
  65   2.0000     -10.270785      -279.4823
  66   2.0000     -10.269893      -279.4580
  67   2.0000     -10.266467      -279.3648
  68   2.0000     -10.266101      -279.3548
  69   2.0000     -10.265383      -279.3353
  70   2.0000     -10.264846      -279.3207
  71   2.0000     -10.264454      -279.3100
  72   2.0000     -10.264420      -279.3091
  73   2.0000     -10.256060      -279.0816
  74   2.0000     -10.252491      -278.9845
  75   2.0000     -10.251989      -278.9708
  76   2.0000     -10.249942      -278.9151
  77   2.0000      -8.777336      -238.8435
  78   2.0000      -8.169092      -222.2923
  79   2.0000      -8.132001      -221.2830
  80   2.0000      -8.054472      -219.1733
  81   2.0000      -8.051814      -219.1010
  82   2.0000      -8.039177      -218.7571
  83   2.0000      -8.031105      -218.5375
  84   2.0000      -8.020657      -218.2532
  85   2.0000      -8.015099      -218.1019
  86   2.0000      -6.613543      -179.9637
  87   2.0000      -6.599096      -179.5705
  88   2.0000      -6.598956      -179.5667
  89   2.0000      -6.139809      -167.0727
  90   2.0000      -6.136090      -166.9715
  91   2.0000      -6.129949      -166.8044
  92   2.0000      -6.102018      -166.0444
  93   2.0000      -6.099273      -165.9697
  94   2.0000      -6.093419      -165.8104
  95   2.0000      -6.023697      -163.9131
  96   2.0000      -6.021519      -163.8539
  97   2.0000      -6.019508      -163.7992
  98   2.0000      -6.017247      -163.7376
  99   2.0000      -6.016809      -163.7257
 100   2.0000      -6.013017      -163.6225
 101   2.0000      -6.008396      -163.4968
 102   2.0000      -6.004098      -163.3798
 103   2.0000      -6.001600      -163.3118
 104   2.0000      -6.000681      -163.2868
 105   2.0000      -5.996436      -163.1713
 106   2.0000      -5.992837      -163.0734
 107   2.0000      -5.990475      -163.0091
 108   2.0000      -5.986393      -162.8980
 109   2.0000      -5.984962      -162.8591
 110   2.0000      -5.981432      -162.7631
 111   2.0000      -5.981044      -162.7525
 112   2.0000      -5.975562      -162.6033
 113   2.0000      -2.729404       -74.2708
 114   2.0000      -2.725348       -74.1605
 115   2.0000      -2.725304       -74.1593
 116   2.0000      -2.713789       -73.8460
 117   2.0000      -2.713772       -73.8455
 118   2.0000      -1.192611       -32.4526
 119   2.0000      -1.178601       -32.0714
 120   2.0000      -1.169236       -31.8165
 121   2.0000      -1.161844       -31.6154
 122   2.0000      -1.141375       -31.0584
 123   2.0000      -1.107500       -30.1366
 124   2.0000      -1.097620       -29.8677
 125   2.0000      -1.002690       -27.2846
 126   2.0000      -0.998771       -27.1779
 127   2.0000      -0.985314       -26.8117
 128   2.0000      -0.984739       -26.7961
 129   2.0000      -0.971506       -26.4360
 130   2.0000      -0.965815       -26.2812
 131   2.0000      -0.965058       -26.2606
 132   2.0000      -0.961114       -26.1532
 133   2.0000      -0.960769       -26.1439
 134   2.0000      -0.951247       -25.8848
 135   2.0000      -0.943943       -25.6860
 136   2.0000      -0.923171       -25.1208
 137   2.0000      -0.916462       -24.9382
 138   2.0000      -0.906337       -24.6627
 139   2.0000      -0.895034       -24.3551
 140   2.0000      -0.887519       -24.1506
 141   2.0000      -0.882845       -24.0234
 142   2.0000      -0.874779       -23.8040
 143   2.0000      -0.871255       -23.7081
 144   2.0000      -0.863276       -23.4909
 145   2.0000      -0.862082       -23.4584
 146   2.0000      -0.855091       -23.2682
 147   2.0000      -0.850400       -23.1406
 148   2.0000      -0.841045       -22.8860
 149   2.0000      -0.838495       -22.8166
 150   2.0000      -0.824778       -22.4433
 151   2.0000      -0.820191       -22.3185
 152   2.0000      -0.812071       -22.0976
 153   2.0000      -0.811308       -22.0768
 154   2.0000      -0.806458       -21.9448
 155   2.0000      -0.805417       -21.9165
 156   2.0000      -0.798922       -21.7398
 157   2.0000      -0.792632       -21.5686
 158   2.0000      -0.786251       -21.3950
 159   2.0000      -0.784431       -21.3455
 160   2.0000      -0.774046       -21.0629
 161   2.0000      -0.760080       -20.6828
 162   2.0000      -0.759099       -20.6561
 163   2.0000      -0.748433       -20.3659
 164   2.0000      -0.732568       -19.9342
 165   2.0000      -0.730597       -19.8806
 166   2.0000      -0.719827       -19.5875
 167   2.0000      -0.711005       -19.3474
 168   2.0000      -0.706058       -19.2128
 169   2.0000      -0.694185       -18.8897
 170   2.0000      -0.683765       -18.6062
 171   2.0000      -0.677437       -18.4340
 172   2.0000      -0.676497       -18.4084
 173   2.0000      -0.667543       -18.1648
 174   2.0000      -0.664698       -18.0874
 175   2.0000      -0.663522       -18.0553
 176   2.0000      -0.659817       -17.9545
 177   2.0000      -0.652272       -17.7492
 178   2.0000      -0.649168       -17.6648
 179   2.0000      -0.646366       -17.5885
 180   2.0000      -0.635141       -17.2831
 181   2.0000      -0.632322       -17.2063
 182   2.0000      -0.628428       -17.1004
 183   2.0000      -0.625903       -17.0317
 184   2.0000      -0.625052       -17.0085
 185   2.0000      -0.614779       -16.7290
 186   2.0000      -0.611242       -16.6327
 187   2.0000      -0.607781       -16.5386
 188   2.0000      -0.603849       -16.4316
 189   2.0000      -0.600275       -16.3343
 190   2.0000      -0.595398       -16.2016
 191   2.0000      -0.590998       -16.0819
 192   2.0000      -0.589885       -16.0516
 193   2.0000      -0.585480       -15.9317
 194   2.0000      -0.580487       -15.7959
 195   2.0000      -0.577246       -15.7077
 196   2.0000      -0.572967       -15.5912
 197   2.0000      -0.571061       -15.5394
 198   2.0000      -0.567266       -15.4361
 199   2.0000      -0.565528       -15.3888
 200   2.0000      -0.560841       -15.2613
 201   2.0000      -0.557086       -15.1591
 202   2.0000      -0.554478       -15.0881
 203   2.0000      -0.551926       -15.0187
 204   2.0000      -0.547994       -14.9117
 205   2.0000      -0.546866       -14.8810
 206   2.0000      -0.545129       -14.8337
 207   2.0000      -0.540012       -14.6945
 208   2.0000      -0.532817       -14.4987
 209   2.0000      -0.532029       -14.4772
 210   2.0000      -0.527129       -14.3439
 211   2.0000      -0.524860       -14.2822
 212   2.0000      -0.523153       -14.2357
 213   2.0000      -0.519457       -14.1351
 214   2.0000      -0.514716       -14.0061
 215   2.0000      -0.512537       -13.9469
 216   2.0000      -0.508719       -13.8429
 217   2.0000      -0.506409       -13.7801
 218   2.0000      -0.504806       -13.7365
 219   2.0000      -0.503975       -13.7139
 220   2.0000      -0.497604       -13.5405
 221   2.0000      -0.494335       -13.4516
 222   2.0000      -0.491433       -13.3726
 223   2.0000      -0.490135       -13.3373
 224   2.0000      -0.487232       -13.2583
 225   2.0000      -0.486537       -13.2394
 226   2.0000      -0.485300       -13.2057
 227   2.0000      -0.484865       -13.1938
 228   2.0000      -0.481147       -13.0927
 229   2.0000      -0.480093       -13.0640
 230   2.0000      -0.477688       -12.9986
 231   2.0000      -0.473709       -12.8903
 232   2.0000      -0.472926       -12.8690
 233   2.0000      -0.472785       -12.8651
 234   2.0000      -0.469737       -12.7822
 235   2.0000      -0.468972       -12.7614
 236   2.0000      -0.468277       -12.7425
 237   2.0000      -0.465214       -12.6591
 238   2.0000      -0.462254       -12.5786
 239   2.0000      -0.461364       -12.5544
 240   2.0000      -0.458368       -12.4728
 241   2.0000      -0.456092       -12.4109
 242   2.0000      -0.452603       -12.3159
 243   2.0000      -0.450062       -12.2468
 244   2.0000      -0.446843       -12.1592
 245   2.0000      -0.445288       -12.1169
 246   2.0000      -0.444339       -12.0911
 247   2.0000      -0.442248       -12.0342
 248   2.0000      -0.440884       -11.9971
 249   2.0000      -0.439916       -11.9707
 250   2.0000      -0.435171       -11.8416
 251   2.0000      -0.434773       -11.8308
 252   2.0000      -0.431299       -11.7362
 253   2.0000      -0.427716       -11.6388
 254   2.0000      -0.424983       -11.5644
 255   2.0000      -0.423715       -11.5299
 256   2.0000      -0.421416       -11.4673
 257   2.0000      -0.420256       -11.4358
 258   2.0000      -0.417057       -11.3487
 259   2.0000      -0.414655       -11.2833
 260   2.0000      -0.412845       -11.2341
 261   2.0000      -0.410721       -11.1763
 262   2.0000      -0.407050       -11.0764
 263   2.0000      -0.402713       -10.9584
 264   2.0000      -0.401450       -10.9240
 265   2.0000      -0.397862       -10.8264
 266   2.0000      -0.395446       -10.7606
 267   2.0000      -0.393934       -10.7195
 268   2.0000      -0.393678       -10.7125
 269   2.0000      -0.390291       -10.6204
 270   2.0000      -0.384147       -10.4532
 271   2.0000      -0.383195       -10.4273
 272   2.0000      -0.381262       -10.3747
 273   2.0000      -0.379831       -10.3357
 274   2.0000      -0.377693       -10.2776
 275   2.0000      -0.372096       -10.1252
 276   2.0000      -0.367488        -9.9999
 277   2.0000      -0.365266        -9.9394
 278   2.0000      -0.360076        -9.7982
 279   2.0000      -0.357283        -9.7222
 280   2.0000      -0.356288        -9.6951
 281   2.0000      -0.340668        -9.2701
 282   2.0000      -0.337581        -9.1861
 283   2.0000      -0.331389        -9.0176
 284   2.0000      -0.318587        -8.6692
 285   2.0000      -0.317815        -8.6482
 286   2.0000      -0.309249        -8.4151
 287   2.0000      -0.305797        -8.3212
 288   2.0000      -0.295091        -8.0298
 289   2.0000      -0.293913        -7.9978
 290   2.0000      -0.289870        -7.8878
 291   2.0000      -0.281740        -7.6665
 292   2.0000      -0.273520        -7.4429
 293   2.0000      -0.271353        -7.3839
 294   2.0000      -0.266706        -7.2574
 295   2.0000      -0.248199        -6.7538
 296   2.0000      -0.228229        -6.2104
 297   2.0000      -0.209718        -5.7067
 298   2.0000      -0.183791        -5.0012
 299   0.0000      -0.062892        -1.7114
 300   0.0000      -0.050245        -1.3672
 301   0.0000      -0.041182        -1.1206
 302   0.0000      -0.036277        -0.9872
 303   0.0000      -0.017541        -0.4773

MULLIKEN ATOMIC CHARGES
-----------------------
   0 C :   -0.038708
   1 C :   -0.058553
   2 C :    0.043542
   3 C :    0.032376
   4 C :   -0.073883
   5 S :    0.068785
   6 C :   -0.036421
   7 C :    0.020826
   8 C :    0.030370
   9 C :   -0.053776
  10 S :    0.058519
  11 C :   -0.027866
  12 C :   -0.185193
  13 S :    0.126597
  14 C :   -0.111565
  15 C :    0.050494
  16 C :    0.249853
  17 C :   -0.199137
  18 S :    0.465166
  19 O :   -0.485680
  20 C :    0.172100
  21 C :    0.087180
  22 C :    0.000578
  23 O :   -0.313448
  24 C :    0.171340
  25 C :   -0.018792
  26 C :   -0.118656
  27 C :    0.203405
  28 C :    0.150423
  29 O :   -0.278055
  30 C :    0.242886
  31 C :    0.256421
  32 C :   -0.189119
  33 S :    0.110619
  34 C :   -0.207793
  35 O :   -0.264215
  36 C :   -0.061063
  37 C :   -0.057158
  38 C :   -0.146127
  39 S :    0.139848
  40 C :   -0.133156
  41 C :    0.053253
  42 C :    0.200702
  43 C :   -0.164021
  44 S :    0.521620
  45 O :   -0.454302
  46 C :    0.156913
  47 C :    0.086816
  48 C :    0.014673
  49 O :   -0.321462
  50 C :    0.167785
  51 C :    0.010563
  52 C :   -0.048776
  53 C :   -0.031060
  54 C :   -0.104285
  55 C :    0.339972
  56 C :   -0.401795
  57 C :   -0.195207
  58 N :    0.132308
  59 C :   -0.167548
  60 N :    0.122520
  61 C :    0.006834
  62 C :   -0.001273
  63 C :    0.136899
  64 O :   -0.198499
  65 C :   -0.087018
  66 C :    0.117180
  67 C :   -0.090052
  68 C :   -0.029143
  69 S :    0.173569
  70 C :   -0.124644
  71 C :    0.035197
  72 Br:    0.005224
  73 H :    0.013379
  74 H :    0.015095
  75 H :   -0.017743
  76 H :   -0.015249
  77 H :   -0.020239
  78 H :   -0.010150
  79 H :    0.005579
  80 H :    0.013032
  81 H :    0.008925
  82 H :    0.041874
  83 H :    0.037703
  84 H :   -0.017667
  85 H :    0.028068
  86 H :    0.045822
  87 H :    0.033309
  88 H :    0.034918
  89 H :   -0.013756
  90 H :    0.023974
  91 H :    0.019345
  92 H :   -0.019376
  93 H :    0.041574
  94 H :    0.016180
  95 H :    0.024743
  96 H :    0.061234
  97 H :    0.051138
  98 H :   -0.009590
  99 H :    0.034069
 100 H :    0.053254
 101 H :    0.036091
 102 H :    0.046455
 103 H :    0.003702
 104 H :   -0.002292
 105 H :   -0.024804
 106 H :   -0.012760
 107 H :   -0.011748
Sum of atomic charges:   -0.0000000

LOEWDIN ATOMIC CHARGES
----------------------
   0 C :   -0.091277
   1 C :   -0.137569
   2 C :   -0.040797
   3 C :   -0.025416
   4 C :   -0.186431
   5 S :    0.341846
   6 C :   -0.175553
   7 C :   -0.047499
   8 C :   -0.029834
   9 C :   -0.167099
  10 S :    0.353141
  11 C :   -0.072091
  12 C :   -0.198261
  13 S :    0.453602
  14 C :   -0.188684
  15 C :   -0.073130
  16 C :   -0.045739
  17 C :   -0.290738
  18 S :    0.882652
  19 O :   -0.354362
  20 C :    0.042455
  21 C :   -0.104741
  22 C :   -0.059630
  23 O :   -0.116332
  24 C :    0.081815
  25 C :   -0.021492
  26 C :   -0.101560
  27 C :    0.046187
  28 C :    0.005235
  29 O :   -0.060794
  30 C :   -0.003953
  31 C :   -0.002255
  32 C :   -0.208894
  33 S :    0.441675
  34 C :   -0.221633
  35 O :   -0.048741
  36 C :   -0.040575
  37 C :   -0.063977
  38 C :   -0.179677
  39 S :    0.446182
  40 C :   -0.184253
  41 C :   -0.076255
  42 C :   -0.065006
  43 C :   -0.272752
  44 S :    0.929579
  45 O :   -0.300013
  46 C :    0.053938
  47 C :   -0.106156
  48 C :   -0.051392
  49 O :   -0.120252
  50 C :    0.084048
  51 C :    0.033298
  52 C :   -0.105498
  53 C :    0.063714
  54 C :   -0.145606
  55 C :    0.073158
  56 C :   -0.172392
  57 C :   -0.021803
  58 N :   -0.083123
  59 C :   -0.014273
  60 N :   -0.082518
  61 C :   -0.016081
  62 C :   -0.047978
  63 C :    0.083311
  64 O :   -0.194350
  65 C :    0.010796
  66 C :   -0.040087
  67 C :   -0.147854
  68 C :   -0.015835
  69 S :    0.422731
  70 C :   -0.278087
  71 C :   -0.072256
  72 Br:    0.122597
  73 H :    0.025592
  74 H :    0.023232
  75 H :    0.030722
  76 H :    0.031079
  77 H :    0.029007
  78 H :    0.033492
  79 H :    0.042356
  80 H :    0.021399
  81 H :    0.005502
  82 H :    0.016161
  83 H :    0.029577
  84 H :    0.040447
  85 H :    0.017995
  86 H :    0.032916
  87 H :    0.019733
  88 H :    0.039736
  89 H :    0.014067
  90 H :    0.028485
  91 H :    0.025280
  92 H :    0.026055
  93 H :    0.039108
  94 H :    0.022069
  95 H :    0.012337
  96 H :    0.022851
  97 H :    0.036671
  98 H :    0.044149
  99 H :    0.020556
 100 H :    0.036021
 101 H :    0.021338
 102 H :    0.052048
 103 H :    0.011521
 104 H :    0.039213
 105 H :    0.035023
 106 H :    0.039418
 107 H :    0.035438

  Mayer bond orders larger than 0.100000
B(  0-C ,  1-C ) :   1.8602 B(  0-C , 73-H ) :   0.9501 B(  0-C , 74-H ) :   0.9412
B(  1-C ,  2-C ) :   1.0838 B(  1-C ,  5-S ) :   1.0095 B(  2-C ,  3-C ) :   1.6538
B(  2-C , 75-H ) :   0.9926 B(  3-C ,  4-C ) :   1.1591 B(  3-C , 76-H ) :   0.9911
B(  4-C ,  5-S ) :   1.0337 B(  4-C ,  6-C ) :   1.5600 B(  6-C ,  7-C ) :   1.1691
B(  6-C , 10-S ) :   1.0345 B(  7-C ,  8-C ) :   1.6009 B(  7-C , 77-H ) :   0.9918
B(  8-C ,  9-C ) :   1.1419 B(  8-C , 78-H ) :   0.9993 B(  9-C , 10-S ) :   1.0218
B(  9-C , 11-C ) :   1.5887 B( 11-C , 12-C ) :   1.1789 B( 11-C , 79-H ) :   0.9577
B( 12-C , 13-S ) :   1.0947 B( 12-C , 16-C ) :   1.3807 B( 13-S , 14-C ) :   1.1887
B( 14-C , 15-C ) :   1.4668 B( 14-C , 80-H ) :   0.9698 B( 15-C , 16-C ) :   1.1813
B( 15-C , 22-C ) :   1.1068 B( 16-C , 17-C ) :   1.2081 B( 17-C , 18-S ) :   1.1886
B( 17-C , 25-C ) :   1.1233 B( 18-S , 19-O ) :   0.7363 B( 18-S , 21-C ) :   1.0311
B( 19-O , 20-C ) :   0.9592 B( 20-C , 81-H ) :   0.9732 B( 20-C , 82-H ) :   0.9717
B( 20-C , 83-H ) :   0.9748 B( 21-C , 22-C ) :   1.5999 B( 21-C , 23-O ) :   1.1178
B( 22-C , 84-H ) :   0.9785 B( 23-O , 24-C ) :   0.9545 B( 24-C , 85-H ) :   0.9687
B( 24-C , 86-H ) :   0.9787 B( 24-C , 87-H ) :   0.9698 B( 25-C , 26-C ) :   1.6406
B( 25-C , 88-H ) :   0.9634 B( 26-C , 27-C ) :   1.1989 B( 26-C , 89-H ) :   0.9486
B( 27-C , 28-C ) :   1.4473 B( 27-C , 35-O ) :   1.0611 B( 28-C , 29-O ) :   1.0235
B( 28-C , 36-C ) :   1.1946 B( 29-O , 30-C ) :   1.0548 B( 30-C , 31-C ) :   1.2036
B( 30-C , 34-C ) :   1.5597 B( 31-C , 32-C ) :   1.5602 B( 31-C , 35-O ) :   1.0426
B( 32-C , 33-S ) :   1.1423 B( 32-C , 90-H ) :   0.9750 B( 33-S , 34-C ) :   1.1309
B( 34-C , 91-H ) :   0.9751 B( 36-C , 37-C ) :   1.6651 B( 36-C , 92-H ) :   0.9618
B( 37-C , 38-C ) :   1.1008 B( 37-C , 93-H ) :   0.9557 B( 38-C , 39-S ) :   1.1078
B( 38-C , 42-C ) :   1.4477 B( 39-S , 40-C ) :   1.1758 B( 40-C , 41-C ) :   1.4922
B( 40-C , 94-H ) :   0.9693 B( 41-C , 42-C ) :   1.1887 B( 41-C , 48-C ) :   1.0801
B( 42-C , 43-C ) :   1.1375 B( 43-C , 44-S ) :   1.0524 B( 43-C , 51-C ) :   1.3494
B( 44-S , 45-O ) :   0.8948 B( 44-S , 47-C ) :   0.9657 B( 45-O , 46-C ) :   0.8996
B( 46-C , 95-H ) :   0.9759 B( 46-C , 96-H ) :   0.9645 B( 46-C , 97-H ) :   0.9751
B( 47-C , 48-C ) :   1.6375 B( 47-C , 49-O ) :   1.1119 B( 48-C , 98-H ) :   0.9737
B( 49-O , 50-C ) :   0.9455 B( 50-C , 99-H ) :   0.9696 B( 50-C ,100-H ) :   0.9785
B( 50-C ,101-H ) :   0.9708 B( 51-C , 52-C ) :   1.3489 B( 51-C ,102-H ) :   0.9785
B( 52-C , 53-C ) :   1.3707 B( 52-C ,103-H ) :   0.9565 B( 53-C , 54-C ) :   1.3339
B( 53-C ,104-H ) :   0.9650 B( 54-C , 55-C ) :   1.1411 B( 54-C , 63-C ) :   1.0101
B( 55-C , 56-C ) :   1.5604 B( 55-C , 61-C ) :   0.9777 B( 56-C , 57-C ) :   1.1577
B( 56-C , 59-C ) :   1.1733 B( 57-C , 58-N ) :   2.9609 B( 59-C , 60-N ) :   2.8969
B( 61-C , 62-C ) :   1.2825 B( 61-C , 68-C ) :   1.4293 B( 62-C , 63-C ) :   0.9360
B( 62-C , 65-C ) :   1.4301 B( 63-C , 64-O ) :   2.1120 B( 65-C , 66-C ) :   1.2331
B( 65-C ,105-H ) :   1.0170 B( 66-C , 67-C ) :   1.3291 B( 66-C , 71-C ) :   1.1558
B( 67-C , 68-C ) :   1.3078 B( 67-C , 69-S ) :   1.0788 B( 68-C ,106-H ) :   0.9811
B( 69-S , 70-C ) :   1.0860 B( 70-C , 71-C ) :   1.6221 B( 70-C , 72-Br) :   1.0075
B( 71-C ,107-H ) :   1.0008

-----------------------------------------------------------------------------
         ABSORPTION SPECTRUM VIA TRANSITION ELECTRIC DIPOLE MOMENTS
-----------------------------------------------------------------------------
State   Energy  Wavelength   fosc         T2         TX        TY        TZ
        (cm-1)    (nm)                  (au**2)     (au)      (au)      (au)
-----------------------------------------------------------------------------
   0   13740.8    727.8   0.194372148   4.65690  -1.49289  -1.41939   0.64303
   1   15383.6    650.0   1.257101209  26.90219   1.69119  -4.14719  -2.61589
   2   17461.3    572.7   0.445933733   8.40753   1.69748   1.88301   1.40725
   3   17913.1    558.2   0.464438476   8.53557   1.96243  -0.89269  -1.97169
   4   20296.6    492.7   0.078919229   1.28007  -0.15308  -0.59276  -0.95146
   5   20896.7    478.5   0.126306984   1.98988  -0.05741  -1.12766  -0.84556
   6   21607.8    462.8   0.202024025   3.07800   0.58438  -1.32912  -0.98486
   7   22247.2    449.5   0.114835737   1.69933   0.91747   0.03212  -0.92549
   8   23158.3    431.8   0.024849235   0.35325  -0.24572  -0.50130  -0.20389
   9   23875.8    418.8   0.132668670   1.82930   1.05800   0.83955   0.07126
  10   25622.0    390.3   0.048658106   0.62520   0.31141   0.11038  -0.71836
  11   26283.7    380.5   0.107092908   1.34137   0.82128   0.50216   0.64398
  12   26816.9    372.9   0.040652544   0.49906   0.56090   0.17054  -0.39416
  13   27528.4    363.3   0.007592375   0.09080   0.09754   0.21737  -0.18448
  14   27835.8    359.2   0.015287358   0.18080  -0.02663   0.24812  -0.34428
  15   28548.4    350.3   0.023635353   0.27256  -0.28678   0.25186   0.35620
  16   28774.8    347.5   0.071650703   0.81975  -0.54447  -0.71293  -0.12263
  17   29145.8    343.1   0.043499459   0.49134   0.43391   0.52381  -0.16938
  18   29186.3    342.6   0.015491630   0.17474  -0.00132   0.37684   0.18092
  19   30097.9    332.2   0.142970022   1.56381  -0.57367   0.70082   0.86231
  20   30279.6    330.3   0.199320050   2.16709   1.38913  -0.07341  -0.48168
  21   30775.1    324.9   0.130870849   1.39997  -0.52712   0.96464   0.43770
  22   31087.6    321.7   0.028237172   0.29903   0.13200   0.32909   0.41630
  23   31250.8    320.0   0.272943156   2.87532   1.29015  -0.25778  -1.06976
  24   31279.0    319.7   0.167774101   1.76583   1.20160   0.17867  -0.53858
  25   31711.9    315.3   0.009994444   0.10376   0.28136   0.14791   0.05211
  26   31792.4    314.5   0.007635902   0.07907   0.25748  -0.09704   0.05794
  27   32073.3    311.8   0.114797222   1.17832  -0.06207   0.53737   0.94112
  28   32333.0    309.3   0.005733706   0.05838  -0.19429   0.00955   0.14332
  29   32506.8    307.6   0.048032944   0.48645   0.33351   0.38565   0.47592
  30   32851.9    304.4   0.412807297   4.13678  -1.67692  -1.14590   0.10790
  31   33143.0    301.7   0.016896930   0.16784   0.38379   0.11182   0.08967
  32   33631.7    297.3   0.003596221   0.03520  -0.03713   0.18025  -0.03650
  33   34060.2    293.6   0.043124729   0.41683  -0.48040  -0.42895   0.04520
  34   34182.4    292.5   0.042801103   0.41222   0.56164   0.30913  -0.03491
  35   34467.3    290.1   0.042745999   0.40829  -0.52943   0.32121  -0.15752
  36   34731.6    287.9   0.048691540   0.46154  -0.21633   0.49856   0.40764
  37   34786.5    287.5   0.145568754   1.37763   0.34630   1.06986   0.33633
  38   35067.5    285.2   0.238426444   2.23833  -1.33882  -0.66761  -0.01425
  39   35182.0    284.2   0.197532589   1.84839  -0.96152   0.16810   0.94637
  40   35391.2    282.6   0.108997250   1.01390  -0.87807  -0.48164  -0.10446
  41   35640.0    280.6   0.152227029   1.40615  -0.72120  -0.80080  -0.49470
  42   36102.8    277.0   0.004037077   0.03681  -0.16270   0.09358  -0.03980
  43   36210.9    276.2   0.078375878   0.71256   0.47604  -0.59237  -0.36748
  44   36722.3    272.3   0.018682260   0.16748  -0.19798  -0.35499  -0.04768
  45   36816.4    271.6   0.015749409   0.14083  -0.17742   0.02709  -0.32957
  46   37084.0    269.7   0.006120152   0.05433  -0.13140  -0.17876  -0.07149
  47   37235.3    268.6   0.092124086   0.81451   0.70790   0.51102   0.22857
  48   37434.7    267.1   0.004142660   0.03643   0.14580  -0.09274  -0.08108
  49   37612.6    265.9   0.026444899   0.23146   0.43533  -0.20259   0.03014
  50   37775.9    264.7   0.035226997   0.30700  -0.28125   0.10754   0.46511
  51   38233.9    261.5   0.084539491   0.72792   0.67657   0.51050  -0.09785
  52   38364.8    260.7   0.136012040   1.16713  -0.51020   0.35940   0.88185
  53   38434.0    260.2   0.037133606   0.31807  -0.30245  -0.36057   0.31078
  54   38643.2    258.8   0.118815763   1.01222  -0.37500   0.64566   0.67433
  55   39051.1    256.1   0.022652543   0.19097  -0.07756  -0.30431   0.30389
  56   39309.2    254.4   0.120621052   1.01019  -0.47009   0.60579   0.64979
  57   39370.1    254.0   0.201773475   1.68723   0.03368  -1.10597  -0.68039
  58   39507.6    253.1   0.102890451   0.85737   0.67901  -0.31994  -0.54217
  59   39784.2    251.4   0.130644428   1.08107   0.41923   0.89669   0.31824
  60   39984.3    250.1   0.014294969   0.11770  -0.26361  -0.04434   0.21504
  61   40093.4    249.4   0.053913579   0.44269   0.25065   0.57578   0.21988

FINAL SINGLE POINT ENERGY     -8507.680839098162

DIPOLE MOMENT
-------------
                                X             Y             Z
Electronic contribution:   -143.91423     -26.55160      73.44419
Nuclear contribution   :    145.98494      22.25554     -77.97139
                        -----------------------------------------
Total Dipole Moment    :      2.07071      -4.29606      -4.52719
                        -----------------------------------------
Magnitude (a.u.)       :      6.57567
Magnitude (Debye)      :     16.71402

Rotational constants in cm-1:     0.000644     0.000377     0.000250
Rotational constants in MHz :    19.298588    11.314142     7.480046

                             ****ORCA TERMINATED NORMALLY****
TOTAL RUN TIME: 0 days 0 hours 12 minutes 7 seconds 567 msec
