                         Program Version 4.2.0 -  RELEASE  -
|  1> # ORCA input file
|  2> # SCF done       -184.263081611785          0.000400141124
|  3> ! CAM-B3LYP def2-SVP def2/J RIJCOSX Grid4 TightSCF
|  4> %maxcore 5000
|  5> %tddft
|  6>     Mode sTDDFT
|  7>     Ethresh 5.0
|  8>     maxcore 5000
|  9> end
| 10>
| 11> %pal
| 12>   nprocs 6
| 13>   end
| 14> * xyz 0 1
| 15>    C       -5.45293        -0.49715        -0.24683
| 16>    C       -4.19875        -0.65530         0.33668
| 17>    C       -3.61798        -1.96281         0.52338
| 18>    N       -2.37665        -2.09046         1.03269
| 19>    C       -1.74681        -1.01412         1.41752
| 20>    C       -2.34888         0.28997         1.28577
| 21>    N       -3.52237         0.44142         0.73883
| 22>    C       -1.63611         1.43037         1.73947
| 23>    N       -1.02814         2.32400         2.11734
| 24>    C       -0.44356        -1.13941         1.96246
| 25>    N        0.60824        -1.21420         2.40935
| 26>    C       -4.31474        -3.12354         0.16007
| 27>    C       -5.58038        -2.96201        -0.40173
| 28>    C       -6.14162        -1.64220        -0.61870
| 29>    N       -7.35940        -1.71835        -1.17726
| 30>    S       -7.73635        -3.25194        -1.38647
| 31>    N       -6.42254        -3.93101        -0.78446
| 32>    C       -3.71111        -4.43802         0.34149
| 33>    C       -3.24770        -4.89992         1.57811
| 34>    C       -3.46035        -4.16525         2.83913
| 35>    O       -4.09975        -3.16894         3.01812
| 36>    S       -2.64865        -5.04794         4.16387
| 37>    C       -2.15016        -6.40733         3.09385
| 38>    O       -1.55351        -7.35652         3.51165
| 39>    C       -2.59922        -6.13000         1.71999
| 40>    C       -2.38169        -7.00643         0.63196
| 41>    C       -2.92498        -6.56445        -0.58811
| 42>    C       -3.54333        -5.32153        -0.72284
| 43>    C       -3.93378        -5.16588        -2.14211
| 44>    O       -4.38253        -4.22415        -2.72159
| 45>    O       -3.65657        -6.35503        -2.76215
| 46>    C       -3.07239        -7.25246        -1.89290
| 47>    O       -2.81982        -8.37024        -2.22064
| 48>    C       -1.66401        -8.24125         0.79013
| 49>    C       -0.84588        -8.77406        -0.14282
| 50>    C       -0.12973        -9.98323         0.05545
| 51>    O       -0.31044       -10.74171         1.17452
| 52>    C        0.80580       -10.60768        -0.74681
| 53>    C        1.55618       -10.51033        -2.00851
| 54>    O        1.55965        -9.66839        -2.86532
| 55>    N        2.33594       -11.66526        -2.01150
| 56>    C        2.18843       -12.49016        -0.89581
| 57>    O        2.77706       -13.52551        -0.71154
| 58>    C        1.19679       -11.79066        -0.08344
| 59>    C        0.48519       -11.84202         1.10805
| 60>    C        0.51921       -12.81835         2.12189
| 61>    C       -0.22514       -12.76074         3.26572
| 62>    C       -0.21067       -13.72250         4.28239
| 63>    S       -1.23955       -13.54398         5.69059
| 64>    C       -0.71466       -15.03461         6.44209
| 65>    C        0.24453       -15.64660         5.61390
| 66>    C        0.51284       -14.91340         4.42640
| 67>    N        1.44258       -15.62224         3.74637
| 68>    N        1.78212       -16.73804         4.40619
| 69>    C        1.08746       -16.77898         5.51617
| 70>    C       -1.25980       -15.42402         7.66407
| 71>    C       -0.93462       -16.58053         8.33831
| 72>    C       -1.51744       -16.93537         9.55144
| 73>    C       -1.23405       -18.08682        10.26211
| 74>    C       -0.32800       -19.12960         9.96162
| 75>    C       -0.30010       -20.13026        10.88623
| 76>    C       -1.18493       -19.93552        11.97123
| 77>    S       -2.05195       -18.42776        11.77309
| 78>    C       -1.38979       -20.76587        13.05413
| 79>    C       -0.74714       -22.00753        13.31701
| 80>    C       -1.14967       -22.61078        14.45822
| 81>    C       -2.14898       -21.88597        15.18857
| 82>    S       -2.53206       -20.38970        14.32079
| 83>    C       -2.73610       -22.23138        16.34304
| 84>    H       -5.86834         0.48680        -0.38572
| 85>    H       -1.73168        -8.72121         1.75619
| 86>    H       -0.65707        -8.29137        -1.08920
| 87>    H        2.96999       -11.88497        -2.76650
| 88>    H        1.19129       -13.63817         1.92501
| 89>    H       -0.88159       -11.91329         3.40828
| 90>    H        1.88388       -15.42112         2.86394
| 91>    H        1.21577       -17.60039         6.19057
| 92>    H       -1.99552       -14.76089         8.09970
| 93>    H       -0.20084       -17.23962         7.90228
| 94>    H       -2.25339       -16.26355         9.97301
| 95>    H        0.28070       -19.11991         9.07581
| 96>    H        0.33023       -20.99820        10.81413
| 97>    H       -0.00722       -22.40902        12.64807
| 98>    H       -0.77819       -23.55216        14.82178
| 99>    H       -2.47398       -23.14938        16.83886
|100>    H       -3.47842       -21.60925        16.80873
|101> *
|102>
|103>                          ****END OF INPUT****

CARTESIAN COORDINATES (ANGSTROEM)
---------------------------------
  C     -5.452930   -0.497150   -0.246830
  C     -4.198750   -0.655300    0.336680
  C     -3.617980   -1.962810    0.523380
  N     -2.376650   -2.090460    1.032690
  C     -1.746810   -1.014120    1.417520
  C     -2.348880    0.289970    1.285770
  N     -3.522370    0.441420    0.738830
  C     -1.636110    1.430370    1.739470
  N     -1.028140    2.324000    2.117340
  C     -0.443560   -1.139410    1.962460
  N      0.608240   -1.214200    2.409350
  C     -4.314740   -3.123540    0.160070
  C     -5.580380   -2.962010   -0.401730
  C     -6.141620   -1.642200   -0.618700
  N     -7.359400   -1.718350   -1.177260
  S     -7.736350   -3.251940   -1.386470
  N     -6.422540   -3.931010   -0.784460
  C     -3.711110   -4.438020    0.341490
  C     -3.247700   -4.899920    1.578110
  C     -3.460350   -4.165250    2.839130
  O     -4.099750   -3.168940    3.018120
  S     -2.648650   -5.047940    4.163870
  C     -2.150160   -6.407330    3.093850
  O     -1.553510   -7.356520    3.511650
  C     -2.599220   -6.130000    1.719990
  C     -2.381690   -7.006430    0.631960
  C     -2.924980   -6.564450   -0.588110
  C     -3.543330   -5.321530   -0.722840
  C     -3.933780   -5.165880   -2.142110
  O     -4.382530   -4.224150   -2.721590
  O     -3.656570   -6.355030   -2.762150
  C     -3.072390   -7.252460   -1.892900
  O     -2.819820   -8.370240   -2.220640
  C     -1.664010   -8.241250    0.790130
  C     -0.845880   -8.774060   -0.142820
  C     -0.129730   -9.983230    0.055450
  O     -0.310440  -10.741710    1.174520
  C      0.805800  -10.607680   -0.746810
  C      1.556180  -10.510330   -2.008510
  O      1.559650   -9.668390   -2.865320
  N      2.335940  -11.665260   -2.011500
  C      2.188430  -12.490160   -0.895810
  O      2.777060  -13.525510   -0.711540
  C      1.196790  -11.790660   -0.083440
  C      0.485190  -11.842020    1.108050
  C      0.519210  -12.818350    2.121890
  C     -0.225140  -12.760740    3.265720
  C     -0.210670  -13.722500    4.282390
  S     -1.239550  -13.543980    5.690590
  C     -0.714660  -15.034610    6.442090
  C      0.244530  -15.646600    5.613900
  C      0.512840  -14.913400    4.426400
  N      1.442580  -15.622240    3.746370
  N      1.782120  -16.738040    4.406190
  C      1.087460  -16.778980    5.516170
  C     -1.259800  -15.424020    7.664070
  C     -0.934620  -16.580530    8.338310
  C     -1.517440  -16.935370    9.551440
  C     -1.234050  -18.086820   10.262110
  C     -0.328000  -19.129600    9.961620
  C     -0.300100  -20.130260   10.886230
  C     -1.184930  -19.935520   11.971230
  S     -2.051950  -18.427760   11.773090
  C     -1.389790  -20.765870   13.054130
  C     -0.747140  -22.007530   13.317010
  C     -1.149670  -22.610780   14.458220
  C     -2.148980  -21.885970   15.188570
  S     -2.532060  -20.389700   14.320790
  C     -2.736100  -22.231380   16.343040
  H     -5.868340    0.486800   -0.385720
  H     -1.731680   -8.721210    1.756190
  H     -0.657070   -8.291370   -1.089200
  H      2.969990  -11.884970   -2.766500
  H      1.191290  -13.638170    1.925010
  H     -0.881590  -11.913290    3.408280
  H      1.883880  -15.421120    2.863940
  H      1.215770  -17.600390    6.190570
  H     -1.995520  -14.760890    8.099700
  H     -0.200840  -17.239620    7.902280
  H     -2.253390  -16.263550    9.973010
  H      0.280700  -19.119910    9.075810
  H      0.330230  -20.998200   10.814130
  H     -0.007220  -22.409020   12.648070
  H     -0.778190  -23.552160   14.821780
  H     -2.473980  -23.149380   16.838860
  H     -3.478420  -21.609250   16.808730

 Total Charge           Charge          ....    0
 Multiplicity           Mult            ....    1
 Number of Electrons    NEL             ....  506
 Basis Dimension        Dim             .... 1071

ORBITAL ENERGIES
----------------

  NO   OCC          E(Eh)            E(eV)
   0   2.0000     -89.056604     -2423.3534
   1   2.0000     -88.967471     -2420.9280
   2   2.0000     -88.959077     -2420.6995
   3   2.0000     -88.951895     -2420.5041
   4   2.0000     -88.949430     -2420.4370
   5   2.0000     -19.306670      -525.3612
   6   2.0000     -19.297691      -525.1169
   7   2.0000     -19.251880      -523.8703
   8   2.0000     -19.251580      -523.8621
   9   2.0000     -19.245406      -523.6941
  10   2.0000     -19.243845      -523.6517
  11   2.0000     -19.207456      -522.6614
  12   2.0000     -19.204179      -522.5723
  13   2.0000     -14.488839      -394.2614
  14   2.0000     -14.470027      -393.7495
  15   2.0000     -14.467492      -393.6805
  16   2.0000     -14.459035      -393.4503
  17   2.0000     -14.458718      -393.4417
  18   2.0000     -14.449045      -393.1785
  19   2.0000     -14.439024      -392.9058
  20   2.0000     -14.435281      -392.8040
  21   2.0000     -14.432123      -392.7180
  22   2.0000     -10.439666      -284.0777
  23   2.0000     -10.439238      -284.0661
  24   2.0000     -10.414996      -283.4064
  25   2.0000     -10.414189      -283.3845
  26   2.0000     -10.396496      -282.9030
  27   2.0000     -10.393347      -282.8173
  28   2.0000     -10.389926      -282.7243
  29   2.0000     -10.387196      -282.6500
  30   2.0000     -10.361172      -281.9418
  31   2.0000     -10.356263      -281.8082
  32   2.0000     -10.354610      -281.7633
  33   2.0000     -10.353427      -281.7311
  34   2.0000     -10.350402      -281.6487
  35   2.0000     -10.348743      -281.6036
  36   2.0000     -10.345254      -281.5087
  37   2.0000     -10.344430      -281.4862
  38   2.0000     -10.339320      -281.3472
  39   2.0000     -10.337491      -281.2974
  40   2.0000     -10.334839      -281.2253
  41   2.0000     -10.334302      -281.2107
  42   2.0000     -10.329761      -281.0871
  43   2.0000     -10.327933      -281.0373
  44   2.0000     -10.325020      -280.9581
  45   2.0000     -10.323959      -280.9292
  46   2.0000     -10.323447      -280.9153
  47   2.0000     -10.322690      -280.8947
  48   2.0000     -10.318596      -280.7833
  49   2.0000     -10.317291      -280.7478
  50   2.0000     -10.316881      -280.7366
  51   2.0000     -10.316180      -280.7175
  52   2.0000     -10.308522      -280.5091
  53   2.0000     -10.305813      -280.4354
  54   2.0000     -10.302694      -280.3506
  55   2.0000     -10.301263      -280.3116
  56   2.0000     -10.299544      -280.2649
  57   2.0000     -10.298744      -280.2431
  58   2.0000     -10.295355      -280.1508
  59   2.0000     -10.292337      -280.0687
  60   2.0000     -10.292324      -280.0684
  61   2.0000     -10.292015      -280.0600
  62   2.0000     -10.291178      -280.0372
  63   2.0000     -10.287765      -279.9443
  64   2.0000     -10.285355      -279.8787
  65   2.0000     -10.284759      -279.8625
  66   2.0000     -10.282887      -279.8116
  67   2.0000     -10.281498      -279.7738
  68   2.0000     -10.280265      -279.7402
  69   2.0000      -8.147626      -221.7082
  70   2.0000      -8.062432      -219.3899
  71   2.0000      -8.058298      -219.2774
  72   2.0000      -8.048447      -219.0094
  73   2.0000      -8.046158      -218.9471
  74   2.0000      -6.118332      -166.4883
  75   2.0000      -6.111197      -166.2941
  76   2.0000      -6.110571      -166.2771
  77   2.0000      -6.031759      -164.1325
  78   2.0000      -6.027677      -164.0214
  79   2.0000      -6.027166      -164.0075
  80   2.0000      -6.024542      -163.9361
  81   2.0000      -6.023875      -163.9180
  82   2.0000      -6.019350      -163.7948
  83   2.0000      -6.018203      -163.7636
  84   2.0000      -6.015936      -163.7020
  85   2.0000      -6.014164      -163.6537
  86   2.0000      -6.012044      -163.5960
  87   2.0000      -6.009278      -163.5208
  88   2.0000      -6.006744      -163.4518
  89   2.0000      -1.247269       -33.9399
  90   2.0000      -1.222186       -33.2574
  91   2.0000      -1.176528       -32.0150
  92   2.0000      -1.172479       -31.9048
  93   2.0000      -1.172175       -31.8965
  94   2.0000      -1.150299       -31.3012
  95   2.0000      -1.150092       -31.2956
  96   2.0000      -1.149061       -31.2675
  97   2.0000      -1.134116       -30.8609
  98   2.0000      -1.129586       -30.7376
  99   2.0000      -1.126344       -30.6494
 100   2.0000      -1.054305       -28.6891
 101   2.0000      -1.037387       -28.2287
 102   2.0000      -1.028096       -27.9759
 103   2.0000      -1.017504       -27.6877
 104   2.0000      -1.007401       -27.4128
 105   2.0000      -1.002595       -27.2820
 106   2.0000      -1.001072       -27.2406
 107   2.0000      -0.989310       -26.9205
 108   2.0000      -0.984675       -26.7944
 109   2.0000      -0.979745       -26.6602
 110   2.0000      -0.961117       -26.1533
 111   2.0000      -0.942810       -25.6552
 112   2.0000      -0.933852       -25.4114
 113   2.0000      -0.919433       -25.0190
 114   2.0000      -0.918949       -25.0059
 115   2.0000      -0.913238       -24.8505
 116   2.0000      -0.911858       -24.8129
 117   2.0000      -0.900539       -24.5049
 118   2.0000      -0.888168       -24.1683
 119   2.0000      -0.881947       -23.9990
 120   2.0000      -0.871651       -23.7188
 121   2.0000      -0.859674       -23.3929
 122   2.0000      -0.854711       -23.2579
 123   2.0000      -0.854019       -23.2390
 124   2.0000      -0.840355       -22.8672
 125   2.0000      -0.837133       -22.7795
 126   2.0000      -0.826389       -22.4872
 127   2.0000      -0.811864       -22.0919
 128   2.0000      -0.807804       -21.9815
 129   2.0000      -0.802258       -21.8306
 130   2.0000      -0.789418       -21.4811
 131   2.0000      -0.776840       -21.1389
 132   2.0000      -0.769413       -20.9368
 133   2.0000      -0.763976       -20.7888
 134   2.0000      -0.757346       -20.6084
 135   2.0000      -0.751411       -20.4469
 136   2.0000      -0.741237       -20.1701
 137   2.0000      -0.730994       -19.8914
 138   2.0000      -0.724404       -19.7120
 139   2.0000      -0.712667       -19.3927
 140   2.0000      -0.708833       -19.2883
 141   2.0000      -0.706534       -19.2258
 142   2.0000      -0.702339       -19.1116
 143   2.0000      -0.697909       -18.9911
 144   2.0000      -0.692941       -18.8559
 145   2.0000      -0.690588       -18.7919
 146   2.0000      -0.689510       -18.7625
 147   2.0000      -0.680962       -18.5299
 148   2.0000      -0.657980       -17.9045
 149   2.0000      -0.650023       -17.6880
 150   2.0000      -0.646491       -17.5919
 151   2.0000      -0.643840       -17.5198
 152   2.0000      -0.637986       -17.3605
 153   2.0000      -0.636923       -17.3316
 154   2.0000      -0.632804       -17.2195
 155   2.0000      -0.628804       -17.1106
 156   2.0000      -0.626637       -17.0517
 157   2.0000      -0.620040       -16.8721
 158   2.0000      -0.612269       -16.6607
 159   2.0000      -0.607101       -16.5201
 160   2.0000      -0.602659       -16.3992
 161   2.0000      -0.599868       -16.3232
 162   2.0000      -0.597227       -16.2514
 163   2.0000      -0.588974       -16.0268
 164   2.0000      -0.585643       -15.9361
 165   2.0000      -0.584398       -15.9023
 166   2.0000      -0.580091       -15.7851
 167   2.0000      -0.576875       -15.6976
 168   2.0000      -0.575263       -15.6537
 169   2.0000      -0.570940       -15.5361
 170   2.0000      -0.566254       -15.4085
 171   2.0000      -0.561844       -15.2886
 172   2.0000      -0.558282       -15.1916
 173   2.0000      -0.554839       -15.0979
 174   2.0000      -0.554269       -15.0824
 175   2.0000      -0.550686       -14.9849
 176   2.0000      -0.549809       -14.9611
 177   2.0000      -0.546374       -14.8676
 178   2.0000      -0.545882       -14.8542
 179   2.0000      -0.544247       -14.8097
 180   2.0000      -0.540792       -14.7157
 181   2.0000      -0.538957       -14.6658
 182   2.0000      -0.537845       -14.6355
 183   2.0000      -0.533463       -14.5163
 184   2.0000      -0.532297       -14.4845
 185   2.0000      -0.523162       -14.2360
 186   2.0000      -0.518495       -14.1090
 187   2.0000      -0.514874       -14.0104
 188   2.0000      -0.511937       -13.9305
 189   2.0000      -0.511672       -13.9233
 190   2.0000      -0.510453       -13.8901
 191   2.0000      -0.504568       -13.7300
 192   2.0000      -0.504510       -13.7284
 193   2.0000      -0.501968       -13.6592
 194   2.0000      -0.498100       -13.5540
 195   2.0000      -0.495032       -13.4705
 196   2.0000      -0.494332       -13.4515
 197   2.0000      -0.489805       -13.3283
 198   2.0000      -0.487218       -13.2579
 199   2.0000      -0.484904       -13.1949
 200   2.0000      -0.483389       -13.1537
 201   2.0000      -0.480230       -13.0677
 202   2.0000      -0.478665       -13.0252
 203   2.0000      -0.477455       -12.9922
 204   2.0000      -0.474342       -12.9075
 205   2.0000      -0.469790       -12.7836
 206   2.0000      -0.466979       -12.7071
 207   2.0000      -0.466776       -12.7016
 208   2.0000      -0.460187       -12.5223
 209   2.0000      -0.459732       -12.5099
 210   2.0000      -0.456331       -12.4174
 211   2.0000      -0.450536       -12.2597
 212   2.0000      -0.450048       -12.2464
 213   2.0000      -0.448231       -12.1970
 214   2.0000      -0.444861       -12.1053
 215   2.0000      -0.442832       -12.0501
 216   2.0000      -0.440402       -11.9840
 217   2.0000      -0.437144       -11.8953
 218   2.0000      -0.434170       -11.8144
 219   2.0000      -0.431529       -11.7425
 220   2.0000      -0.427504       -11.6330
 221   2.0000      -0.424328       -11.5465
 222   2.0000      -0.422943       -11.5089
 223   2.0000      -0.420027       -11.4295
 224   2.0000      -0.417935       -11.3726
 225   2.0000      -0.412882       -11.2351
 226   2.0000      -0.409078       -11.1316
 227   2.0000      -0.405626       -11.0376
 228   2.0000      -0.401513       -10.9257
 229   2.0000      -0.391060       -10.6413
 230   2.0000      -0.382420       -10.4062
 231   2.0000      -0.381629       -10.3846
 232   2.0000      -0.377800       -10.2805
 233   2.0000      -0.377551       -10.2737
 234   2.0000      -0.374389       -10.1876
 235   2.0000      -0.368277       -10.0213
 236   2.0000      -0.367383        -9.9970
 237   2.0000      -0.364827        -9.9274
 238   2.0000      -0.364561        -9.9202
 239   2.0000      -0.357954        -9.7404
 240   2.0000      -0.356687        -9.7060
 241   2.0000      -0.354527        -9.6472
 242   2.0000      -0.348165        -9.4740
 243   2.0000      -0.346387        -9.4257
 244   2.0000      -0.343442        -9.3455
 245   2.0000      -0.340655        -9.2697
 246   2.0000      -0.336406        -9.1541
 247   2.0000      -0.321291        -8.7428
 248   2.0000      -0.317991        -8.6530
 249   2.0000      -0.308449        -8.3933
 250   2.0000      -0.290338        -7.9005
 251   2.0000      -0.253196        -6.8898
 252   2.0000      -0.209759        -5.7078
 253   0.0000      -0.123444        -3.3591
 254   0.0000      -0.101962        -2.7745
 255   0.0000      -0.097836        -2.6623
 256   0.0000      -0.078718        -2.1420
 257   0.0000      -0.053250        -1.4490

MULLIKEN ATOMIC CHARGES
-----------------------
   0 C :   -0.090991
   1 C :    0.025502
   2 C :   -0.030602
   3 N :    0.046001
   4 C :   -0.122854
   5 C :   -0.143757
   6 N :    0.061597
   7 C :   -0.198379
   8 N :    0.236292
   9 C :   -0.206399
  10 N :    0.247481
  11 C :    0.050041
  12 C :   -0.004072
  13 C :    0.121355
  14 N :   -0.264587
  15 S :    0.572097
  16 N :   -0.272343
  17 C :   -0.020074
  18 C :    0.067994
  19 C :    0.040432
  20 O :   -0.135351
  21 S :    0.034397
  22 C :    0.033251
  23 O :   -0.124797
  24 C :    0.031997
  25 C :    0.064676
  26 C :   -0.084377
  27 C :   -0.046013
  28 C :    0.240842
  29 O :   -0.107963
  30 O :   -0.224774
  31 C :    0.220889
  32 O :   -0.091590
  33 C :   -0.057822
  34 C :    0.052549
  35 C :    0.047177
  36 O :   -0.216802
  37 C :   -0.010182
  38 C :    0.165391
  39 O :   -0.136239
  40 N :   -0.167709
  41 C :    0.160625
  42 O :   -0.155467
  43 C :   -0.054911
  44 C :    0.112484
  45 C :   -0.063821
  46 C :    0.088654
  47 C :   -0.188591
  48 S :    0.152861
  49 C :   -0.085813
  50 C :    0.003382
  51 C :    0.152459
  52 N :   -0.040201
  53 N :   -0.058678
  54 C :   -0.017725
  55 C :    0.022870
  56 C :    0.022252
  57 C :    0.027103
  58 C :   -0.043455
  59 C :    0.025207
  60 C :    0.026342
  61 C :   -0.054836
  62 S :    0.101315
  63 C :   -0.058980
  64 C :    0.026662
  65 C :    0.060448
  66 C :   -0.069652
  67 S :    0.091084
  68 C :   -0.021534
  69 H :   -0.011963
  70 H :    0.030923
  71 H :    0.017654
  72 H :    0.137523
  73 H :   -0.035269
  74 H :   -0.002913
  75 H :    0.151111
  76 H :   -0.000140
  77 H :   -0.022274
  78 H :   -0.024735
  79 H :   -0.016524
  80 H :   -0.012567
  81 H :   -0.010647
  82 H :   -0.007691
  83 H :   -0.007298
  84 H :    0.024907
  85 H :    0.027534
Sum of atomic charges:    0.0000000

LOEWDIN ATOMIC CHARGES
----------------------
   0 C :    0.019257
   1 C :   -0.008484
   2 C :    0.005481
   3 N :   -0.004555
   4 C :   -0.019194
   5 C :   -0.025786
   6 N :    0.007376
   7 C :   -0.035586
   8 N :    0.000211
   9 C :   -0.037363
  10 N :    0.002214
  11 C :   -0.015698
  12 C :   -0.033458
  13 C :   -0.043333
  14 N :   -0.281870
  15 S :    0.717504
  16 N :   -0.292931
  17 C :    0.028182
  18 C :   -0.033221
  19 C :   -0.044500
  20 O :   -0.120883
  21 S :    0.317344
  22 C :   -0.038527
  23 O :   -0.107814
  24 C :   -0.055305
  25 C :    0.039505
  26 C :   -0.049843
  27 C :   -0.027010
  28 C :    0.108023
  29 O :   -0.103777
  30 O :   -0.052339
  31 C :    0.108193
  32 O :   -0.089903
  33 C :   -0.038205
  34 C :    0.017352
  35 C :    0.051501
  36 O :    0.010711
  37 C :   -0.074254
  38 C :    0.085469
  39 O :   -0.153682
  40 N :   -0.007421
  41 C :    0.083282
  42 O :   -0.172258
  43 C :   -0.118003
  44 C :    0.087465
  45 C :   -0.087989
  46 C :    0.001194
  47 C :   -0.224753
  48 S :    0.455497
  49 C :   -0.140762
  50 C :   -0.101862
  51 C :   -0.004353
  52 N :    0.100034
  53 N :   -0.055538
  54 C :   -0.039012
  55 C :   -0.060743
  56 C :   -0.002740
  57 C :   -0.063724
  58 C :   -0.135795
  59 C :   -0.044283
  60 C :   -0.018203
  61 C :   -0.187900
  62 S :    0.382352
  63 C :   -0.168051
  64 C :   -0.027777
  65 C :   -0.023735
  66 C :   -0.140640
  67 S :    0.362677
  68 C :   -0.063859
  69 H :    0.051801
  70 H :    0.036830
  71 H :    0.045042
  72 H :    0.094091
  73 H :    0.030968
  74 H :    0.037405
  75 H :    0.090010
  76 H :    0.019407
  77 H :    0.029368
  78 H :    0.027316
  79 H :    0.030128
  80 H :    0.031644
  81 H :    0.033309
  82 H :    0.033599
  83 H :    0.035373
  84 H :    0.031046
  85 H :    0.028760

  Mayer bond orders larger than 0.100000
B(  0-C ,  1-C ) :   1.2746 B(  0-C , 11-C ) :   0.1524 B(  0-C , 13-C ) :   1.1700
B(  0-C , 69-H ) :   1.0678 B(  1-C ,  2-C ) :   1.1341 B(  1-C ,  6-N ) :   1.3417
B(  2-C ,  3-N ) :   1.4236 B(  2-C , 11-C ) :   1.3692 B(  3-N ,  4-C ) :   1.7469
B(  4-C ,  5-C ) :   1.1790 B(  4-C ,  9-C ) :   1.1494 B(  5-C ,  6-N ) :   1.7909
B(  5-C ,  7-C ) :   1.1475 B(  7-C ,  8-N ) :   3.0503 B(  9-C , 10-N ) :   3.0518
B( 11-C , 12-C ) :   1.3314 B( 11-C , 17-C ) :   0.9255 B( 12-C , 13-C ) :   1.1146
B( 12-C , 16-N ) :   1.4866 B( 13-C , 14-N ) :   1.4371 B( 14-N , 15-S ) :   1.3389
B( 14-N , 16-N ) :   0.1639 B( 15-S , 16-N ) :   1.3081 B( 17-C , 18-C ) :   1.4360
B( 17-C , 27-C ) :   1.4169 B( 18-C , 19-C ) :   0.8273 B( 18-C , 24-C ) :   1.3169
B( 19-C , 20-O ) :   2.1691 B( 19-C , 21-S ) :   1.0417 B( 20-O , 21-S ) :   0.1094
B( 21-S , 22-C ) :   1.0288 B( 21-S , 23-O ) :   0.1027 B( 22-C , 23-O ) :   2.1627
B( 22-C , 24-C ) :   0.8534 B( 24-C , 25-C ) :   1.3418 B( 25-C , 26-C ) :   1.3007
B( 25-C , 33-C ) :   1.1021 B( 26-C , 27-C ) :   1.3635 B( 26-C , 31-C ) :   0.9024
B( 27-C , 28-C ) :   0.8876 B( 28-C , 29-O ) :   2.2489 B( 28-C , 30-O ) :   1.0695
B( 30-O , 31-C ) :   1.0430 B( 31-C , 32-O ) :   2.2653 B( 33-C , 34-C ) :   1.6280
B( 33-C , 70-H ) :   0.9542 B( 34-C , 35-C ) :   1.2177 B( 34-C , 71-H ) :   0.9447
B( 35-C , 36-O ) :   1.1296 B( 35-C , 37-C ) :   1.4027 B( 36-O , 44-C ) :   1.1608
B( 37-C , 38-C ) :   0.8691 B( 37-C , 43-C ) :   1.2830 B( 38-C , 39-O ) :   2.2708
B( 38-C , 40-N ) :   1.0849 B( 40-N , 41-C ) :   1.0733 B( 40-N , 72-H ) :   0.9142
B( 41-C , 42-O ) :   2.2522 B( 41-C , 43-C ) :   0.8969 B( 43-C , 44-C ) :   1.3420
B( 44-C , 45-C ) :   1.2623 B( 45-C , 46-C ) :   1.5244 B( 45-C , 73-H ) :   0.9451
B( 46-C , 47-C ) :   1.2184 B( 46-C , 74-H ) :   0.9603 B( 47-C , 48-S ) :   1.0668
B( 47-C , 51-C ) :   1.3117 B( 48-S , 49-C ) :   1.1559 B( 49-C , 50-C ) :   1.2600
B( 49-C , 55-C ) :   1.2122 B( 50-C , 51-C ) :   1.2843 B( 50-C , 54-C ) :   1.1712
B( 51-C , 52-N ) :   1.1812 B( 52-N , 53-N ) :   1.1338 B( 52-N , 75-H ) :   0.9437
B( 53-N , 54-C ) :   1.7342 B( 54-C , 76-H ) :   0.9936 B( 55-C , 56-C ) :   1.5485
B( 55-C , 77-H ) :   0.9665 B( 56-C , 57-C ) :   1.2604 B( 56-C , 78-H ) :   0.9692
B( 57-C , 58-C ) :   1.4777 B( 57-C , 79-H ) :   0.9704 B( 58-C , 59-C ) :   1.1717
B( 58-C , 62-S ) :   1.0544 B( 59-C , 60-C ) :   1.5955 B( 59-C , 80-H ) :   0.9897
B( 60-C , 61-C ) :   1.1912 B( 60-C , 81-H ) :   0.9917 B( 61-C , 62-S ) :   1.0421
B( 61-C , 63-C ) :   1.5245 B( 63-C , 64-C ) :   1.1591 B( 63-C , 67-S ) :   1.0585
B( 64-C , 65-C ) :   1.6554 B( 64-C , 82-H ) :   0.9920 B( 65-C , 66-C ) :   1.0818
B( 65-C , 83-H ) :   0.9932 B( 66-C , 67-S ) :   1.0060 B( 66-C , 68-C ) :   1.8599
B( 68-C , 84-H ) :   0.9510 B( 68-C , 85-H ) :   0.9426

-----------------------------------------------------------------------------
         ABSORPTION SPECTRUM VIA TRANSITION ELECTRIC DIPOLE MOMENTS
-----------------------------------------------------------------------------
State   Energy  Wavelength   fosc         T2         TX        TY        TZ
        (cm-1)    (nm)                  (au**2)     (au)      (au)      (au)
-----------------------------------------------------------------------------
   0   11019.8    907.5   0.886346946  26.47926   0.16727  -3.85181   3.40806
   1   12517.9    798.9   1.503347833  39.53684  -0.68918  -3.89118   4.89087
   2   13183.2    758.5   0.046994164   1.17354  -0.10136  -0.39850   1.00223
   3   17613.5    567.7   0.260222540   4.86380  -1.39188   0.61182   1.59755
   4   19476.8    513.4   0.086512054   1.46229  -0.60974   1.02408   0.20436
   5   20638.6    484.5   0.011559555   0.18439  -0.30419   0.08635   0.29052
   6   21204.9    471.6   0.018269276   0.28364  -0.00882  -0.15258  -0.51017
   7   22502.8    444.4   0.107479071   1.57240   0.36795  -1.19128   0.13364
   8   23150.8    432.0   0.004975168   0.07075   0.00137  -0.07066   0.25642
   9   24448.4    409.0   0.005939300   0.07998  -0.06020   0.07302  -0.26650
  10   26193.9    381.8   0.216900901   2.72607  -1.01557   1.17339   0.56379
  11   26589.7    376.1   0.046568910   0.57658  -0.44333   0.58762   0.18639
  12   26877.9    372.1   0.030223184   0.37019  -0.33110   0.49466   0.12598
  13   27247.9    367.0   0.005009746   0.06053  -0.01883  -0.02700   0.24381
  14   27820.7    359.4   0.031904481   0.37754  -0.02490  -0.20682   0.57805
  15   27870.1    358.8   0.015113677   0.17853  -0.06355   0.41399   0.05569
  16   28015.8    356.9   0.002577580   0.03029   0.05031   0.16446   0.02665
  17   29278.4    341.5   0.264851934   2.97805   1.50338   0.48939   0.69165
  18   29709.6    336.6   0.055494436   0.61493   0.05680  -0.69930   0.35026
  19   30135.4    331.8   0.011149962   0.12181   0.17433   0.26491   0.14573
  20   30312.0    329.9   0.024710640   0.26838  -0.01628   0.50492  -0.11474
  21   30907.0    323.6   0.057283098   0.61016  -0.11032   0.74275   0.21520
  22   31411.6    318.4   0.015544905   0.16292  -0.01843   0.22916  -0.33176
  23   31645.7    316.0   0.071436165   0.74315   0.34346  -0.03224  -0.79003
  24   31727.6    315.2   0.007009178   0.07273   0.16806   0.21091   0.00176
  25   32079.1    311.7   0.044642032   0.45814   0.32658   0.53185   0.26196
  26   32449.5    308.2   0.025774840   0.26150   0.33730   0.12886  -0.36210
  27   32841.0    304.5   0.011080422   0.11107   0.00212  -0.20514   0.26266
  28   32912.7    303.8   0.011067529   0.11070   0.22195  -0.22453   0.10502
  29   33296.9    300.3   0.083050490   0.82114   0.59710  -0.65751  -0.17966
  30   33386.9    299.5   0.069413268   0.68445   0.53339  -0.53379  -0.33914
  31   33571.1    297.9   0.003719039   0.03647   0.18626  -0.03441  -0.02434
  32   33767.5    296.1   0.004875355   0.04753  -0.02219  -0.06676   0.20635
  33   33989.8    294.2   0.000030422   0.00029  -0.01000  -0.01150  -0.00790
  34   34151.5    292.8   0.030853854   0.29742   0.40574  -0.01329  -0.36418
  35   34399.5    290.7   0.028750897   0.27515  -0.26649   0.40298   0.20432
  36   35041.3    285.4   0.050112354   0.47080   0.65571   0.17677   0.09799
  37   35599.2    280.9   0.007684940   0.07107  -0.23143   0.13232   0.00060
  38   35628.1    280.7   0.009626833   0.08895   0.28050  -0.07290  -0.07042
  39   35870.0    278.8   0.024243412   0.22250   0.11826   0.09762   0.44608
  40   36290.3    275.6   0.024938983   0.22624   0.37771  -0.18801   0.21960
  41   36369.8    275.0   0.031075350   0.28129   0.18215  -0.49806   0.00678
  42   36485.0    274.1   0.004001165   0.03610   0.17815  -0.03163   0.05802
  43   36562.4    273.5   0.008873549   0.07990   0.23428  -0.00902   0.15789
  44   36835.3    271.5   0.000370920   0.00332  -0.04597  -0.02698  -0.02177
  45   37012.0    270.2   0.014549909   0.12942  -0.20556   0.29470  -0.01780
  46   37301.2    268.1   0.024812497   0.21899  -0.24122  -0.39576  -0.06464
  47   37466.2    266.9   0.020662858   0.18156  -0.20245  -0.33276  -0.17277
  48   37617.2    265.8   0.000347943   0.00305  -0.01109  -0.02890   0.04568
  49   37686.4    265.3   0.053607219   0.46829  -0.59960   0.30301  -0.13022
  50   37980.0    263.3   0.074631271   0.64691   0.51030   0.43971  -0.43950
  51   38108.8    262.4   0.093006586   0.80346  -0.71980  -0.52689  -0.08798
  52   38633.9    258.8   0.007673925   0.06539  -0.08778   0.04357  -0.23620
  53   38700.0    258.4   0.053925126   0.45873   0.45400  -0.34814   0.36251
  54   38838.0    257.5   0.000206771   0.00175  -0.04025  -0.00532  -0.01020
  55   39062.9    256.0   0.042225058   0.35586  -0.21400   0.35675   0.42754
  56   39251.7    254.8   0.495642374   4.15705  -1.61277  -0.88832  -0.87572
  57   39578.2    252.7   0.143075683   1.19011   0.62629   0.57915   0.68005
  58   39726.8    251.7   0.008458635   0.07010  -0.19171  -0.12542  -0.13272
  59   39804.5    251.2   0.160712566   1.32921  -1.01137  -0.40026  -0.38227
  60   39897.3    250.6   0.232940569   1.92211   1.25360   0.42976   0.40730
  61   40109.1    249.3   0.076394140   0.62704   0.67031   0.12698  -0.40199
  62   40312.8    248.1   0.091780608   0.74952  -0.83414  -0.09508  -0.21141

FINAL SINGLE POINT ENERGY     -4882.500557443677

DIPOLE MOMENT
-------------
                                X             Y             Z
Electronic contribution:    -20.26211      87.70808     -51.93531
Nuclear contribution   :     18.28381     -91.62741      54.40463
                        -----------------------------------------
Total Dipole Moment    :     -1.97831      -3.91932       2.46932
                        -----------------------------------------
Magnitude (a.u.)       :      5.03710
Magnitude (Debye)      :     12.80328

Rotational constants in cm-1:     0.001382     0.000238     0.000218
Rotational constants in MHz :    41.424001     7.120125     6.531646

                             ****ORCA TERMINATED NORMALLY****
TOTAL RUN TIME: 0 days 0 hours 8 minutes 24 seconds 601 msec
