                         Program Version 4.2.0 -  RELEASE  -
|  1> # ORCA input file
|  2> # SCF done       -156.142196726506          0.000926495462
|  3> ! CAM-B3LYP def2-SVP def2/J RIJCOSX Grid4 TightSCF
|  4> %maxcore 5000
|  5> %tddft
|  6>     Mode sTDDFT
|  7>     Ethresh 5.0
|  8>     maxcore 5000
|  9> end
| 10>
| 11> %pal
| 12>   nprocs 6
| 13>   end
| 14> * xyz 0 1
| 15>    C        3.20594       -14.19481         6.89370
| 16>    S        2.82122       -12.61066         7.47177
| 17>    C        4.24037       -11.96601         6.71548
| 18>    O        4.55894       -10.65760         6.78093
| 19>    C        4.98287       -12.93700         6.08282
| 20>    C        4.35563       -14.21573         6.19021
| 21>    C        6.21462       -12.65776         5.39266
| 22>    S        6.43391       -11.14548         4.60140
| 23>    C        8.02450       -11.54839         4.04195
| 24>    C        8.38388       -12.82317         4.49116
| 25>    C        7.35076       -13.45507         5.26162
| 26>    C        7.58468       -14.72381         5.83627
| 27>    C        8.78944       -15.32522         5.63460
| 28>    F        9.03265       -16.53920         6.17335
| 29>    C        9.80581       -14.70412         4.87050
| 30>    F       10.98826       -15.33634         4.72985
| 31>    C        9.61591       -13.48187         4.30089
| 32>    C        8.77614       -10.65982         3.23331
| 33>    C        8.37240        -9.42116         2.86823
| 34>    C        9.13480        -8.60030         1.98144
| 35>    C        8.79646        -7.39238         1.49791
| 36>    C        7.56338        -6.63326         1.87611
| 37>    C        9.64574        -6.70858         0.44292
| 38>    N       10.44028        -7.64431        -0.31523
| 39>    C       11.73386        -7.91081        -0.03956
| 40>    C       12.29136        -9.14280        -0.19645
| 41>    C       13.64147        -9.46099         0.02258
| 42>    C       14.06830       -10.75104         0.22222
| 43>    C       15.38131       -11.23658         0.40971
| 44>    C       15.45099       -12.57100         0.68927
| 45>    C       14.19218       -13.20353         0.76857
| 46>    S       12.91863       -12.07554         0.40310
| 47>    C       13.89324       -14.50264         1.15202
| 48>    C       14.76912       -15.55743         1.46199
| 49>    C       14.13066       -16.69245         1.88153
| 50>    C       12.72699       -16.57806         1.93725
| 51>    S       12.23098       -14.99615         1.39683
| 52>    C       11.83127       -17.52420         2.40995
| 53>    C       10.47633       -17.27087         2.53687
| 54>    C        9.56441       -18.11288         3.15403
| 55>    C        8.19105       -17.81987         3.43224
| 56>    C        7.48122       -16.69146         3.06883
| 57>    C        6.15651       -16.44205         3.45805
| 58>    N        5.08208       -16.16673         3.76499
| 59>    C        7.96178       -15.61529         2.30221
| 60>    N        8.25347       -14.68621         1.68879
| 61>    C        7.64742       -18.92675         4.21957
| 62>    C        8.66512       -19.89266         4.39941
| 63>    C        9.89905       -19.42637         3.72555
| 64>    O       10.95123       -20.03380         3.66530
| 65>    C        8.47156       -21.05237         5.10491
| 66>    C        7.20719       -21.27239         5.66486
| 67>    C        6.19698       -20.30421         5.47870
| 68>    C        6.39394       -19.12944         4.76141
| 69>    S        4.71073       -20.77495         6.25053
| 70>    C        5.46210       -22.24709         6.80521
| 71>    C        6.75592       -22.38138         6.43344
| 72>   Br        4.46347       -23.46953         7.82145
| 73>    H        2.53506       -15.00067         7.11044
| 74>    H        3.91844       -10.17663         7.31690
| 75>    H        4.72418       -15.09133         5.68838
| 76>    H        6.83650       -15.20716         6.44185
| 77>    H       10.40583       -13.03604         3.71971
| 78>    H        9.72711       -11.03375         2.87773
| 79>    H        7.41914        -9.05925         3.22541
| 80>    H       10.06798        -9.04654         1.65924
| 81>    H        6.78178        -6.78005         1.12928
| 82>    H        7.78032        -5.56729         1.92526
| 83>    H        7.17922        -6.95391         2.83874
| 84>    H       10.31384        -5.97335         0.90309
| 85>    H        8.98208        -6.17331        -0.24640
| 86>    H        9.90564        -8.43557        -0.65481
| 87>    H       12.31805        -7.07469         0.32133
| 88>    H       11.63585        -9.96762        -0.44996
| 89>    H       14.37127        -8.66482         0.07843
| 90>    H       16.23584       -10.58723         0.33263
| 91>    H       16.36652       -13.10634         0.86592
| 92>    H       15.83641       -15.46068         1.37143
| 93>    H       14.62888       -17.60060         2.17041
| 94>    H       12.22583       -18.47031         2.74960
| 95>    H       10.11966       -16.31462         2.17183
| 96>    H        9.26936       -21.76817         5.22557
| 97>    H        5.58663       -18.42611         4.64721
| 98>    H        7.37010       -23.22549         6.68923
| 99> *
|100>
|101>                          ****END OF INPUT****

CARTESIAN COORDINATES (ANGSTROEM)
---------------------------------
  C      3.205940  -14.194810    6.893700
  S      2.821220  -12.610660    7.471770
  C      4.240370  -11.966010    6.715480
  O      4.558940  -10.657600    6.780930
  C      4.982870  -12.937000    6.082820
  C      4.355630  -14.215730    6.190210
  C      6.214620  -12.657760    5.392660
  S      6.433910  -11.145480    4.601400
  C      8.024500  -11.548390    4.041950
  C      8.383880  -12.823170    4.491160
  C      7.350760  -13.455070    5.261620
  C      7.584680  -14.723810    5.836270
  C      8.789440  -15.325220    5.634600
  F      9.032650  -16.539200    6.173350
  C      9.805810  -14.704120    4.870500
  F     10.988260  -15.336340    4.729850
  C      9.615910  -13.481870    4.300890
  C      8.776140  -10.659820    3.233310
  C      8.372400   -9.421160    2.868230
  C      9.134800   -8.600300    1.981440
  C      8.796460   -7.392380    1.497910
  C      7.563380   -6.633260    1.876110
  C      9.645740   -6.708580    0.442920
  N     10.440280   -7.644310   -0.315230
  C     11.733860   -7.910810   -0.039560
  C     12.291360   -9.142800   -0.196450
  C     13.641470   -9.460990    0.022580
  C     14.068300  -10.751040    0.222220
  C     15.381310  -11.236580    0.409710
  C     15.450990  -12.571000    0.689270
  C     14.192180  -13.203530    0.768570
  S     12.918630  -12.075540    0.403100
  C     13.893240  -14.502640    1.152020
  C     14.769120  -15.557430    1.461990
  C     14.130660  -16.692450    1.881530
  C     12.726990  -16.578060    1.937250
  S     12.230980  -14.996150    1.396830
  C     11.831270  -17.524200    2.409950
  C     10.476330  -17.270870    2.536870
  C      9.564410  -18.112880    3.154030
  C      8.191050  -17.819870    3.432240
  C      7.481220  -16.691460    3.068830
  C      6.156510  -16.442050    3.458050
  N      5.082080  -16.166730    3.764990
  C      7.961780  -15.615290    2.302210
  N      8.253470  -14.686210    1.688790
  C      7.647420  -18.926750    4.219570
  C      8.665120  -19.892660    4.399410
  C      9.899050  -19.426370    3.725550
  O     10.951230  -20.033800    3.665300
  C      8.471560  -21.052370    5.104910
  C      7.207190  -21.272390    5.664860
  C      6.196980  -20.304210    5.478700
  C      6.393940  -19.129440    4.761410
  S      4.710730  -20.774950    6.250530
  C      5.462100  -22.247090    6.805210
  C      6.755920  -22.381380    6.433440
  Br     4.463470  -23.469530    7.821450
  H      2.535060  -15.000670    7.110440
  H      3.918440  -10.176630    7.316900
  H      4.724180  -15.091330    5.688380
  H      6.836500  -15.207160    6.441850
  H     10.405830  -13.036040    3.719710
  H      9.727110  -11.033750    2.877730
  H      7.419140   -9.059250    3.225410
  H     10.067980   -9.046540    1.659240
  H      6.781780   -6.780050    1.129280
  H      7.780320   -5.567290    1.925260
  H      7.179220   -6.953910    2.838740
  H     10.313840   -5.973350    0.903090
  H      8.982080   -6.173310   -0.246400
  H      9.905640   -8.435570   -0.654810
  H     12.318050   -7.074690    0.321330
  H     11.635850   -9.967620   -0.449960
  H     14.371270   -8.664820    0.078430
  H     16.235840  -10.587230    0.332630
  H     16.366520  -13.106340    0.865920
  H     15.836410  -15.460680    1.371430
  H     14.628880  -17.600600    2.170410
  H     12.225830  -18.470310    2.749600
  H     10.119660  -16.314620    2.171830
  H      9.269360  -21.768170    5.225570
  H      5.586630  -18.426110    4.647210
  H      7.370100  -23.225490    6.689230

 Total Charge           Charge          ....    0
 Multiplicity           Mult            ....    1
 Number of Electrons    NEL             ....  466
 Basis Dimension        Dim             ....  980

ORBITAL ENERGIES
----------------

  NO   OCC          E(Eh)            E(eV)
   0   2.0000    -482.869336    -13139.5426
   1   2.0000     -88.954972     -2420.5879
   2   2.0000     -88.954705     -2420.5806
   3   2.0000     -88.945963     -2420.3427
   4   2.0000     -88.945730     -2420.3364
   5   2.0000     -88.944900     -2420.3138
   6   2.0000     -62.547022     -1701.9910
   7   2.0000     -56.380948     -1534.2036
   8   2.0000     -56.378283     -1534.1311
   9   2.0000     -56.378234     -1534.1297
  10   2.0000     -24.768197      -673.9769
  11   2.0000     -24.767478      -673.9573
  12   2.0000     -19.259215      -524.0699
  13   2.0000     -19.183091      -521.9985
  14   2.0000     -14.453638      -393.3035
  15   2.0000     -14.390252      -391.5787
  16   2.0000     -14.387142      -391.4940
  17   2.0000     -10.345436      -281.5136
  18   2.0000     -10.344608      -281.4911
  19   2.0000     -10.343790      -281.4688
  20   2.0000     -10.341376      -281.4031
  21   2.0000     -10.338562      -281.3266
  22   2.0000     -10.333088      -281.1776
  23   2.0000     -10.327143      -281.0158
  24   2.0000     -10.322343      -280.8852
  25   2.0000     -10.310589      -280.5654
  26   2.0000     -10.308851      -280.5181
  27   2.0000     -10.307171      -280.4724
  28   2.0000     -10.306716      -280.4600
  29   2.0000     -10.304207      -280.3917
  30   2.0000     -10.303351      -280.3684
  31   2.0000     -10.301390      -280.3151
  32   2.0000     -10.299641      -280.2675
  33   2.0000     -10.297869      -280.2193
  34   2.0000     -10.292062      -280.0613
  35   2.0000     -10.291437      -280.0442
  36   2.0000     -10.291384      -280.0428
  37   2.0000     -10.289680      -279.9964
  38   2.0000     -10.282940      -279.8130
  39   2.0000     -10.280270      -279.7404
  40   2.0000     -10.279790      -279.7273
  41   2.0000     -10.279416      -279.7171
  42   2.0000     -10.279177      -279.7106
  43   2.0000     -10.277210      -279.6571
  44   2.0000     -10.276720      -279.6438
  45   2.0000     -10.276671      -279.6424
  46   2.0000     -10.274760      -279.5904
  47   2.0000     -10.274414      -279.5810
  48   2.0000     -10.274132      -279.5733
  49   2.0000     -10.271389      -279.4987
  50   2.0000     -10.269826      -279.4562
  51   2.0000     -10.268762      -279.4272
  52   2.0000     -10.268045      -279.4077
  53   2.0000     -10.266401      -279.3630
  54   2.0000     -10.266266      -279.3593
  55   2.0000     -10.265393      -279.3356
  56   2.0000     -10.264714      -279.3171
  57   2.0000     -10.263318      -279.2791
  58   2.0000     -10.259184      -279.1666
  59   2.0000     -10.255314      -279.0613
  60   2.0000     -10.254671      -279.0438
  61   2.0000     -10.252798      -278.9928
  62   2.0000      -8.776423      -238.8186
  63   2.0000      -8.050944      -219.0773
  64   2.0000      -8.050882      -219.0756
  65   2.0000      -8.042923      -218.8590
  66   2.0000      -8.041413      -218.8180
  67   2.0000      -8.039885      -218.7764
  68   2.0000      -6.612588      -179.9377
  69   2.0000      -6.598195      -179.5460
  70   2.0000      -6.598072      -179.5427
  71   2.0000      -6.020654      -163.8303
  72   2.0000      -6.020459      -163.8250
  73   2.0000      -6.016448      -163.7159
  74   2.0000      -6.016394      -163.7144
  75   2.0000      -6.012330      -163.6038
  76   2.0000      -6.012164      -163.5993
  77   2.0000      -6.012084      -163.5971
  78   2.0000      -6.010957      -163.5664
  79   2.0000      -6.008766      -163.5068
  80   2.0000      -6.008167      -163.4905
  81   2.0000      -6.006924      -163.4567
  82   2.0000      -6.004706      -163.3964
  83   2.0000      -6.004677      -163.3956
  84   2.0000      -6.002827      -163.3452
  85   2.0000      -6.002810      -163.3448
  86   2.0000      -2.728518       -74.2468
  87   2.0000      -2.724411       -74.1350
  88   2.0000      -2.724328       -74.1327
  89   2.0000      -2.712886       -73.8214
  90   2.0000      -2.712867       -73.8209
  91   2.0000      -1.286707       -35.0131
  92   2.0000      -1.271888       -34.6098
  93   2.0000      -1.154945       -31.4277
  94   2.0000      -1.096367       -29.8337
  95   2.0000      -1.056505       -28.7490
  96   2.0000      -1.000727       -27.2312
  97   2.0000      -0.998124       -27.1603
  98   2.0000      -0.989128       -26.9155
  99   2.0000      -0.982906       -26.7462
 100   2.0000      -0.976066       -26.5601
 101   2.0000      -0.968674       -26.3590
 102   2.0000      -0.961692       -26.1690
 103   2.0000      -0.959572       -26.1113
 104   2.0000      -0.923474       -25.1290
 105   2.0000      -0.919549       -25.0222
 106   2.0000      -0.917970       -24.9792
 107   2.0000      -0.906136       -24.6572
 108   2.0000      -0.889758       -24.2115
 109   2.0000      -0.883457       -24.0401
 110   2.0000      -0.880669       -23.9642
 111   2.0000      -0.863881       -23.5074
 112   2.0000      -0.861114       -23.4321
 113   2.0000      -0.851950       -23.1827
 114   2.0000      -0.850421       -23.1411
 115   2.0000      -0.838483       -22.8163
 116   2.0000      -0.828118       -22.5342
 117   2.0000      -0.823699       -22.4140
 118   2.0000      -0.815987       -22.2041
 119   2.0000      -0.811242       -22.0750
 120   2.0000      -0.805233       -21.9115
 121   2.0000      -0.797028       -21.6882
 122   2.0000      -0.790150       -21.5011
 123   2.0000      -0.786114       -21.3912
 124   2.0000      -0.766809       -20.8659
 125   2.0000      -0.748950       -20.3800
 126   2.0000      -0.742849       -20.2140
 127   2.0000      -0.730343       -19.8736
 128   2.0000      -0.719758       -19.5856
 129   2.0000      -0.713507       -19.4155
 130   2.0000      -0.701864       -19.0987
 131   2.0000      -0.694422       -18.8962
 132   2.0000      -0.683456       -18.5978
 133   2.0000      -0.676020       -18.3954
 134   2.0000      -0.671061       -18.2605
 135   2.0000      -0.670327       -18.2405
 136   2.0000      -0.663366       -18.0511
 137   2.0000      -0.647775       -17.6269
 138   2.0000      -0.640103       -17.4181
 139   2.0000      -0.635767       -17.3001
 140   2.0000      -0.633979       -17.2514
 141   2.0000      -0.628766       -17.1096
 142   2.0000      -0.623549       -16.9676
 143   2.0000      -0.618416       -16.8280
 144   2.0000      -0.615636       -16.7523
 145   2.0000      -0.610238       -16.6054
 146   2.0000      -0.604205       -16.4413
 147   2.0000      -0.597559       -16.2604
 148   2.0000      -0.595888       -16.2149
 149   2.0000      -0.586398       -15.9567
 150   2.0000      -0.585840       -15.9415
 151   2.0000      -0.575584       -15.6624
 152   2.0000      -0.572676       -15.5833
 153   2.0000      -0.568556       -15.4712
 154   2.0000      -0.568104       -15.4589
 155   2.0000      -0.557463       -15.1693
 156   2.0000      -0.555356       -15.1120
 157   2.0000      -0.552198       -15.0261
 158   2.0000      -0.544826       -14.8255
 159   2.0000      -0.543264       -14.7830
 160   2.0000      -0.534130       -14.5344
 161   2.0000      -0.522905       -14.2290
 162   2.0000      -0.521360       -14.1869
 163   2.0000      -0.518981       -14.1222
 164   2.0000      -0.517088       -14.0707
 165   2.0000      -0.515086       -14.0162
 166   2.0000      -0.514046       -13.9879
 167   2.0000      -0.508934       -13.8488
 168   2.0000      -0.507711       -13.8155
 169   2.0000      -0.505093       -13.7443
 170   2.0000      -0.504950       -13.7404
 171   2.0000      -0.502305       -13.6684
 172   2.0000      -0.501654       -13.6507
 173   2.0000      -0.499054       -13.5799
 174   2.0000      -0.497175       -13.5288
 175   2.0000      -0.490006       -13.3337
 176   2.0000      -0.486414       -13.2360
 177   2.0000      -0.485168       -13.2021
 178   2.0000      -0.484155       -13.1745
 179   2.0000      -0.480231       -13.0678
 180   2.0000      -0.478428       -13.0187
 181   2.0000      -0.477543       -12.9946
 182   2.0000      -0.473057       -12.8725
 183   2.0000      -0.469198       -12.7675
 184   2.0000      -0.466762       -12.7012
 185   2.0000      -0.466106       -12.6834
 186   2.0000      -0.463314       -12.6074
 187   2.0000      -0.461412       -12.5557
 188   2.0000      -0.458809       -12.4848
 189   2.0000      -0.458093       -12.4654
 190   2.0000      -0.453753       -12.3473
 191   2.0000      -0.446541       -12.1510
 192   2.0000      -0.440346       -11.9824
 193   2.0000      -0.435297       -11.8450
 194   2.0000      -0.434721       -11.8294
 195   2.0000      -0.434269       -11.8171
 196   2.0000      -0.431232       -11.7344
 197   2.0000      -0.426407       -11.6031
 198   2.0000      -0.425820       -11.5872
 199   2.0000      -0.424401       -11.5485
 200   2.0000      -0.422873       -11.5070
 201   2.0000      -0.421513       -11.4700
 202   2.0000      -0.418504       -11.3881
 203   2.0000      -0.416464       -11.3325
 204   2.0000      -0.411371       -11.1940
 205   2.0000      -0.409543       -11.1442
 206   2.0000      -0.406517       -11.0619
 207   2.0000      -0.401625       -10.9288
 208   2.0000      -0.401374       -10.9219
 209   2.0000      -0.398547       -10.8450
 210   2.0000      -0.397212       -10.8087
 211   2.0000      -0.390560       -10.6277
 212   2.0000      -0.386391       -10.5142
 213   2.0000      -0.382512       -10.4087
 214   2.0000      -0.377221       -10.2647
 215   2.0000      -0.369295       -10.0490
 216   2.0000      -0.360851        -9.8193
 217   2.0000      -0.359067        -9.7707
 218   2.0000      -0.353528        -9.6200
 219   2.0000      -0.344402        -9.3717
 220   2.0000      -0.338360        -9.2072
 221   2.0000      -0.322517        -8.7761
 222   2.0000      -0.311912        -8.4876
 223   2.0000      -0.309146        -8.4123
 224   2.0000      -0.303825        -8.2675
 225   2.0000      -0.296566        -8.0700
 226   2.0000      -0.293230        -7.9792
 227   2.0000      -0.289519        -7.8782
 228   2.0000      -0.274440        -7.4679
 229   2.0000      -0.272856        -7.4248
 230   2.0000      -0.263800        -7.1784
 231   2.0000      -0.215886        -5.8745
 232   2.0000      -0.207197        -5.6381
 233   0.0000      -0.091982        -2.5030
 234   0.0000      -0.044601        -1.2136
 235   0.0000      -0.036778        -1.0008
 236   0.0000      -0.023501        -0.6395
 237   0.0000       0.007496         0.2040

MULLIKEN ATOMIC CHARGES
-----------------------
   0 C :   -0.093391
   1 S :    0.050037
   2 C :   -0.061133
   3 O :   -0.174931
   4 C :    0.023658
   5 C :    0.068322
   6 C :   -0.112749
   7 S :    0.168386
   8 C :   -0.116058
   9 C :    0.147206
  10 C :    0.132812
  11 C :   -0.122215
  12 C :    0.248151
  13 F :   -0.190423
  14 C :    0.206094
  15 F :   -0.183753
  16 C :   -0.103209
  17 C :    0.012110
  18 C :   -0.020360
  19 C :    0.019243
  20 C :   -0.245912
  21 C :    0.089031
  22 C :    0.214139
  23 N :   -0.142735
  24 C :    0.076090
  25 C :   -0.043574
  26 C :    0.023847
  27 C :   -0.060017
  28 C :    0.059996
  29 C :    0.010715
  30 C :   -0.025073
  31 S :    0.088147
  32 C :   -0.060077
  33 C :    0.041551
  34 C :    0.015139
  35 C :    0.014404
  36 S :    0.097530
  37 C :   -0.023120
  38 C :   -0.035867
  39 C :   -0.106730
  40 C :    0.350147
  41 C :   -0.404235
  42 C :   -0.149767
  43 N :    0.111466
  44 C :   -0.185069
  45 N :    0.121695
  46 C :    0.021590
  47 C :   -0.002428
  48 C :    0.141315
  49 O :   -0.171240
  50 C :   -0.087570
  51 C :    0.120500
  52 C :   -0.089025
  53 C :   -0.041154
  54 S :    0.165883
  55 C :   -0.122913
  56 C :    0.036610
  57 Br:    0.004899
  58 H :    0.025190
  59 H :    0.192709
  60 H :   -0.017104
  61 H :   -0.014458
  62 H :   -0.023053
  63 H :   -0.016660
  64 H :   -0.017457
  65 H :   -0.037702
  66 H :    0.032061
  67 H :    0.013330
  68 H :    0.025165
  69 H :    0.030988
  70 H :    0.018308
  71 H :    0.128324
  72 H :    0.013173
  73 H :    0.009565
  74 H :   -0.004197
  75 H :   -0.007021
  76 H :   -0.012177
  77 H :   -0.009761
  78 H :   -0.006781
  79 H :    0.009382
  80 H :    0.009270
  81 H :   -0.018782
  82 H :   -0.019582
  83 H :   -0.008715
Sum of atomic charges:    0.0000000

LOEWDIN ATOMIC CHARGES
----------------------
   0 C :   -0.196391
   1 S :    0.378077
   2 C :   -0.108480
   3 O :   -0.053095
   4 C :   -0.132356
   5 C :   -0.035660
   6 C :   -0.156770
   7 S :    0.498739
   8 C :   -0.196679
   9 C :   -0.033620
  10 C :   -0.052079
  11 C :   -0.036916
  12 C :    0.052626
  13 F :   -0.064341
  14 C :    0.052746
  15 F :   -0.057974
  16 C :   -0.031915
  17 C :   -0.019826
  18 C :   -0.055930
  19 C :   -0.048221
  20 C :   -0.067520
  21 C :   -0.048140
  22 C :    0.043829
  23 N :    0.018834
  24 C :    0.072683
  25 C :   -0.132470
  26 C :    0.004300
  27 C :   -0.184449
  28 C :   -0.005767
  29 C :   -0.057135
  30 C :   -0.137794
  31 S :    0.392816
  32 C :   -0.212020
  33 C :   -0.007736
  34 C :   -0.055664
  35 C :   -0.098536
  36 S :    0.410870
  37 C :   -0.081284
  38 C :    0.050455
  39 C :   -0.122066
  40 C :    0.075462
  41 C :   -0.177016
  42 C :    0.000177
  43 N :   -0.088052
  44 C :   -0.019914
  45 N :   -0.078985
  46 C :   -0.013756
  47 C :   -0.043468
  48 C :    0.083216
  49 O :   -0.163704
  50 C :    0.014674
  51 C :   -0.038408
  52 C :   -0.147003
  53 C :   -0.020163
  54 S :    0.417126
  55 C :   -0.278039
  56 C :   -0.070462
  57 Br:    0.122413
  58 H :    0.023544
  59 H :    0.097109
  60 H :    0.028043
  61 H :    0.040326
  62 H :    0.034411
  63 H :    0.031728
  64 H :    0.014762
  65 H :    0.023770
  66 H :    0.037468
  67 H :    0.029871
  68 H :    0.032925
  69 H :    0.034697
  70 H :    0.027362
  71 H :    0.083868
  72 H :    0.031225
  73 H :    0.021907
  74 H :    0.036534
  75 H :    0.035895
  76 H :    0.032229
  77 H :    0.033348
  78 H :    0.035895
  79 H :    0.036552
  80 H :    0.027149
  81 H :    0.037356
  82 H :    0.036185
  83 H :    0.036598

  Mayer bond orders larger than 0.100000
B(  0-C ,  1-S ) :   1.1004 B(  0-C ,  5-C ) :   1.6190 B(  0-C , 58-H ) :   0.9700
B(  1-S ,  2-C ) :   1.1235 B(  2-C ,  3-O ) :   1.1991 B(  2-C ,  4-C ) :   1.4771
B(  3-O , 59-H ) :   0.9535 B(  4-C ,  5-C ) :   1.2313 B(  4-C ,  6-C ) :   1.0477
B(  5-C , 60-H ) :   0.9755 B(  6-C ,  7-S ) :   1.1964 B(  6-C ,  8-C ) :   0.1181
B(  6-C , 10-C ) :   1.4049 B(  7-S ,  8-C ) :   1.1243 B(  8-C ,  9-C ) :   1.3511
B(  8-C , 17-C ) :   1.1549 B(  9-C , 10-C ) :   1.2045 B(  9-C , 16-C ) :   1.1479
B( 10-C , 11-C ) :   1.1401 B( 11-C , 12-C ) :   1.5158 B( 11-C , 16-C ) :   0.1157
B( 11-C , 61-H ) :   0.9965 B( 12-C , 13-F ) :   1.0926 B( 12-C , 14-C ) :   1.1626
B( 14-C , 15-F ) :   1.0933 B( 14-C , 16-C ) :   1.5205 B( 16-C , 62-H ) :   0.9954
B( 17-C , 18-C ) :   1.6616 B( 17-C , 63-H ) :   0.9768 B( 18-C , 19-C ) :   1.1241
B( 18-C , 64-H ) :   0.9756 B( 19-C , 20-C ) :   1.7588 B( 19-C , 65-H ) :   0.9681
B( 20-C , 21-C ) :   1.0826 B( 20-C , 22-C ) :   0.9953 B( 21-C , 66-H ) :   0.9474
B( 21-C , 67-H ) :   0.9536 B( 21-C , 68-H ) :   0.9530 B( 22-C , 23-N ) :   1.0186
B( 22-C , 69-H ) :   0.9236 B( 22-C , 70-H ) :   0.9435 B( 23-N , 24-C ) :   1.2737
B( 23-N , 71-H ) :   0.9377 B( 24-C , 25-C ) :   1.5460 B( 24-C , 72-H ) :   0.9705
B( 25-C , 26-C ) :   1.2111 B( 25-C , 73-H ) :   0.9539 B( 26-C , 27-C ) :   1.5388
B( 26-C , 74-H ) :   0.9835 B( 27-C , 28-C ) :   1.1786 B( 27-C , 31-S ) :   1.0120
B( 28-C , 29-C ) :   1.5483 B( 28-C , 75-H ) :   0.9975 B( 29-C , 30-C ) :   1.2238
B( 29-C , 76-H ) :   0.9950 B( 30-C , 31-S ) :   1.1028 B( 30-C , 32-C ) :   1.4184
B( 32-C , 33-C ) :   1.2531 B( 32-C , 36-S ) :   1.0440 B( 33-C , 34-C ) :   1.4990
B( 33-C , 77-H ) :   0.9958 B( 34-C , 35-C ) :   1.2157 B( 34-C , 78-H ) :   1.0011
B( 35-C , 36-S ) :   1.1024 B( 35-C , 37-C ) :   1.3647 B( 37-C , 38-C ) :   1.3218
B( 37-C , 79-H ) :   0.9768 B( 38-C , 39-C ) :   1.4190 B( 38-C , 80-H ) :   0.9370
B( 39-C , 40-C ) :   1.1637 B( 39-C , 48-C ) :   0.9768 B( 40-C , 41-C ) :   1.5240
B( 40-C , 46-C ) :   0.9808 B( 41-C , 42-C ) :   1.1849 B( 41-C , 44-C ) :   1.1721
B( 42-C , 43-N ) :   2.8412 B( 44-C , 45-N ) :   2.8958 B( 46-C , 47-C ) :   1.2823
B( 46-C , 53-C ) :   1.4230 B( 47-C , 48-C ) :   0.9278 B( 47-C , 50-C ) :   1.4373
B( 48-C , 49-O ) :   2.1816 B( 50-C , 51-C ) :   1.2307 B( 50-C , 81-H ) :   1.0157
B( 51-C , 52-C ) :   1.3275 B( 51-C , 56-C ) :   1.1587 B( 52-C , 53-C ) :   1.3112
B( 52-C , 54-S ) :   1.0770 B( 53-C , 82-H ) :   0.9808 B( 54-S , 55-C ) :   1.0833
B( 55-C , 56-C ) :   1.6234 B( 55-C , 57-Br) :   1.0078 B( 56-C , 83-H ) :   0.9997

-----------------------------------------------------------------------------
         ABSORPTION SPECTRUM VIA TRANSITION ELECTRIC DIPOLE MOMENTS
-----------------------------------------------------------------------------
State   Energy  Wavelength   fosc         T2         TX        TY        TZ
        (cm-1)    (nm)                  (au**2)     (au)      (au)      (au)
-----------------------------------------------------------------------------
   0   10749.6    930.3   0.516735361  15.82524  -1.77673  -3.31091   1.30627
   1   13216.1    756.7   0.418712202  10.43008   1.58479   2.60035  -1.07550
   2   20624.7    484.9   0.180398128   2.87952   1.31375  -1.03866  -0.27342
   3   22217.6    450.1   0.317918498   4.71079   1.42317   1.07646  -1.23556
   4   22338.5    447.7   0.101182157   1.49117   0.22845   1.03393  -0.60825
   5   23078.8    433.3   0.190768233   2.72125   1.47594  -0.71637  -0.17219
   6   23384.9    427.6   0.474774737   6.68387  -0.89484  -1.97189   1.41237
   7   25097.5    398.4   0.304105976   3.98905   1.41978  -1.39834   0.13386
   8   26628.0    375.5   0.322672651   3.98933   1.80002   0.45702  -0.73511
   9   27692.4    361.1   0.035237869   0.41891   0.41945  -0.47877   0.11728
  10   27764.4    360.2   0.037115697   0.44009  -0.44993   0.48120  -0.07813
  11   28002.1    357.1   0.053500181   0.62899   0.74090  -0.15717  -0.23528
  12   28862.6    346.5   0.010157492   0.11586   0.15266   0.18324  -0.24285
  13   29741.3    336.2   0.015074924   0.16687   0.37493   0.04678  -0.15527
  14   30502.1    327.8   0.002492727   0.02690  -0.02135  -0.14681  -0.06998
  15   30850.8    324.1   0.020820968   0.22218  -0.46986  -0.00115   0.03753
  16   31033.6    322.2   0.001453897   0.01542  -0.03028  -0.09248   0.07716
  17   31853.6    313.9   0.307772782   3.18088  -0.76906  -1.33932   0.89198
  18   31991.2    312.6   0.021491552   0.22116   0.27233   0.36012  -0.13159
  19   32349.1    309.1   0.338386777   3.44371  -0.07972  -1.70805   0.72105
  20   32966.2    303.3   0.049431313   0.49364   0.17594  -0.64452   0.21743
  21   33136.6    301.8   0.088512904   0.87938  -0.46640  -0.59895   0.55055
  22   33340.4    299.9   0.073177543   0.72257   0.15651  -0.78233   0.29331
  23   33415.1    299.3   0.114425614   1.12734  -0.06331   0.97920  -0.40559
  24   34576.5    289.2   0.131642061   1.25340  -0.35917   0.94580  -0.47944
  25   35549.7    281.3   0.173696456   1.60854   0.29675  -1.13657   0.47821
  26   35604.4    280.9   0.003838706   0.03549   0.13567   0.08566   0.09874
  27   35901.8    278.5   0.031201165   0.28611  -0.22024   0.44114  -0.20734
  28   36152.6    276.6   0.134406521   1.22393  -1.02712   0.38899   0.13282
  29   36729.4    272.3   0.023640717   0.21190  -0.38481   0.18340  -0.17373
  30   36934.5    270.7   0.028404257   0.25318  -0.49072  -0.00883  -0.11089
  31   37221.6    268.7   0.021801110   0.19282   0.03563   0.39312  -0.19239
  32   37578.6    266.1   0.028541010   0.25004   0.00059   0.49657   0.05880
  33   37789.0    264.6   0.053670451   0.46757   0.66478  -0.05936  -0.14871
  34   38109.4    262.4   0.128238946   1.10780  -0.42412   0.94209  -0.20095
  35   38414.9    260.3   0.017840104   0.15289   0.17690  -0.10120   0.33370
  36   39378.3    253.9   0.490606072   4.10159   1.17933  -1.64590   0.04229
  37   39832.2    251.1   0.093196032   0.77026  -0.18620   0.78474  -0.34608

FINAL SINGLE POINT ENERGY     -6806.213193447952

DIPOLE MOMENT
-------------
                                X             Y             Z
Electronic contribution:    -62.50341    -145.95754      68.53826
Nuclear contribution   :     64.24726     150.36691     -69.22239
                        -----------------------------------------
Total Dipole Moment    :      1.74386       4.40937      -0.68414
                        -----------------------------------------
Magnitude (a.u.)       :      4.79078
Magnitude (Debye)      :     12.17721

Rotational constants in cm-1:     0.001597     0.000638     0.000475
Rotational constants in MHz :    47.862011    19.120124    14.227115

                             ****ORCA TERMINATED NORMALLY****
TOTAL RUN TIME: 0 days 0 hours 8 minutes 37 seconds 350 msec
