                         Program Version 4.2.0 -  RELEASE  -
|  1> # ORCA input file
|  2> # SCF done       -181.787743055367          0.000609814568
|  3> ! CAM-B3LYP def2-SVP def2/J RIJCOSX Grid4 TightSCF
|  4> %maxcore 5000
|  5> %tddft
|  6>     Mode sTDDFT
|  7>     Ethresh 5.0
|  8>     maxcore 5000
|  9> end
| 10>
| 11> %pal
| 12>   nprocs 6
| 13>   end
| 14> * xyz 0 1
| 15>    C      -10.89472        -3.53805         2.97688
| 16>    C      -10.14933        -4.61212         2.44980
| 17>    C      -10.07092        -5.80270         3.22213
| 18>    C      -10.68011        -5.85639         4.49403
| 19>    C      -11.36805        -4.76724         4.98665
| 20>    C      -11.48242        -3.61208         4.21510
| 21>    C      -10.57292        -7.06822         5.32129
| 22>    O      -11.05332        -7.15763         6.43235
| 23>    N       -9.87224        -8.13165         4.77866
| 24>    C       -9.72371        -9.29907         5.63052
| 25>    C       -9.32421        -8.17591         3.50662
| 26>    O       -8.80455        -9.19159         3.08762
| 27>    C       -9.40505        -6.93884         2.71985
| 28>    C       -8.80575        -6.88542         1.47597
| 29>    C       -8.85340        -5.72237         0.72063
| 30>    C       -9.51733        -4.58639         1.16614
| 31>    C       -9.53226        -3.42441         0.30562
| 32>    S       -9.24760        -1.83058         0.90799
| 33>    C       -9.31509        -1.10399        -0.66009
| 34>    C       -9.54514        -2.08417        -1.63434
| 35>    C       -9.67151        -3.40128        -1.08606
| 36>    C       -9.98023        -4.48266        -1.94243
| 37>    C      -10.09316        -4.25176        -3.28038
| 38>    F      -10.38141        -5.26056        -4.11586
| 39>    C       -9.91443        -2.95731        -3.82521
| 40>    F      -10.01861        -2.78919        -5.15427
| 41>    C       -9.65962        -1.88502        -3.02442
| 42>    C       -9.24935         0.29692        -0.85067
| 43>    C       -9.10137         1.21712         0.13183
| 44>    C       -9.26268         2.61282        -0.11076
| 45>    C       -9.26389         3.60827         0.79799
| 46>    C       -8.98822         3.45359         2.25670
| 47>    C       -9.81251         4.95447         0.39176
| 48>    N      -11.26009         4.86265         0.55103
| 49>    C      -11.85279         5.06055         1.74984
| 50>    C      -12.86403         4.27984         2.22256
| 51>    C      -13.54847         4.48791         3.43033
| 52>    C      -14.28673         3.50971         4.05041
| 53>    C      -15.02641         3.60003         5.25067
| 54>    C      -15.55333         2.41521         5.67423
| 55>    C      -15.23619         1.31903         4.84262
| 56>    S      -14.31525         1.84758         3.46273
| 57>    C      -15.50308        -0.02394         5.06508
| 58>    C      -16.21449        -0.60131         6.13206
| 59>    C      -16.21009        -1.96855         6.11928
| 60>    C      -15.49528        -2.53450         5.04403
| 61>    S      -14.85138        -1.27223         4.02029
| 62>    C      -15.25648        -3.88309         4.83613
| 63>    C      -14.52167        -4.38050         3.77128
| 64>    C      -14.12266        -5.70114         3.64250
| 65>    C      -13.33790        -6.25879         2.58250
| 66>    C      -12.93842        -5.64084         1.41509
| 67>    C      -12.20257        -6.28061         0.40648
| 68>    N      -11.59144        -6.73354        -0.45655
| 69>    C      -13.16328        -4.29974         1.05946
| 70>    N      -13.26136        -3.21857         0.67766
| 71>    C      -13.01482        -7.63861         2.93993
| 72>    C      -13.62856        -7.93764         4.18006
| 73>    C      -14.37388        -6.74907         4.64935
| 74>    O      -15.05006        -6.67856         5.65689
| 75>    C      -13.49078        -9.15243         4.80078
| 76>    C      -12.70346       -10.12310         4.16835
| 77>    C      -12.09169        -9.81641         2.93087
| 78>    C      -12.23675        -8.58435         2.30210
| 79>    S      -11.14832       -11.14225         2.33061
| 80>    C      -11.58245       -12.08193         3.72954
| 81>    C      -12.39298       -11.43966         4.60511
| 82>   Br      -10.92410       -13.82757         3.91476
| 83>    H      -11.03293        -2.64330         2.39226
| 84>    H      -11.82453        -4.83809         5.96237
| 85>    H      -12.04562        -2.77163         4.59087
| 86>    H      -10.69646        -9.59001         6.02386
| 87>    H       -9.06772        -9.05940         6.46790
| 88>    H       -9.29033       -10.09988         5.03644
| 89>    H       -8.29068        -7.76005         1.10898
| 90>    H       -8.33557        -5.69126        -0.22488
| 91>    H      -10.16943        -5.47102        -1.55492
| 92>    H       -9.55099        -0.90668        -3.46253
| 93>    H       -9.38684         0.63762        -1.86830
| 94>    H       -8.94769         0.87627         1.14555
| 95>    H       -9.47649         2.87524        -1.14146
| 96>    H       -8.60724         2.46720         2.49713
| 97>    H       -9.90268         3.62282         2.83047
| 98>    H       -8.25620         4.19516         2.57668
| 99>    H       -9.59532         5.18332        -0.65401
|100>    H       -9.44044         5.76067         1.02499
|101>    H      -11.65228         4.09220         0.01981
|102>    H      -11.47323         5.89457         2.32585
|103>    H      -13.12580         3.39116         1.66079
|104>    H      -13.45913         5.44520         3.92614
|105>    H      -15.14402         4.53619         5.76768
|106>    H      -16.13604         2.29861         6.56997
|107>    H      -16.70633        -0.00605         6.88035
|108>    H      -16.69075        -2.58625         6.85659
|109>    H      -15.63576        -4.57416         5.57486
|110>    H      -14.21031        -3.67488         3.00951
|111>    H      -13.96536        -9.34589         5.74988
|112>    H      -11.74850        -8.40220         1.35974
|113>    H      -12.75465       -11.87291         5.51988
|114> *
|115>
|116>                          ****END OF INPUT****

CARTESIAN COORDINATES (ANGSTROEM)
---------------------------------
  C    -10.894720   -3.538050    2.976880
  C    -10.149330   -4.612120    2.449800
  C    -10.070920   -5.802700    3.222130
  C    -10.680110   -5.856390    4.494030
  C    -11.368050   -4.767240    4.986650
  C    -11.482420   -3.612080    4.215100
  C    -10.572920   -7.068220    5.321290
  O    -11.053320   -7.157630    6.432350
  N     -9.872240   -8.131650    4.778660
  C     -9.723710   -9.299070    5.630520
  C     -9.324210   -8.175910    3.506620
  O     -8.804550   -9.191590    3.087620
  C     -9.405050   -6.938840    2.719850
  C     -8.805750   -6.885420    1.475970
  C     -8.853400   -5.722370    0.720630
  C     -9.517330   -4.586390    1.166140
  C     -9.532260   -3.424410    0.305620
  S     -9.247600   -1.830580    0.907990
  C     -9.315090   -1.103990   -0.660090
  C     -9.545140   -2.084170   -1.634340
  C     -9.671510   -3.401280   -1.086060
  C     -9.980230   -4.482660   -1.942430
  C    -10.093160   -4.251760   -3.280380
  F    -10.381410   -5.260560   -4.115860
  C     -9.914430   -2.957310   -3.825210
  F    -10.018610   -2.789190   -5.154270
  C     -9.659620   -1.885020   -3.024420
  C     -9.249350    0.296920   -0.850670
  C     -9.101370    1.217120    0.131830
  C     -9.262680    2.612820   -0.110760
  C     -9.263890    3.608270    0.797990
  C     -8.988220    3.453590    2.256700
  C     -9.812510    4.954470    0.391760
  N    -11.260090    4.862650    0.551030
  C    -11.852790    5.060550    1.749840
  C    -12.864030    4.279840    2.222560
  C    -13.548470    4.487910    3.430330
  C    -14.286730    3.509710    4.050410
  C    -15.026410    3.600030    5.250670
  C    -15.553330    2.415210    5.674230
  C    -15.236190    1.319030    4.842620
  S    -14.315250    1.847580    3.462730
  C    -15.503080   -0.023940    5.065080
  C    -16.214490   -0.601310    6.132060
  C    -16.210090   -1.968550    6.119280
  C    -15.495280   -2.534500    5.044030
  S    -14.851380   -1.272230    4.020290
  C    -15.256480   -3.883090    4.836130
  C    -14.521670   -4.380500    3.771280
  C    -14.122660   -5.701140    3.642500
  C    -13.337900   -6.258790    2.582500
  C    -12.938420   -5.640840    1.415090
  C    -12.202570   -6.280610    0.406480
  N    -11.591440   -6.733540   -0.456550
  C    -13.163280   -4.299740    1.059460
  N    -13.261360   -3.218570    0.677660
  C    -13.014820   -7.638610    2.939930
  C    -13.628560   -7.937640    4.180060
  C    -14.373880   -6.749070    4.649350
  O    -15.050060   -6.678560    5.656890
  C    -13.490780   -9.152430    4.800780
  C    -12.703460  -10.123100    4.168350
  C    -12.091690   -9.816410    2.930870
  C    -12.236750   -8.584350    2.302100
  S    -11.148320  -11.142250    2.330610
  C    -11.582450  -12.081930    3.729540
  C    -12.392980  -11.439660    4.605110
  Br   -10.924100  -13.827570    3.914760
  H    -11.032930   -2.643300    2.392260
  H    -11.824530   -4.838090    5.962370
  H    -12.045620   -2.771630    4.590870
  H    -10.696460   -9.590010    6.023860
  H     -9.067720   -9.059400    6.467900
  H     -9.290330  -10.099880    5.036440
  H     -8.290680   -7.760050    1.108980
  H     -8.335570   -5.691260   -0.224880
  H    -10.169430   -5.471020   -1.554920
  H     -9.550990   -0.906680   -3.462530
  H     -9.386840    0.637620   -1.868300
  H     -8.947690    0.876270    1.145550
  H     -9.476490    2.875240   -1.141460
  H     -8.607240    2.467200    2.497130
  H     -9.902680    3.622820    2.830470
  H     -8.256200    4.195160    2.576680
  H     -9.595320    5.183320   -0.654010
  H     -9.440440    5.760670    1.024990
  H    -11.652280    4.092200    0.019810
  H    -11.473230    5.894570    2.325850
  H    -13.125800    3.391160    1.660790
  H    -13.459130    5.445200    3.926140
  H    -15.144020    4.536190    5.767680
  H    -16.136040    2.298610    6.569970
  H    -16.706330   -0.006050    6.880350
  H    -16.690750   -2.586250    6.856590
  H    -15.635760   -4.574160    5.574860
  H    -14.210310   -3.674880    3.009510
  H    -13.965360   -9.345890    5.749880
  H    -11.748500   -8.402200    1.359740
  H    -12.754650  -11.872910    5.519880

 Total Charge           Charge          ....    0
 Multiplicity           Mult            ....    1
 Number of Electrons    NEL             ....  524
 Basis Dimension        Dim             .... 1141

ORBITAL ENERGIES
----------------

  NO   OCC          E(Eh)            E(eV)
   0   2.0000    -482.868152    -13139.5104
   1   2.0000     -88.965878     -2420.8846
   2   2.0000     -88.961083     -2420.7541
   3   2.0000     -88.955045     -2420.5898
   4   2.0000     -88.954061     -2420.5631
   5   2.0000     -62.545883     -1701.9600
   6   2.0000     -56.379805     -1534.1725
   7   2.0000     -56.377140     -1534.1000
   8   2.0000     -56.377102     -1534.0989
   9   2.0000     -24.777522      -674.2306
  10   2.0000     -24.770204      -674.0315
  11   2.0000     -19.188661      -522.1500
  12   2.0000     -19.184419      -522.0346
  13   2.0000     -19.182265      -521.9760
  14   2.0000     -14.458850      -393.4453
  15   2.0000     -14.444031      -393.0421
  16   2.0000     -14.397156      -391.7665
  17   2.0000     -14.395093      -391.7104
  18   2.0000     -10.372788      -282.2579
  19   2.0000     -10.370196      -282.1874
  20   2.0000     -10.358138      -281.8593
  21   2.0000     -10.352463      -281.7048
  22   2.0000     -10.345544      -281.5166
  23   2.0000     -10.338380      -281.3216
  24   2.0000     -10.338324      -281.3201
  25   2.0000     -10.334348      -281.2119
  26   2.0000     -10.328891      -281.0634
  27   2.0000     -10.319158      -280.7986
  28   2.0000     -10.315112      -280.6885
  29   2.0000     -10.313999      -280.6582
  30   2.0000     -10.312363      -280.6137
  31   2.0000     -10.311538      -280.5912
  32   2.0000     -10.310593      -280.5655
  33   2.0000     -10.305313      -280.4218
  34   2.0000     -10.305240      -280.4198
  35   2.0000     -10.303915      -280.3838
  36   2.0000     -10.302524      -280.3459
  37   2.0000     -10.301308      -280.3128
  38   2.0000     -10.300503      -280.2909
  39   2.0000     -10.298497      -280.2364
  40   2.0000     -10.297856      -280.2189
  41   2.0000     -10.295874      -280.1650
  42   2.0000     -10.290725      -280.0249
  43   2.0000     -10.288812      -279.9728
  44   2.0000     -10.287363      -279.9334
  45   2.0000     -10.287296      -279.9315
  46   2.0000     -10.286970      -279.9227
  47   2.0000     -10.286212      -279.9021
  48   2.0000     -10.285169      -279.8737
  49   2.0000     -10.285091      -279.8716
  50   2.0000     -10.284332      -279.8509
  51   2.0000     -10.284192      -279.8471
  52   2.0000     -10.282549      -279.8024
  53   2.0000     -10.281844      -279.7832
  54   2.0000     -10.281720      -279.7798
  55   2.0000     -10.279436      -279.7177
  56   2.0000     -10.279323      -279.7146
  57   2.0000     -10.279192      -279.7110
  58   2.0000     -10.277901      -279.6759
  59   2.0000     -10.277718      -279.6709
  60   2.0000     -10.277639      -279.6688
  61   2.0000     -10.277547      -279.6663
  62   2.0000     -10.277531      -279.6658
  63   2.0000     -10.277144      -279.6553
  64   2.0000     -10.276508      -279.6380
  65   2.0000     -10.276374      -279.6344
  66   2.0000     -10.273538      -279.5572
  67   2.0000     -10.271576      -279.5038
  68   2.0000     -10.269970      -279.4601
  69   2.0000     -10.267408      -279.3904
  70   2.0000     -10.262365      -279.2531
  71   2.0000     -10.261132      -279.2196
  72   2.0000      -8.775312      -238.7884
  73   2.0000      -8.060515      -219.3378
  74   2.0000      -8.057339      -219.2513
  75   2.0000      -8.050686      -219.0703
  76   2.0000      -8.049746      -219.0447
  77   2.0000      -6.611502      -179.9081
  78   2.0000      -6.597110      -179.5165
  79   2.0000      -6.596916      -179.5112
  80   2.0000      -6.029430      -164.0691
  81   2.0000      -6.026945      -164.0015
  82   2.0000      -6.025401      -163.9595
  83   2.0000      -6.023436      -163.9060
  84   2.0000      -6.022929      -163.8922
  85   2.0000      -6.020221      -163.8185
  86   2.0000      -6.019425      -163.7969
  87   2.0000      -6.018463      -163.7707
  88   2.0000      -6.016267      -163.7110
  89   2.0000      -6.015154      -163.6807
  90   2.0000      -6.012023      -163.5955
  91   2.0000      -6.010981      -163.5671
  92   2.0000      -2.727385       -74.2159
  93   2.0000      -2.723358       -74.1063
  94   2.0000      -2.723230       -74.1029
  95   2.0000      -2.711780       -73.7913
  96   2.0000      -2.711764       -73.7909
  97   2.0000      -1.296756       -35.2865
  98   2.0000      -1.280441       -34.8426
  99   2.0000      -1.135359       -30.8947
 100   2.0000      -1.111324       -30.2407
 101   2.0000      -1.102150       -29.9910
 102   2.0000      -1.061976       -28.8978
 103   2.0000      -1.012844       -27.5609
 104   2.0000      -1.007147       -27.4059
 105   2.0000      -1.002505       -27.2795
 106   2.0000      -1.000123       -27.2147
 107   2.0000      -0.994192       -27.0533
 108   2.0000      -0.983118       -26.7520
 109   2.0000      -0.976325       -26.5671
 110   2.0000      -0.976177       -26.5631
 111   2.0000      -0.966611       -26.3028
 112   2.0000      -0.936588       -25.4859
 113   2.0000      -0.931222       -25.3398
 114   2.0000      -0.925027       -25.1713
 115   2.0000      -0.920310       -25.0429
 116   2.0000      -0.915503       -24.9121
 117   2.0000      -0.902148       -24.5487
 118   2.0000      -0.894075       -24.3290
 119   2.0000      -0.887072       -24.1385
 120   2.0000      -0.880324       -23.9548
 121   2.0000      -0.869211       -23.6524
 122   2.0000      -0.864034       -23.5116
 123   2.0000      -0.857724       -23.3399
 124   2.0000      -0.855655       -23.2836
 125   2.0000      -0.846536       -23.0354
 126   2.0000      -0.837148       -22.7800
 127   2.0000      -0.831353       -22.6223
 128   2.0000      -0.829894       -22.5826
 129   2.0000      -0.824547       -22.4371
 130   2.0000      -0.822553       -22.3828
 131   2.0000      -0.808632       -22.0040
 132   2.0000      -0.807312       -21.9681
 133   2.0000      -0.797607       -21.7040
 134   2.0000      -0.792171       -21.5561
 135   2.0000      -0.774364       -21.0715
 136   2.0000      -0.765517       -20.8308
 137   2.0000      -0.749728       -20.4011
 138   2.0000      -0.743704       -20.2372
 139   2.0000      -0.735372       -20.0105
 140   2.0000      -0.724902       -19.7256
 141   2.0000      -0.724392       -19.7117
 142   2.0000      -0.716537       -19.4980
 143   2.0000      -0.708303       -19.2739
 144   2.0000      -0.705057       -19.1856
 145   2.0000      -0.702497       -19.1159
 146   2.0000      -0.691885       -18.8272
 147   2.0000      -0.684669       -18.6308
 148   2.0000      -0.674755       -18.3610
 149   2.0000      -0.668106       -18.1801
 150   2.0000      -0.665679       -18.1140
 151   2.0000      -0.653047       -17.7703
 152   2.0000      -0.649406       -17.6712
 153   2.0000      -0.641480       -17.4555
 154   2.0000      -0.639045       -17.3893
 155   2.0000      -0.638260       -17.3679
 156   2.0000      -0.633253       -17.2317
 157   2.0000      -0.629543       -17.1307
 158   2.0000      -0.621952       -16.9242
 159   2.0000      -0.614113       -16.7109
 160   2.0000      -0.611305       -16.6345
 161   2.0000      -0.602944       -16.4070
 162   2.0000      -0.601284       -16.3618
 163   2.0000      -0.600331       -16.3359
 164   2.0000      -0.596700       -16.2370
 165   2.0000      -0.592629       -16.1262
 166   2.0000      -0.588264       -16.0075
 167   2.0000      -0.586038       -15.9469
 168   2.0000      -0.577803       -15.7228
 169   2.0000      -0.575223       -15.6526
 170   2.0000      -0.572005       -15.5650
 171   2.0000      -0.568443       -15.4681
 172   2.0000      -0.563631       -15.3372
 173   2.0000      -0.561598       -15.2819
 174   2.0000      -0.561173       -15.2703
 175   2.0000      -0.553461       -15.0604
 176   2.0000      -0.545282       -14.8379
 177   2.0000      -0.543085       -14.7781
 178   2.0000      -0.541084       -14.7236
 179   2.0000      -0.534600       -14.5472
 180   2.0000      -0.527786       -14.3618
 181   2.0000      -0.524284       -14.2665
 182   2.0000      -0.523023       -14.2322
 183   2.0000      -0.522048       -14.2056
 184   2.0000      -0.521703       -14.1963
 185   2.0000      -0.520630       -14.1671
 186   2.0000      -0.518959       -14.1216
 187   2.0000      -0.513103       -13.9622
 188   2.0000      -0.510595       -13.8940
 189   2.0000      -0.508971       -13.8498
 190   2.0000      -0.507396       -13.8069
 191   2.0000      -0.506107       -13.7719
 192   2.0000      -0.503944       -13.7130
 193   2.0000      -0.501561       -13.6482
 194   2.0000      -0.499636       -13.5958
 195   2.0000      -0.496177       -13.5017
 196   2.0000      -0.493851       -13.4384
 197   2.0000      -0.492092       -13.3905
 198   2.0000      -0.487621       -13.2688
 199   2.0000      -0.486564       -13.2401
 200   2.0000      -0.484522       -13.1845
 201   2.0000      -0.482947       -13.1417
 202   2.0000      -0.482214       -13.1217
 203   2.0000      -0.477517       -12.9939
 204   2.0000      -0.475817       -12.9476
 205   2.0000      -0.474126       -12.9016
 206   2.0000      -0.473090       -12.8734
 207   2.0000      -0.471459       -12.8291
 208   2.0000      -0.470239       -12.7958
 209   2.0000      -0.470014       -12.7897
 210   2.0000      -0.466299       -12.6886
 211   2.0000      -0.465001       -12.6533
 212   2.0000      -0.463060       -12.6005
 213   2.0000      -0.459942       -12.5157
 214   2.0000      -0.456675       -12.4268
 215   2.0000      -0.452098       -12.3022
 216   2.0000      -0.450624       -12.2621
 217   2.0000      -0.448985       -12.2175
 218   2.0000      -0.444485       -12.0951
 219   2.0000      -0.442407       -12.0385
 220   2.0000      -0.440900       -11.9975
 221   2.0000      -0.437275       -11.8989
 222   2.0000      -0.433564       -11.7979
 223   2.0000      -0.432314       -11.7639
 224   2.0000      -0.430921       -11.7259
 225   2.0000      -0.428798       -11.6682
 226   2.0000      -0.426189       -11.5972
 227   2.0000      -0.423328       -11.5193
 228   2.0000      -0.421175       -11.4607
 229   2.0000      -0.419475       -11.4145
 230   2.0000      -0.417472       -11.3600
 231   2.0000      -0.414161       -11.2699
 232   2.0000      -0.408533       -11.1167
 233   2.0000      -0.407601       -11.0914
 234   2.0000      -0.407266       -11.0823
 235   2.0000      -0.403267       -10.9734
 236   2.0000      -0.399989       -10.8842
 237   2.0000      -0.391811       -10.6617
 238   2.0000      -0.388469       -10.5708
 239   2.0000      -0.386099       -10.5063
 240   2.0000      -0.376088       -10.2339
 241   2.0000      -0.367056        -9.9881
 242   2.0000      -0.360892        -9.8204
 243   2.0000      -0.357853        -9.7377
 244   2.0000      -0.350767        -9.5448
 245   2.0000      -0.348809        -9.4916
 246   2.0000      -0.344603        -9.3771
 247   2.0000      -0.343154        -9.3377
 248   2.0000      -0.331444        -9.0190
 249   2.0000      -0.327741        -8.9183
 250   2.0000      -0.326211        -8.8767
 251   2.0000      -0.324600        -8.8328
 252   2.0000      -0.315288        -8.5794
 253   2.0000      -0.308780        -8.4023
 254   2.0000      -0.305516        -8.3135
 255   2.0000      -0.303049        -8.2464
 256   2.0000      -0.294065        -8.0019
 257   2.0000      -0.284411        -7.7392
 258   2.0000      -0.276654        -7.5281
 259   2.0000      -0.269299        -7.3280
 260   2.0000      -0.232981        -6.3397
 261   2.0000      -0.215397        -5.8613
 262   0.0000      -0.099273        -2.7014
 263   0.0000      -0.069035        -1.8785
 264   0.0000      -0.049613        -1.3500
 265   0.0000      -0.037308        -1.0152
 266   0.0000      -0.030195        -0.8217

MULLIKEN ATOMIC CHARGES
-----------------------
   0 C :   -0.039860
   1 C :    0.090947
   2 C :    0.142592
   3 C :   -0.080966
   4 C :    0.010135
   5 C :    0.037037
   6 C :    0.148558
   7 O :   -0.200946
   8 N :   -0.273571
   9 C :    0.141906
  10 C :    0.149588
  11 O :   -0.196261
  12 C :   -0.064178
  13 C :   -0.020459
  14 C :   -0.011407
  15 C :    0.080601
  16 C :   -0.178223
  17 S :    0.156940
  18 C :   -0.099639
  19 C :    0.120619
  20 C :    0.169135
  21 C :   -0.117608
  22 C :    0.220152
  23 F :   -0.175664
  24 C :    0.228619
  25 F :   -0.181435
  26 C :   -0.121963
  27 C :   -0.000954
  28 C :   -0.003996
  29 C :    0.013674
  30 C :   -0.208653
  31 C :    0.093824
  32 C :    0.179672
  33 N :   -0.129400
  34 C :    0.053177
  35 C :   -0.031683
  36 C :    0.022691
  37 C :   -0.058647
  38 C :    0.057714
  39 C :    0.010613
  40 C :   -0.026636
  41 S :    0.097928
  42 C :   -0.067649
  43 C :    0.045832
  44 C :    0.016604
  45 C :    0.007325
  46 S :    0.098851
  47 C :   -0.032600
  48 C :   -0.035578
  49 C :   -0.113269
  50 C :    0.352809
  51 C :   -0.376665
  52 C :   -0.153738
  53 N :    0.110673
  54 C :   -0.214143
  55 N :    0.135859
  56 C :   -0.002118
  57 C :    0.001266
  58 C :    0.142074
  59 O :   -0.164104
  60 C :   -0.074770
  61 C :    0.103448
  62 C :   -0.104140
  63 C :   -0.030575
  64 S :    0.210685
  65 C :   -0.126549
  66 C :    0.030200
  67 Br:    0.008147
  68 H :   -0.002302
  69 H :    0.005618
  70 H :   -0.017598
  71 H :    0.038154
  72 H :    0.029969
  73 H :    0.052601
  74 H :    0.000259
  75 H :   -0.007995
  76 H :   -0.004929
  77 H :   -0.020925
  78 H :   -0.016994
  79 H :   -0.008591
  80 H :   -0.026737
  81 H :    0.020545
  82 H :    0.031808
  83 H :    0.021302
  84 H :    0.027042
  85 H :    0.013609
  86 H :    0.124279
  87 H :    0.012170
  88 H :    0.006088
  89 H :   -0.003645
  90 H :   -0.005990
  91 H :   -0.009676
  92 H :   -0.009151
  93 H :   -0.003004
  94 H :    0.014316
  95 H :    0.010458
  96 H :   -0.016999
  97 H :   -0.015198
  98 H :   -0.010332
Sum of atomic charges:   -0.0000000

LOEWDIN ATOMIC CHARGES
----------------------
   0 C :    0.003598
   1 C :   -0.021110
   2 C :    0.003576
   3 C :   -0.072561
   4 C :    0.038681
   5 C :   -0.026114
   6 C :    0.085795
   7 O :   -0.184821
   8 N :   -0.024012
   9 C :    0.035378
  10 C :    0.084161
  11 O :   -0.189311
  12 C :   -0.071800
  13 C :    0.033691
  14 C :   -0.007655
  15 C :   -0.013593
  16 C :   -0.167701
  17 S :    0.502749
  18 C :   -0.188391
  19 C :   -0.037357
  20 C :   -0.037446
  21 C :   -0.033062
  22 C :    0.057278
  23 F :   -0.054994
  24 C :    0.065730
  25 F :   -0.058852
  26 C :   -0.050523
  27 C :   -0.028613
  28 C :   -0.042810
  29 C :   -0.045470
  30 C :   -0.052718
  31 C :   -0.049304
  32 C :    0.050534
  33 N :    0.012796
  34 C :    0.064105
  35 C :   -0.124527
  36 C :    0.001312
  37 C :   -0.182127
  38 C :   -0.005584
  39 C :   -0.055483
  40 C :   -0.137556
  41 S :    0.394698
  42 C :   -0.211617
  43 C :   -0.006817
  44 C :   -0.055133
  45 C :   -0.103224
  46 S :    0.402526
  47 C :   -0.086595
  48 C :    0.046714
  49 C :   -0.117924
  50 C :    0.078080
  51 C :   -0.173533
  52 C :    0.003981
  53 N :   -0.084595
  54 C :   -0.018438
  55 N :   -0.083505
  56 C :   -0.023996
  57 C :   -0.046466
  58 C :    0.082701
  59 O :   -0.157255
  60 C :    0.020224
  61 C :   -0.038653
  62 C :   -0.151279
  63 C :   -0.021040
  64 S :    0.453865
  65 C :   -0.276903
  66 C :   -0.076861
  67 Br:    0.125834
  68 H :    0.017737
  69 H :    0.040511
  70 H :    0.027306
  71 H :    0.027177
  72 H :    0.028427
  73 H :    0.030948
  74 H :    0.040382
  75 H :    0.035560
  76 H :    0.039752
  77 H :    0.035754
  78 H :    0.031601
  79 H :    0.018644
  80 H :    0.023681
  81 H :    0.032664
  82 H :    0.035534
  83 H :    0.035189
  84 H :    0.030255
  85 H :    0.027424
  86 H :    0.080934
  87 H :    0.029429
  88 H :    0.023528
  89 H :    0.036981
  90 H :    0.036461
  91 H :    0.032778
  92 H :    0.033956
  93 H :    0.037352
  94 H :    0.037943
  95 H :    0.028619
  96 H :    0.039319
  97 H :    0.037735
  98 H :    0.035744

  Mayer bond orders larger than 0.100000
B(  0-C ,  1-C ) :   1.2324 B(  0-C ,  5-C ) :   1.4861 B(  0-C , 68-H ) :   0.9629
B(  1-C ,  2-C ) :   1.2602 B(  1-C , 15-C ) :   1.2229 B(  2-C ,  3-C ) :   1.2165
B(  2-C , 12-C ) :   1.2339 B(  3-C ,  4-C ) :   1.5002 B(  3-C ,  6-C ) :   0.9318
B(  4-C ,  5-C ) :   1.2321 B(  4-C , 69-H ) :   0.9952 B(  5-C , 70-H ) :   0.9810
B(  6-C ,  7-O ) :   2.1541 B(  6-C ,  8-N ) :   1.0853 B(  8-N ,  9-C ) :   0.9378
B(  8-N , 10-C ) :   1.0780 B(  9-C , 71-H ) :   0.9630 B(  9-C , 72-H ) :   0.9750
B(  9-C , 73-H ) :   0.9551 B( 10-C , 11-O ) :   2.1514 B( 10-C , 12-C ) :   0.9303
B( 12-C , 13-C ) :   1.4515 B( 13-C , 14-C ) :   1.2451 B( 13-C , 74-H ) :   0.9976
B( 14-C , 15-C ) :   1.4432 B( 14-C , 75-H ) :   0.9986 B( 15-C , 16-C ) :   1.0049
B( 16-C , 17-S ) :   1.1774 B( 16-C , 18-C ) :   0.1214 B( 16-C , 20-C ) :   1.4004
B( 17-S , 18-C ) :   1.1365 B( 18-C , 19-C ) :   1.3429 B( 18-C , 27-C ) :   1.1514
B( 19-C , 20-C ) :   1.2034 B( 19-C , 26-C ) :   1.1541 B( 20-C , 21-C ) :   1.1361
B( 21-C , 22-C ) :   1.5264 B( 21-C , 26-C ) :   0.1139 B( 21-C , 76-H ) :   0.9797
B( 22-C , 23-F ) :   1.1333 B( 22-C , 24-C ) :   1.1375 B( 24-C , 25-F ) :   1.1260
B( 24-C , 26-C ) :   1.5164 B( 26-C , 77-H ) :   0.9975 B( 27-C , 28-C ) :   1.6705
B( 27-C , 78-H ) :   0.9757 B( 28-C , 29-C ) :   1.1248 B( 28-C , 79-H ) :   0.9715
B( 29-C , 30-C ) :   1.7371 B( 29-C , 80-H ) :   0.9741 B( 30-C , 31-C ) :   1.0833
B( 30-C , 32-C ) :   1.0282 B( 31-C , 81-H ) :   0.9516 B( 31-C , 82-H ) :   0.9411
B( 31-C , 83-H ) :   0.9460 B( 32-C , 33-N ) :   1.0016 B( 32-C , 84-H ) :   0.9452
B( 32-C , 85-H ) :   0.9385 B( 33-N , 34-C ) :   1.2674 B( 33-N , 86-H ) :   0.9370
B( 34-C , 35-C ) :   1.5455 B( 34-C , 87-H ) :   0.9737 B( 35-C , 36-C ) :   1.2044
B( 35-C , 88-H ) :   0.9578 B( 36-C , 37-C ) :   1.5442 B( 36-C , 89-H ) :   0.9810
B( 37-C , 38-C ) :   1.1750 B( 37-C , 41-S ) :   1.0144 B( 38-C , 39-C ) :   1.5531
B( 38-C , 90-H ) :   0.9977 B( 39-C , 40-C ) :   1.2210 B( 39-C , 91-H ) :   0.9943
B( 40-C , 41-S ) :   1.1033 B( 40-C , 42-C ) :   1.4232 B( 42-C , 43-C ) :   1.2518
B( 42-C , 46-S ) :   1.0385 B( 43-C , 44-C ) :   1.5012 B( 43-C , 92-H ) :   0.9942
B( 44-C , 45-C ) :   1.2128 B( 44-C , 93-H ) :   1.0018 B( 45-C , 46-S ) :   1.0931
B( 45-C , 47-C ) :   1.3694 B( 47-C , 48-C ) :   1.3124 B( 47-C , 94-H ) :   0.9761
B( 48-C , 49-C ) :   1.4373 B( 48-C , 95-H ) :   0.9310 B( 49-C , 50-C ) :   1.1474
B( 49-C , 58-C ) :   0.9698 B( 50-C , 51-C ) :   1.5510 B( 50-C , 56-C ) :   0.9791
B( 51-C , 52-C ) :   1.1792 B( 51-C , 54-C ) :   1.1661 B( 52-C , 53-N ) :   2.8292
B( 54-C , 55-N ) :   2.9142 B( 56-C , 57-C ) :   1.2820 B( 56-C , 63-C ) :   1.4278
B( 57-C , 58-C ) :   0.9293 B( 57-C , 60-C ) :   1.4321 B( 58-C , 59-O ) :   2.1827
B( 60-C , 61-C ) :   1.2218 B( 60-C , 96-H ) :   1.0164 B( 61-C , 62-C ) :   1.3205
B( 61-C , 66-C ) :   1.1592 B( 62-C , 63-C ) :   1.3024 B( 62-C , 64-S ) :   1.1015
B( 63-C , 97-H ) :   0.9773 B( 64-S , 65-C ) :   1.1026 B( 65-C , 66-C ) :   1.6055
B( 65-C , 67-Br) :   1.0100 B( 66-C , 98-H ) :   1.0017

-----------------------------------------------------------------------------
         ABSORPTION SPECTRUM VIA TRANSITION ELECTRIC DIPOLE MOMENTS
-----------------------------------------------------------------------------
State   Energy  Wavelength   fosc         T2         TX        TY        TZ
        (cm-1)    (nm)                  (au**2)     (au)      (au)      (au)
-----------------------------------------------------------------------------
   0   11004.0    908.8   0.745607600  22.30666   0.28639   4.71216  -0.14220
   1   15977.9    625.9   0.113187392   2.33214  -0.67174   1.20234   0.65977
   2   17395.8    574.8   0.073752472   1.39575  -0.55511   0.94400   0.44326
   3   20059.9    498.5   0.775120198  12.72084   0.04772  -3.48200   0.77088
   4   21344.3    468.5   0.167074166   2.57693  -0.64058  -1.16022   0.90581
   5   22711.9    440.3   0.181482817   2.63061  -0.50188  -1.18027   0.99281
   6   24032.3    416.1   0.312617987   4.28248  -1.25395   0.38914   1.59958
   7   24754.5    404.0   0.254050747   3.37863   0.73908   1.13193  -1.24545
   8   25052.0    399.2   0.024694436   0.32451  -0.22839  -0.49068   0.17772
   9   25806.8    387.5   0.368318583   4.69856  -0.82011   1.81197   0.86183
  10   26501.8    377.3   0.274544283   3.41045   1.50983   0.32075  -1.01389
  11   27014.7    370.2   0.088046509   1.07297   0.42341   0.93310   0.15171
  12   27138.9    368.5   0.001491999   0.01810  -0.04348   0.08131   0.09796
  13   27637.2    361.8   0.031314412   0.37301  -0.27863   0.51982   0.15865
  14   28321.1    353.1   0.052551376   0.61087  -0.57769   0.40829   0.33233
  15   29909.8    334.3   0.048587776   0.53480   0.12251  -0.11634  -0.71151
  16   30510.3    327.8   0.037031250   0.39957  -0.11121  -0.42749   0.45218
  17   30628.8    326.5   0.011886351   0.12776   0.25716  -0.04121  -0.24481
  18   30660.0    326.2   0.001500952   0.01612  -0.04243  -0.01136  -0.11911
  19   30786.0    324.8   0.038889524   0.41587   0.03760  -0.10585  -0.63502
  20   31218.6    320.3   0.006923959   0.07302  -0.00667   0.17135  -0.20883
  21   31935.7    313.1   0.305110451   3.14526  -0.65343   1.60922  -0.35876
  22   32067.2    311.8   0.032863868   0.33739   0.23068  -0.51740   0.12836
  23   32577.7    307.0   0.011848960   0.11974  -0.16449  -0.30344  -0.02466
  24   32684.2    306.0   0.018927643   0.19065  -0.10401  -0.16680  -0.38988
  25   32774.4    305.1   0.021100340   0.21195   0.33336   0.15173  -0.27892
  26   33328.5    300.0   0.020853441   0.20599  -0.12698  -0.33451  -0.27922
  27   33465.2    298.8   0.036473670   0.35881  -0.16714  -0.36416  -0.44526
  28   33659.3    297.1   0.046804655   0.45778  -0.14906  -0.37438   0.54351
  29   33769.0    296.1   0.014141897   0.13787  -0.19369  -0.29497   0.11553
  30   34003.7    294.1   0.032125164   0.31102  -0.30858   0.29147   0.36173
  31   34535.6    289.6   0.016409472   0.15642   0.05411  -0.27682   0.27725
  32   34650.4    288.6   0.082919906   0.78782  -0.18380  -0.63446  -0.59287
  33   34733.3    287.9   0.130698296   1.23879  -0.02473   0.27351  -1.07860
  34   34903.7    286.5   0.104568181   0.98629  -0.15093  -0.97005   0.15007
  35   35575.8    281.1   0.028376875   0.26259   0.04631  -0.22465  -0.45824
  36   35633.0    280.6   0.001246720   0.01152  -0.10655  -0.01114  -0.00638
  37   35958.5    278.1   0.025362686   0.23220  -0.27577  -0.20040   0.34058
  38   36162.2    276.5   0.036124305   0.32887   0.29011  -0.39712  -0.29496
  39   36448.9    274.4   0.096303944   0.86983  -0.19763   0.19101   0.89123
  40   36849.8    271.4   0.215533236   1.92555  -0.21413   1.05214   0.87904
  41   36897.5    271.0   0.001073257   0.00958  -0.07144   0.03349   0.05788
  42   36981.5    270.4   0.001319001   0.01174  -0.05603   0.00568  -0.09257
  43   37433.4    267.1   0.027829197   0.24475  -0.27809  -0.29876   0.27956
  44   37592.5    266.0   0.082784843   0.72498  -0.59911  -0.50059   0.33979
  45   37701.2    265.2   0.197949062   1.72852  -0.16164   1.12373   0.66304
  46   37926.0    263.7   0.039900722   0.34635  -0.15395   0.37731  -0.42460
  47   38068.4    262.7   0.013376515   0.11568  -0.03154  -0.30551   0.14611
  48   38247.6    261.5   0.029439401   0.25340   0.20469  -0.45730  -0.04872
  49   38341.2    260.8   0.042697978   0.36662  -0.14301  -0.51832   0.27841
  50   38563.8    259.3   0.098918068   0.84444   0.08329   0.60754   0.68440
  51   38880.1    257.2   0.057499170   0.48687  -0.20816   0.63264  -0.20810
  52   39205.9    255.1   0.013050937   0.10959  -0.12720  -0.14692   0.26800
  53   39719.6    251.8   0.129953700   1.07711  -0.41866   0.14999   0.93773
  54   40157.4    249.0   0.026348937   0.21601  -0.15286   0.37540  -0.22741
  55   40238.9    248.5   0.002750020   0.02250   0.00126   0.13330  -0.06876

FINAL SINGLE POINT ENERGY     -6883.573869733566

DIPOLE MOMENT
-------------
                                X             Y             Z
Electronic contribution:      4.18170    -162.21887     -10.21626
Nuclear contribution   :     -3.97526     168.51489      11.72389
                        -----------------------------------------
Total Dipole Moment    :      0.20644       6.29602       1.50763
                        -----------------------------------------
Magnitude (a.u.)       :      6.47730
Magnitude (Debye)      :     16.46399

Rotational constants in cm-1:     0.001438     0.000559     0.000449
Rotational constants in MHz :    43.114284    16.772599    13.448927

                             ****ORCA TERMINATED NORMALLY****
TOTAL RUN TIME: 0 days 0 hours 21 minutes 11 seconds 657 msec
