                         Program Version 4.2.0 -  RELEASE  -
|  1> # ORCA input file
|  2> # SCF done       -160.810122443868          0.000852665291
|  3> ! CAM-B3LYP def2-SVP def2/J RIJCOSX Grid4 TightSCF
|  4> %maxcore 5000
|  5> %tddft
|  6>     Mode sTDDFT
|  7>     Ethresh 5.0
|  8>     maxcore 5000
|  9> end
| 10>
| 11> %pal
| 12>   nprocs 6
| 13>   end
| 14> * xyz 0 1
| 15>    C       -3.40362         3.07491        -1.06654
| 16>    C       -3.21485         1.71404        -1.15526
| 17>    C       -1.98268         1.10575        -1.46283
| 18>    N       -1.01060         0.54519        -1.71018
| 19>    C       -4.19991         0.72971        -0.94344
| 20>    N       -4.93354        -0.14070        -0.78273
| 21>    C       -2.35964         4.07934        -1.26731
| 22>    C       -2.91786         5.36169        -1.04891
| 23>    C       -2.18798         6.51804        -1.16584
| 24>    C       -0.83881         6.40544        -1.52077
| 25>    C       -0.29053         5.12125        -1.73910
| 26>    C       -1.02956         3.95001        -1.61686
| 27>    S        1.39025         5.20941        -2.17547
| 28>    C        1.33146         6.94810        -2.06016
| 29>    C        0.11917         7.43928        -1.71234
| 30>   Br        2.87747         7.95176        -2.41278
| 31>    C       -4.35010         5.21641        -0.70729
| 32>    O       -5.12063         6.12340        -0.45440
| 33>    C       -4.62427         3.76937        -0.75166
| 34>    C       -5.86831         3.20074        -0.55513
| 35>    C       -7.03050         3.90195        -0.25627
| 36>    C       -8.26114         3.28868        -0.11350
| 37>    C       -9.49062         3.92370         0.17803
| 38>    C      -10.55689         3.07569         0.23710
| 39>    C      -10.22121         1.72623        -0.00573
| 40>    S       -8.50137         1.56804        -0.30065
| 41>    C      -11.05965         0.62888        -0.04979
| 42>    C      -12.46777         0.60375         0.12853
| 43>    C      -13.01566        -0.62825        -0.00983
| 44>    C      -12.07657        -1.66226        -0.30604
| 45>    S      -10.45169        -0.97192        -0.37057
| 46>    C      -12.37621        -2.95551        -0.58787
| 47>    C      -11.42666        -4.00810        -0.88064
| 48>    C      -11.70937        -4.98502        -1.85210
| 49>    C      -12.99861        -4.96297        -2.62633
| 50>    C      -14.03596        -5.87973        -1.97304
| 51>    C      -10.77707        -5.99408        -2.08368
| 52>    C       -9.59479        -6.04574        -1.35157
| 53>    C       -9.31809        -5.08318        -0.39828
| 54>    C      -10.22211        -4.06750        -0.17221
| 55>    C      -10.97909        -7.02939        -3.11887
| 56>    C      -11.20306        -8.34706        -2.80866
| 57>    C      -11.32442        -9.34537        -3.79381
| 58>    C      -11.18650        -9.08137        -5.13362
| 59>    C      -10.95470        -7.73447        -5.49391
| 60>    C      -10.86041        -6.70890        -4.48932
| 61>    N      -10.64527        -5.50440        -5.02336
| 62>    S      -10.57071        -5.65459        -6.62218
| 63>    N      -10.80664        -7.23958        -6.72451
| 64>    C      -11.33084       -10.12853        -6.16448
| 65>    C      -10.24361       -10.59666        -6.90517
| 66>    C       -8.87003       -10.07835        -6.56212
| 67>    C       -8.26090       -10.88943        -5.41566
| 68>    C      -10.44201       -11.58203        -7.87862
| 69>    C       -9.27825       -12.08793        -8.69567
| 70>    C       -9.06527       -11.21555        -9.93572
| 71>    C      -11.73065       -12.06571        -8.12457
| 72>    C      -12.03039       -13.12745        -9.15126
| 73>    C      -11.95234       -14.52355        -8.52872
| 74>    C      -12.79347       -11.59498        -7.36511
| 75>    C      -12.60075       -10.64143        -6.38932
| 76>    H       -2.64277         7.48075        -0.99218
| 77>    H       -0.56372         2.99559        -1.79579
| 78>    H       -0.09388         8.48630        -1.59635
| 79>    H       -5.96030         2.12562        -0.65086
| 80>    H       -6.98121         4.97464        -0.13832
| 81>    H       -9.54643         4.98674         0.33100
| 82>    H      -11.56551         3.38541         0.44460
| 83>    H      -13.02698         1.49706         0.34116
| 84>    H      -14.06595        -0.84298         0.08173
| 85>    H      -13.42696        -3.21312        -0.60544
| 86>    H      -12.81626        -5.30379        -3.64488
| 87>    H      -13.38582        -3.94550        -2.68835
| 88>    H      -13.68407        -6.90855        -1.97623
| 89>    H      -14.97629        -5.83525        -2.51735
| 90>    H      -14.21762        -5.58583        -0.94124
| 91>    H       -8.88976        -6.84068        -1.54627
| 92>    H       -8.39958        -5.12555         0.16655
| 93>    H      -10.02098        -3.33584         0.59482
| 94>    H      -11.29253        -8.63091        -1.76953
| 95>    H      -11.51607       -10.36156        -3.48008
| 96>    H       -8.94198        -9.03543        -6.25467
| 97>    H       -8.20895       -10.11318        -7.42587
| 98>    H       -8.87617       -10.80205        -4.52273
| 99>    H       -7.26168       -10.52707        -5.18318
|100>    H       -8.19515       -11.94261        -5.68067
|101>    H       -9.45670       -13.11616        -9.00778
|102>    H       -8.36799       -12.09413        -8.09703
|103>    H       -9.95139       -11.22431       -10.56647
|104>    H       -8.22161       -11.58144       -10.51757
|105>    H       -8.87100       -10.18407        -9.65145
|106>    H      -11.34986       -13.06518        -9.99936
|107>    H      -13.04237       -12.97075        -9.53185
|108>    H      -10.95465       -14.72063        -8.14308
|109>    H      -12.19440       -15.28374        -9.26814
|110>    H      -12.65509       -14.60645        -7.70295
|111>    H      -13.78679       -11.97987        -7.54753
|112>    H      -13.43464       -10.27476        -5.80769
|113> *
|114>
|115>                          ****END OF INPUT****

CARTESIAN COORDINATES (ANGSTROEM)
---------------------------------
  C     -3.403620    3.074910   -1.066540
  C     -3.214850    1.714040   -1.155260
  C     -1.982680    1.105750   -1.462830
  N     -1.010600    0.545190   -1.710180
  C     -4.199910    0.729710   -0.943440
  N     -4.933540   -0.140700   -0.782730
  C     -2.359640    4.079340   -1.267310
  C     -2.917860    5.361690   -1.048910
  C     -2.187980    6.518040   -1.165840
  C     -0.838810    6.405440   -1.520770
  C     -0.290530    5.121250   -1.739100
  C     -1.029560    3.950010   -1.616860
  S      1.390250    5.209410   -2.175470
  C      1.331460    6.948100   -2.060160
  C      0.119170    7.439280   -1.712340
  Br     2.877470    7.951760   -2.412780
  C     -4.350100    5.216410   -0.707290
  O     -5.120630    6.123400   -0.454400
  C     -4.624270    3.769370   -0.751660
  C     -5.868310    3.200740   -0.555130
  C     -7.030500    3.901950   -0.256270
  C     -8.261140    3.288680   -0.113500
  C     -9.490620    3.923700    0.178030
  C    -10.556890    3.075690    0.237100
  C    -10.221210    1.726230   -0.005730
  S     -8.501370    1.568040   -0.300650
  C    -11.059650    0.628880   -0.049790
  C    -12.467770    0.603750    0.128530
  C    -13.015660   -0.628250   -0.009830
  C    -12.076570   -1.662260   -0.306040
  S    -10.451690   -0.971920   -0.370570
  C    -12.376210   -2.955510   -0.587870
  C    -11.426660   -4.008100   -0.880640
  C    -11.709370   -4.985020   -1.852100
  C    -12.998610   -4.962970   -2.626330
  C    -14.035960   -5.879730   -1.973040
  C    -10.777070   -5.994080   -2.083680
  C     -9.594790   -6.045740   -1.351570
  C     -9.318090   -5.083180   -0.398280
  C    -10.222110   -4.067500   -0.172210
  C    -10.979090   -7.029390   -3.118870
  C    -11.203060   -8.347060   -2.808660
  C    -11.324420   -9.345370   -3.793810
  C    -11.186500   -9.081370   -5.133620
  C    -10.954700   -7.734470   -5.493910
  C    -10.860410   -6.708900   -4.489320
  N    -10.645270   -5.504400   -5.023360
  S    -10.570710   -5.654590   -6.622180
  N    -10.806640   -7.239580   -6.724510
  C    -11.330840  -10.128530   -6.164480
  C    -10.243610  -10.596660   -6.905170
  C     -8.870030  -10.078350   -6.562120
  C     -8.260900  -10.889430   -5.415660
  C    -10.442010  -11.582030   -7.878620
  C     -9.278250  -12.087930   -8.695670
  C     -9.065270  -11.215550   -9.935720
  C    -11.730650  -12.065710   -8.124570
  C    -12.030390  -13.127450   -9.151260
  C    -11.952340  -14.523550   -8.528720
  C    -12.793470  -11.594980   -7.365110
  C    -12.600750  -10.641430   -6.389320
  H     -2.642770    7.480750   -0.992180
  H     -0.563720    2.995590   -1.795790
  H     -0.093880    8.486300   -1.596350
  H     -5.960300    2.125620   -0.650860
  H     -6.981210    4.974640   -0.138320
  H     -9.546430    4.986740    0.331000
  H    -11.565510    3.385410    0.444600
  H    -13.026980    1.497060    0.341160
  H    -14.065950   -0.842980    0.081730
  H    -13.426960   -3.213120   -0.605440
  H    -12.816260   -5.303790   -3.644880
  H    -13.385820   -3.945500   -2.688350
  H    -13.684070   -6.908550   -1.976230
  H    -14.976290   -5.835250   -2.517350
  H    -14.217620   -5.585830   -0.941240
  H     -8.889760   -6.840680   -1.546270
  H     -8.399580   -5.125550    0.166550
  H    -10.020980   -3.335840    0.594820
  H    -11.292530   -8.630910   -1.769530
  H    -11.516070  -10.361560   -3.480080
  H     -8.941980   -9.035430   -6.254670
  H     -8.208950  -10.113180   -7.425870
  H     -8.876170  -10.802050   -4.522730
  H     -7.261680  -10.527070   -5.183180
  H     -8.195150  -11.942610   -5.680670
  H     -9.456700  -13.116160   -9.007780
  H     -8.367990  -12.094130   -8.097030
  H     -9.951390  -11.224310  -10.566470
  H     -8.221610  -11.581440  -10.517570
  H     -8.871000  -10.184070   -9.651450
  H    -11.349860  -13.065180   -9.999360
  H    -13.042370  -12.970750   -9.531850
  H    -10.954650  -14.720630   -8.143080
  H    -12.194400  -15.283740   -9.268140
  H    -12.655090  -14.606450   -7.702950
  H    -13.786790  -11.979870   -7.547530
  H    -13.434640  -10.274760   -5.807690

 Total Charge           Charge          ....    0
 Multiplicity           Mult            ....    1
 Number of Electrons    NEL             ....  478
 Basis Dimension        Dim             .... 1073

ORBITAL ENERGIES
----------------

  NO   OCC          E(Eh)            E(eV)
   0   2.0000    -482.875034    -13139.6977
   1   2.0000     -89.017285     -2422.2835
   2   2.0000     -88.962322     -2420.7879
   3   2.0000     -88.958673     -2420.6886
   4   2.0000     -88.954652     -2420.5791
   5   2.0000     -62.552755     -1702.1470
   6   2.0000     -56.386691     -1534.3599
   7   2.0000     -56.384002     -1534.2867
   8   2.0000     -56.383964     -1534.2857
   9   2.0000     -19.196453      -522.3620
  10   2.0000     -14.430621      -392.6772
  11   2.0000     -14.430330      -392.6693
  12   2.0000     -14.397161      -391.7667
  13   2.0000     -14.395120      -391.7111
  14   2.0000     -10.346760      -281.5497
  15   2.0000     -10.345982      -281.5285
  16   2.0000     -10.332912      -281.1728
  17   2.0000     -10.323549      -280.9180
  18   2.0000     -10.320511      -280.8354
  19   2.0000     -10.319456      -280.8067
  20   2.0000     -10.318300      -280.7752
  21   2.0000     -10.317277      -280.7474
  22   2.0000     -10.315116      -280.6886
  23   2.0000     -10.314055      -280.6597
  24   2.0000     -10.310340      -280.5586
  25   2.0000     -10.305155      -280.4175
  26   2.0000     -10.303204      -280.3644
  27   2.0000     -10.301515      -280.3185
  28   2.0000     -10.301119      -280.3077
  29   2.0000     -10.299865      -280.2736
  30   2.0000     -10.299604      -280.2665
  31   2.0000     -10.294311      -280.1224
  32   2.0000     -10.292287      -280.0674
  33   2.0000     -10.290693      -280.0240
  34   2.0000     -10.289004      -279.9780
  35   2.0000     -10.288764      -279.9715
  36   2.0000     -10.288370      -279.9608
  37   2.0000     -10.286050      -279.8977
  38   2.0000     -10.284923      -279.8670
  39   2.0000     -10.284356      -279.8516
  40   2.0000     -10.283121      -279.8179
  41   2.0000     -10.282851      -279.8106
  42   2.0000     -10.280821      -279.7554
  43   2.0000     -10.279893      -279.7301
  44   2.0000     -10.278855      -279.7019
  45   2.0000     -10.274555      -279.5849
  46   2.0000     -10.272686      -279.5340
  47   2.0000     -10.272232      -279.5216
  48   2.0000     -10.271957      -279.5141
  49   2.0000     -10.268803      -279.4283
  50   2.0000     -10.268172      -279.4112
  51   2.0000     -10.265920      -279.3499
  52   2.0000     -10.262772      -279.2642
  53   2.0000     -10.261326      -279.2249
  54   2.0000     -10.259819      -279.1839
  55   2.0000     -10.259100      -279.1643
  56   2.0000     -10.258751      -279.1548
  57   2.0000     -10.258039      -279.1354
  58   2.0000     -10.257033      -279.1081
  59   2.0000     -10.255412      -279.0639
  60   2.0000     -10.253697      -279.0173
  61   2.0000     -10.251133      -278.9475
  62   2.0000     -10.250837      -278.9395
  63   2.0000     -10.249412      -278.9007
  64   2.0000     -10.248361      -278.8721
  65   2.0000      -8.782184      -238.9754
  66   2.0000      -8.109254      -220.6640
  67   2.0000      -8.058295      -219.2774
  68   2.0000      -8.054678      -219.1789
  69   2.0000      -8.050661      -219.0696
  70   2.0000      -6.618431      -180.0967
  71   2.0000      -6.603939      -179.7023
  72   2.0000      -6.603761      -179.6975
  73   2.0000      -6.080365      -165.4551
  74   2.0000      -6.072682      -165.2461
  75   2.0000      -6.071776      -165.2214
  76   2.0000      -6.028003      -164.0303
  77   2.0000      -6.024431      -163.9331
  78   2.0000      -6.023723      -163.9138
  79   2.0000      -6.020287      -163.8203
  80   2.0000      -6.020260      -163.8196
  81   2.0000      -6.019510      -163.7992
  82   2.0000      -6.016238      -163.7102
  83   2.0000      -6.015575      -163.6921
  84   2.0000      -6.011807      -163.5896
  85   2.0000      -2.734295       -74.4040
  86   2.0000      -2.730225       -74.2932
  87   2.0000      -2.730137       -74.2908
  88   2.0000      -2.718597       -73.9768
  89   2.0000      -2.718583       -73.9764
  90   2.0000      -1.116420       -30.3793
  91   2.0000      -1.109613       -30.1941
  92   2.0000      -1.008522       -27.4433
  93   2.0000      -1.006632       -27.3918
  94   2.0000      -0.995899       -27.0998
  95   2.0000      -0.986126       -26.8339
  96   2.0000      -0.975451       -26.5434
  97   2.0000      -0.975348       -26.5406
  98   2.0000      -0.971402       -26.4332
  99   2.0000      -0.969541       -26.3826
 100   2.0000      -0.955002       -25.9869
 101   2.0000      -0.942047       -25.6344
 102   2.0000      -0.927760       -25.2456
 103   2.0000      -0.909049       -24.7365
 104   2.0000      -0.895871       -24.3779
 105   2.0000      -0.891871       -24.2690
 106   2.0000      -0.885955       -24.1081
 107   2.0000      -0.879146       -23.9228
 108   2.0000      -0.873428       -23.7672
 109   2.0000      -0.870460       -23.6864
 110   2.0000      -0.868835       -23.6422
 111   2.0000      -0.860209       -23.4075
 112   2.0000      -0.853178       -23.2162
 113   2.0000      -0.850660       -23.1476
 114   2.0000      -0.838503       -22.8168
 115   2.0000      -0.835444       -22.7336
 116   2.0000      -0.833243       -22.6737
 117   2.0000      -0.817626       -22.2487
 118   2.0000      -0.813860       -22.1463
 119   2.0000      -0.810616       -22.0580
 120   2.0000      -0.789219       -21.4757
 121   2.0000      -0.786187       -21.3932
 122   2.0000      -0.782580       -21.2951
 123   2.0000      -0.757196       -20.6044
 124   2.0000      -0.741023       -20.1643
 125   2.0000      -0.736859       -20.0510
 126   2.0000      -0.726549       -19.7704
 127   2.0000      -0.717764       -19.5314
 128   2.0000      -0.716053       -19.4848
 129   2.0000      -0.710902       -19.3446
 130   2.0000      -0.700735       -19.0680
 131   2.0000      -0.697181       -18.9713
 132   2.0000      -0.692476       -18.8432
 133   2.0000      -0.687179       -18.6991
 134   2.0000      -0.679709       -18.4958
 135   2.0000      -0.673941       -18.3389
 136   2.0000      -0.667403       -18.1610
 137   2.0000      -0.656105       -17.8535
 138   2.0000      -0.651756       -17.7352
 139   2.0000      -0.642022       -17.4703
 140   2.0000      -0.639801       -17.4099
 141   2.0000      -0.637722       -17.3533
 142   2.0000      -0.628553       -17.1038
 143   2.0000      -0.625236       -17.0135
 144   2.0000      -0.615869       -16.7586
 145   2.0000      -0.611062       -16.6278
 146   2.0000      -0.607056       -16.5188
 147   2.0000      -0.593512       -16.1503
 148   2.0000      -0.590636       -16.0720
 149   2.0000      -0.584482       -15.9046
 150   2.0000      -0.582120       -15.8403
 151   2.0000      -0.578854       -15.7514
 152   2.0000      -0.575515       -15.6605
 153   2.0000      -0.569415       -15.4946
 154   2.0000      -0.564599       -15.3635
 155   2.0000      -0.562618       -15.3096
 156   2.0000      -0.548599       -14.9281
 157   2.0000      -0.543857       -14.7991
 158   2.0000      -0.538575       -14.6554
 159   2.0000      -0.533430       -14.5154
 160   2.0000      -0.528985       -14.3944
 161   2.0000      -0.525683       -14.3046
 162   2.0000      -0.524037       -14.2598
 163   2.0000      -0.522116       -14.2075
 164   2.0000      -0.516703       -14.0602
 165   2.0000      -0.514084       -13.9889
 166   2.0000      -0.512162       -13.9366
 167   2.0000      -0.510875       -13.9016
 168   2.0000      -0.508107       -13.8263
 169   2.0000      -0.505990       -13.7687
 170   2.0000      -0.504688       -13.7333
 171   2.0000      -0.503696       -13.7063
 172   2.0000      -0.499296       -13.5865
 173   2.0000      -0.497733       -13.5440
 174   2.0000      -0.495502       -13.4833
 175   2.0000      -0.493760       -13.4359
 176   2.0000      -0.491327       -13.3697
 177   2.0000      -0.487120       -13.2552
 178   2.0000      -0.484910       -13.1951
 179   2.0000      -0.480498       -13.0750
 180   2.0000      -0.479462       -13.0468
 181   2.0000      -0.477212       -12.9856
 182   2.0000      -0.475870       -12.9491
 183   2.0000      -0.475020       -12.9260
 184   2.0000      -0.471398       -12.8274
 185   2.0000      -0.467118       -12.7109
 186   2.0000      -0.460440       -12.5292
 187   2.0000      -0.458019       -12.4633
 188   2.0000      -0.455977       -12.4078
 189   2.0000      -0.453611       -12.3434
 190   2.0000      -0.452700       -12.3186
 191   2.0000      -0.446643       -12.1538
 192   2.0000      -0.445201       -12.1145
 193   2.0000      -0.443746       -12.0749
 194   2.0000      -0.443192       -12.0599
 195   2.0000      -0.441447       -12.0124
 196   2.0000      -0.439576       -11.9615
 197   2.0000      -0.436063       -11.8659
 198   2.0000      -0.433351       -11.7921
 199   2.0000      -0.433105       -11.7854
 200   2.0000      -0.431722       -11.7478
 201   2.0000      -0.428711       -11.6658
 202   2.0000      -0.428021       -11.6470
 203   2.0000      -0.426204       -11.5976
 204   2.0000      -0.423946       -11.5362
 205   2.0000      -0.419240       -11.4081
 206   2.0000      -0.416115       -11.3231
 207   2.0000      -0.415301       -11.3009
 208   2.0000      -0.412057       -11.2126
 209   2.0000      -0.408738       -11.1223
 210   2.0000      -0.408406       -11.1133
 211   2.0000      -0.407806       -11.0970
 212   2.0000      -0.405840       -11.0435
 213   2.0000      -0.404770       -11.0143
 214   2.0000      -0.402544       -10.9538
 215   2.0000      -0.394688       -10.7400
 216   2.0000      -0.392490       -10.6802
 217   2.0000      -0.389768       -10.6061
 218   2.0000      -0.389375       -10.5954
 219   2.0000      -0.378489       -10.2992
 220   2.0000      -0.376205       -10.2370
 221   2.0000      -0.375345       -10.2137
 222   2.0000      -0.368296       -10.0219
 223   2.0000      -0.364707        -9.9242
 224   2.0000      -0.360953        -9.8220
 225   2.0000      -0.351181        -9.5561
 226   2.0000      -0.346486        -9.4284
 227   2.0000      -0.332752        -9.0546
 228   2.0000      -0.326927        -8.8961
 229   2.0000      -0.322499        -8.7756
 230   2.0000      -0.316848        -8.6219
 231   2.0000      -0.315635        -8.5889
 232   2.0000      -0.300729        -8.1833
 233   2.0000      -0.300436        -8.1753
 234   2.0000      -0.293349        -7.9824
 235   2.0000      -0.290041        -7.8924
 236   2.0000      -0.282044        -7.6748
 237   2.0000      -0.278258        -7.5718
 238   2.0000      -0.227173        -6.1817
 239   0.0000      -0.100684        -2.7398
 240   0.0000      -0.053161        -1.4466
 241   0.0000      -0.051574        -1.4034
 242   0.0000      -0.032846        -0.8938
 243   0.0000      -0.001351        -0.0368

MULLIKEN ATOMIC CHARGES
-----------------------
   0 C :    0.328697
   1 C :   -0.365277
   2 C :   -0.188957
   3 N :    0.134617
   4 C :   -0.192671
   5 N :    0.133234
   6 C :    0.015652
   7 C :   -0.009064
   8 C :   -0.080082
   9 C :    0.121658
  10 C :   -0.091508
  11 C :   -0.028423
  12 S :    0.177903
  13 C :   -0.122933
  14 C :    0.033459
  15 Br:    0.012773
  16 C :    0.136048
  17 O :   -0.168695
  18 C :   -0.087752
  19 C :   -0.039223
  20 C :   -0.028232
  21 C :    0.007424
  22 C :    0.022182
  23 C :    0.046600
  24 C :   -0.058592
  25 S :    0.110028
  26 C :   -0.039046
  27 C :    0.031171
  28 C :    0.050789
  29 C :   -0.035981
  30 S :    0.122741
  31 C :   -0.031186
  32 C :    0.018432
  33 C :   -0.038370
  34 C :    0.098633
  35 C :    0.025683
  36 C :   -0.010036
  37 C :    0.009146
  38 C :    0.034212
  39 C :   -0.020001
  40 C :   -0.041587
  41 C :   -0.009311
  42 C :   -0.009136
  43 C :   -0.034141
  44 C :    0.032102
  45 C :    0.042302
  46 N :   -0.262497
  47 S :    0.498871
  48 N :   -0.252549
  49 C :    0.004893
  50 C :   -0.054076
  51 C :    0.094252
  52 C :    0.038737
  53 C :   -0.111841
  54 C :    0.047669
  55 C :    0.037321
  56 C :   -0.047196
  57 C :    0.055961
  58 C :    0.033942
  59 C :   -0.028525
  60 C :   -0.001860
  61 H :   -0.016829
  62 H :   -0.010751
  63 H :   -0.006600
  64 H :    0.014225
  65 H :    0.015217
  66 H :   -0.000833
  67 H :   -0.007120
  68 H :   -0.007801
  69 H :   -0.001965
  70 H :    0.007087
  71 H :    0.008610
  72 H :    0.000248
  73 H :    0.011480
  74 H :    0.015513
  75 H :    0.002829
  76 H :   -0.022036
  77 H :   -0.009071
  78 H :   -0.008379
  79 H :   -0.020172
  80 H :   -0.018907
  81 H :   -0.001677
  82 H :   -0.002561
  83 H :   -0.000103
  84 H :    0.011837
  85 H :    0.004756
  86 H :   -0.004549
  87 H :   -0.000896
  88 H :    0.007855
  89 H :    0.012088
  90 H :    0.013080
  91 H :    0.000738
  92 H :   -0.001103
  93 H :    0.008183
  94 H :    0.013256
  95 H :    0.005406
  96 H :   -0.039499
  97 H :   -0.039938
Sum of atomic charges:   -0.0000000

LOEWDIN ATOMIC CHARGES
----------------------
   0 C :    0.073432
   1 C :   -0.157937
   2 C :   -0.018730
   3 N :   -0.070776
   4 C :   -0.021509
   5 N :   -0.067576
   6 C :   -0.017779
   7 C :   -0.048315
   8 C :    0.016413
   9 C :   -0.036303
  10 C :   -0.145880
  11 C :   -0.014041
  12 S :    0.426052
  13 C :   -0.275258
  14 C :   -0.071342
  15 Br:    0.128194
  16 C :    0.081875
  17 O :   -0.160723
  18 C :   -0.111269
  19 C :    0.051469
  20 C :   -0.077935
  21 C :   -0.101201
  22 C :   -0.044909
  23 C :   -0.006217
  24 C :   -0.197928
  25 S :    0.411256
  26 C :   -0.147005
  27 C :   -0.038868
  28 C :   -0.006463
  29 C :   -0.149861
  30 S :    0.410420
  31 C :   -0.009091
  32 C :   -0.043842
  33 C :    0.010017
  34 C :   -0.029512
  35 C :   -0.049606
  36 C :   -0.016273
  37 C :   -0.002452
  38 C :   -0.021057
  39 C :   -0.017817
  40 C :   -0.026042
  41 C :   -0.012759
  42 C :   -0.016090
  43 C :   -0.014546
  44 C :   -0.051418
  45 C :   -0.051727
  46 N :   -0.288259
  47 S :    0.640246
  48 N :   -0.282687
  49 C :   -0.026878
  50 C :   -0.003896
  51 C :   -0.029652
  52 C :   -0.049006
  53 C :   -0.021960
  54 C :   -0.031525
  55 C :   -0.048237
  56 C :   -0.017042
  57 C :   -0.029901
  58 C :   -0.048948
  59 C :   -0.032978
  60 C :   -0.020971
  61 H :    0.038285
  62 H :    0.039783
  63 H :    0.037289
  64 H :    0.031401
  65 H :    0.037932
  66 H :    0.038225
  67 H :    0.034534
  68 H :    0.034080
  69 H :    0.037418
  70 H :    0.036193
  71 H :    0.032061
  72 H :    0.024335
  73 H :    0.024946
  74 H :    0.024690
  75 H :    0.018593
  76 H :    0.030189
  77 H :    0.032871
  78 H :    0.021091
  79 H :    0.032380
  80 H :    0.032794
  81 H :    0.027501
  82 H :    0.023370
  83 H :    0.021384
  84 H :    0.022849
  85 H :    0.020137
  86 H :    0.023536
  87 H :    0.024438
  88 H :    0.022438
  89 H :    0.022515
  90 H :    0.023931
  91 H :    0.022410
  92 H :    0.026809
  93 H :    0.021004
  94 H :    0.022388
  95 H :    0.022867
  96 H :    0.021922
  97 H :    0.024038

  Mayer bond orders larger than 0.100000
B(  0-C ,  1-C ) :   1.5806 B(  0-C ,  6-C ) :   0.9890 B(  0-C , 18-C ) :   1.1154
B(  1-C ,  2-C ) :   1.1504 B(  1-C ,  4-C ) :   1.1550 B(  2-C ,  3-N ) :   2.9605
B(  4-C ,  5-N ) :   2.9582 B(  6-C ,  7-C ) :   1.2795 B(  6-C , 11-C ) :   1.4176
B(  7-C ,  8-C ) :   1.4309 B(  7-C , 16-C ) :   0.9340 B(  8-C ,  9-C ) :   1.2372
B(  8-C , 61-H ) :   1.0172 B(  9-C , 10-C ) :   1.3173 B(  9-C , 14-C ) :   1.1583
B( 10-C , 11-C ) :   1.3198 B( 10-C , 12-S ) :   1.0825 B( 11-C , 62-H ) :   0.9805
B( 12-S , 13-C ) :   1.0849 B( 13-C , 14-C ) :   1.6211 B( 13-C , 15-Br) :   1.0123
B( 14-C , 63-H ) :   1.0013 B( 16-C , 17-O ) :   2.1824 B( 16-C , 18-C ) :   0.9701
B( 18-C , 19-C ) :   1.4725 B( 19-C , 20-C ) :   1.2652 B( 19-C , 64-H ) :   0.9437
B( 20-C , 21-C ) :   1.4127 B( 20-C , 65-H ) :   0.9786 B( 21-C , 22-C ) :   1.1767
B( 21-C , 25-S ) :   1.0909 B( 22-C , 23-C ) :   1.5464 B( 22-C , 66-H ) :   1.0020
B( 23-C , 24-C ) :   1.2096 B( 23-C , 67-H ) :   0.9945 B( 24-C , 25-S ) :   1.0396
B( 24-C , 26-C ) :   1.4874 B( 26-C , 27-C ) :   1.1671 B( 26-C , 30-S ) :   1.0833
B( 27-C , 28-C ) :   1.6204 B( 27-C , 68-H ) :   0.9942 B( 28-C , 29-C ) :   1.1093
B( 28-C , 69-H ) :   0.9969 B( 29-C , 30-S ) :   1.0130 B( 29-C , 31-C ) :   1.6978
B( 31-C , 32-C ) :   1.0163 B( 31-C , 70-H ) :   0.9539 B( 32-C , 33-C ) :   1.3622
B( 32-C , 39-C ) :   1.3493 B( 33-C , 34-C ) :   1.0841 B( 33-C , 36-C ) :   1.4397
B( 34-C , 35-C ) :   1.1033 B( 34-C , 71-H ) :   0.9039 B( 34-C , 72-H ) :   0.9098
B( 35-C , 73-H ) :   0.9667 B( 35-C , 74-H ) :   0.9654 B( 35-C , 75-H ) :   0.9649
B( 36-C , 37-C ) :   1.4162 B( 36-C , 40-C ) :   0.9164 B( 37-C , 38-C ) :   1.3537
B( 37-C , 76-H ) :   0.9977 B( 38-C , 39-C ) :   1.3961 B( 38-C , 77-H ) :   0.9892
B( 39-C , 78-H ) :   0.9835 B( 40-C , 41-C ) :   1.5482 B( 40-C , 43-C ) :   0.1162
B( 40-C , 45-C ) :   1.2411 B( 41-C , 42-C ) :   1.1431 B( 41-C , 79-H ) :   1.0025
B( 42-C , 43-C ) :   1.5547 B( 42-C , 80-H ) :   1.0000 B( 43-C , 44-C ) :   1.2349
B( 43-C , 49-C ) :   0.9168 B( 44-C , 45-C ) :   1.1695 B( 44-C , 48-N ) :   1.5378
B( 45-C , 46-N ) :   1.5267 B( 46-N , 47-S ) :   1.2639 B( 46-N , 48-N ) :   0.1540
B( 47-S , 48-N ) :   1.2702 B( 49-C , 50-C ) :   1.4334 B( 49-C , 60-C ) :   1.4063
B( 50-C , 51-C ) :   1.0796 B( 50-C , 53-C ) :   1.3999 B( 51-C , 52-C ) :   1.1141
B( 51-C , 81-H ) :   0.9021 B( 51-C , 82-H ) :   0.9094 B( 52-C , 83-H ) :   0.9639
B( 52-C , 84-H ) :   0.9662 B( 52-C , 85-H ) :   0.9625 B( 53-C , 54-C ) :   1.0636
B( 53-C , 56-C ) :   1.4174 B( 54-C , 55-C ) :   1.1149 B( 54-C , 86-H ) :   0.9150
B( 54-C , 87-H ) :   0.9159 B( 55-C , 88-H ) :   0.9620 B( 55-C , 89-H ) :   0.9677
B( 55-C , 90-H ) :   0.9631 B( 56-C , 57-C ) :   1.0485 B( 56-C , 59-C ) :   1.3839
B( 57-C , 58-C ) :   1.1072 B( 57-C , 91-H ) :   0.9234 B( 57-C , 92-H ) :   0.9279
B( 58-C , 93-H ) :   0.9665 B( 58-C , 94-H ) :   0.9677 B( 58-C , 95-H ) :   0.9656
B( 59-C , 60-C ) :   1.3548 B( 59-C , 96-H ) :   0.9920 B( 60-C , 97-H ) :   0.9972

-----------------------------------------------------------------------------
         ABSORPTION SPECTRUM VIA TRANSITION ELECTRIC DIPOLE MOMENTS
-----------------------------------------------------------------------------
State   Energy  Wavelength   fosc         T2         TX        TY        TZ
        (cm-1)    (nm)                  (au**2)     (au)      (au)      (au)
-----------------------------------------------------------------------------
   0   13373.8    747.7   1.263248267  31.09627  -4.55461  -3.21018   0.21579
   1   22653.4    441.4   0.137936186   2.00456  -0.06467   1.39107   0.25558
   2   25000.9    400.0   0.230437037   3.03439  -0.08347   1.72702   0.21174
   3   25844.3    386.9   0.200324994   2.55180   0.58729   1.48456   0.05460
   4   26907.5    371.6   0.007312354   0.08947   0.29785   0.02406  -0.01321
   5   27203.7    367.6   0.001924126   0.02329  -0.12400   0.06863   0.05656
   6   27805.5    359.6   0.524755447   6.21300   1.76650  -1.54386  -0.84200
   7   28844.2    346.7   0.009444859   0.10780  -0.13755  -0.17275  -0.24297
   8   29078.1    343.9   0.003142932   0.03558   0.13093  -0.12993  -0.03948
   9   30685.0    325.9   0.106221601   1.13962   0.13593   0.79663   0.69751
  10   31035.2    322.2   0.040759498   0.43236  -0.59847   0.20271   0.18194
  11   31832.6    314.1   0.001373727   0.01421  -0.01295  -0.11430   0.03122
  12   31975.7    312.7   0.048140030   0.49563  -0.69878   0.08143   0.02677
  13   32418.5    308.5   0.480645344   4.88098   1.61104   1.46037  -0.39098
  14   32800.9    304.9   0.103497042   1.03877  -0.50587  -0.88419   0.03279
  15   33705.4    296.7   0.020911494   0.20425  -0.14611  -0.33817  -0.26181
  16   34345.7    291.2   0.042051006   0.40307   0.11362   0.49694   0.37843
  17   34426.2    290.5   0.034492209   0.32984   0.03008   0.41999   0.39057
  18   34573.6    289.2   0.080731181   0.76873  -0.43892  -0.71835   0.24505
  19   35055.9    285.3   0.009866782   0.09266   0.12501   0.27506  -0.03707
  20   35829.2    279.1   0.032014707   0.29416  -0.06986  -0.52284  -0.12618
  21   36035.0    277.5   0.078135323   0.71384   0.59884  -0.59489  -0.03647
  22   36399.9    274.7   0.042774655   0.38687  -0.40483  -0.47219   0.00353
  23   36887.8    271.1   0.132100229   1.17895  -0.36525   0.99513   0.23509
  24   37342.8    267.8   0.021435572   0.18897  -0.00603  -0.16436  -0.40240
  25   37678.5    265.4   0.006282527   0.05489  -0.03445  -0.01845  -0.23101
  26   38363.8    260.7   0.000573100   0.00492   0.03862  -0.05667  -0.01464
  27   38920.6    256.9   0.087408261   0.73935  -0.81683   0.02584   0.26733
  28   39381.4    253.9   0.034172045   0.28566   0.03714   0.51949   0.12007
  29   39571.0    252.7   0.224202852   1.86526  -0.42145   1.28522   0.18933
  30   39873.3    250.8   0.009732664   0.08036   0.19881  -0.17166  -0.10661

FINAL SINGLE POINT ENERGY     -6423.222963722262

DIPOLE MOMENT
-------------
                                X             Y             Z
Electronic contribution:    189.00213     251.66849      53.57977
Nuclear contribution   :   -192.87696    -252.36822     -53.41572
                        -----------------------------------------
Total Dipole Moment    :     -3.87483      -0.69973       0.16405
                        -----------------------------------------
Magnitude (a.u.)       :      3.94092
Magnitude (Debye)      :     10.01702

Rotational constants in cm-1:     0.001500     0.000267     0.000234
Rotational constants in MHz :    44.967137     8.008388     7.009279

                             ****ORCA TERMINATED NORMALLY****
TOTAL RUN TIME: 0 days 0 hours 8 minutes 40 seconds 44 msec
