                         Program Version 4.2.0 -  RELEASE  -
|  1> # ORCA input file
|  2> # SCF done       -201.141511522358          0.000693850805
|  3> ! CAM-B3LYP def2-SVP def2/J RIJCOSX Grid4 TightSCF
|  4> %maxcore 5000
|  5> %tddft
|  6>     Mode sTDDFT
|  7>     Ethresh 5.0
|  8>     maxcore 5000
|  9> end
| 10>
| 11> %pal
| 12>   nprocs 6
| 13>   end
| 14> * xyz 0 1
| 15>    C       -2.27757         4.70023         3.05332
| 16>    C       -1.56313         3.65368         2.52432
| 17>    C       -0.53921         2.96993         3.21688
| 18>    N        0.30009         2.37838         3.72914
| 19>    C       -1.68347         3.13207         1.22508
| 20>    N       -1.67761         2.63905         0.18650
| 21>    C       -2.07167         5.27709         4.37720
| 22>    C       -2.88855         6.42771         4.51003
| 23>    C       -2.90891         7.19830         5.64608
| 24>    C       -2.09525         6.80598         6.71410
| 25>    C       -1.28512         5.65267         6.57610
| 26>    C       -1.25619         4.88023         5.42197
| 27>    S       -0.35659         5.34862         8.01248
| 28>    C       -1.06010         6.75299         8.76921
| 29>    C       -1.94475         7.41789         7.98795
| 30>   Br       -0.55771         7.21144        10.51571
| 31>    C       -3.65465         6.62778         3.26868
| 32>    O       -4.26945         7.61698         2.94497
| 33>    C       -3.35725         5.43238         2.42263
| 34>    C       -3.97014         5.15463         1.23780
| 35>    C       -5.18815         5.75307         0.82883
| 36>    O       -5.49690         5.79559        -0.49672
| 37>    C       -6.25582         6.28192         1.53617
| 38>    C       -6.81249         6.47532         2.88731
| 39>    O       -6.39113         6.16099         3.96902
| 40>    N       -8.04340         7.07123         2.64770
| 41>    C       -8.37826         7.23409         1.30112
| 42>    O       -9.40556         7.71100         0.89715
| 43>    C       -7.21808         6.68965         0.59277
| 44>    C       -6.71293         6.38223        -0.66774
| 45>    C       -7.23971         6.58090        -1.95794
| 46>    C       -6.59377         6.10459        -3.06695
| 47>    C       -6.98578         6.27192        -4.39705
| 48>    C       -6.27611         5.69726        -5.43228
| 49>    C       -6.47682         5.83030        -6.82667
| 50>    C       -5.57616         5.14104        -7.58759
| 51>    C       -4.63473         4.41389        -6.82883
| 52>    S       -4.91401         4.64103        -5.12334
| 53>    C       -3.59506         3.59211        -7.23367
| 54>    C       -3.10747         3.31620        -8.53061
| 55>    C       -2.04244         2.46812        -8.53262
| 56>    C       -1.64660         2.02758        -7.23920
| 57>    S       -2.66364         2.74838        -6.02318
| 58>    C       -0.65489         1.11261        -6.98352
| 59>    C       -0.23440         0.60547        -5.74105
| 60>    O        0.56591        -0.50209        -5.80267
| 61>    C       -0.43508         0.91527        -4.39324
| 62>    C       -1.00468         1.87072        -3.42526
| 63>    O       -1.58287         2.91619        -3.59201
| 64>    N       -0.69477         1.33918        -2.18290
| 65>    C        0.07442         0.18902        -2.21315
| 66>    O        0.47520        -0.42768        -1.26015
| 67>    C        0.25353        -0.06884        -3.65181
| 68>    C        0.86607        -0.92366        -4.54843
| 69>    C        1.70251        -2.04035        -4.31663
| 70>    C        2.24265        -2.79016        -5.31171
| 71>    C        3.07092        -3.92561        -5.13257
| 72>    C        3.85284        -4.30147        -4.08234
| 73>    C        4.34709        -3.63162        -2.89645
| 74>    C        4.60059        -2.29313        -2.74495
| 75>    C        5.22693        -1.73817        -1.60858
| 76>    N        5.74449        -1.24313        -0.71225
| 77>    C        4.37040        -1.32159        -3.73821
| 78>    N        4.23312        -0.49177        -4.51939
| 79>    C        4.79269        -4.66923        -1.96931
| 80>    C        4.80466        -5.91481        -2.64633
| 81>    C        4.29930        -5.72403        -4.01740
| 82>    O        4.21804        -6.54400        -4.90281
| 83>    C        5.22272        -7.07819        -2.04671
| 84>    C        5.63706        -7.01137        -0.71266
| 85>    C        5.60081        -5.76672        -0.03840
| 86>    C        5.18441        -4.58856        -0.64674
| 87>    S        6.14279        -5.91461         1.60491
| 88>    C        6.41368        -7.62069         1.36627
| 89>    C        6.11097        -8.06043         0.12174
| 90>   Br        7.07020        -8.66063         2.78145
| 91>    H       -3.54221         8.06853         5.71159
| 92>    H       -0.62056         4.01244         5.36892
| 93>    H       -2.47006         8.30342         8.29583
| 94>    H       -3.54680         4.43719         0.54632
| 95>    H       -8.66612         7.34368         3.39495
| 96>    H       -8.17322         7.11837        -2.02261
| 97>    H       -5.68167         5.54417        -2.89852
| 98>    H       -7.85305         6.87339        -4.63027
| 99>    H       -7.26947         6.43845        -7.22548
|100>    H       -5.57052         5.13227        -8.66294
|101>    H       -3.54124         3.75275        -9.41236
|102>    H       -1.52519         2.14029        -9.41685
|103>    H       -0.15797         0.66852        -7.83610
|104>    H       -0.99726         1.79324        -1.31778
|105>    H        1.85702        -2.28124        -3.27470
|106>    H        1.96717        -2.55244        -6.33056
|107>    H        3.04637        -4.65553        -5.93779
|108>    H        5.22986        -8.01045        -2.58929
|109>    H        5.16440        -3.66604        -0.09068
|110>    H        6.21728        -9.08127        -0.19691
|111> *
|112>
|113>                          ****END OF INPUT****

CARTESIAN COORDINATES (ANGSTROEM)
---------------------------------
  C     -2.277570    4.700230    3.053320
  C     -1.563130    3.653680    2.524320
  C     -0.539210    2.969930    3.216880
  N      0.300090    2.378380    3.729140
  C     -1.683470    3.132070    1.225080
  N     -1.677610    2.639050    0.186500
  C     -2.071670    5.277090    4.377200
  C     -2.888550    6.427710    4.510030
  C     -2.908910    7.198300    5.646080
  C     -2.095250    6.805980    6.714100
  C     -1.285120    5.652670    6.576100
  C     -1.256190    4.880230    5.421970
  S     -0.356590    5.348620    8.012480
  C     -1.060100    6.752990    8.769210
  C     -1.944750    7.417890    7.987950
  Br    -0.557710    7.211440   10.515710
  C     -3.654650    6.627780    3.268680
  O     -4.269450    7.616980    2.944970
  C     -3.357250    5.432380    2.422630
  C     -3.970140    5.154630    1.237800
  C     -5.188150    5.753070    0.828830
  O     -5.496900    5.795590   -0.496720
  C     -6.255820    6.281920    1.536170
  C     -6.812490    6.475320    2.887310
  O     -6.391130    6.160990    3.969020
  N     -8.043400    7.071230    2.647700
  C     -8.378260    7.234090    1.301120
  O     -9.405560    7.711000    0.897150
  C     -7.218080    6.689650    0.592770
  C     -6.712930    6.382230   -0.667740
  C     -7.239710    6.580900   -1.957940
  C     -6.593770    6.104590   -3.066950
  C     -6.985780    6.271920   -4.397050
  C     -6.276110    5.697260   -5.432280
  C     -6.476820    5.830300   -6.826670
  C     -5.576160    5.141040   -7.587590
  C     -4.634730    4.413890   -6.828830
  S     -4.914010    4.641030   -5.123340
  C     -3.595060    3.592110   -7.233670
  C     -3.107470    3.316200   -8.530610
  C     -2.042440    2.468120   -8.532620
  C     -1.646600    2.027580   -7.239200
  S     -2.663640    2.748380   -6.023180
  C     -0.654890    1.112610   -6.983520
  C     -0.234400    0.605470   -5.741050
  O      0.565910   -0.502090   -5.802670
  C     -0.435080    0.915270   -4.393240
  C     -1.004680    1.870720   -3.425260
  O     -1.582870    2.916190   -3.592010
  N     -0.694770    1.339180   -2.182900
  C      0.074420    0.189020   -2.213150
  O      0.475200   -0.427680   -1.260150
  C      0.253530   -0.068840   -3.651810
  C      0.866070   -0.923660   -4.548430
  C      1.702510   -2.040350   -4.316630
  C      2.242650   -2.790160   -5.311710
  C      3.070920   -3.925610   -5.132570
  C      3.852840   -4.301470   -4.082340
  C      4.347090   -3.631620   -2.896450
  C      4.600590   -2.293130   -2.744950
  C      5.226930   -1.738170   -1.608580
  N      5.744490   -1.243130   -0.712250
  C      4.370400   -1.321590   -3.738210
  N      4.233120   -0.491770   -4.519390
  C      4.792690   -4.669230   -1.969310
  C      4.804660   -5.914810   -2.646330
  C      4.299300   -5.724030   -4.017400
  O      4.218040   -6.544000   -4.902810
  C      5.222720   -7.078190   -2.046710
  C      5.637060   -7.011370   -0.712660
  C      5.600810   -5.766720   -0.038400
  C      5.184410   -4.588560   -0.646740
  S      6.142790   -5.914610    1.604910
  C      6.413680   -7.620690    1.366270
  C      6.110970   -8.060430    0.121740
  Br     7.070200   -8.660630    2.781450
  H     -3.542210    8.068530    5.711590
  H     -0.620560    4.012440    5.368920
  H     -2.470060    8.303420    8.295830
  H     -3.546800    4.437190    0.546320
  H     -8.666120    7.343680    3.394950
  H     -8.173220    7.118370   -2.022610
  H     -5.681670    5.544170   -2.898520
  H     -7.853050    6.873390   -4.630270
  H     -7.269470    6.438450   -7.225480
  H     -5.570520    5.132270   -8.662940
  H     -3.541240    3.752750   -9.412360
  H     -1.525190    2.140290   -9.416850
  H     -0.157970    0.668520   -7.836100
  H     -0.997260    1.793240   -1.317780
  H      1.857020   -2.281240   -3.274700
  H      1.967170   -2.552440   -6.330560
  H      3.046370   -4.655530   -5.937790
  H      5.229860   -8.010450   -2.589290
  H      5.164400   -3.666040   -0.090680
  H      6.217280   -9.081270   -0.196910

 Total Charge           Charge          ....    0
 Multiplicity           Mult            ....    1
 Number of Electrons    NEL             ....  596
 Basis Dimension        Dim             .... 1216

ORBITAL ENERGIES
----------------

  NO   OCC          E(Eh)            E(eV)
   0   2.0000    -482.885451    -13139.9812
   1   2.0000    -482.881831    -13139.8826
   2   2.0000     -88.975045     -2421.1341
   3   2.0000     -88.971475     -2421.0369
   4   2.0000     -88.956512     -2420.6297
   5   2.0000     -88.952793     -2420.5286
   6   2.0000     -62.563138     -1702.4295
   7   2.0000     -62.559582     -1702.3328
   8   2.0000     -56.397090     -1534.6428
   9   2.0000     -56.394372     -1534.5689
  10   2.0000     -56.394344     -1534.5681
  11   2.0000     -56.393528     -1534.5459
  12   2.0000     -56.390817     -1534.4721
  13   2.0000     -56.390781     -1534.4712
  14   2.0000     -19.312447      -525.5184
  15   2.0000     -19.304743      -525.3088
  16   2.0000     -19.215119      -522.8700
  17   2.0000     -19.214631      -522.8567
  18   2.0000     -19.211261      -522.7650
  19   2.0000     -19.211208      -522.7636
  20   2.0000     -19.197165      -522.3814
  21   2.0000     -19.196082      -522.3520
  22   2.0000     -14.455226      -393.3467
  23   2.0000     -14.432728      -392.7345
  24   2.0000     -14.428793      -392.6274
  25   2.0000     -14.415901      -392.2766
  26   2.0000     -14.411689      -392.1620
  27   2.0000     -14.409530      -392.1032
  28   2.0000     -10.402514      -283.0668
  29   2.0000     -10.400477      -283.0114
  30   2.0000     -10.387806      -282.6666
  31   2.0000     -10.385154      -282.5944
  32   2.0000     -10.368920      -282.1527
  33   2.0000     -10.368209      -282.1333
  34   2.0000     -10.364250      -282.0256
  35   2.0000     -10.361807      -281.9591
  36   2.0000     -10.361639      -281.9545
  37   2.0000     -10.359034      -281.8837
  38   2.0000     -10.354794      -281.7683
  39   2.0000     -10.354231      -281.7530
  40   2.0000     -10.348107      -281.5863
  41   2.0000     -10.346021      -281.5295
  42   2.0000     -10.339575      -281.3541
  43   2.0000     -10.339310      -281.3469
  44   2.0000     -10.338487      -281.3245
  45   2.0000     -10.325911      -280.9823
  46   2.0000     -10.325533      -280.9720
  47   2.0000     -10.325530      -280.9720
  48   2.0000     -10.325434      -280.9693
  49   2.0000     -10.324524      -280.9446
  50   2.0000     -10.323865      -280.9267
  51   2.0000     -10.321895      -280.8730
  52   2.0000     -10.318962      -280.7932
  53   2.0000     -10.312813      -280.6259
  54   2.0000     -10.311994      -280.6036
  55   2.0000     -10.309950      -280.5480
  56   2.0000     -10.309649      -280.5398
  57   2.0000     -10.307904      -280.4923
  58   2.0000     -10.306177      -280.4453
  59   2.0000     -10.306145      -280.4445
  60   2.0000     -10.305792      -280.4349
  61   2.0000     -10.305608      -280.4298
  62   2.0000     -10.304879      -280.4100
  63   2.0000     -10.303516      -280.3729
  64   2.0000     -10.302906      -280.3563
  65   2.0000     -10.301990      -280.3314
  66   2.0000     -10.301297      -280.3125
  67   2.0000     -10.300066      -280.2791
  68   2.0000     -10.299394      -280.2608
  69   2.0000     -10.298952      -280.2487
  70   2.0000     -10.298178      -280.2277
  71   2.0000     -10.297843      -280.2186
  72   2.0000     -10.297645      -280.2132
  73   2.0000     -10.296197      -280.1738
  74   2.0000     -10.294427      -280.1256
  75   2.0000     -10.292762      -280.0803
  76   2.0000     -10.292212      -280.0653
  77   2.0000     -10.292180      -280.0644
  78   2.0000     -10.291503      -280.0460
  79   2.0000     -10.291115      -280.0355
  80   2.0000     -10.290390      -280.0157
  81   2.0000     -10.289157      -279.9822
  82   2.0000     -10.288802      -279.9725
  83   2.0000     -10.288388      -279.9613
  84   2.0000      -8.792557      -239.2576
  85   2.0000      -8.789039      -239.1619
  86   2.0000      -8.071136      -219.6268
  87   2.0000      -8.067482      -219.5273
  88   2.0000      -8.053066      -219.1351
  89   2.0000      -8.048878      -219.0211
  90   2.0000      -6.628836      -180.3798
  91   2.0000      -6.625347      -180.2849
  92   2.0000      -6.614310      -179.9845
  93   2.0000      -6.614085      -179.9784
  94   2.0000      -6.610768      -179.8881
  95   2.0000      -6.610573      -179.8828
  96   2.0000      -6.040826      -164.3792
  97   2.0000      -6.037182      -164.2801
  98   2.0000      -6.036544      -164.2627
  99   2.0000      -6.032884      -164.1631
 100   2.0000      -6.032325      -164.1479
 101   2.0000      -6.028692      -164.0491
 102   2.0000      -6.022717      -163.8865
 103   2.0000      -6.018642      -163.7756
 104   2.0000      -6.018532      -163.7726
 105   2.0000      -6.014330      -163.6583
 106   2.0000      -6.014040      -163.6504
 107   2.0000      -6.009780      -163.5344
 108   2.0000      -2.744750       -74.6885
 109   2.0000      -2.741183       -74.5914
 110   2.0000      -2.740638       -74.5766
 111   2.0000      -2.740443       -74.5712
 112   2.0000      -2.737148       -74.4816
 113   2.0000      -2.736994       -74.4774
 114   2.0000      -2.728910       -74.2574
 115   2.0000      -2.728897       -74.2571
 116   2.0000      -2.725401       -74.1619
 117   2.0000      -2.725387       -74.1615
 118   2.0000      -1.229210       -33.4485
 119   2.0000      -1.221198       -33.2305
 120   2.0000      -1.157815       -31.5057
 121   2.0000      -1.141571       -31.0637
 122   2.0000      -1.138290       -30.9745
 123   2.0000      -1.130365       -30.7588
 124   2.0000      -1.126543       -30.6548
 125   2.0000      -1.121347       -30.5134
 126   2.0000      -1.044469       -28.4214
 127   2.0000      -1.029066       -28.0023
 128   2.0000      -1.027085       -27.9484
 129   2.0000      -1.018901       -27.7257
 130   2.0000      -1.018595       -27.7174
 131   2.0000      -1.010739       -27.5036
 132   2.0000      -1.008853       -27.4523
 133   2.0000      -1.001949       -27.2644
 134   2.0000      -0.991723       -26.9861
 135   2.0000      -0.989260       -26.9191
 136   2.0000      -0.988425       -26.8964
 137   2.0000      -0.985185       -26.8082
 138   2.0000      -0.948006       -25.7966
 139   2.0000      -0.942361       -25.6430
 140   2.0000      -0.935806       -25.4646
 141   2.0000      -0.930764       -25.3274
 142   2.0000      -0.927204       -25.2305
 143   2.0000      -0.917102       -24.9556
 144   2.0000      -0.913229       -24.8502
 145   2.0000      -0.910102       -24.7651
 146   2.0000      -0.904833       -24.6218
 147   2.0000      -0.904522       -24.6133
 148   2.0000      -0.889185       -24.1959
 149   2.0000      -0.886552       -24.1243
 150   2.0000      -0.881968       -23.9996
 151   2.0000      -0.880068       -23.9479
 152   2.0000      -0.869110       -23.6497
 153   2.0000      -0.859693       -23.3934
 154   2.0000      -0.854171       -23.2432
 155   2.0000      -0.833942       -22.6927
 156   2.0000      -0.832241       -22.6464
 157   2.0000      -0.829645       -22.5758
 158   2.0000      -0.825258       -22.4564
 159   2.0000      -0.814901       -22.1746
 160   2.0000      -0.795964       -21.6593
 161   2.0000      -0.782691       -21.2981
 162   2.0000      -0.773926       -21.0596
 163   2.0000      -0.767715       -20.8906
 164   2.0000      -0.764529       -20.8039
 165   2.0000      -0.762210       -20.7408
 166   2.0000      -0.756485       -20.5850
 167   2.0000      -0.752421       -20.4744
 168   2.0000      -0.749222       -20.3874
 169   2.0000      -0.736981       -20.0543
 170   2.0000      -0.721573       -19.6350
 171   2.0000      -0.711285       -19.3550
 172   2.0000      -0.703272       -19.1370
 173   2.0000      -0.701919       -19.1002
 174   2.0000      -0.695502       -18.9256
 175   2.0000      -0.691898       -18.8275
 176   2.0000      -0.687691       -18.7130
 177   2.0000      -0.682522       -18.5724
 178   2.0000      -0.680221       -18.5097
 179   2.0000      -0.673283       -18.3210
 180   2.0000      -0.661222       -17.9928
 181   2.0000      -0.658644       -17.9226
 182   2.0000      -0.653544       -17.7838
 183   2.0000      -0.640640       -17.4327
 184   2.0000      -0.639241       -17.3946
 185   2.0000      -0.630754       -17.1637
 186   2.0000      -0.625990       -17.0341
 187   2.0000      -0.623418       -16.9641
 188   2.0000      -0.619584       -16.8598
 189   2.0000      -0.615022       -16.7356
 190   2.0000      -0.608144       -16.5484
 191   2.0000      -0.605749       -16.4833
 192   2.0000      -0.598582       -16.2883
 193   2.0000      -0.597242       -16.2518
 194   2.0000      -0.596248       -16.2247
 195   2.0000      -0.595389       -16.2014
 196   2.0000      -0.589915       -16.0524
 197   2.0000      -0.586809       -15.9679
 198   2.0000      -0.583500       -15.8778
 199   2.0000      -0.581157       -15.8141
 200   2.0000      -0.577835       -15.7237
 201   2.0000      -0.572658       -15.5828
 202   2.0000      -0.569355       -15.4929
 203   2.0000      -0.565811       -15.3965
 204   2.0000      -0.554332       -15.0842
 205   2.0000      -0.551692       -15.0123
 206   2.0000      -0.550041       -14.9674
 207   2.0000      -0.548519       -14.9260
 208   2.0000      -0.543778       -14.7970
 209   2.0000      -0.543305       -14.7841
 210   2.0000      -0.539667       -14.6851
 211   2.0000      -0.537472       -14.6254
 212   2.0000      -0.535705       -14.5773
 213   2.0000      -0.532911       -14.5012
 214   2.0000      -0.531296       -14.4573
 215   2.0000      -0.528053       -14.3691
 216   2.0000      -0.527399       -14.3513
 217   2.0000      -0.526049       -14.3145
 218   2.0000      -0.521256       -14.1841
 219   2.0000      -0.519267       -14.1300
 220   2.0000      -0.517410       -14.0794
 221   2.0000      -0.512272       -13.9396
 222   2.0000      -0.511482       -13.9181
 223   2.0000      -0.510816       -13.9000
 224   2.0000      -0.509786       -13.8720
 225   2.0000      -0.507548       -13.8111
 226   2.0000      -0.505310       -13.7502
 227   2.0000      -0.503541       -13.7021
 228   2.0000      -0.502812       -13.6822
 229   2.0000      -0.498544       -13.5661
 230   2.0000      -0.497329       -13.5330
 231   2.0000      -0.496719       -13.5164
 232   2.0000      -0.495161       -13.4740
 233   2.0000      -0.493331       -13.4242
 234   2.0000      -0.491779       -13.3820
 235   2.0000      -0.487107       -13.2548
 236   2.0000      -0.481547       -13.1035
 237   2.0000      -0.480646       -13.0790
 238   2.0000      -0.479444       -13.0463
 239   2.0000      -0.477797       -13.0015
 240   2.0000      -0.474632       -12.9154
 241   2.0000      -0.471988       -12.8434
 242   2.0000      -0.468390       -12.7456
 243   2.0000      -0.467974       -12.7342
 244   2.0000      -0.464088       -12.6285
 245   2.0000      -0.463112       -12.6019
 246   2.0000      -0.458277       -12.4703
 247   2.0000      -0.457040       -12.4367
 248   2.0000      -0.451401       -12.2832
 249   2.0000      -0.447531       -12.1779
 250   2.0000      -0.447018       -12.1640
 251   2.0000      -0.446665       -12.1544
 252   2.0000      -0.445361       -12.1189
 253   2.0000      -0.444235       -12.0883
 254   2.0000      -0.442548       -12.0423
 255   2.0000      -0.441495       -12.0137
 256   2.0000      -0.437018       -11.8919
 257   2.0000      -0.435071       -11.8389
 258   2.0000      -0.433869       -11.8062
 259   2.0000      -0.433010       -11.7828
 260   2.0000      -0.431467       -11.7408
 261   2.0000      -0.430734       -11.7209
 262   2.0000      -0.421438       -11.4679
 263   2.0000      -0.419712       -11.4209
 264   2.0000      -0.415934       -11.3181
 265   2.0000      -0.413655       -11.2561
 266   2.0000      -0.405534       -11.0351
 267   2.0000      -0.405440       -11.0326
 268   2.0000      -0.403464       -10.9788
 269   2.0000      -0.391354       -10.6493
 270   2.0000      -0.388030       -10.5588
 271   2.0000      -0.385094       -10.4789
 272   2.0000      -0.382648       -10.4124
 273   2.0000      -0.378126       -10.2893
 274   2.0000      -0.374578       -10.1928
 275   2.0000      -0.372506       -10.1364
 276   2.0000      -0.371400       -10.1063
 277   2.0000      -0.371279       -10.1030
 278   2.0000      -0.366422        -9.9709
 279   2.0000      -0.361183        -9.8283
 280   2.0000      -0.357055        -9.7160
 281   2.0000      -0.354992        -9.6598
 282   2.0000      -0.349198        -9.5022
 283   2.0000      -0.346979        -9.4418
 284   2.0000      -0.343302        -9.3417
 285   2.0000      -0.340691        -9.2707
 286   2.0000      -0.337570        -9.1857
 287   2.0000      -0.336616        -9.1598
 288   2.0000      -0.331563        -9.0223
 289   2.0000      -0.323837        -8.8121
 290   2.0000      -0.316480        -8.6119
 291   2.0000      -0.314797        -8.5661
 292   2.0000      -0.311225        -8.4689
 293   2.0000      -0.295361        -8.0372
 294   2.0000      -0.291915        -7.9434
 295   2.0000      -0.289308        -7.8725
 296   2.0000      -0.267143        -7.2693
 297   2.0000      -0.222020        -6.0415
 298   0.0000      -0.114382        -3.1125
 299   0.0000      -0.097048        -2.6408
 300   0.0000      -0.085349        -2.3225
 301   0.0000      -0.062212        -1.6929
 302   0.0000      -0.057575        -1.5667

MULLIKEN ATOMIC CHARGES
-----------------------
   0 C :    0.313073
   1 C :   -0.363699
   2 C :   -0.191305
   3 N :    0.157989
   4 C :   -0.130413
   5 N :    0.142166
   6 C :    0.021315
   7 C :    0.003562
   8 C :   -0.063397
   9 C :    0.117492
  10 C :   -0.088298
  11 C :   -0.024326
  12 S :    0.188976
  13 C :   -0.122219
  14 C :    0.039324
  15 Br:    0.026176
  16 C :    0.149670
  17 O :   -0.147773
  18 C :   -0.072968
  19 C :   -0.034694
  20 C :    0.114269
  21 O :   -0.207325
  22 C :   -0.015343
  23 C :    0.182981
  24 O :   -0.147158
  25 N :   -0.161547
  26 C :    0.163716
  27 O :   -0.138181
  28 C :   -0.052586
  29 C :    0.109321
  30 C :   -0.046545
  31 C :    0.033838
  32 C :   -0.008141
  33 C :   -0.011440
  34 C :    0.034395
  35 C :    0.039406
  36 C :   -0.049420
  37 S :    0.094600
  38 C :   -0.040346
  39 C :    0.041019
  40 C :    0.033841
  41 C :   -0.016574
  42 S :    0.145699
  43 C :   -0.038520
  44 C :    0.129169
  45 O :   -0.212718
  46 C :   -0.065744
  47 C :    0.169767
  48 O :   -0.164060
  49 N :   -0.152086
  50 C :    0.170505
  51 O :   -0.146787
  52 C :   -0.027301
  53 C :    0.071036
  54 C :    0.009431
  55 C :    0.018264
  56 C :    0.042797
  57 C :   -0.114262
  58 C :    0.267645
  59 C :   -0.326981
  60 C :   -0.178335
  61 N :    0.159513
  62 C :   -0.198562
  63 N :    0.168833
  64 C :   -0.003130
  65 C :    0.008177
  66 C :    0.129509
  67 O :   -0.144463
  68 C :   -0.075109
  69 C :    0.116824
  70 C :   -0.088046
  71 C :   -0.019811
  72 S :    0.189107
  73 C :   -0.125016
  74 C :    0.038449
  75 Br:    0.022325
  76 H :   -0.008097
  77 H :   -0.003987
  78 H :   -0.002402
  79 H :    0.029712
  80 H :    0.139551
  81 H :    0.009799
  82 H :    0.030051
  83 H :   -0.007671
  84 H :   -0.004545
  85 H :   -0.004404
  86 H :   -0.008137
  87 H :   -0.004494
  88 H :   -0.000981
  89 H :    0.124555
  90 H :    0.031667
  91 H :    0.013033
  92 H :    0.029012
  93 H :   -0.010056
  94 H :    0.001680
  95 H :   -0.003836
Sum of atomic charges:   -0.0000000

LOEWDIN ATOMIC CHARGES
----------------------
   0 C :    0.082821
   1 C :   -0.147060
   2 C :   -0.019537
   3 N :   -0.046218
   4 C :    0.026692
   5 N :   -0.045398
   6 C :   -0.020232
   7 C :   -0.041553
   8 C :    0.027067
   9 C :   -0.029129
  10 C :   -0.143037
  11 C :   -0.008046
  12 S :    0.434697
  13 C :   -0.270107
  14 C :   -0.069683
  15 Br:    0.139233
  16 C :    0.088915
  17 O :   -0.133097
  18 C :   -0.074967
  19 C :    0.044458
  20 C :    0.042433
  21 O :    0.017105
  22 C :   -0.049083
  23 C :    0.089336
  24 O :   -0.150883
  25 N :   -0.001830
  26 C :    0.086231
  27 O :   -0.156727
  28 C :   -0.104416
  29 C :    0.089769
  30 C :   -0.057406
  31 C :    0.009426
  32 C :   -0.064885
  33 C :   -0.122514
  34 C :   -0.035312
  35 C :   -0.017536
  36 C :   -0.177020
  37 S :    0.405319
  38 C :   -0.170069
  39 C :   -0.026770
  40 C :   -0.024301
  41 C :   -0.132813
  42 S :    0.453775
  43 C :   -0.076627
  44 C :    0.071469
  45 O :    0.014663
  46 C :   -0.106703
  47 C :    0.078654
  48 O :   -0.172830
  49 N :    0.002213
  50 C :    0.080063
  51 O :   -0.159930
  52 C :   -0.070727
  53 C :    0.056154
  54 C :    0.017273
  55 C :   -0.027280
  56 C :    0.060280
  57 C :   -0.086457
  58 C :    0.064730
  59 C :   -0.135427
  60 C :   -0.019322
  61 N :   -0.047329
  62 C :   -0.015069
  63 N :   -0.043263
  64 C :   -0.016990
  65 C :   -0.053624
  66 C :    0.083358
  67 O :   -0.142906
  68 C :    0.022475
  69 C :   -0.033705
  70 C :   -0.142365
  71 C :   -0.009959
  72 S :    0.434613
  73 C :   -0.272252
  74 C :   -0.070408
  75 Br:    0.135881
  76 H :    0.042531
  77 H :    0.041563
  78 H :    0.039341
  79 H :    0.050868
  80 H :    0.095560
  81 H :    0.044719
  82 H :    0.027211
  83 H :    0.035188
  84 H :    0.036382
  85 H :    0.035537
  86 H :    0.034033
  87 H :    0.035884
  88 H :    0.045355
  89 H :    0.063029
  90 H :    0.048548
  91 H :    0.038014
  92 H :    0.047786
  93 H :    0.041141
  94 H :    0.042411
  95 H :    0.038602

  Mayer bond orders larger than 0.100000
B(  0-C ,  1-C ) :   1.5973 B(  0-C ,  6-C ) :   1.0131 B(  0-C , 18-C ) :   1.0946
B(  1-C ,  2-C ) :   1.1407 B(  1-C ,  4-C ) :   1.1646 B(  2-C ,  3-N ) :   2.9720
B(  4-C ,  5-N ) :   2.8784 B(  5-N , 89-H ) :   0.1445 B(  6-C ,  7-C ) :   1.2698
B(  6-C , 11-C ) :   1.3982 B(  7-C ,  8-C ) :   1.4300 B(  7-C , 16-C ) :   0.9349
B(  8-C ,  9-C ) :   1.2461 B(  8-C , 76-H ) :   1.0156 B(  9-C , 10-C ) :   1.3001
B(  9-C , 14-C ) :   1.1643 B( 10-C , 11-C ) :   1.3374 B( 10-C , 12-S ) :   1.0861
B( 11-C , 77-H ) :   0.9797 B( 12-S , 13-C ) :   1.0874 B( 13-C , 14-C ) :   1.6153
B( 13-C , 15-Br) :   1.0211 B( 14-C , 78-H ) :   1.0010 B( 16-C , 17-O ) :   2.2277
B( 16-C , 18-C ) :   0.9213 B( 18-C , 19-C ) :   1.5871 B( 19-C , 20-C ) :   1.1805
B( 19-C , 79-H ) :   0.9349 B( 20-C , 21-O ) :   1.1179 B( 20-C , 22-C ) :   1.4138
B( 21-O , 29-C ) :   1.1600 B( 22-C , 23-C ) :   0.8649 B( 22-C , 28-C ) :   1.3383
B( 23-C , 24-O ) :   2.2282 B( 23-C , 25-N ) :   1.0975 B( 25-N , 26-C ) :   1.0676
B( 25-N , 80-H ) :   0.9148 B( 26-C , 27-O ) :   2.2733 B( 26-C , 28-C ) :   0.8883
B( 28-C , 29-C ) :   1.3068 B( 29-C , 30-C ) :   1.2248 B( 30-C , 31-C ) :   1.5410
B( 30-C , 81-H ) :   0.9707 B( 31-C , 32-C ) :   1.1841 B( 31-C , 82-H ) :   0.9694
B( 32-C , 33-C ) :   1.5053 B( 32-C , 83-H ) :   0.9900 B( 33-C , 34-C ) :   1.1613
B( 33-C , 37-S ) :   1.0608 B( 34-C , 35-C ) :   1.5662 B( 34-C , 84-H ) :   0.9996
B( 35-C , 36-C ) :   1.2052 B( 35-C , 85-H ) :   0.9947 B( 36-C , 37-S ) :   1.0581
B( 36-C , 38-C ) :   1.4716 B( 38-C , 39-C ) :   1.1843 B( 38-C , 42-S ) :   1.0708
B( 39-C , 40-C ) :   1.5915 B( 39-C , 86-H ) :   0.9946 B( 40-C , 41-C ) :   1.1396
B( 40-C , 87-H ) :   1.0001 B( 41-C , 42-S ) :   1.0726 B( 41-C , 43-C ) :   1.5362
B( 43-C , 44-C ) :   1.2006 B( 43-C , 88-H ) :   0.9526 B( 44-C , 45-O ) :   1.1234
B( 44-C , 46-C ) :   1.3633 B( 45-O , 53-C ) :   1.1516 B( 46-C , 47-C ) :   0.8722
B( 46-C , 52-C ) :   1.2989 B( 47-C , 48-O ) :   2.1787 B( 47-C , 49-N ) :   1.1215
B( 49-N , 50-C ) :   1.1091 B( 49-N , 89-H ) :   0.8549 B( 50-C , 51-O ) :   2.2521
B( 50-C , 52-C ) :   0.8665 B( 52-C , 53-C ) :   1.3908 B( 53-C , 54-C ) :   1.2326
B( 54-C , 55-C ) :   1.5931 B( 54-C , 90-H ) :   0.9449 B( 55-C , 56-C ) :   1.1380
B( 55-C , 91-H ) :   0.9659 B( 56-C , 57-C ) :   1.6686 B( 56-C , 92-H ) :   0.9271
B( 57-C , 58-C ) :   1.0334 B( 57-C , 66-C ) :   0.9441 B( 58-C , 59-C ) :   1.6475
B( 58-C , 64-C ) :   1.0093 B( 59-C , 60-C ) :   1.1263 B( 59-C , 62-C ) :   1.1736
B( 60-C , 61-N ) :   2.9934 B( 62-C , 63-N ) :   2.9871 B( 64-C , 65-C ) :   1.2766
B( 64-C , 71-C ) :   1.4121 B( 65-C , 66-C ) :   0.9222 B( 65-C , 68-C ) :   1.4225
B( 66-C , 67-O ) :   2.2598 B( 68-C , 69-C ) :   1.2499 B( 68-C , 93-H ) :   1.0175
B( 69-C , 70-C ) :   1.3065 B( 69-C , 74-C ) :   1.1617 B( 70-C , 71-C ) :   1.3288
B( 70-C , 72-S ) :   1.0863 B( 71-C , 94-H ) :   0.9840 B( 72-S , 73-C ) :   1.0871
B( 73-C , 74-C ) :   1.6194 B( 73-C , 75-Br) :   1.0182 B( 74-C , 95-H ) :   1.0007

-----------------------------------------------------------------------------
         ABSORPTION SPECTRUM VIA TRANSITION ELECTRIC DIPOLE MOMENTS
-----------------------------------------------------------------------------
State   Energy  Wavelength   fosc         T2         TX        TY        TZ
        (cm-1)    (nm)                  (au**2)     (au)      (au)      (au)
-----------------------------------------------------------------------------
   0    9647.4   1036.6   0.643784862  21.96889   2.28909  -2.83078  -2.95223
   1   14670.2    681.7   0.933479169  20.94809  -3.54122   2.53271  -1.41181
   2   17345.1    576.5   0.072396919   1.37410  -0.67787   0.31732   0.90216
   3   19483.2    513.3   0.745609988  12.59876  -2.29254   1.30421  -2.37530
   4   21940.6    455.8   0.015637953   0.23464  -0.46243   0.07600  -0.12260
   5   23024.5    434.3   0.050346703   0.71987  -0.71317   0.41744  -0.19236
   6   23792.0    420.3   0.406494637   5.62470   0.67126  -0.40796   2.23778
   7   24273.2    412.0   0.061171825   0.82966   0.04818  -0.66534   0.62021
   8   25088.6    398.6   0.069181388   0.90780  -0.54986   0.77559   0.06257
   9   25362.1    394.3   0.110934466   1.43998  -0.27808  -0.40085  -1.09634
  10   25702.3    389.1   0.462947218   5.92974  -0.49649   0.21918   2.37386
  11   26342.6    379.6   0.206274868   2.57788   0.53849  -1.44760   0.43859
  12   26516.8    377.1   0.056286252   0.69881   0.56285   0.03237  -0.61722
  13   27353.8    365.6   0.165561590   1.99259   1.02208  -0.24087   0.94335
  14   27938.2    357.9   0.080227822   0.94537  -0.02216   0.49735   0.83518
  15   28811.9    347.1   0.022972539   0.26249  -0.25201   0.07485  -0.43975
  16   29707.9    336.6   0.005358122   0.05938   0.13499  -0.11957   0.16389
  17   29899.4    334.5   0.050396587   0.55490   0.68125  -0.27532   0.12246
  18   29950.8    333.9   0.007980082   0.08772  -0.24968   0.13666  -0.08184
  19   30186.0    331.3   0.058255499   0.63534  -0.53672  -0.22203  -0.54587
  20   30804.5    324.6   0.001873157   0.02002  -0.06756   0.05800  -0.10996
  21   31046.0    322.1   0.036053833   0.38231  -0.29006   0.35878  -0.41165
  22   31397.7    318.5   0.128226643   1.34448  -0.09243   1.15518   0.03876
  23   31575.1    316.7   0.053644365   0.55931  -0.12651   0.51036   0.53183
  24   31766.3    314.8   0.149301180   1.54729  -0.02383  -0.98581  -0.75823
  25   31884.8    313.6   0.109771812   1.13340  -0.30512  -0.02582  -1.01963
  26   32437.6    308.3   0.098816641   1.00290  -0.07689  -0.86128  -0.50515
  27   32550.3    307.2   0.273022261   2.76133   0.48145  -0.87272  -1.32962
  28   32623.8    306.5   0.072667940   0.73330  -0.02681   0.80096   0.30175
  29   32936.0    303.6   0.633172575   6.32887  -0.74148   1.80240  -1.59074
  30   33086.4    302.2   0.018561511   0.18469   0.42970   0.00655   0.00216
  31   33389.5    299.5   0.010642040   0.10493  -0.32149   0.02677  -0.02920
  32   33455.2    298.9   0.071012017   0.69878  -0.75575   0.13231   0.33185
  33   33566.7    297.9   0.047080461   0.46175   0.17825  -0.01738   0.65550
  34   33834.0    295.6   0.002061126   0.02006  -0.07079   0.12065   0.02209
  35   34126.1    293.0   0.059900194   0.57785   0.38666  -0.50490  -0.41644
  36   34341.0    291.2   0.001011744   0.00970  -0.03308   0.08098   0.04525
  37   34879.9    286.7   0.009516026   0.08982   0.24322  -0.16681   0.05328
  38   35075.3    285.1   0.017498327   0.16424  -0.15959   0.36661   0.06604
  39   35381.4    282.6   0.019637019   0.18272  -0.27957   0.28042   0.16101
  40   35853.4    278.9   0.190519007   1.74938  -0.84833   0.99289   0.20947
  41   35885.9    278.7   0.035519887   0.32585   0.13525   0.46481  -0.30252
  42   36175.9    276.4   0.036390551   0.33117  -0.31069   0.48304   0.03623
  43   36410.4    274.6   0.009356301   0.08460  -0.01979  -0.22016  -0.18904
  44   36656.7    272.8   0.014948319   0.13425  -0.19364  -0.14309  -0.27619
  45   36716.9    272.4   0.001595283   0.01430  -0.06883   0.09557  -0.02079
  46   36947.3    270.7   0.003286414   0.02928  -0.15898  -0.05646   0.02866
  47   37131.2    269.3   0.030327714   0.26889  -0.34545   0.09108  -0.37584
  48   37517.1    266.5   0.148297006   1.30130   0.80162  -0.43268   0.68665
  49   37659.4    265.5   0.023353727   0.20415  -0.30269   0.32988  -0.06092
  50   37699.9    265.3   0.020074217   0.17530  -0.32290   0.26084   0.05471
  51   37827.7    264.4   0.009960187   0.08668   0.01254  -0.17887  -0.23352
  52   38130.3    262.3   0.006900774   0.05958  -0.09962  -0.20753   0.08117
  53   38263.1    261.3   0.021546352   0.18538   0.02524   0.34626   0.25465
  54   38527.5    259.6   0.033199507   0.28369   0.37468   0.01686   0.37817
  55   38630.4    258.9   0.043288941   0.36891   0.10140  -0.47321  -0.36701
  56   38961.7    256.7   0.035066779   0.29630   0.12224  -0.43650   0.30137
  57   39127.6    255.6   0.120227713   1.01157   0.30242   0.29427   0.91297
  58   39400.0    253.8   0.029738823   0.24849  -0.16458   0.43389  -0.18205
  59   39490.9    253.2   0.013016396   0.10851  -0.14618   0.26532  -0.12942
  60   39660.5    252.1   0.020385834   0.16922  -0.12781  -0.31655   0.22952
  61   39884.8    250.7   0.020671612   0.17062   0.01678   0.39782  -0.10992
  62   39996.7    250.0   0.042424918   0.34920  -0.23235   0.44958   0.30511
  63   40121.5    249.2   0.017623692   0.14461   0.12397  -0.32788  -0.14742

FINAL SINGLE POINT ENERGY     -9812.600819573621

DIPOLE MOMENT
-------------
                                X             Y             Z
Electronic contribution:     92.21774     -51.65036     167.53501
Nuclear contribution   :    -94.53720      52.12609    -169.07809
                        -----------------------------------------
Total Dipole Moment    :     -2.31946       0.47572      -1.54308
                        -----------------------------------------
Magnitude (a.u.)       :      2.82618
Magnitude (Debye)      :      7.18359

Rotational constants in cm-1:     0.000528     0.000295     0.000197
Rotational constants in MHz :    15.827158     8.854811     5.898584

                             ****ORCA TERMINATED NORMALLY****
TOTAL RUN TIME: 0 days 0 hours 10 minutes 30 seconds 795 msec
