                         Program Version 4.2.0 -  RELEASE  -
|  1> # ORCA input file
|  2> # SCF done       -188.174669502288          0.000733953075
|  3> ! CAM-B3LYP def2-SVP def2/J RIJCOSX Grid4 TightSCF
|  4> %maxcore 5000
|  5> %tddft
|  6>     Mode sTDDFT
|  7>     Ethresh 5.0
|  8>     maxcore 5000
|  9> end
| 10>
| 11> %pal
| 12>   nprocs 6
| 13>   end
| 14> * xyz 0 1
| 15>    C      -11.43928        -1.20582        -0.37617
| 16>    C      -10.68359        -2.25124        -0.85113
| 17>    C      -10.96313        -3.60925        -0.59947
| 18>    N      -11.13065        -4.73309        -0.43061
| 19>    C       -9.52510        -2.13942        -1.64573
| 20>    N       -8.57542        -2.14853        -2.29284
| 21>    C      -12.63127        -1.34785         0.45715
| 22>    C      -13.12391        -0.05808         0.76847
| 23>    C      -14.24101         0.14296         1.54073
| 24>    C      -14.90769        -0.98515         2.03124
| 25>    C      -14.40897        -2.26978         1.71505
| 26>    C      -13.27787        -2.47277         0.93356
| 27>    S      -15.38271        -3.52537         2.42110
| 28>    C      -16.43169        -2.32141         3.12113
| 29>    C      -16.07419        -1.04590         2.84276
| 30>   Br      -17.90143        -2.86262         4.15449
| 31>    C      -12.25753         0.96167         0.13757
| 32>    O      -12.40184         2.16530         0.21504
| 33>    C      -11.21313         0.20600        -0.58499
| 34>    C      -10.20916         0.77340        -1.33374
| 35>    C      -10.00707         2.14993        -1.51111
| 36>    C       -8.97984         2.62330        -2.28124
| 37>    C       -8.70411         3.98141        -2.49944
| 38>    O       -9.44660         4.97721        -1.94993
| 39>    C       -8.94001         6.17340        -2.34638
| 40>    C       -7.82391         5.94264        -3.15858
| 41>    C       -7.67598         4.55212        -3.26133
| 42>    O       -6.73626         3.88076        -3.94800
| 43>    O       -6.96542         6.81498        -3.75240
| 44>    C       -9.57559         7.34469        -1.87884
| 45>    C       -9.34038         8.62031        -2.30761
| 46>    C       -9.95596         9.79302        -1.81707
| 47>    C      -10.74372         9.87176        -0.70019
| 48>    C      -11.37856        11.01418        -0.18881
| 49>    S      -11.89446        10.97225         1.47251
| 50>    C      -12.38776        12.63975         1.48576
| 51>    C      -12.26656        13.18579         0.17999
| 52>    C      -11.69463        12.27102        -0.75682
| 53>    C      -11.58856        12.63684        -2.10931
| 54>    C      -12.01268        13.87492        -2.50873
| 55>    F      -11.93539        14.21736        -3.80395
| 56>    C      -12.58386        14.76862        -1.58813
| 57>    F      -13.03861        15.95982        -2.02146
| 58>    C      -12.72623        14.43433        -0.26877
| 59>    C      -12.79492        13.19965         2.69993
| 60>    C      -12.88646        14.54825         2.96168
| 61>    C      -13.34754        15.12626         4.13893
| 62>    C      -13.42225        16.50484         4.27216
| 63>    C      -13.87193        17.28631         5.35452
| 64>    C      -13.84136        18.63812         5.12362
| 65>    C      -13.36516        18.97840         3.84628
| 66>    S      -12.94864        17.54385         2.94678
| 67>    C      -13.18708        20.20164         3.21083
| 68>    C      -13.41152        21.52730         3.62514
| 69>    C      -13.10092        22.45554         2.67077
| 70>    C      -12.61142        21.90690         1.45765
| 71>    S      -12.56767        20.16491         1.58194
| 72>    C      -12.24057        22.59908         0.32914
| 73>    C      -11.73703        22.05624        -0.86958
| 74>    S      -11.47720        23.11350        -2.25425
| 75>    C      -10.90217        21.86135        -3.27906
| 76>    C      -10.89419        20.66165        -2.60690
| 77>    C      -11.36221        20.77814        -1.26004
| 78>    O      -11.30525        19.57951        -0.64349
| 79>    C      -10.82412        18.70701        -1.56446
| 80>    N      -10.66318        17.36566        -1.15176
| 81>    O      -10.15529        16.59870        -1.94938
| 82>    O      -11.02628        17.06383        -0.03294
| 83>    C      -10.55253        19.29040        -2.77334
| 84>    H      -14.59090         1.13970         1.75960
| 85>    H      -12.94008        -3.47320         0.72171
| 86>    H      -16.60896        -0.18215         3.19351
| 87>    H       -9.50863         0.11727        -1.83435
| 88>    H      -10.67553         2.84603        -1.02777
| 89>    H       -8.30559         1.93649        -2.77531
| 90>    H       -6.15280         4.52239        -4.37551
| 91>    H       -7.10719         7.70284        -3.40689
| 92>    H      -10.33630         7.16010        -1.13480
| 93>    H       -8.65815         8.77901        -3.13310
| 94>    H       -9.72325        10.70066        -2.35242
| 95>    H      -10.84988         8.98595        -0.08762
| 96>    H      -11.22364        11.94968        -2.85227
| 97>    H      -13.21929        15.13253         0.38399
| 98>    H      -13.00071        12.50251         3.50310
| 99>    H      -12.53630        15.23564         2.20557
|100>    H      -13.67999        14.50588         4.95974
|101>    H      -14.20814        16.83906         6.27368
|102>    H      -14.14995        19.38219         5.83655
|103>    H      -13.79058        21.76649         4.60297
|104>    H      -13.20557        23.51827         2.80146
|105>    H      -12.35734        23.67411         0.34573
|106>    H      -10.61059        22.07940        -4.28484
|107>    H      -10.16918        18.79701        -3.64209
|108> *
|109>
|110>                          ****END OF INPUT****

CARTESIAN COORDINATES (ANGSTROEM)
---------------------------------
  C    -11.439280   -1.205820   -0.376170
  C    -10.683590   -2.251240   -0.851130
  C    -10.963130   -3.609250   -0.599470
  N    -11.130650   -4.733090   -0.430610
  C     -9.525100   -2.139420   -1.645730
  N     -8.575420   -2.148530   -2.292840
  C    -12.631270   -1.347850    0.457150
  C    -13.123910   -0.058080    0.768470
  C    -14.241010    0.142960    1.540730
  C    -14.907690   -0.985150    2.031240
  C    -14.408970   -2.269780    1.715050
  C    -13.277870   -2.472770    0.933560
  S    -15.382710   -3.525370    2.421100
  C    -16.431690   -2.321410    3.121130
  C    -16.074190   -1.045900    2.842760
  Br   -17.901430   -2.862620    4.154490
  C    -12.257530    0.961670    0.137570
  O    -12.401840    2.165300    0.215040
  C    -11.213130    0.206000   -0.584990
  C    -10.209160    0.773400   -1.333740
  C    -10.007070    2.149930   -1.511110
  C     -8.979840    2.623300   -2.281240
  C     -8.704110    3.981410   -2.499440
  O     -9.446600    4.977210   -1.949930
  C     -8.940010    6.173400   -2.346380
  C     -7.823910    5.942640   -3.158580
  C     -7.675980    4.552120   -3.261330
  O     -6.736260    3.880760   -3.948000
  O     -6.965420    6.814980   -3.752400
  C     -9.575590    7.344690   -1.878840
  C     -9.340380    8.620310   -2.307610
  C     -9.955960    9.793020   -1.817070
  C    -10.743720    9.871760   -0.700190
  C    -11.378560   11.014180   -0.188810
  S    -11.894460   10.972250    1.472510
  C    -12.387760   12.639750    1.485760
  C    -12.266560   13.185790    0.179990
  C    -11.694630   12.271020   -0.756820
  C    -11.588560   12.636840   -2.109310
  C    -12.012680   13.874920   -2.508730
  F    -11.935390   14.217360   -3.803950
  C    -12.583860   14.768620   -1.588130
  F    -13.038610   15.959820   -2.021460
  C    -12.726230   14.434330   -0.268770
  C    -12.794920   13.199650    2.699930
  C    -12.886460   14.548250    2.961680
  C    -13.347540   15.126260    4.138930
  C    -13.422250   16.504840    4.272160
  C    -13.871930   17.286310    5.354520
  C    -13.841360   18.638120    5.123620
  C    -13.365160   18.978400    3.846280
  S    -12.948640   17.543850    2.946780
  C    -13.187080   20.201640    3.210830
  C    -13.411520   21.527300    3.625140
  C    -13.100920   22.455540    2.670770
  C    -12.611420   21.906900    1.457650
  S    -12.567670   20.164910    1.581940
  C    -12.240570   22.599080    0.329140
  C    -11.737030   22.056240   -0.869580
  S    -11.477200   23.113500   -2.254250
  C    -10.902170   21.861350   -3.279060
  C    -10.894190   20.661650   -2.606900
  C    -11.362210   20.778140   -1.260040
  O    -11.305250   19.579510   -0.643490
  C    -10.824120   18.707010   -1.564460
  N    -10.663180   17.365660   -1.151760
  O    -10.155290   16.598700   -1.949380
  O    -11.026280   17.063830   -0.032940
  C    -10.552530   19.290400   -2.773340
  H    -14.590900    1.139700    1.759600
  H    -12.940080   -3.473200    0.721710
  H    -16.608960   -0.182150    3.193510
  H     -9.508630    0.117270   -1.834350
  H    -10.675530    2.846030   -1.027770
  H     -8.305590    1.936490   -2.775310
  H     -6.152800    4.522390   -4.375510
  H     -7.107190    7.702840   -3.406890
  H    -10.336300    7.160100   -1.134800
  H     -8.658150    8.779010   -3.133100
  H     -9.723250   10.700660   -2.352420
  H    -10.849880    8.985950   -0.087620
  H    -11.223640   11.949680   -2.852270
  H    -13.219290   15.132530    0.383990
  H    -13.000710   12.502510    3.503100
  H    -12.536300   15.235640    2.205570
  H    -13.679990   14.505880    4.959740
  H    -14.208140   16.839060    6.273680
  H    -14.149950   19.382190    5.836550
  H    -13.790580   21.766490    4.602970
  H    -13.205570   23.518270    2.801460
  H    -12.357340   23.674110    0.345730
  H    -10.610590   22.079400   -4.284840
  H    -10.169180   18.797010   -3.642090

 Total Charge           Charge          ....    0
 Multiplicity           Mult            ....    1
 Number of Electrons    NEL             ....  540
 Basis Dimension        Dim             .... 1124

ORBITAL ENERGIES
----------------

  NO   OCC          E(Eh)            E(eV)
   0   2.0000    -482.876244    -13139.7306
   1   2.0000     -88.979278     -2421.2493
   2   2.0000     -88.965865     -2420.8842
   3   2.0000     -88.963640     -2420.8237
   4   2.0000     -88.942408     -2420.2460
   5   2.0000     -88.940766     -2420.2013
   6   2.0000     -62.553973     -1702.1801
   7   2.0000     -56.387911     -1534.3931
   8   2.0000     -56.385218     -1534.3198
   9   2.0000     -56.385179     -1534.3187
  10   2.0000     -24.785206      -674.4397
  11   2.0000     -24.783656      -674.3976
  12   2.0000     -19.311486      -525.4922
  13   2.0000     -19.291507      -524.9486
  14   2.0000     -19.272840      -524.4406
  15   2.0000     -19.268892      -524.3332
  16   2.0000     -19.251896      -523.8707
  17   2.0000     -19.249732      -523.8118
  18   2.0000     -19.197541      -522.3916
  19   2.0000     -14.661925      -398.9713
  20   2.0000     -14.398987      -391.8164
  21   2.0000     -14.397372      -391.7724
  22   2.0000     -10.392484      -282.7939
  23   2.0000     -10.364228      -282.0250
  24   2.0000     -10.361034      -281.9381
  25   2.0000     -10.352184      -281.6972
  26   2.0000     -10.349943      -281.6363
  27   2.0000     -10.348209      -281.5891
  28   2.0000     -10.347507      -281.5700
  29   2.0000     -10.346534      -281.5435
  30   2.0000     -10.344190      -281.4797
  31   2.0000     -10.331808      -281.1428
  32   2.0000     -10.324477      -280.9433
  33   2.0000     -10.323120      -280.9064
  34   2.0000     -10.321261      -280.8558
  35   2.0000     -10.317253      -280.7467
  36   2.0000     -10.317026      -280.7405
  37   2.0000     -10.313246      -280.6377
  38   2.0000     -10.313112      -280.6340
  39   2.0000     -10.311983      -280.6033
  40   2.0000     -10.310852      -280.5726
  41   2.0000     -10.308843      -280.5179
  42   2.0000     -10.307661      -280.4857
  43   2.0000     -10.307547      -280.4826
  44   2.0000     -10.303765      -280.3797
  45   2.0000     -10.302787      -280.3531
  46   2.0000     -10.301502      -280.3181
  47   2.0000     -10.296587      -280.1844
  48   2.0000     -10.294985      -280.1408
  49   2.0000     -10.294935      -280.1394
  50   2.0000     -10.294100      -280.1167
  51   2.0000     -10.294093      -280.1165
  52   2.0000     -10.294053      -280.1154
  53   2.0000     -10.292558      -280.0747
  54   2.0000     -10.292442      -280.0716
  55   2.0000     -10.291584      -280.0482
  56   2.0000     -10.291235      -280.0387
  57   2.0000     -10.290830      -280.0277
  58   2.0000     -10.290657      -280.0230
  59   2.0000     -10.289586      -279.9939
  60   2.0000     -10.288409      -279.9618
  61   2.0000     -10.287105      -279.9264
  62   2.0000     -10.286522      -279.9105
  63   2.0000     -10.286373      -279.9064
  64   2.0000     -10.285696      -279.8880
  65   2.0000     -10.284575      -279.8575
  66   2.0000     -10.284027      -279.8426
  67   2.0000     -10.281324      -279.7691
  68   2.0000     -10.279796      -279.7275
  69   2.0000     -10.279414      -279.7171
  70   2.0000     -10.276179      -279.6290
  71   2.0000     -10.273761      -279.5632
  72   2.0000     -10.265180      -279.3298
  73   2.0000      -8.783405      -239.0086
  74   2.0000      -8.074338      -219.7139
  75   2.0000      -8.061438      -219.3629
  76   2.0000      -8.059650      -219.3142
  77   2.0000      -8.038959      -218.7512
  78   2.0000      -8.037462      -218.7105
  79   2.0000      -6.619665      -180.1302
  80   2.0000      -6.605142      -179.7351
  81   2.0000      -6.604986      -179.7308
  82   2.0000      -6.043664      -164.4564
  83   2.0000      -6.039369      -164.3396
  84   2.0000      -6.036619      -164.2648
  85   2.0000      -6.030353      -164.0943
  86   2.0000      -6.029359      -164.0672
  87   2.0000      -6.026455      -163.9882
  88   2.0000      -6.025066      -163.9504
  89   2.0000      -6.024080      -163.9235
  90   2.0000      -6.020854      -163.8358
  91   2.0000      -6.008641      -163.5034
  92   2.0000      -6.007169      -163.4634
  93   2.0000      -6.004480      -163.3902
  94   2.0000      -6.002969      -163.3491
  95   2.0000      -5.999962      -163.2673
  96   2.0000      -5.998235      -163.2203
  97   2.0000      -2.735517       -74.4372
  98   2.0000      -2.731463       -74.3269
  99   2.0000      -2.731364       -74.3242
 100   2.0000      -2.719811       -74.0098
 101   2.0000      -2.719802       -74.0096
 102   2.0000      -1.333241       -36.2793
 103   2.0000      -1.305041       -35.5120
 104   2.0000      -1.290555       -35.1178
 105   2.0000      -1.235294       -33.6141
 106   2.0000      -1.213247       -33.0141
 107   2.0000      -1.169411       -31.8213
 108   2.0000      -1.152709       -31.3668
 109   2.0000      -1.148201       -31.2442
 110   2.0000      -1.111454       -30.2442
 111   2.0000      -1.008267       -27.4364
 112   2.0000      -1.002124       -27.2692
 113   2.0000      -1.001050       -27.2399
 114   2.0000      -0.997784       -27.1511
 115   2.0000      -0.996728       -27.1223
 116   2.0000      -0.977306       -26.5939
 117   2.0000      -0.975528       -26.5455
 118   2.0000      -0.973046       -26.4779
 119   2.0000      -0.941739       -25.6260
 120   2.0000      -0.940422       -25.5902
 121   2.0000      -0.931628       -25.3509
 122   2.0000      -0.928173       -25.2569
 123   2.0000      -0.917477       -24.9658
 124   2.0000      -0.909676       -24.7535
 125   2.0000      -0.903223       -24.5779
 126   2.0000      -0.895791       -24.3757
 127   2.0000      -0.894125       -24.3304
 128   2.0000      -0.890008       -24.2184
 129   2.0000      -0.881561       -23.9885
 130   2.0000      -0.873940       -23.7811
 131   2.0000      -0.871644       -23.7186
 132   2.0000      -0.859510       -23.3884
 133   2.0000      -0.855506       -23.2795
 134   2.0000      -0.844268       -22.9737
 135   2.0000      -0.839047       -22.8316
 136   2.0000      -0.833185       -22.6721
 137   2.0000      -0.827143       -22.5077
 138   2.0000      -0.818297       -22.2670
 139   2.0000      -0.815684       -22.1959
 140   2.0000      -0.809927       -22.0392
 141   2.0000      -0.798274       -21.7221
 142   2.0000      -0.787333       -21.4244
 143   2.0000      -0.773262       -21.0415
 144   2.0000      -0.755928       -20.5698
 145   2.0000      -0.746238       -20.3062
 146   2.0000      -0.740135       -20.1401
 147   2.0000      -0.732941       -19.9443
 148   2.0000      -0.732580       -19.9345
 149   2.0000      -0.717205       -19.5161
 150   2.0000      -0.713916       -19.4266
 151   2.0000      -0.707136       -19.2421
 152   2.0000      -0.705657       -19.2019
 153   2.0000      -0.699554       -19.0358
 154   2.0000      -0.684044       -18.6138
 155   2.0000      -0.677027       -18.4228
 156   2.0000      -0.673005       -18.3134
 157   2.0000      -0.671729       -18.2787
 158   2.0000      -0.667422       -18.1615
 159   2.0000      -0.659267       -17.9396
 160   2.0000      -0.655522       -17.8377
 161   2.0000      -0.648428       -17.6446
 162   2.0000      -0.647933       -17.6311
 163   2.0000      -0.645316       -17.5599
 164   2.0000      -0.641318       -17.4511
 165   2.0000      -0.636764       -17.3272
 166   2.0000      -0.635132       -17.2828
 167   2.0000      -0.631093       -17.1729
 168   2.0000      -0.626103       -17.0371
 169   2.0000      -0.619012       -16.8442
 170   2.0000      -0.617897       -16.8138
 171   2.0000      -0.610245       -16.6056
 172   2.0000      -0.608941       -16.5701
 173   2.0000      -0.605307       -16.4712
 174   2.0000      -0.599648       -16.3173
 175   2.0000      -0.593981       -16.1630
 176   2.0000      -0.590812       -16.0768
 177   2.0000      -0.589809       -16.0495
 178   2.0000      -0.580520       -15.7968
 179   2.0000      -0.579867       -15.7790
 180   2.0000      -0.578036       -15.7292
 181   2.0000      -0.574663       -15.6374
 182   2.0000      -0.572925       -15.5901
 183   2.0000      -0.565596       -15.3906
 184   2.0000      -0.560586       -15.2543
 185   2.0000      -0.556672       -15.1478
 186   2.0000      -0.551209       -14.9992
 187   2.0000      -0.547850       -14.9078
 188   2.0000      -0.544030       -14.8038
 189   2.0000      -0.540560       -14.7094
 190   2.0000      -0.533827       -14.5262
 191   2.0000      -0.533234       -14.5100
 192   2.0000      -0.532060       -14.4781
 193   2.0000      -0.531761       -14.4700
 194   2.0000      -0.525910       -14.3107
 195   2.0000      -0.523393       -14.2422
 196   2.0000      -0.522154       -14.2085
 197   2.0000      -0.520772       -14.1709
 198   2.0000      -0.516479       -14.0541
 199   2.0000      -0.513415       -13.9707
 200   2.0000      -0.508375       -13.8336
 201   2.0000      -0.502635       -13.6774
 202   2.0000      -0.500473       -13.6186
 203   2.0000      -0.499100       -13.5812
 204   2.0000      -0.497084       -13.5263
 205   2.0000      -0.495929       -13.4949
 206   2.0000      -0.495017       -13.4701
 207   2.0000      -0.493304       -13.4235
 208   2.0000      -0.492601       -13.4044
 209   2.0000      -0.489041       -13.3075
 210   2.0000      -0.486521       -13.2389
 211   2.0000      -0.483317       -13.1517
 212   2.0000      -0.478720       -13.0266
 213   2.0000      -0.477861       -13.0033
 214   2.0000      -0.477348       -12.9893
 215   2.0000      -0.476992       -12.9796
 216   2.0000      -0.476200       -12.9581
 217   2.0000      -0.472572       -12.8593
 218   2.0000      -0.469813       -12.7842
 219   2.0000      -0.464525       -12.6404
 220   2.0000      -0.462986       -12.5985
 221   2.0000      -0.460902       -12.5418
 222   2.0000      -0.457476       -12.4486
 223   2.0000      -0.452974       -12.3261
 224   2.0000      -0.452201       -12.3050
 225   2.0000      -0.443705       -12.0738
 226   2.0000      -0.442146       -12.0314
 227   2.0000      -0.439651       -11.9635
 228   2.0000      -0.435305       -11.8452
 229   2.0000      -0.433176       -11.7873
 230   2.0000      -0.433023       -11.7832
 231   2.0000      -0.432144       -11.7592
 232   2.0000      -0.431069       -11.7300
 233   2.0000      -0.428107       -11.6494
 234   2.0000      -0.426619       -11.6089
 235   2.0000      -0.425195       -11.5701
 236   2.0000      -0.423833       -11.5331
 237   2.0000      -0.419929       -11.4268
 238   2.0000      -0.419091       -11.4041
 239   2.0000      -0.416585       -11.3359
 240   2.0000      -0.410444       -11.1687
 241   2.0000      -0.410351       -11.1662
 242   2.0000      -0.407106       -11.0779
 243   2.0000      -0.403365       -10.9761
 244   2.0000      -0.396189       -10.7808
 245   2.0000      -0.392499       -10.6804
 246   2.0000      -0.390878       -10.6363
 247   2.0000      -0.387435       -10.5426
 248   2.0000      -0.384973       -10.4757
 249   2.0000      -0.383668       -10.4401
 250   2.0000      -0.377752       -10.2792
 251   2.0000      -0.374196       -10.1824
 252   2.0000      -0.365888        -9.9563
 253   2.0000      -0.363057        -9.8793
 254   2.0000      -0.355660        -9.6780
 255   2.0000      -0.340356        -9.2616
 256   2.0000      -0.337425        -9.1818
 257   2.0000      -0.330302        -8.9880
 258   2.0000      -0.323509        -8.8031
 259   2.0000      -0.320688        -8.7264
 260   2.0000      -0.319919        -8.7054
 261   2.0000      -0.317584        -8.6419
 262   2.0000      -0.310931        -8.4609
 263   2.0000      -0.302476        -8.2308
 264   2.0000      -0.301726        -8.2104
 265   2.0000      -0.286305        -7.7908
 266   2.0000      -0.280403        -7.6301
 267   2.0000      -0.257093        -6.9959
 268   2.0000      -0.231939        -6.3114
 269   2.0000      -0.197329        -5.3696
 270   0.0000      -0.102847        -2.7986
 271   0.0000      -0.081647        -2.2217
 272   0.0000      -0.068361        -1.8602
 273   0.0000      -0.054240        -1.4760
 274   0.0000      -0.043015        -1.1705

MULLIKEN ATOMIC CHARGES
-----------------------
   0 C :    0.333647
   1 C :   -0.365559
   2 C :   -0.187646
   3 N :    0.136501
   4 C :   -0.190324
   5 N :    0.136667
   6 C :    0.012219
   7 C :   -0.011024
   8 C :   -0.077620
   9 C :    0.120131
  10 C :   -0.090908
  11 C :   -0.025766
  12 S :    0.179175
  13 C :   -0.123483
  14 C :    0.037323
  15 Br:    0.013946
  16 C :    0.138516
  17 O :   -0.161203
  18 C :   -0.073195
  19 C :   -0.034522
  20 C :   -0.007794
  21 C :   -0.002600
  22 C :    0.075031
  23 O :   -0.205455
  24 C :    0.125215
  25 C :    0.045463
  26 C :    0.113114
  27 O :   -0.158566
  28 O :   -0.200826
  29 C :    0.004526
  30 C :   -0.027853
  31 C :   -0.030392
  32 C :    0.069150
  33 C :   -0.134156
  34 S :    0.157639
  35 C :   -0.113181
  36 C :    0.120224
  37 C :    0.130031
  38 C :   -0.133523
  39 C :    0.248274
  40 F :   -0.179283
  41 C :    0.207999
  42 F :   -0.193582
  43 C :   -0.084181
  44 C :    0.035922
  45 C :   -0.031566
  46 C :    0.005469
  47 C :   -0.021075
  48 C :    0.031345
  49 C :    0.029241
  50 C :   -0.037354
  51 S :    0.059333
  52 C :   -0.030479
  53 C :    0.039016
  54 C :    0.028743
  55 C :   -0.029627
  56 S :    0.077492
  57 C :    0.053942
  58 C :   -0.232743
  59 S :    0.149852
  60 C :   -0.134899
  61 C :    0.123423
  62 C :    0.194596
  63 O :   -0.194831
  64 C :    0.256530
  65 N :    0.281477
  66 O :   -0.250128
  67 O :   -0.230668
  68 C :   -0.077039
  69 H :   -0.016531
  70 H :   -0.009563
  71 H :   -0.007715
  72 H :    0.005977
  73 H :    0.027089
  74 H :    0.024425
  75 H :    0.199083
  76 H :    0.192218
  77 H :    0.006869
  78 H :   -0.036317
  79 H :   -0.010079
  80 H :   -0.011702
  81 H :   -0.015567
  82 H :   -0.012137
  83 H :   -0.017423
  84 H :    0.038203
  85 H :   -0.016928
  86 H :   -0.012825
  87 H :   -0.013634
  88 H :   -0.014382
  89 H :   -0.012863
  90 H :   -0.021767
  91 H :    0.033075
  92 H :    0.014375
Sum of atomic charges:   -0.0000000

LOEWDIN ATOMIC CHARGES
----------------------
   0 C :    0.076308
   1 C :   -0.153845
   2 C :   -0.018180
   3 N :   -0.067197
   4 C :   -0.020327
   5 N :   -0.064406
   6 C :   -0.019077
   7 C :   -0.048367
   8 C :    0.017115
   9 C :   -0.035425
  10 C :   -0.145496
  11 C :   -0.012783
  12 S :    0.426878
  13 C :   -0.274483
  14 C :   -0.071087
  15 Br:    0.129350
  16 C :    0.081925
  17 O :   -0.154566
  18 C :   -0.112997
  19 C :    0.066687
  20 C :   -0.044228
  21 C :    0.024225
  22 C :   -0.012297
  23 O :    0.009651
  24 C :    0.016516
  25 C :   -0.026141
  26 C :    0.020398
  27 O :   -0.031133
  28 O :   -0.058091
  29 C :   -0.044006
  30 C :   -0.033303
  31 C :   -0.056057
  32 C :   -0.025096
  33 C :   -0.181658
  34 S :    0.473770
  35 C :   -0.159912
  36 C :   -0.043407
  37 C :   -0.034623
  38 C :   -0.045415
  39 C :    0.070785
  40 F :   -0.055497
  41 C :    0.056224
  42 F :   -0.064696
  43 C :   -0.025583
  44 C :   -0.050000
  45 C :   -0.031132
  46 C :   -0.054824
  47 C :   -0.142473
  48 C :   -0.037139
  49 C :   -0.031891
  50 C :   -0.178247
  51 S :    0.394514
  52 C :   -0.182053
  53 C :   -0.031423
  54 C :   -0.036293
  55 C :   -0.144912
  56 S :    0.409292
  57 C :   -0.086574
  58 C :   -0.198407
  59 S :    0.474771
  60 C :   -0.188424
  61 C :   -0.080144
  62 C :    0.008554
  63 O :   -0.001232
  64 C :    0.028253
  65 N :    0.277067
  66 O :   -0.206573
  67 O :   -0.191509
  68 C :   -0.005157
  69 H :    0.038441
  70 H :    0.040049
  71 H :    0.037204
  72 H :    0.040232
  73 H :    0.034413
  74 H :    0.048340
  75 H :    0.108143
  76 H :    0.091197
  77 H :    0.040411
  78 H :    0.018550
  79 H :    0.028127
  80 H :    0.028337
  81 H :    0.037926
  82 H :    0.039249
  83 H :    0.028834
  84 H :    0.023768
  85 H :    0.031878
  86 H :    0.033037
  87 H :    0.032312
  88 H :    0.032227
  89 H :    0.032146
  90 H :    0.033473
  91 H :    0.029150
  92 H :    0.048060

  Mayer bond orders larger than 0.100000
B(  0-C ,  1-C ) :   1.5952 B(  0-C ,  6-C ) :   0.9929 B(  0-C , 18-C ) :   1.1009
B(  1-C ,  2-C ) :   1.1471 B(  1-C ,  4-C ) :   1.1525 B(  2-C ,  3-N ) :   2.9623
B(  4-C ,  5-N ) :   2.9584 B(  6-C ,  7-C ) :   1.2804 B(  6-C , 11-C ) :   1.4124
B(  7-C ,  8-C ) :   1.4293 B(  7-C , 16-C ) :   0.9352 B(  8-C ,  9-C ) :   1.2397
B(  8-C , 69-H ) :   1.0169 B(  9-C , 10-C ) :   1.3138 B(  9-C , 14-C ) :   1.1596
B( 10-C , 11-C ) :   1.3259 B( 10-C , 12-S ) :   1.0823 B( 11-C , 70-H ) :   0.9796
B( 12-S , 13-C ) :   1.0856 B( 13-C , 14-C ) :   1.6200 B( 13-C , 15-Br) :   1.0130
B( 14-C , 71-H ) :   1.0008 B( 16-C , 17-O ) :   2.1969 B( 16-C , 18-C ) :   0.9626
B( 18-C , 19-C ) :   1.4604 B( 19-C , 20-C ) :   1.2122 B( 19-C , 72-H ) :   0.9606
B( 20-C , 21-C ) :   1.4471 B( 20-C , 73-H ) :   0.9965 B( 21-C , 22-C ) :   1.2175
B( 21-C , 74-H ) :   0.9773 B( 22-C , 23-O ) :   1.1099 B( 22-C , 24-C ) :   0.1047
B( 22-C , 26-C ) :   1.3127 B( 23-O , 24-C ) :   1.1302 B( 24-C , 25-C ) :   1.2975
B( 24-C , 29-C ) :   1.1945 B( 25-C , 26-C ) :   1.2701 B( 25-C , 28-O ) :   1.2246
B( 26-C , 27-O ) :   1.2967 B( 27-O , 75-H ) :   0.9484 B( 28-O , 76-H ) :   0.9536
B( 29-C , 30-C ) :   1.5808 B( 29-C , 77-H ) :   0.9483 B( 30-C , 31-C ) :   1.2085
B( 30-C , 78-H ) :   0.9654 B( 31-C , 32-C ) :   1.5992 B( 31-C , 79-H ) :   0.9709
B( 32-C , 33-C ) :   1.2241 B( 32-C , 80-H ) :   0.9382 B( 33-C , 34-S ) :   1.1336
B( 33-C , 37-C ) :   1.2863 B( 34-S , 35-C ) :   1.1510 B( 35-C , 36-C ) :   1.2688
B( 35-C , 44-C ) :   1.2193 B( 36-C , 37-C ) :   1.2421 B( 36-C , 43-C ) :   1.1876
B( 37-C , 38-C ) :   1.1872 B( 38-C , 39-C ) :   1.4764 B( 38-C , 43-C ) :   0.1068
B( 38-C , 81-H ) :   0.9949 B( 39-C , 40-F ) :   1.1315 B( 39-C , 41-C ) :   1.1809
B( 41-C , 42-F ) :   1.0977 B( 41-C , 43-C ) :   1.4895 B( 43-C , 82-H ) :   0.9877
B( 44-C , 45-C ) :   1.5433 B( 44-C , 83-H ) :   0.9583 B( 45-C , 46-C ) :   1.2266
B( 45-C , 84-H ) :   0.9601 B( 46-C , 47-C ) :   1.4852 B( 46-C , 85-H ) :   0.9888
B( 47-C , 48-C ) :   1.1830 B( 47-C , 51-S ) :   1.0474 B( 48-C , 49-C ) :   1.5431
B( 48-C , 86-H ) :   0.9983 B( 49-C , 50-C ) :   1.2224 B( 49-C , 87-H ) :   0.9959
B( 50-C , 51-S ) :   1.0610 B( 50-C , 52-C ) :   1.4510 B( 52-C , 53-C ) :   1.2067
B( 52-C , 56-S ) :   1.0506 B( 53-C , 54-C ) :   1.5732 B( 53-C , 88-H ) :   0.9944
B( 54-C , 55-C ) :   1.1539 B( 54-C , 89-H ) :   0.9989 B( 55-C , 56-S ) :   1.0525
B( 55-C , 57-C ) :   1.5798 B( 57-C , 58-C ) :   1.1612 B( 57-C , 90-H ) :   0.9469
B( 58-C , 59-S ) :   1.1310 B( 58-C , 60-C ) :   0.1063 B( 58-C , 62-C ) :   1.4142
B( 59-S , 60-C ) :   1.1843 B( 60-C , 61-C ) :   1.4292 B( 60-C , 91-H ) :   0.9750
B( 61-C , 62-C ) :   1.2367 B( 61-C , 68-C ) :   1.0686 B( 62-C , 63-O ) :   1.0864
B( 63-O , 64-C ) :   1.1169 B( 64-C , 65-N ) :   0.9150 B( 64-C , 68-C ) :   1.5762
B( 65-N , 66-O ) :   1.5171 B( 65-N , 67-O ) :   1.4974 B( 66-O , 67-O ) :   0.2727
B( 68-C , 92-H ) :   1.0256

-----------------------------------------------------------------------------
         ABSORPTION SPECTRUM VIA TRANSITION ELECTRIC DIPOLE MOMENTS
-----------------------------------------------------------------------------
State   Energy  Wavelength   fosc         T2         TX        TY        TZ
        (cm-1)    (nm)                  (au**2)     (au)      (au)      (au)
-----------------------------------------------------------------------------
   0    8228.6   1215.3   1.258075445  50.33344   0.42646  -7.07512  -0.30701
   1   11775.3    849.2   0.342055092   9.56311  -0.42996   2.91089   0.95130
   2   14912.6    670.6   0.055794134   1.23171   0.07132   1.10225   0.10808
   3   15480.9    646.0   0.317069897   6.74271  -0.15449   2.45831   0.82192
   4   19219.6    520.3   0.165797764   2.83994  -0.74553   0.30301   1.48065
   5   20487.7    488.1   0.613230822   9.85386   1.43075   1.48473  -2.36694
   6   21440.0    466.4   0.533958620   8.19895  -1.66497  -0.83404   2.17513
   7   22886.6    436.9   0.151056634   2.17287  -0.79486  -0.74826   0.99054
   8   23266.8    429.8   0.187825665   2.65763  -0.65195  -0.39911   1.43990
   9   24583.5    406.8   0.025905048   0.34691  -0.30137  -0.28267   0.41974
  10   26266.2    380.7   0.071743388   0.89921  -0.27364   0.60553   0.67651
  11   26500.0    377.4   0.099203347   1.23241  -0.67988   0.10837  -0.87088
  12   27215.6    367.4   0.188434671   2.27939   0.98851  -0.26665  -1.10957
  13   27664.6    361.5   0.084308296   1.00328  -0.75356  -0.63750  -0.17036
  14   28167.3    355.0   0.083257832   0.97310  -0.53124   0.38439   0.73697
  15   28213.1    354.4   0.000064279   0.00075   0.02445   0.01055  -0.00639
  16   28948.9    345.4   0.095410649   1.08503  -0.98345  -0.11556   0.32325
  17   29152.2    343.0   0.145325047   1.64113   1.00432   0.40710  -0.68320
  18   29776.7    335.8   0.106363996   1.17596   0.62076  -0.87244   0.17166
  19   30156.0    331.6   0.012833821   0.14011  -0.08088   0.34074  -0.13214
  20   30628.0    326.5   0.071237182   0.76571   0.21968  -0.42123  -0.73486
  21   30905.0    323.6   0.163714565   1.74395  -0.65376  -0.35721   1.09039
  22   31571.5    316.7   0.008814739   0.09192  -0.19286   0.22853  -0.04994
  23   31808.0    314.4   0.000338164   0.00350  -0.05483   0.01976   0.01018
  24   31924.4    313.2   0.095809937   0.98801   0.13181  -0.97336  -0.15232
  25   32399.4    308.6   0.001711077   0.01739  -0.03132   0.11913   0.04704
  26   32658.4    306.2   0.112305477   1.13209   0.90547   0.49658  -0.25616
  27   32940.9    303.6   0.511623474   5.11317   1.64532  -0.80522  -1.32579
  28   33517.5    298.4   0.013077682   0.12845  -0.16177  -0.22598   0.22630
  29   33582.9    297.8   0.107770537   1.05647   0.78109  -0.54010  -0.39326
  30   33855.6    295.4   0.094682412   0.92069   0.72427  -0.44879  -0.44125
  31   34045.3    293.7   0.038685002   0.37408   0.53703  -0.07507  -0.28291
  32   34424.8    290.5   0.033467449   0.32006  -0.11828   0.55256  -0.02735
  33   34603.4    289.0   0.029487032   0.28054  -0.04553  -0.50102  -0.16564
  34   34670.4    288.4   0.086617655   0.82248   0.60328  -0.26071  -0.62494
  35   35192.9    284.1   0.059173462   0.55354  -0.37864   0.62764   0.12745
  36   35547.6    281.3   0.087796681   0.81310   0.07780  -0.82944   0.34508
  37   35974.7    278.0   0.028866791   0.26417  -0.20678  -0.20262   0.42468
  38   36102.4    277.0   0.077470492   0.70644  -0.06562  -0.71383   0.43885
  39   36567.9    273.5   0.032779539   0.29511   0.39614   0.02635  -0.37079
  40   36810.3    271.7   0.003706958   0.03315   0.15274   0.05962  -0.07918
  41   37012.4    270.2   0.120927211   1.07560   0.17248  -0.97328   0.31396
  42   37384.3    267.5   0.080329106   0.70739  -0.43080   0.56118   0.45484
  43   37511.5    266.6   0.102454485   0.89917   0.10341  -0.79374   0.50839
  44   37761.4    264.8   0.221738253   1.93316   0.00039   1.24802  -0.61288
  45   37903.8    263.8   0.036307453   0.31535  -0.06684  -0.41827   0.36869
  46   38047.8    262.8   0.022957477   0.19864  -0.02579   0.43144  -0.10879
  47   38223.9    261.6   0.108681397   0.93604  -0.26477   0.93050  -0.01055
  48   38384.5    260.5   0.043767053   0.37538  -0.20838   0.57593   0.01602
  49   39066.4    256.0   0.010297937   0.08678   0.11398  -0.21487  -0.16619
  50   39100.6    255.8   0.000168100   0.00142   0.01746   0.01051  -0.03162
  51   39446.3    253.5   0.020269257   0.16916   0.19161  -0.35860  -0.06212
  52   39660.2    252.1   0.035534342   0.29496   0.27494   0.46053  -0.08533
  53   39693.1    251.9   0.032190718   0.26699  -0.07184   0.51129   0.02018
  54   39812.0    251.2   0.008586382   0.07100   0.02260  -0.13281  -0.22990
  55   40107.0    249.3   0.093681604   0.76897   0.01953  -0.87180  -0.09248

FINAL SINGLE POINT ENERGY     -7408.912987759486

DIPOLE MOMENT
-------------
                                X             Y             Z
Electronic contribution:    -68.16819    -133.17295      31.84920
Nuclear contribution   :     67.82990     140.46712     -31.12873
                        -----------------------------------------
Total Dipole Moment    :     -0.33829       7.29417       0.72048
                        -----------------------------------------
Magnitude (a.u.)       :      7.33747
Magnitude (Debye)      :     18.65037

Rotational constants in cm-1:     0.001271     0.000185     0.000165
Rotational constants in MHz :    38.117446     5.540071     4.949571

                             ****ORCA TERMINATED NORMALLY****
TOTAL RUN TIME: 0 days 0 hours 11 minutes 45 seconds 962 msec
