                         Program Version 4.2.0 -  RELEASE  -
|  1> # ORCA input file
|  2> # SCF done       -176.975953364397          0.000540180675
|  3> ! CAM-B3LYP def2-SVP def2/J RIJCOSX Grid4 TightSCF
|  4> %maxcore 5000
|  5> %tddft
|  6>     Mode sTDDFT
|  7>     Ethresh 5.0
|  8>     maxcore 5000
|  9> end
| 10>
| 11> %pal
| 12>   nprocs 6
| 13>   end
| 14> * xyz 0 1
| 15>    C      -10.22646         7.88098        -4.33943
| 16>    C      -10.73736         9.03486        -3.80841
| 17>    C      -11.53943         9.94782        -4.52617
| 18>    N      -12.20027        10.71916        -5.06016
| 19>    C      -10.49874         9.49330        -2.49435
| 20>    N      -10.32494         9.94489        -1.45351
| 21>    C      -10.36133         7.43548        -5.71849
| 22>    C       -9.57476         6.26879        -5.90465
| 23>    C       -9.48642         5.62092        -7.11422
| 24>    C      -10.20522         6.14714        -8.19089
| 25>    C      -10.99292         7.30879        -7.99470
| 26>    C      -11.08407         7.96335        -6.77250
| 27>    S      -11.79656         7.77731        -9.45856
| 28>    C      -11.08525         6.44686       -10.30381
| 29>    C      -10.28279         5.68042        -9.53295
| 30>    C       -8.92162         5.90482        -4.63839
| 31>    O       -8.21297         4.94520        -4.42877
| 32>    C       -9.37528         6.92403        -3.64923
| 33>    C       -9.15176         6.84409        -2.31320
| 34>    C       -8.24398         5.96777        -1.65755
| 35>    C       -6.92416         5.48782        -2.10450
| 36>    N       -6.29833         4.76566        -1.22354
| 37>    C       -7.12272         4.69383        -0.14084
| 38>    C       -8.36408         5.44103        -0.39286
| 39>    C       -9.21476         5.42005         0.76939
| 40>    S      -10.66724         6.17964         0.91099
| 41>    C       -8.45889         4.67391         1.74630
| 42>    C       -7.17268         4.24220         1.15053
| 43>    N       -6.40755         3.59889         2.07401
| 44>    C       -7.08204         3.64616         3.18390
| 45>    C       -8.38302         4.32018         3.07546
| 46>    C       -9.31000         4.50713         4.15320
| 47>    C      -10.67354         4.64347         3.93421
| 48>    C      -11.58645         4.81657         4.97111
| 49>    C      -11.20070         4.89721         6.30191
| 50>    C       -9.80639         4.78261         6.57820
| 51>    C       -8.86417         4.56451         5.50632
| 52>    N       -7.60339         4.46377         5.90564
| 53>   Se       -7.52550         4.61796         7.64444
| 54>    N       -9.25402         4.82878         7.78297
| 55>    C      -12.15205         5.08741         7.35716
| 56>    C      -11.85971         5.71190         8.65716
| 57>    N      -12.87690         5.77946         9.46114
| 58>    C      -13.91118         5.19593         8.79483
| 59>    C      -13.49378         4.78788         7.43245
| 60>    C      -14.57958         4.09377         6.78432
| 61>    S      -14.63102         3.37805         5.30642
| 62>    C      -15.63840         4.09548         7.76472
| 63>    C      -15.20015         4.78611         8.98983
| 64>    N      -16.17700         4.73863         9.93987
| 65>    C      -17.13014         4.02268         9.42677
| 66>    C      -16.86504         3.55324         8.05716
| 67>    C      -17.74219         2.76487         7.25888
| 68>    C      -18.59010         1.81090         7.71134
| 69>    C      -18.69909         1.18037         9.01451
| 70>    C      -17.66591         0.96372         9.88771
| 71>    C      -17.81160         0.28981        11.11845
| 72>    N      -17.89312        -0.24151        12.13204
| 73>    C      -16.32202         1.28723         9.60316
| 74>    N      -15.20907         1.46362         9.38469
| 75>    C      -20.03833         0.61703         9.10753
| 76>    C      -20.64953         0.67999         7.82631
| 77>    C      -19.73793         1.34240         6.87646
| 78>    O      -19.89152         1.52687         5.69338
| 79>    C      -21.90985         0.18486         7.58938
| 80>    C      -22.60027        -0.38726         8.66196
| 81>    C      -21.98594        -0.43292         9.93828
| 82>    C      -20.70901         0.05967        10.17922
| 83>    S      -23.02712        -1.17334        11.11094
| 84>    C      -24.24798        -1.41500         9.91044
| 85>    C      -23.90115        -0.96383         8.68501
| 86>    H       -8.87814         4.73649        -7.22381
| 87>    H      -11.70067         8.84093        -6.67195
| 88>    H      -11.31613         6.31830       -11.34347
| 89>    H       -9.75743         4.81216        -9.88721
| 90>    H       -9.73299         7.46762        -1.64179
| 91>    H       -6.46234         5.72009        -3.04548
| 92>    H       -6.70216         3.19662         4.08296
| 93>    H      -11.04540         4.59684         2.92288
| 94>    H      -12.63286         4.90758         4.72636
| 95>    H      -10.90245         6.11093         8.93896
| 96>    H      -18.04708         3.86012         9.96734
| 97>    H      -17.77510         2.98264         6.19623
| 98>    H      -22.34837         0.23707         6.60499
| 99>    H      -20.28152         0.01004        11.16727
|100>    H      -25.16579        -1.88800        10.20129
|101>    H      -24.53306        -1.02908         7.81797
|102> *
|103>
|104>                          ****END OF INPUT****

CARTESIAN COORDINATES (ANGSTROEM)
---------------------------------
  C    -10.226460    7.880980   -4.339430
  C    -10.737360    9.034860   -3.808410
  C    -11.539430    9.947820   -4.526170
  N    -12.200270   10.719160   -5.060160
  C    -10.498740    9.493300   -2.494350
  N    -10.324940    9.944890   -1.453510
  C    -10.361330    7.435480   -5.718490
  C     -9.574760    6.268790   -5.904650
  C     -9.486420    5.620920   -7.114220
  C    -10.205220    6.147140   -8.190890
  C    -10.992920    7.308790   -7.994700
  C    -11.084070    7.963350   -6.772500
  S    -11.796560    7.777310   -9.458560
  C    -11.085250    6.446860  -10.303810
  C    -10.282790    5.680420   -9.532950
  C     -8.921620    5.904820   -4.638390
  O     -8.212970    4.945200   -4.428770
  C     -9.375280    6.924030   -3.649230
  C     -9.151760    6.844090   -2.313200
  C     -8.243980    5.967770   -1.657550
  C     -6.924160    5.487820   -2.104500
  N     -6.298330    4.765660   -1.223540
  C     -7.122720    4.693830   -0.140840
  C     -8.364080    5.441030   -0.392860
  C     -9.214760    5.420050    0.769390
  S    -10.667240    6.179640    0.910990
  C     -8.458890    4.673910    1.746300
  C     -7.172680    4.242200    1.150530
  N     -6.407550    3.598890    2.074010
  C     -7.082040    3.646160    3.183900
  C     -8.383020    4.320180    3.075460
  C     -9.310000    4.507130    4.153200
  C    -10.673540    4.643470    3.934210
  C    -11.586450    4.816570    4.971110
  C    -11.200700    4.897210    6.301910
  C     -9.806390    4.782610    6.578200
  C     -8.864170    4.564510    5.506320
  N     -7.603390    4.463770    5.905640
  Se    -7.525500    4.617960    7.644440
  N     -9.254020    4.828780    7.782970
  C    -12.152050    5.087410    7.357160
  C    -11.859710    5.711900    8.657160
  N    -12.876900    5.779460    9.461140
  C    -13.911180    5.195930    8.794830
  C    -13.493780    4.787880    7.432450
  C    -14.579580    4.093770    6.784320
  S    -14.631020    3.378050    5.306420
  C    -15.638400    4.095480    7.764720
  C    -15.200150    4.786110    8.989830
  N    -16.177000    4.738630    9.939870
  C    -17.130140    4.022680    9.426770
  C    -16.865040    3.553240    8.057160
  C    -17.742190    2.764870    7.258880
  C    -18.590100    1.810900    7.711340
  C    -18.699090    1.180370    9.014510
  C    -17.665910    0.963720    9.887710
  C    -17.811600    0.289810   11.118450
  N    -17.893120   -0.241510   12.132040
  C    -16.322020    1.287230    9.603160
  N    -15.209070    1.463620    9.384690
  C    -20.038330    0.617030    9.107530
  C    -20.649530    0.679990    7.826310
  C    -19.737930    1.342400    6.876460
  O    -19.891520    1.526870    5.693380
  C    -21.909850    0.184860    7.589380
  C    -22.600270   -0.387260    8.661960
  C    -21.985940   -0.432920    9.938280
  C    -20.709010    0.059670   10.179220
  S    -23.027120   -1.173340   11.110940
  C    -24.247980   -1.415000    9.910440
  C    -23.901150   -0.963830    8.685010
  H     -8.878140    4.736490   -7.223810
  H    -11.700670    8.840930   -6.671950
  H    -11.316130    6.318300  -11.343470
  H     -9.757430    4.812160   -9.887210
  H     -9.732990    7.467620   -1.641790
  H     -6.462340    5.720090   -3.045480
  H     -6.702160    3.196620    4.082960
  H    -11.045400    4.596840    2.922880
  H    -12.632860    4.907580    4.726360
  H    -10.902450    6.110930    8.938960
  H    -18.047080    3.860120    9.967340
  H    -17.775100    2.982640    6.196230
  H    -22.348370    0.237070    6.604990
  H    -20.281520    0.010040   11.167270
  H    -25.165790   -1.888000   10.201290
  H    -24.533060   -1.029080    7.817970

 Total Charge           Charge          ....    0
 Multiplicity           Mult            ....    1
 Number of Electrons    NEL             ....  524
 Basis Dimension        Dim             .... 1108

ORBITAL ENERGIES
----------------

  NO   OCC          E(Eh)            E(eV)
   0   2.0000    -453.989358    -12353.6785
   1   2.0000     -88.972042     -2421.0523
   2   2.0000     -88.971939     -2421.0495
   3   2.0000     -88.911360     -2419.4011
   4   2.0000     -88.908446     -2419.3218
   5   2.0000     -58.203263     -1583.7913
   6   2.0000     -52.273952     -1422.4466
   7   2.0000     -52.271626     -1422.3833
   8   2.0000     -52.271098     -1422.3689
   9   2.0000     -19.226966      -523.1924
  10   2.0000     -19.221626      -523.0470
  11   2.0000     -14.446300      -393.1038
  12   2.0000     -14.446125      -393.0990
  13   2.0000     -14.422599      -392.4589
  14   2.0000     -14.420518      -392.4022
  15   2.0000     -14.420191      -392.3933
  16   2.0000     -14.419508      -392.3748
  17   2.0000     -14.418731      -392.3536
  18   2.0000     -14.417004      -392.3066
  19   2.0000     -14.416003      -392.2794
  20   2.0000     -14.414509      -392.2387
  21   2.0000     -10.376687      -282.3640
  22   2.0000     -10.372421      -282.2479
  23   2.0000     -10.352972      -281.7187
  24   2.0000     -10.352097      -281.6949
  25   2.0000     -10.349585      -281.6265
  26   2.0000     -10.349509      -281.6245
  27   2.0000     -10.349411      -281.6218
  28   2.0000     -10.346473      -281.5418
  29   2.0000     -10.339002      -281.3385
  30   2.0000     -10.337501      -281.2977
  31   2.0000     -10.337320      -281.2928
  32   2.0000     -10.336529      -281.2713
  33   2.0000     -10.336151      -281.2610
  34   2.0000     -10.335875      -281.2534
  35   2.0000     -10.335057      -281.2312
  36   2.0000     -10.334581      -281.2183
  37   2.0000     -10.334331      -281.2114
  38   2.0000     -10.333055      -281.1767
  39   2.0000     -10.326834      -281.0074
  40   2.0000     -10.326822      -281.0071
  41   2.0000     -10.324356      -280.9400
  42   2.0000     -10.323739      -280.9232
  43   2.0000     -10.322926      -280.9011
  44   2.0000     -10.322618      -280.8927
  45   2.0000     -10.322069      -280.8778
  46   2.0000     -10.320566      -280.8369
  47   2.0000     -10.319345      -280.8037
  48   2.0000     -10.319183      -280.7993
  49   2.0000     -10.314096      -280.6608
  50   2.0000     -10.313696      -280.6499
  51   2.0000     -10.313181      -280.6359
  52   2.0000     -10.313071      -280.6329
  53   2.0000     -10.312094      -280.6063
  54   2.0000     -10.311611      -280.5932
  55   2.0000     -10.310000      -280.5494
  56   2.0000     -10.309770      -280.5431
  57   2.0000     -10.309467      -280.5349
  58   2.0000     -10.309464      -280.5348
  59   2.0000     -10.309207      -280.5278
  60   2.0000     -10.308965      -280.5212
  61   2.0000     -10.307916      -280.4926
  62   2.0000     -10.307837      -280.4905
  63   2.0000     -10.307745      -280.4880
  64   2.0000     -10.307197      -280.4731
  65   2.0000     -10.305648      -280.4309
  66   2.0000     -10.305255      -280.4202
  67   2.0000     -10.304827      -280.4086
  68   2.0000     -10.303405      -280.3699
  69   2.0000     -10.297722      -280.2153
  70   2.0000     -10.297494      -280.2091
  71   2.0000     -10.294318      -280.1226
  72   2.0000     -10.294067      -280.1158
  73   2.0000     -10.293916      -280.1117
  74   2.0000     -10.293788      -280.1082
  75   2.0000      -8.068305      -219.5497
  76   2.0000      -8.068259      -219.5485
  77   2.0000      -8.006897      -217.8787
  78   2.0000      -8.004189      -217.8051
  79   2.0000      -7.979098      -217.1223
  80   2.0000      -6.037817      -164.2974
  81   2.0000      -6.037774      -164.2962
  82   2.0000      -6.033495      -164.1797
  83   2.0000      -6.033439      -164.1782
  84   2.0000      -6.029991      -164.0844
  85   2.0000      -6.029922      -164.0825
  86   2.0000      -5.975774      -162.6091
  87   2.0000      -5.975390      -162.5986
  88   2.0000      -5.972996      -162.5335
  89   2.0000      -5.972767      -162.5273
  90   2.0000      -5.966117      -162.3463
  91   2.0000      -5.963362      -162.2713
  92   2.0000      -5.929327      -161.3452
  93   2.0000      -5.922659      -161.1637
  94   2.0000      -5.918809      -161.0590
  95   2.0000      -2.283436       -62.1354
  96   2.0000      -2.282823       -62.1188
  97   2.0000      -2.278260       -61.9946
  98   2.0000      -2.273097       -61.8541
  99   2.0000      -2.272927       -61.8495
 100   2.0000      -1.142375       -31.0856
 101   2.0000      -1.137003       -30.9394
 102   2.0000      -1.101941       -29.9853
 103   2.0000      -1.088272       -29.6134
 104   2.0000      -1.087731       -29.5987
 105   2.0000      -1.068753       -29.0822
 106   2.0000      -1.067585       -29.0505
 107   2.0000      -1.026909       -27.9436
 108   2.0000      -1.025454       -27.9040
 109   2.0000      -1.013841       -27.5880
 110   2.0000      -1.013256       -27.5721
 111   2.0000      -0.999873       -27.2079
 112   2.0000      -0.997942       -27.1554
 113   2.0000      -0.991770       -26.9874
 114   2.0000      -0.990823       -26.9617
 115   2.0000      -0.981406       -26.7054
 116   2.0000      -0.973023       -26.4773
 117   2.0000      -0.969940       -26.3934
 118   2.0000      -0.966579       -26.3019
 119   2.0000      -0.940155       -25.5829
 120   2.0000      -0.939150       -25.5556
 121   2.0000      -0.918438       -24.9920
 122   2.0000      -0.917982       -24.9796
 123   2.0000      -0.908673       -24.7263
 124   2.0000      -0.891702       -24.2644
 125   2.0000      -0.891536       -24.2599
 126   2.0000      -0.887501       -24.1501
 127   2.0000      -0.886897       -24.1337
 128   2.0000      -0.877733       -23.8843
 129   2.0000      -0.862579       -23.4720
 130   2.0000      -0.860009       -23.4020
 131   2.0000      -0.857249       -23.3269
 132   2.0000      -0.842667       -22.9301
 133   2.0000      -0.840533       -22.8721
 134   2.0000      -0.828996       -22.5581
 135   2.0000      -0.828924       -22.5562
 136   2.0000      -0.822987       -22.3946
 137   2.0000      -0.792830       -21.5740
 138   2.0000      -0.790532       -21.5115
 139   2.0000      -0.779627       -21.2147
 140   2.0000      -0.772247       -21.0139
 141   2.0000      -0.763506       -20.7761
 142   2.0000      -0.761912       -20.7327
 143   2.0000      -0.751511       -20.4496
 144   2.0000      -0.742914       -20.2157
 145   2.0000      -0.741807       -20.1856
 146   2.0000      -0.717993       -19.5376
 147   2.0000      -0.714464       -19.4416
 148   2.0000      -0.713380       -19.4121
 149   2.0000      -0.711886       -19.3714
 150   2.0000      -0.699426       -19.0323
 151   2.0000      -0.696427       -18.9507
 152   2.0000      -0.694097       -18.8873
 153   2.0000      -0.692242       -18.8369
 154   2.0000      -0.685270       -18.6471
 155   2.0000      -0.684742       -18.6328
 156   2.0000      -0.668569       -18.1927
 157   2.0000      -0.667126       -18.1534
 158   2.0000      -0.653805       -17.7909
 159   2.0000      -0.653094       -17.7716
 160   2.0000      -0.639889       -17.4123
 161   2.0000      -0.636895       -17.3308
 162   2.0000      -0.630818       -17.1654
 163   2.0000      -0.626223       -17.0404
 164   2.0000      -0.625730       -17.0270
 165   2.0000      -0.619618       -16.8607
 166   2.0000      -0.609025       -16.5724
 167   2.0000      -0.604793       -16.4572
 168   2.0000      -0.598607       -16.2889
 169   2.0000      -0.593212       -16.1421
 170   2.0000      -0.586595       -15.9621
 171   2.0000      -0.583119       -15.8675
 172   2.0000      -0.577975       -15.7275
 173   2.0000      -0.573205       -15.5977
 174   2.0000      -0.571145       -15.5416
 175   2.0000      -0.569605       -15.4997
 176   2.0000      -0.562126       -15.2962
 177   2.0000      -0.558170       -15.1886
 178   2.0000      -0.554284       -15.0828
 179   2.0000      -0.553239       -15.0544
 180   2.0000      -0.551160       -14.9978
 181   2.0000      -0.546188       -14.8625
 182   2.0000      -0.545091       -14.8327
 183   2.0000      -0.542858       -14.7719
 184   2.0000      -0.540914       -14.7190
 185   2.0000      -0.539957       -14.6930
 186   2.0000      -0.536683       -14.6039
 187   2.0000      -0.534373       -14.5410
 188   2.0000      -0.530585       -14.4380
 189   2.0000      -0.528879       -14.3915
 190   2.0000      -0.520075       -14.1520
 191   2.0000      -0.518642       -14.1130
 192   2.0000      -0.516696       -14.0600
 193   2.0000      -0.512936       -13.9577
 194   2.0000      -0.507545       -13.8110
 195   2.0000      -0.506295       -13.7770
 196   2.0000      -0.502145       -13.6640
 197   2.0000      -0.499577       -13.5942
 198   2.0000      -0.498040       -13.5524
 199   2.0000      -0.497587       -13.5400
 200   2.0000      -0.496087       -13.4992
 201   2.0000      -0.495432       -13.4814
 202   2.0000      -0.494171       -13.4471
 203   2.0000      -0.491976       -13.3873
 204   2.0000      -0.488315       -13.2877
 205   2.0000      -0.487317       -13.2606
 206   2.0000      -0.485235       -13.2039
 207   2.0000      -0.481141       -13.0925
 208   2.0000      -0.475588       -12.9414
 209   2.0000      -0.474461       -12.9107
 210   2.0000      -0.472066       -12.8456
 211   2.0000      -0.461192       -12.5497
 212   2.0000      -0.459178       -12.4949
 213   2.0000      -0.458454       -12.4752
 214   2.0000      -0.454546       -12.3688
 215   2.0000      -0.452137       -12.3033
 216   2.0000      -0.449129       -12.2214
 217   2.0000      -0.448170       -12.1953
 218   2.0000      -0.446861       -12.1597
 219   2.0000      -0.446042       -12.1374
 220   2.0000      -0.444926       -12.1070
 221   2.0000      -0.440475       -11.9859
 222   2.0000      -0.439683       -11.9644
 223   2.0000      -0.439030       -11.9466
 224   2.0000      -0.437764       -11.9122
 225   2.0000      -0.434661       -11.8277
 226   2.0000      -0.433596       -11.7987
 227   2.0000      -0.431020       -11.7286
 228   2.0000      -0.429734       -11.6937
 229   2.0000      -0.427404       -11.6303
 230   2.0000      -0.426384       -11.6025
 231   2.0000      -0.424503       -11.5513
 232   2.0000      -0.420456       -11.4412
 233   2.0000      -0.416065       -11.3217
 234   2.0000      -0.410886       -11.1808
 235   2.0000      -0.408038       -11.1033
 236   2.0000      -0.398763       -10.8509
 237   2.0000      -0.385754       -10.4969
 238   2.0000      -0.384358       -10.4589
 239   2.0000      -0.372947       -10.1484
 240   2.0000      -0.369253       -10.0479
 241   2.0000      -0.367952       -10.0125
 242   2.0000      -0.366969        -9.9857
 243   2.0000      -0.357990        -9.7414
 244   2.0000      -0.356914        -9.7121
 245   2.0000      -0.356074        -9.6893
 246   2.0000      -0.353283        -9.6133
 247   2.0000      -0.347045        -9.4436
 248   2.0000      -0.340765        -9.2727
 249   2.0000      -0.337426        -9.1818
 250   2.0000      -0.335253        -9.1227
 251   2.0000      -0.322234        -8.7684
 252   2.0000      -0.320928        -8.7329
 253   2.0000      -0.318891        -8.6775
 254   2.0000      -0.318005        -8.6533
 255   2.0000      -0.308504        -8.3948
 256   2.0000      -0.306483        -8.3398
 257   2.0000      -0.299683        -8.1548
 258   2.0000      -0.297372        -8.0919
 259   2.0000      -0.296655        -8.0724
 260   2.0000      -0.293091        -7.9754
 261   2.0000      -0.275777        -7.5043
 262   0.0000      -0.123519        -3.3611
 263   0.0000      -0.116995        -3.1836
 264   0.0000      -0.106614        -2.9011
 265   0.0000      -0.092263        -2.5106
 266   0.0000      -0.078225        -2.1286

MULLIKEN ATOMIC CHARGES
-----------------------
   0 C :    0.304370
   1 C :   -0.330853
   2 C :   -0.186115
   3 N :    0.154889
   4 C :   -0.197932
   5 N :    0.169463
   6 C :    0.021672
   7 C :   -0.025686
   8 C :   -0.061862
   9 C :    0.114315
  10 C :   -0.092767
  11 C :   -0.022915
  12 S :    0.146104
  13 C :   -0.047246
  14 C :    0.025739
  15 C :    0.143213
  16 O :   -0.146353
  17 C :   -0.081529
  18 C :   -0.047091
  19 C :   -0.011684
  20 C :    0.110259
  21 N :   -0.029316
  22 C :    0.031946
  23 C :    0.009893
  24 C :   -0.006869
  25 S :   -0.097739
  26 C :   -0.010597
  27 C :   -0.010214
  28 N :   -0.021313
  29 C :    0.085030
  30 C :   -0.033319
  31 C :    0.079287
  32 C :   -0.008445
  33 C :   -0.008432
  34 C :    0.081918
  35 C :    0.005812
  36 C :    0.005900
  37 N :   -0.291309
  38 Se:    0.547108
  39 N :   -0.289721
  40 C :   -0.034202
  41 C :    0.087547
  42 N :   -0.021149
  43 C :   -0.001697
  44 C :   -0.008211
  45 C :    0.003254
  46 S :   -0.109107
  47 C :    0.056022
  48 C :    0.031893
  49 N :   -0.007630
  50 C :    0.062956
  51 C :   -0.082146
  52 C :    0.041452
  53 C :   -0.125509
  54 C :    0.259214
  55 C :   -0.337566
  56 C :   -0.179830
  57 N :    0.162474
  58 C :   -0.179590
  59 N :    0.170034
  60 C :    0.013502
  61 C :   -0.005287
  62 C :    0.139202
  63 O :   -0.129606
  64 C :   -0.068479
  65 C :    0.113375
  66 C :   -0.090898
  67 C :   -0.027044
  68 S :    0.145470
  69 C :   -0.048194
  70 C :    0.025262
  71 H :   -0.008756
  72 H :   -0.004753
  73 H :    0.041692
  74 H :   -0.004318
  75 H :    0.041089
  76 H :    0.014336
  77 H :    0.017379
  78 H :   -0.014514
  79 H :   -0.013155
  80 H :    0.017715
  81 H :    0.018407
  82 H :    0.034666
  83 H :   -0.008112
  84 H :   -0.002267
  85 H :    0.041214
  86 H :   -0.003739
Sum of atomic charges:   -0.0000000

LOEWDIN ATOMIC CHARGES
----------------------
   0 C :    0.072353
   1 C :   -0.127937
   2 C :   -0.017419
   3 N :   -0.046606
   4 C :   -0.024199
   5 N :   -0.038903
   6 C :   -0.021378
   7 C :   -0.055869
   8 C :    0.026794
   9 C :   -0.033633
  10 C :   -0.143358
  11 C :   -0.007407
  12 S :    0.434389
  13 C :   -0.146748
  14 C :   -0.056643
  15 C :    0.085833
  16 O :   -0.131815
  17 C :   -0.077847
  18 C :    0.072103
  19 C :   -0.050016
  20 C :    0.110409
  21 N :   -0.084378
  22 C :    0.036091
  23 C :   -0.002405
  24 C :   -0.141985
  25 S :    0.086139
  26 C :   -0.032923
  27 C :    0.045001
  28 N :   -0.079052
  29 C :    0.102761
  30 C :   -0.022574
  31 C :   -0.030047
  32 C :    0.017216
  33 C :    0.017949
  34 C :   -0.029488
  35 C :   -0.032588
  36 C :   -0.032989
  37 N :   -0.250799
  38 Se:    0.584207
  39 N :   -0.249394
  40 C :   -0.020376
  41 C :    0.106047
  42 N :   -0.078360
  43 C :    0.054743
  44 C :   -0.029253
  45 C :   -0.138287
  46 S :    0.081584
  47 C :    0.001432
  48 C :    0.035415
  49 N :   -0.069384
  50 C :    0.083753
  51 C :   -0.059926
  52 C :    0.073221
  53 C :   -0.073073
  54 C :    0.065774
  55 C :   -0.130794
  56 C :   -0.019156
  57 N :   -0.042256
  58 C :   -0.019422
  59 N :   -0.041086
  60 C :   -0.021750
  61 C :   -0.056019
  62 C :    0.083717
  63 O :   -0.130523
  64 C :    0.026449
  65 C :   -0.033653
  66 C :   -0.144098
  67 C :   -0.009563
  68 S :    0.433818
  69 C :   -0.147104
  70 C :   -0.056755
  71 H :    0.041811
  72 H :    0.041464
  73 H :    0.030642
  74 H :    0.036373
  75 H :    0.046824
  76 H :    0.026887
  77 H :    0.025566
  78 H :    0.024050
  79 H :    0.023947
  80 H :    0.025587
  81 H :    0.025922
  82 H :    0.052685
  83 H :    0.042064
  84 H :    0.041300
  85 H :    0.030488
  86 H :    0.036430

  Mayer bond orders larger than 0.100000
B(  0-C ,  1-C ) :   1.6618 B(  0-C ,  6-C ) :   1.0134 B(  0-C , 17-C ) :   1.0287
B(  1-C ,  2-C ) :   1.1379 B(  1-C ,  4-C ) :   1.1402 B(  2-C ,  3-N ) :   2.9738
B(  4-C ,  5-N ) :   2.9887 B(  6-C ,  7-C ) :   1.2608 B(  6-C , 11-C ) :   1.4069
B(  7-C ,  8-C ) :   1.4204 B(  7-C , 15-C ) :   0.9517 B(  8-C ,  9-C ) :   1.2490
B(  8-C , 71-H ) :   1.0172 B(  9-C , 10-C ) :   1.2942 B(  9-C , 14-C ) :   1.1726
B( 10-C , 11-C ) :   1.3269 B( 10-C , 12-S ) :   1.1028 B( 11-C , 72-H ) :   0.9834
B( 12-S , 13-C ) :   1.1265 B( 13-C , 14-C ) :   1.6284 B( 13-C , 73-H ) :   0.9682
B( 14-C , 74-H ) :   1.0002 B( 15-C , 16-O ) :   2.2123 B( 15-C , 17-C ) :   0.9332
B( 17-C , 18-C ) :   1.6616 B( 18-C , 19-C ) :   1.0926 B( 18-C , 75-H ) :   0.9354
B( 19-C , 20-C ) :   1.0141 B( 19-C , 23-C ) :   1.5379 B( 20-C , 21-N ) :   1.7154
B( 20-C , 76-H ) :   0.9883 B( 21-N , 22-C ) :   1.2818 B( 22-C , 23-C ) :   1.0603
B( 22-C , 27-C ) :   1.4962 B( 23-C , 24-C ) :   1.0186 B( 24-C , 25-S ) :   1.6908
B( 24-C , 26-C ) :   1.0316 B( 26-C , 27-C ) :   1.0559 B( 26-C , 30-C ) :   1.5510
B( 27-C , 28-N ) :   1.2873 B( 28-N , 29-C ) :   1.7006 B( 29-C , 30-C ) :   1.0440
B( 29-C , 77-H ) :   0.9816 B( 30-C , 31-C ) :   1.0256 B( 31-C , 32-C ) :   1.4687
B( 31-C , 34-C ) :   0.1104 B( 31-C , 36-C ) :   1.1578 B( 32-C , 33-C ) :   1.2028
B( 32-C , 78-H ) :   0.9855 B( 33-C , 34-C ) :   1.4690 B( 33-C , 79-H ) :   0.9837
B( 34-C , 35-C ) :   1.1580 B( 34-C , 40-C ) :   1.0267 B( 35-C , 36-C ) :   1.1182
B( 35-C , 39-N ) :   1.5906 B( 36-C , 37-N ) :   1.5903 B( 37-N , 38-Se) :   1.2346
B( 37-N , 39-N ) :   0.1236 B( 38-Se, 39-N ) :   1.2351 B( 40-C , 41-C ) :   1.0378
B( 40-C , 44-C ) :   1.5559 B( 41-C , 42-N ) :   1.7081 B( 41-C , 80-H ) :   0.9808
B( 42-N , 43-C ) :   1.2820 B( 43-C , 44-C ) :   1.0535 B( 43-C , 48-C ) :   1.5076
B( 44-C , 45-C ) :   1.0342 B( 45-C , 46-S ) :   1.6835 B( 45-C , 47-C ) :   1.0194
B( 47-C , 48-C ) :   1.0653 B( 47-C , 51-C ) :   1.5594 B( 48-C , 49-N ) :   1.2667
B( 49-N , 50-C ) :   1.7393 B( 50-C , 51-C ) :   1.0175 B( 50-C , 81-H ) :   0.9887
B( 51-C , 52-C ) :   1.0262 B( 52-C , 53-C ) :   1.7133 B( 52-C , 82-H ) :   0.9539
B( 53-C , 54-C ) :   1.0209 B( 53-C , 62-C ) :   0.9212 B( 54-C , 55-C ) :   1.6551
B( 54-C , 60-C ) :   1.0236 B( 55-C , 56-C ) :   1.1342 B( 55-C , 58-C ) :   1.1516
B( 56-C , 57-N ) :   2.9896 B( 58-C , 59-N ) :   3.0020 B( 60-C , 61-C ) :   1.2663
B( 60-C , 67-C ) :   1.4100 B( 61-C , 62-C ) :   0.9230 B( 61-C , 64-C ) :   1.4232
B( 62-C , 63-O ) :   2.2875 B( 64-C , 65-C ) :   1.2525 B( 64-C , 83-H ) :   1.0169
B( 65-C , 66-C ) :   1.2984 B( 65-C , 70-C ) :   1.1731 B( 66-C , 67-C ) :   1.3220
B( 66-C , 68-S ) :   1.1003 B( 67-C , 84-H ) :   0.9871 B( 68-S , 69-C ) :   1.1278
B( 69-C , 70-C ) :   1.6287 B( 69-C , 85-H ) :   0.9680 B( 70-C , 86-H ) :   1.0002

-----------------------------------------------------------------------------
         ABSORPTION SPECTRUM VIA TRANSITION ELECTRIC DIPOLE MOMENTS
-----------------------------------------------------------------------------
State   Energy  Wavelength   fosc         T2         TX        TY        TZ
        (cm-1)    (nm)                  (au**2)     (au)      (au)      (au)
-----------------------------------------------------------------------------
   0   15878.9    629.8   0.178040218   3.69124  -1.13755  -0.44301   1.48357
   1   16157.8    618.9   0.009157924   0.18659   0.04763   0.13190  -0.40856
   2   16925.9    590.8   0.247534553   4.81460  -1.24244  -0.51272   1.73438
   3   17279.9    578.7   0.027741535   0.52852  -0.54533  -0.20237   0.43611
   4   17603.6    568.1   0.014044293   0.26265   0.22749  -0.13246   0.43972
   5   17852.8    560.1   0.047895847   0.88322  -0.89118  -0.22013   0.20140
   6   20811.0    480.5   0.561477217   8.88209   1.62284   0.67905  -2.40570
   7   21321.6    469.0   0.030157360   0.46564  -0.65637  -0.18630   0.01058
   8   21558.9    463.8   0.059899960   0.91469   0.79796  -0.27380  -0.45055
   9   23525.6    425.1   0.009615579   0.13456  -0.13807   0.22827  -0.25177
  10   23693.8    422.1   0.159026516   2.20959   0.35093   0.92342  -1.11074
  11   24252.2    412.3   0.069026105   0.93700  -0.82288   0.24411  -0.44753
  12   24629.9    406.0   0.061642536   0.82394  -0.15675   0.83123  -0.32926
  13   24888.5    401.8   0.005511545   0.07290  -0.08661   0.25285  -0.03832
  14   25096.5    398.5   0.114225779   1.49839   0.14174   0.58985  -1.06319
  15   25486.6    392.4   0.235600547   3.04327   0.81929   1.16528  -1.00706
  16   25567.7    391.1   0.356467535   4.58990   0.44235  -0.49779   2.03628
  17   25789.5    387.8   0.023621722   0.30154  -0.54822   0.01354  -0.02851
  18   25861.6    386.7   0.220003252   2.80059   1.49953   0.71301  -0.20885
  19   26213.3    381.5   0.038895407   0.48849   0.55020   0.16052   0.40000
  20   26273.3    380.6   0.038096206   0.47736   0.42769  -0.04487   0.54076
  21   26966.0    370.8   0.143787765   1.75542  -1.25027  -0.42955   0.08794
  22   27062.0    369.5   0.162494871   1.97677   0.82559   0.72974  -0.87330
  23   27616.1    362.1   0.003760769   0.04483   0.12045   0.10760  -0.13692
  24   27826.0    359.4   0.032702650   0.38691   0.09783   0.02751   0.61366
  25   28005.6    357.1   0.078614392   0.92413  -0.60307  -0.38235   0.64362
  26   28222.3    354.3   0.032577343   0.38001  -0.59638  -0.14885   0.04681
  27   28414.2    351.9   0.018026143   0.20885  -0.37164  -0.00193  -0.26596
  28   28959.6    345.3   0.010601114   0.12051   0.06316  -0.25962   0.22164
  29   29283.9    341.5   0.068333020   0.76821  -0.75389  -0.31570  -0.31653
  30   29372.7    340.5   0.065786459   0.73734   0.24262   0.40531  -0.71707
  31   29455.4    339.5   0.008796299   0.09831  -0.13857   0.24081  -0.14533
  32   29800.1    335.6   0.049521032   0.54708   0.66236   0.09308   0.31574
  33   29876.6    334.7   0.021370414   0.23548  -0.04059  -0.22216   0.42951
  34   30030.3    333.0   0.024497549   0.26856   0.00148  -0.29458  -0.42636
  35   30132.1    331.9   0.096958463   1.05933   0.97644   0.32472   0.02121
  36   30396.2    329.0   0.200158058   2.16785   1.43850   0.23753   0.20527
  37   30539.9    327.4   0.179486668   1.93482   0.43965   0.09035   1.31657
  38   31120.3    321.3   0.041967267   0.44396   0.48266  -0.44780  -0.10234
  39   31365.7    318.8   0.095937549   1.00695  -0.40016  -0.29945  -0.87015
  40   31483.8    317.6   0.074428996   0.77827  -0.14245   0.46982  -0.73297
  41   31512.5    317.3   0.175143165   1.82972   0.96732  -0.46597  -0.82273
  42   31660.2    315.9   0.307588912   3.19840   0.80066   0.52961   1.50893
  43   31915.1    313.3   0.129992697   1.34091   0.19677   0.41740   1.06206
  44   31942.3    313.1   0.052533341   0.54143   0.25959  -0.07175   0.68476
  45   32208.5    310.5   0.026030942   0.26607   0.50669   0.08763   0.04068
  46   32268.5    309.9   0.072329573   0.73793   0.59694   0.10915   0.60801
  47   32332.3    309.3   0.019579346   0.19936  -0.15031  -0.41450   0.07041
  48   32545.3    307.3   0.227758314   2.30389  -1.49081  -0.26223  -0.11228
  49   32679.2    306.0   0.033591271   0.33840  -0.03141  -0.09686  -0.57274
  50   32790.7    305.0   0.081121096   0.81444  -0.01069  -0.14155   0.89123
  51   32862.9    304.3   0.071139621   0.71266  -0.80108  -0.21081   0.16277
  52   33129.5    301.8   0.101570654   1.00932   0.74371   0.37224   0.56361
  53   33357.9    299.8   0.238581093   2.35458   0.15928  -0.13117  -1.52053
  54   33402.9    299.4   0.018237613   0.17975   0.23779  -0.00342  -0.35098
  55   33506.7    298.4   0.065872472   0.64721   0.68733   0.29633   0.29493
  56   33604.4    297.6   0.102584611   1.00499  -0.95117   0.27344   0.15967
  57   33758.0    296.2   0.048509320   0.47307  -0.34685  -0.16500  -0.57056
  58   33870.6    295.2   0.036746685   0.35717  -0.54450  -0.06086   0.23871
  59   33950.4    294.5   0.015956162   0.15472   0.07699  -0.36046   0.13735
  60   34014.7    294.0   0.044855585   0.43414  -0.12548  -0.49694   0.41406
  61   34169.0    292.7   0.079797491   0.76883   0.73155   0.17209  -0.45173
  62   34323.0    291.4   0.101434577   0.97292   0.65614   0.44595   0.58611
  63   34329.8    291.3   0.018042811   0.17302   0.20878   0.28705  -0.21689
  64   34496.8    289.9   0.023609499   0.22531  -0.08567  -0.09924  -0.45621
  65   34782.6    287.5   0.118213138   1.11887   0.99197   0.36324   0.05395
  66   34837.1    287.0   0.040403765   0.38182  -0.54378  -0.09783  -0.27668
  67   35162.2    284.4   0.054614642   0.51134  -0.62305   0.12925  -0.32624
  68   35248.6    283.7   0.007882151   0.07362   0.26467  -0.04874  -0.03449
  69   35393.3    282.5   0.006977797   0.06490   0.09367  -0.12358   0.20214
  70   35535.4    281.4   0.041299715   0.38261   0.18903  -0.57576   0.12404
  71   35621.8    280.7   0.128199334   1.18480  -0.72421   0.77754  -0.23612
  72   36078.0    277.2   0.025230465   0.23023   0.06427   0.22845   0.41702
  73   36182.1    276.4   0.008925525   0.08121   0.19195   0.07395   0.19723
  74   36396.4    274.8   0.074769230   0.67630  -0.46862  -0.52430   0.42639
  75   36818.4    271.6   0.061693307   0.55163   0.68367   0.25615   0.13644
  76   36911.7    270.9   0.003966302   0.03538  -0.14760   0.02982  -0.11269
  77   36990.6    270.3   0.070646517   0.62875   0.54047   0.08434   0.57404
  78   37130.5    269.3   0.042546529   0.37723  -0.21357   0.17881  -0.54740
  79   37344.1    267.8   0.118944436   1.04857   0.04511  -0.70573  -0.74059
  80   37443.0    267.1   0.031533195   0.27725  -0.39660   0.34630  -0.00638
  81   37554.8    266.3   0.023239298   0.20372  -0.29197  -0.03129  -0.34277
  82   37704.5    265.2   0.018417061   0.16081   0.25467  -0.24919  -0.18399
  83   37820.2    264.4   0.048701083   0.42393  -0.07916   0.42430   0.48747
  84   37885.8    264.0   0.048869166   0.42465   0.47754  -0.18993   0.40067
  85   37955.1    263.5   0.026043169   0.22589   0.29100  -0.36289  -0.09760
  86   38204.4    261.8   0.001395759   0.01203   0.08764  -0.03930   0.05293
  87   38409.4    260.4   0.021805156   0.18689  -0.36393  -0.18588   0.14108
  88   38561.3    259.3   0.030800808   0.26296  -0.38000  -0.30116  -0.16690
  89   38748.4    258.1   0.012662564   0.10758   0.21851  -0.19209   0.15146
  90   38801.8    257.7   0.082404096   0.69915   0.14379  -0.66342   0.48822
  91   38881.7    257.2   0.005276273   0.04467  -0.03029   0.02799   0.20730
  92   38961.1    256.7   0.033017290   0.27899  -0.35959   0.26836   0.27868
  93   39055.9    256.0   0.032846408   0.27687   0.00092  -0.27616  -0.44789
  94   39191.9    255.2   0.019708409   0.16555  -0.32762   0.24123  -0.00498
  95   39467.0    253.4   0.050406391   0.42046   0.45106  -0.29426  -0.36113
  96   39567.8    252.7   0.127540668   1.06116  -0.44450  -0.20696  -0.90595
  97   39663.7    252.1   0.042044682   0.34897   0.11220  -0.53133   0.23253
  98   39805.1    251.2   0.007054607   0.05835  -0.09465  -0.06518  -0.21246
  99   39921.5    250.5   0.056317815   0.46442  -0.32350   0.05555   0.59723
 100   40055.3    249.7   0.163393070   1.34292  -0.16422  -0.15979   1.13596
 101   40120.0    249.3   0.108483030   0.89018   0.75054  -0.04928  -0.56960
 102   40279.2    248.3   0.077411853   0.63271  -0.40440  -0.23113  -0.64478

FINAL SINGLE POINT ENERGY     -6755.246884177365

DIPOLE MOMENT
-------------
                                X             Y             Z
Electronic contribution:     72.98392       9.32228      61.60334
Nuclear contribution   :    -74.70481     -10.78104     -63.40817
                        -----------------------------------------
Total Dipole Moment    :     -1.72088      -1.45876      -1.80483
                        -----------------------------------------
Magnitude (a.u.)       :      2.88909
Magnitude (Debye)      :      7.34349

Rotational constants in cm-1:     0.001012     0.000276     0.000230
Rotational constants in MHz :    30.350247     8.268977     6.880477

                             ****ORCA TERMINATED NORMALLY****
TOTAL RUN TIME: 0 days 0 hours 9 minutes 54 seconds 579 msec
