                         Program Version 4.2.0 -  RELEASE  -
|  1> # ORCA input file
|  2> # SCF done       -187.555744457582          0.000533280761
|  3> ! CAM-B3LYP def2-SVP def2/J RIJCOSX Grid4 TightSCF
|  4> %maxcore 5000
|  5> %tddft
|  6>     Mode sTDDFT
|  7>     Ethresh 5.0
|  8>     maxcore 5000
|  9> end
| 10>
| 11> %pal
| 12>   nprocs 6
| 13>   end
| 14> * xyz 0 1
| 15>    C       -6.82714         0.88625         5.23883
| 16>    C       -7.40664         0.07269         4.29977
| 17>    C       -7.73770        -1.28041         4.51087
| 18>    N       -8.03418        -2.38351         4.62769
| 19>    C       -7.72544         0.49700         2.99526
| 20>    N       -7.99677         0.79111         1.91845
| 21>    C       -6.41800         0.50770         6.58819
| 22>    C       -5.79673         1.61965         7.21999
| 23>    C       -5.29948         1.55638         8.49850
| 24>    C       -5.42033         0.34544         9.18897
| 25>    C       -6.04369        -0.75405         8.55288
| 26>    C       -6.54621        -0.69332         7.25801
| 27>    S       -6.08496        -2.14204         9.59389
| 28>    C       -5.28280        -1.25782        10.84498
| 29>    C       -4.99462         0.01815        10.50704
| 30>    C       -5.80822         2.75632         6.28753
| 31>    O       -5.39261         3.89087         6.43501
| 32>    C       -6.46846         2.27308         5.06801
| 33>    C       -6.64991         3.13000         4.03035
| 34>    S       -6.06678         4.73611         4.10920
| 35>    C       -6.55473         5.23169         2.46888
| 36>    C       -7.35594         6.30012         2.22277
| 37>    S       -7.64626         6.51665         0.54596
| 38>    C       -6.66414         5.15342         0.16332
| 39>    C       -6.14007         4.56882         1.27330
| 40>    S       -5.05153         3.18561         1.31909
| 41>    C       -5.11721         2.66669        -0.39158
| 42>    C       -4.38627         3.33689        -1.32121
| 43>    C       -4.46480         2.92754        -2.67675
| 44>    C       -3.88455         3.43061        -3.82596
| 45>    C       -3.01190         4.63209        -3.99098
| 46>    C       -3.82651         5.91490        -3.74409
| 47>    N       -4.83442         6.05319        -4.78134
| 48>    C       -1.75723         4.58129        -3.10123
| 49>    N       -0.66743         5.28425        -3.75739
| 50>    C       -4.33506         2.59310        -4.91579
| 51>    C       -4.07747         2.64654        -6.23512
| 52>    C       -4.65113         1.64528        -7.17758
| 53>    C       -5.55570         0.63585        -6.55152
| 54>    C       -5.81528         0.60802        -5.23162
| 55>    C       -5.22255         1.56014        -4.36706
| 56>    C       -5.29861         1.77299        -3.00476
| 57>    C       -6.01943         1.10581        -1.98740
| 58>    C       -5.93721         1.54886        -0.70581
| 59>    C       -3.49023         0.99911        -7.90437
| 60>    C       -3.00344        -0.18210        -7.56097
| 61>    S       -1.64596        -0.92717        -8.40487
| 62>    C       -1.61241        -2.49444        -7.57773
| 63>    C       -1.31527        -2.65712        -6.26088
| 64>    S       -1.32891        -4.30865        -5.79088
| 65>    C       -1.73126        -4.80002        -7.38506
| 66>    C       -1.86013        -3.74040        -8.22678
| 67>    S       -2.28181        -3.88612        -9.94250
| 68>    C       -3.63237        -2.82143        -9.92769
| 69>    C       -4.24722        -2.17923       -10.94803
| 70>    C       -4.05518        -2.17738       -12.38191
| 71>    C       -3.56319        -3.20356       -13.14395
| 72>    C       -3.37769        -3.13366       -14.54006
| 73>    N       -3.19456        -3.12499       -15.67311
| 74>    C       -3.29801        -4.49052       -12.63675
| 75>    N       -3.14266        -5.56852       -12.27384
| 76>    C       -4.62970        -0.93549       -12.88824
| 77>    C       -5.32458        -0.28661       -11.83431
| 78>    C       -5.16891        -1.06500       -10.59722
| 79>    O       -5.64367        -0.83855        -9.50486
| 80>    C       -6.00616         0.89292       -12.01679
| 81>    C       -5.99777         1.46270       -13.29332
| 82>    C       -5.29430         0.81218       -14.33562
| 83>    C       -4.60853        -0.38346       -14.15413
| 84>    S       -5.41780         1.69549       -15.82360
| 85>    C       -6.39203         2.90076       -15.05596
| 86>    C       -6.61755         2.66172       -13.74568
| 87>    H       -4.83028         2.41465         8.95392
| 88>    H       -7.01358        -1.55728         6.81497
| 89>    H       -5.07347        -1.75675        11.77121
| 90>    H       -4.49828         0.71566        11.15722
| 91>    H       -7.16048         2.84880         3.12493
| 92>    H       -7.79365         6.96598         2.93854
| 93>    H       -6.53693         4.86309        -0.85969
| 94>    H       -3.76717         4.17191        -1.03153
| 95>    H       -2.66123         4.66742        -5.02553
| 96>    H       -3.16994         6.78768        -3.80941
| 97>    H       -4.25037         5.88228        -2.72575
| 98>    H       -5.38831         6.88906        -4.62970
| 99>    H       -5.46084         5.25423        -4.75934
|100>    H       -1.44686         3.53964        -2.97923
|101>    H       -1.99061         4.98328        -2.10178
|102>    H       -0.89721         6.26615        -3.86913
|103>    H        0.17838         5.22658        -3.20104
|104>    H       -3.42792         3.39887        -6.66082
|105>    H       -5.22659         2.19034        -7.94105
|106>    H       -5.98806        -0.07866        -7.23394
|107>    H       -6.47901        -0.13560        -4.81434
|108>    H       -6.63673         0.25655        -2.23883
|109>    H       -6.49132         1.07756         0.09128
|110>    H       -3.04112         1.56603        -8.70667
|111>    H       -3.41214        -0.77365        -6.75771
|112>    H       -1.08716        -1.89347        -5.54424
|113>    H       -1.86248        -5.83738        -7.61779
|114>    H       -3.99509        -2.57101        -8.93830
|115>    H       -6.53446         1.35910       -11.19947
|116>    H       -4.08435        -0.83999       -14.97729
|117>    H       -6.74146         3.72759       -15.64325
|118>    H       -7.20101         3.30160       -13.10868
|119> *
|120>
|121>                          ****END OF INPUT****

CARTESIAN COORDINATES (ANGSTROEM)
---------------------------------
  C     -6.827140    0.886250    5.238830
  C     -7.406640    0.072690    4.299770
  C     -7.737700   -1.280410    4.510870
  N     -8.034180   -2.383510    4.627690
  C     -7.725440    0.497000    2.995260
  N     -7.996770    0.791110    1.918450
  C     -6.418000    0.507700    6.588190
  C     -5.796730    1.619650    7.219990
  C     -5.299480    1.556380    8.498500
  C     -5.420330    0.345440    9.188970
  C     -6.043690   -0.754050    8.552880
  C     -6.546210   -0.693320    7.258010
  S     -6.084960   -2.142040    9.593890
  C     -5.282800   -1.257820   10.844980
  C     -4.994620    0.018150   10.507040
  C     -5.808220    2.756320    6.287530
  O     -5.392610    3.890870    6.435010
  C     -6.468460    2.273080    5.068010
  C     -6.649910    3.130000    4.030350
  S     -6.066780    4.736110    4.109200
  C     -6.554730    5.231690    2.468880
  C     -7.355940    6.300120    2.222770
  S     -7.646260    6.516650    0.545960
  C     -6.664140    5.153420    0.163320
  C     -6.140070    4.568820    1.273300
  S     -5.051530    3.185610    1.319090
  C     -5.117210    2.666690   -0.391580
  C     -4.386270    3.336890   -1.321210
  C     -4.464800    2.927540   -2.676750
  C     -3.884550    3.430610   -3.825960
  C     -3.011900    4.632090   -3.990980
  C     -3.826510    5.914900   -3.744090
  N     -4.834420    6.053190   -4.781340
  C     -1.757230    4.581290   -3.101230
  N     -0.667430    5.284250   -3.757390
  C     -4.335060    2.593100   -4.915790
  C     -4.077470    2.646540   -6.235120
  C     -4.651130    1.645280   -7.177580
  C     -5.555700    0.635850   -6.551520
  C     -5.815280    0.608020   -5.231620
  C     -5.222550    1.560140   -4.367060
  C     -5.298610    1.772990   -3.004760
  C     -6.019430    1.105810   -1.987400
  C     -5.937210    1.548860   -0.705810
  C     -3.490230    0.999110   -7.904370
  C     -3.003440   -0.182100   -7.560970
  S     -1.645960   -0.927170   -8.404870
  C     -1.612410   -2.494440   -7.577730
  C     -1.315270   -2.657120   -6.260880
  S     -1.328910   -4.308650   -5.790880
  C     -1.731260   -4.800020   -7.385060
  C     -1.860130   -3.740400   -8.226780
  S     -2.281810   -3.886120   -9.942500
  C     -3.632370   -2.821430   -9.927690
  C     -4.247220   -2.179230  -10.948030
  C     -4.055180   -2.177380  -12.381910
  C     -3.563190   -3.203560  -13.143950
  C     -3.377690   -3.133660  -14.540060
  N     -3.194560   -3.124990  -15.673110
  C     -3.298010   -4.490520  -12.636750
  N     -3.142660   -5.568520  -12.273840
  C     -4.629700   -0.935490  -12.888240
  C     -5.324580   -0.286610  -11.834310
  C     -5.168910   -1.065000  -10.597220
  O     -5.643670   -0.838550   -9.504860
  C     -6.006160    0.892920  -12.016790
  C     -5.997770    1.462700  -13.293320
  C     -5.294300    0.812180  -14.335620
  C     -4.608530   -0.383460  -14.154130
  S     -5.417800    1.695490  -15.823600
  C     -6.392030    2.900760  -15.055960
  C     -6.617550    2.661720  -13.745680
  H     -4.830280    2.414650    8.953920
  H     -7.013580   -1.557280    6.814970
  H     -5.073470   -1.756750   11.771210
  H     -4.498280    0.715660   11.157220
  H     -7.160480    2.848800    3.124930
  H     -7.793650    6.965980    2.938540
  H     -6.536930    4.863090   -0.859690
  H     -3.767170    4.171910   -1.031530
  H     -2.661230    4.667420   -5.025530
  H     -3.169940    6.787680   -3.809410
  H     -4.250370    5.882280   -2.725750
  H     -5.388310    6.889060   -4.629700
  H     -5.460840    5.254230   -4.759340
  H     -1.446860    3.539640   -2.979230
  H     -1.990610    4.983280   -2.101780
  H     -0.897210    6.266150   -3.869130
  H      0.178380    5.226580   -3.201040
  H     -3.427920    3.398870   -6.660820
  H     -5.226590    2.190340   -7.941050
  H     -5.988060   -0.078660   -7.233940
  H     -6.479010   -0.135600   -4.814340
  H     -6.636730    0.256550   -2.238830
  H     -6.491320    1.077560    0.091280
  H     -3.041120    1.566030   -8.706670
  H     -3.412140   -0.773650   -6.757710
  H     -1.087160   -1.893470   -5.544240
  H     -1.862480   -5.837380   -7.617790
  H     -3.995090   -2.571010   -8.938300
  H     -6.534460    1.359100  -11.199470
  H     -4.084350   -0.839990  -14.977290
  H     -6.741460    3.727590  -15.643250
  H     -7.201010    3.301600  -13.108680

 Total Charge           Charge          ....    0
 Multiplicity           Mult            ....    1
 Number of Electrons    NEL             ....  554
 Basis Dimension        Dim             .... 1200

ORBITAL ENERGIES
----------------

  NO   OCC          E(Eh)            E(eV)
   0   2.0000     -88.975914     -2421.1577
   1   2.0000     -88.967406     -2420.9262
   2   2.0000     -88.966647     -2420.9055
   3   2.0000     -88.965628     -2420.8778
   4   2.0000     -88.960757     -2420.7453
   5   2.0000     -88.957058     -2420.6446
   6   2.0000     -88.941603     -2420.2241
   7   2.0000     -88.926469     -2419.8122
   8   2.0000     -19.217913      -522.9460
   9   2.0000     -19.214923      -522.8646
  10   2.0000     -14.415428      -392.2637
  11   2.0000     -14.414327      -392.2338
  12   2.0000     -14.411914      -392.1681
  13   2.0000     -14.411719      -392.1628
  14   2.0000     -14.373765      -391.1300
  15   2.0000     -14.373312      -391.1177
  16   2.0000     -10.367964      -282.1266
  17   2.0000     -10.360617      -281.9267
  18   2.0000     -10.341846      -281.4159
  19   2.0000     -10.340158      -281.3700
  20   2.0000     -10.339739      -281.3586
  21   2.0000     -10.337357      -281.2938
  22   2.0000     -10.336500      -281.2705
  23   2.0000     -10.331712      -281.1402
  24   2.0000     -10.321480      -280.8617
  25   2.0000     -10.318945      -280.7928
  26   2.0000     -10.318780      -280.7883
  27   2.0000     -10.316702      -280.7317
  28   2.0000     -10.316501      -280.7263
  29   2.0000     -10.314829      -280.6808
  30   2.0000     -10.314781      -280.6795
  31   2.0000     -10.314522      -280.6724
  32   2.0000     -10.314386      -280.6687
  33   2.0000     -10.313067      -280.6328
  34   2.0000     -10.312930      -280.6291
  35   2.0000     -10.312052      -280.6052
  36   2.0000     -10.307291      -280.4756
  37   2.0000     -10.304478      -280.3991
  38   2.0000     -10.303509      -280.3727
  39   2.0000     -10.302529      -280.3461
  40   2.0000     -10.301935      -280.3299
  41   2.0000     -10.301239      -280.3110
  42   2.0000     -10.300840      -280.3001
  43   2.0000     -10.300248      -280.2840
  44   2.0000     -10.300116      -280.2804
  45   2.0000     -10.298669      -280.2410
  46   2.0000     -10.297865      -280.2192
  47   2.0000     -10.297687      -280.2143
  48   2.0000     -10.295109      -280.1441
  49   2.0000     -10.294674      -280.1323
  50   2.0000     -10.291929      -280.0576
  51   2.0000     -10.290124      -280.0085
  52   2.0000     -10.290118      -280.0083
  53   2.0000     -10.289465      -279.9906
  54   2.0000     -10.288522      -279.9649
  55   2.0000     -10.287963      -279.9497
  56   2.0000     -10.287877      -279.9474
  57   2.0000     -10.287062      -279.9252
  58   2.0000     -10.279847      -279.7289
  59   2.0000     -10.279202      -279.7113
  60   2.0000     -10.276902      -279.6487
  61   2.0000     -10.268975      -279.4330
  62   2.0000     -10.265970      -279.3513
  63   2.0000     -10.263561      -279.2857
  64   2.0000     -10.261056      -279.2175
  65   2.0000     -10.259965      -279.1878
  66   2.0000     -10.258802      -279.1562
  67   2.0000     -10.257298      -279.1153
  68   2.0000     -10.255848      -279.0758
  69   2.0000     -10.255377      -279.0630
  70   2.0000     -10.255088      -279.0551
  71   2.0000     -10.254290      -279.0334
  72   2.0000      -8.072083      -219.6525
  73   2.0000      -8.063689      -219.4241
  74   2.0000      -8.061782      -219.3722
  75   2.0000      -8.061376      -219.3612
  76   2.0000      -8.054542      -219.1752
  77   2.0000      -8.053185      -219.1383
  78   2.0000      -8.036645      -218.6882
  79   2.0000      -8.021170      -218.2671
  80   2.0000      -6.041259      -164.3910
  81   2.0000      -6.036927      -164.2731
  82   2.0000      -6.034501      -164.2071
  83   2.0000      -6.033180      -164.1712
  84   2.0000      -6.031362      -164.1217
  85   2.0000      -6.031298      -164.1200
  86   2.0000      -6.028897      -164.0546
  87   2.0000      -6.026988      -164.0027
  88   2.0000      -6.026983      -164.0025
  89   2.0000      -6.025371      -163.9587
  90   2.0000      -6.024486      -163.9346
  91   2.0000      -6.023491      -163.9075
  92   2.0000      -6.022460      -163.8795
  93   2.0000      -6.022136      -163.8707
  94   2.0000      -6.019872      -163.8090
  95   2.0000      -6.018195      -163.7634
  96   2.0000      -6.015705      -163.6957
  97   2.0000      -6.015400      -163.6874
  98   2.0000      -6.007104      -163.4616
  99   2.0000      -6.002939      -163.3483
 100   2.0000      -5.996416      -163.1708
 101   2.0000      -5.991550      -163.0384
 102   2.0000      -5.987613      -162.9312
 103   2.0000      -5.980930      -162.7494
 104   2.0000      -1.131893       -30.8004
 105   2.0000      -1.130001       -30.7489
 106   2.0000      -1.019703       -27.7475
 107   2.0000      -1.017744       -27.6942
 108   2.0000      -1.009679       -27.4748
 109   2.0000      -1.007485       -27.4151
 110   2.0000      -1.006753       -27.3951
 111   2.0000      -0.993387       -27.0314
 112   2.0000      -0.992190       -26.9989
 113   2.0000      -0.992012       -26.9940
 114   2.0000      -0.984790       -26.7975
 115   2.0000      -0.982824       -26.7440
 116   2.0000      -0.978806       -26.6347
 117   2.0000      -0.960981       -26.1496
 118   2.0000      -0.947010       -25.7695
 119   2.0000      -0.943490       -25.6737
 120   2.0000      -0.941718       -25.6254
 121   2.0000      -0.938162       -25.5287
 122   2.0000      -0.923634       -25.1334
 123   2.0000      -0.920395       -25.0452
 124   2.0000      -0.919531       -25.0217
 125   2.0000      -0.902582       -24.5605
 126   2.0000      -0.891846       -24.2684
 127   2.0000      -0.888038       -24.1647
 128   2.0000      -0.882023       -24.0011
 129   2.0000      -0.879559       -23.9340
 130   2.0000      -0.873178       -23.7604
 131   2.0000      -0.864620       -23.5275
 132   2.0000      -0.851864       -23.1804
 133   2.0000      -0.844231       -22.9727
 134   2.0000      -0.838310       -22.8116
 135   2.0000      -0.831436       -22.6245
 136   2.0000      -0.823866       -22.4185
 137   2.0000      -0.822223       -22.3738
 138   2.0000      -0.821617       -22.3573
 139   2.0000      -0.808407       -21.9979
 140   2.0000      -0.806076       -21.9344
 141   2.0000      -0.797726       -21.7072
 142   2.0000      -0.779795       -21.2193
 143   2.0000      -0.768034       -20.8993
 144   2.0000      -0.758581       -20.6420
 145   2.0000      -0.753686       -20.5088
 146   2.0000      -0.751592       -20.4519
 147   2.0000      -0.750148       -20.4126
 148   2.0000      -0.748681       -20.3726
 149   2.0000      -0.717751       -19.5310
 150   2.0000      -0.709381       -19.3032
 151   2.0000      -0.704515       -19.1708
 152   2.0000      -0.694436       -18.8966
 153   2.0000      -0.688340       -18.7307
 154   2.0000      -0.688126       -18.7249
 155   2.0000      -0.680382       -18.5141
 156   2.0000      -0.675067       -18.3695
 157   2.0000      -0.672782       -18.3073
 158   2.0000      -0.669127       -18.2079
 159   2.0000      -0.667621       -18.1669
 160   2.0000      -0.661639       -18.0041
 161   2.0000      -0.659809       -17.9543
 162   2.0000      -0.656689       -17.8694
 163   2.0000      -0.651328       -17.7235
 164   2.0000      -0.636733       -17.3264
 165   2.0000      -0.627189       -17.0667
 166   2.0000      -0.621050       -16.8996
 167   2.0000      -0.620416       -16.8824
 168   2.0000      -0.618320       -16.8253
 169   2.0000      -0.615188       -16.7401
 170   2.0000      -0.608435       -16.5564
 171   2.0000      -0.606735       -16.5101
 172   2.0000      -0.599529       -16.3140
 173   2.0000      -0.592994       -16.1362
 174   2.0000      -0.592050       -16.1105
 175   2.0000      -0.585888       -15.9428
 176   2.0000      -0.583434       -15.8760
 177   2.0000      -0.573894       -15.6164
 178   2.0000      -0.568292       -15.4640
 179   2.0000      -0.561074       -15.2676
 180   2.0000      -0.559200       -15.2166
 181   2.0000      -0.556312       -15.1380
 182   2.0000      -0.553223       -15.0540
 183   2.0000      -0.550316       -14.9749
 184   2.0000      -0.542342       -14.7579
 185   2.0000      -0.541269       -14.7287
 186   2.0000      -0.539248       -14.6737
 187   2.0000      -0.537834       -14.6352
 188   2.0000      -0.535066       -14.5599
 189   2.0000      -0.533206       -14.5093
 190   2.0000      -0.530676       -14.4404
 191   2.0000      -0.529774       -14.4159
 192   2.0000      -0.527688       -14.3591
 193   2.0000      -0.520077       -14.1520
 194   2.0000      -0.518087       -14.0979
 195   2.0000      -0.514716       -14.0061
 196   2.0000      -0.512107       -13.9351
 197   2.0000      -0.510262       -13.8849
 198   2.0000      -0.506675       -13.7873
 199   2.0000      -0.504780       -13.7358
 200   2.0000      -0.500892       -13.6300
 201   2.0000      -0.500816       -13.6279
 202   2.0000      -0.499567       -13.5939
 203   2.0000      -0.498655       -13.5691
 204   2.0000      -0.495173       -13.4744
 205   2.0000      -0.493560       -13.4304
 206   2.0000      -0.492829       -13.4106
 207   2.0000      -0.491858       -13.3841
 208   2.0000      -0.491038       -13.3618
 209   2.0000      -0.489987       -13.3332
 210   2.0000      -0.488409       -13.2903
 211   2.0000      -0.487446       -13.2641
 212   2.0000      -0.482087       -13.1183
 213   2.0000      -0.479220       -13.0402
 214   2.0000      -0.478913       -13.0319
 215   2.0000      -0.474461       -12.9107
 216   2.0000      -0.473026       -12.8717
 217   2.0000      -0.471515       -12.8306
 218   2.0000      -0.462511       -12.5856
 219   2.0000      -0.458999       -12.4900
 220   2.0000      -0.454639       -12.3714
 221   2.0000      -0.453686       -12.3454
 222   2.0000      -0.452017       -12.3000
 223   2.0000      -0.451566       -12.2877
 224   2.0000      -0.450130       -12.2487
 225   2.0000      -0.447431       -12.1752
 226   2.0000      -0.445822       -12.1314
 227   2.0000      -0.443383       -12.0651
 228   2.0000      -0.439177       -11.9506
 229   2.0000      -0.437374       -11.9016
 230   2.0000      -0.434917       -11.8347
 231   2.0000      -0.433645       -11.8001
 232   2.0000      -0.432559       -11.7705
 233   2.0000      -0.431137       -11.7318
 234   2.0000      -0.429973       -11.7002
 235   2.0000      -0.427525       -11.6335
 236   2.0000      -0.427313       -11.6278
 237   2.0000      -0.425668       -11.5830
 238   2.0000      -0.420209       -11.4345
 239   2.0000      -0.419376       -11.4118
 240   2.0000      -0.419003       -11.4017
 241   2.0000      -0.416137       -11.3237
 242   2.0000      -0.414417       -11.2769
 243   2.0000      -0.411079       -11.1860
 244   2.0000      -0.409557       -11.1446
 245   2.0000      -0.407244       -11.0817
 246   2.0000      -0.406196       -11.0532
 247   2.0000      -0.401437       -10.9237
 248   2.0000      -0.400641       -10.9020
 249   2.0000      -0.391859       -10.6630
 250   2.0000      -0.389207       -10.5909
 251   2.0000      -0.383888       -10.4461
 252   2.0000      -0.383648       -10.4396
 253   2.0000      -0.381302       -10.3758
 254   2.0000      -0.377262       -10.2658
 255   2.0000      -0.368187       -10.0189
 256   2.0000      -0.366712        -9.9787
 257   2.0000      -0.361753        -9.8438
 258   2.0000      -0.359488        -9.7822
 259   2.0000      -0.347944        -9.4680
 260   2.0000      -0.337264        -9.1774
 261   2.0000      -0.332805        -9.0561
 262   2.0000      -0.330927        -9.0050
 263   2.0000      -0.324964        -8.8427
 264   2.0000      -0.318333        -8.6623
 265   2.0000      -0.314657        -8.5623
 266   2.0000      -0.312608        -8.5065
 267   2.0000      -0.303627        -8.2621
 268   2.0000      -0.301140        -8.1944
 269   2.0000      -0.298050        -8.1104
 270   2.0000      -0.295760        -8.0480
 271   2.0000      -0.294176        -8.0049
 272   2.0000      -0.292289        -7.9536
 273   2.0000      -0.283520        -7.7150
 274   2.0000      -0.278263        -7.5719
 275   2.0000      -0.270166        -7.3516
 276   2.0000      -0.218499        -5.9457
 277   0.0000      -0.078613        -2.1392
 278   0.0000      -0.078089        -2.1249
 279   0.0000      -0.061731        -1.6798
 280   0.0000      -0.051509        -1.4016
 281   0.0000      -0.046940        -1.2773

MULLIKEN ATOMIC CHARGES
-----------------------
   0 C :    0.338409
   1 C :   -0.357491
   2 C :   -0.187029
   3 N :    0.150770
   4 C :   -0.164963
   5 N :    0.141144
   6 C :    0.000810
   7 C :   -0.013191
   8 C :   -0.066037
   9 C :    0.114088
  10 C :   -0.096220
  11 C :   -0.025318
  12 S :    0.140631
  13 C :   -0.049132
  14 C :    0.023996
  15 C :    0.137665
  16 O :   -0.165424
  17 C :   -0.072676
  18 C :   -0.101338
  19 S :    0.184782
  20 C :   -0.076570
  21 C :   -0.092664
  22 S :    0.121993
  23 C :   -0.137182
  24 C :    0.025752
  25 S :    0.053728
  26 C :   -0.123634
  27 C :   -0.003848
  28 C :    0.024780
  29 C :   -0.084656
  30 C :   -0.017501
  31 C :    0.151674
  32 N :   -0.228175
  33 C :    0.127618
  34 N :   -0.212298
  35 C :    0.085707
  36 C :   -0.098294
  37 C :    0.163844
  38 C :   -0.077531
  39 C :    0.015716
  40 C :    0.009338
  41 C :    0.041610
  42 C :   -0.015965
  43 C :    0.070802
  44 C :   -0.047524
  45 C :   -0.054930
  46 S :    0.060166
  47 C :   -0.055219
  48 C :   -0.084891
  49 S :    0.145466
  50 C :   -0.096716
  51 C :   -0.036112
  52 S :    0.167160
  53 C :   -0.055057
  54 C :   -0.097555
  55 C :    0.285523
  56 C :   -0.314810
  57 C :   -0.177903
  58 N :    0.145488
  59 C :   -0.222554
  60 N :    0.166410
  61 C :    0.007375
  62 C :   -0.007004
  63 C :    0.149400
  64 O :   -0.152949
  65 C :   -0.071939
  66 C :    0.112060
  67 C :   -0.091696
  68 C :   -0.023844
  69 S :    0.142297
  70 C :   -0.051073
  71 C :    0.025043
  72 H :   -0.013273
  73 H :   -0.006965
  74 H :    0.037793
  75 H :   -0.006457
  76 H :    0.083831
  77 H :    0.026677
  78 H :    0.044863
  79 H :   -0.034650
  80 H :   -0.019412
  81 H :   -0.019292
  82 H :   -0.022529
  83 H :    0.089402
  84 H :    0.096886
  85 H :    0.002135
  86 H :   -0.013429
  87 H :    0.084381
  88 H :    0.089951
  89 H :   -0.000053
  90 H :    0.032339
  91 H :    0.007764
  92 H :   -0.038271
  93 H :   -0.033068
  94 H :   -0.025695
  95 H :    0.001091
  96 H :    0.052809
  97 H :    0.040478
  98 H :    0.042331
  99 H :    0.066759
 100 H :   -0.016471
 101 H :   -0.004761
 102 H :    0.039201
 103 H :   -0.006698
Sum of atomic charges:   -0.0000000

LOEWDIN ATOMIC CHARGES
----------------------
   0 C :    0.082590
   1 C :   -0.146916
   2 C :   -0.019749
   3 N :   -0.056632
   4 C :   -0.005776
   5 N :   -0.053724
   6 C :   -0.021653
   7 C :   -0.052207
   8 C :    0.022594
   9 C :   -0.035287
  10 C :   -0.146934
  11 C :   -0.007146
  12 S :    0.429823
  13 C :   -0.149930
  14 C :   -0.057926
  15 C :    0.075580
  16 O :   -0.158778
  17 C :   -0.138757
  18 C :   -0.073748
  19 S :    0.466707
  20 C :   -0.238898
  21 C :   -0.190675
  22 S :    0.444169
  23 C :   -0.216276
  24 C :   -0.204516
  25 S :    0.332131
  26 C :   -0.159705
  27 C :   -0.028509
  28 C :   -0.029676
  29 C :   -0.041735
  30 C :   -0.039020
  31 C :    0.027327
  32 N :   -0.122562
  33 C :    0.027503
  34 N :   -0.118978
  35 C :   -0.026809
  36 C :    0.080551
  37 C :   -0.025647
  38 C :   -0.027161
  39 C :   -0.025103
  40 C :   -0.038823
  41 C :   -0.033672
  42 C :   -0.007789
  43 C :   -0.043773
  44 C :   -0.043642
  45 C :   -0.152532
  46 S :    0.338216
  47 C :   -0.220091
  48 C :   -0.184554
  49 S :    0.470811
  50 C :   -0.185258
  51 C :   -0.225305
  52 S :    0.448797
  53 C :   -0.081160
  54 C :   -0.126006
  55 C :    0.070765
  56 C :   -0.138663
  57 C :   -0.017975
  58 N :   -0.051461
  59 C :   -0.040512
  60 N :   -0.048850
  61 C :   -0.018266
  62 C :   -0.056794
  63 C :    0.093744
  64 O :   -0.150381
  65 C :    0.021731
  66 C :   -0.037108
  67 C :   -0.144545
  68 C :   -0.010034
  69 S :    0.431380
  70 C :   -0.149959
  71 C :   -0.058338
  72 H :    0.040504
  73 H :    0.040870
  74 H :    0.029169
  75 H :    0.035237
  76 H :    0.037669
  77 H :    0.025971
  78 H :    0.025711
  79 H :    0.023031
  80 H :    0.027237
  81 H :    0.009392
  82 H :   -0.002619
  83 H :    0.053572
  84 H :    0.051711
  85 H :    0.020886
  86 H :   -0.001731
  87 H :    0.047893
  88 H :    0.054337
  89 H :    0.033055
  90 H :    0.058919
  91 H :    0.028164
  92 H :    0.029036
  93 H :    0.028661
  94 H :    0.026623
  95 H :    0.023056
  96 H :    0.026711
  97 H :    0.031692
  98 H :    0.032427
  99 H :    0.040282
 100 H :    0.038431
 101 H :    0.040976
 102 H :    0.029622
 103 H :    0.035016

  Mayer bond orders larger than 0.100000
B(  0-C ,  1-C ) :   1.6336 B(  0-C ,  6-C ) :   1.0061 B(  0-C , 17-C ) :   1.0797
B(  1-C ,  2-C ) :   1.1384 B(  1-C ,  4-C ) :   1.1676 B(  2-C ,  3-N ) :   2.9744
B(  4-C ,  5-N ) :   2.8809 B(  6-C ,  7-C ) :   1.2691 B(  6-C , 11-C ) :   1.4205
B(  7-C ,  8-C ) :   1.4321 B(  7-C , 15-C ) :   0.9461 B(  8-C ,  9-C ) :   1.2417
B(  8-C , 72-H ) :   1.0169 B(  9-C , 10-C ) :   1.3068 B(  9-C , 14-C ) :   1.1727
B( 10-C , 11-C ) :   1.3188 B( 10-C , 12-S ) :   1.0984 B( 11-C , 73-H ) :   0.9827
B( 12-S , 13-C ) :   1.1287 B( 13-C , 14-C ) :   1.6262 B( 13-C , 74-H ) :   0.9689
B( 14-C , 75-H ) :   0.9993 B( 15-C , 16-O ) :   2.1708 B( 15-C , 17-C ) :   0.9740
B( 17-C , 18-C ) :   1.6169 B( 18-C , 19-S ) :   1.1949 B( 18-C , 76-H ) :   0.9127
B( 19-S , 20-C ) :   0.9415 B( 20-C , 21-C ) :   1.6004 B( 20-C , 24-C ) :   1.2519
B( 21-C , 22-S ) :   1.1950 B( 21-C , 77-H ) :   0.9719 B( 22-S , 23-C ) :   1.1499
B( 23-C , 24-C ) :   1.5994 B( 23-C , 78-H ) :   0.9594 B( 24-C , 25-S ) :   0.9964
B( 25-S , 26-C ) :   0.9838 B( 26-C , 27-C ) :   1.5733 B( 26-C , 43-C ) :   1.1523
B( 27-C , 28-C ) :   1.1246 B( 27-C , 79-H ) :   0.9918 B( 28-C , 29-C ) :   1.4857
B( 28-C , 41-C ) :   1.1261 B( 29-C , 30-C ) :   1.0404 B( 29-C , 35-C ) :   1.1113
B( 30-C , 31-C ) :   1.0379 B( 30-C , 33-C ) :   1.0334 B( 30-C , 80-H ) :   0.8717
B( 31-C , 32-N ) :   1.0874 B( 31-C , 81-H ) :   0.9341 B( 31-C , 82-H ) :   0.9314
B( 32-N , 83-H ) :   0.9665 B( 32-N , 84-H ) :   0.9698 B( 33-C , 34-N ) :   1.1010
B( 33-C , 85-H ) :   0.9466 B( 33-C , 86-H ) :   0.9289 B( 34-N , 87-H ) :   0.9705
B( 34-N , 88-H ) :   0.9673 B( 35-C , 36-C ) :   1.6775 B( 35-C , 40-C ) :   1.0553
B( 36-C , 37-C ) :   0.9662 B( 36-C , 89-H ) :   0.9635 B( 37-C , 38-C ) :   1.0117
B( 37-C , 44-C ) :   0.9756 B( 37-C , 90-H ) :   0.8542 B( 38-C , 39-C ) :   1.6950
B( 38-C , 91-H ) :   0.9733 B( 39-C , 40-C ) :   1.1194 B( 39-C , 92-H ) :   0.9951
B( 40-C , 41-C ) :   1.4304 B( 41-C , 42-C ) :   1.1407 B( 42-C , 43-C ) :   1.5955
B( 42-C , 93-H ) :   0.9974 B( 43-C , 94-H ) :   0.9751 B( 44-C , 45-C ) :   1.9265
B( 44-C , 95-H ) :   0.9610 B( 45-C , 46-S ) :   1.0067 B( 45-C , 96-H ) :   0.9164
B( 46-S , 47-C ) :   1.0301 B( 47-C , 48-C ) :   1.5859 B( 47-C , 51-C ) :   1.2476
B( 48-C , 49-S ) :   1.1908 B( 48-C , 97-H ) :   0.9677 B( 49-S , 50-C ) :   1.1954
B( 50-C , 51-C ) :   1.5872 B( 50-C , 98-H ) :   0.9717 B( 51-C , 52-S ) :   1.0011
B( 52-S , 53-C ) :   1.1580 B( 53-C , 54-C ) :   1.7330 B( 53-C , 99-H ) :   0.8884
B( 54-C , 55-C ) :   1.0298 B( 54-C , 63-C ) :   0.9688 B( 55-C , 56-C ) :   1.6469
B( 55-C , 61-C ) :   1.0194 B( 56-C , 57-C ) :   1.1291 B( 56-C , 59-C ) :   1.1591
B( 57-C , 58-N ) :   2.9791 B( 59-C , 60-N ) :   2.9953 B( 61-C , 62-C ) :   1.2669
B( 61-C , 68-C ) :   1.4210 B( 62-C , 63-C ) :   0.9417 B( 62-C , 65-C ) :   1.4209
B( 63-C , 64-O ) :   2.1782 B( 65-C , 66-C ) :   1.2517 B( 65-C ,100-H ) :   1.0169
B( 66-C , 67-C ) :   1.3036 B( 66-C , 71-C ) :   1.1709 B( 67-C , 68-C ) :   1.3174
B( 67-C , 69-S ) :   1.1000 B( 68-C ,101-H ) :   0.9842 B( 69-S , 70-C ) :   1.1276
B( 70-C , 71-C ) :   1.6288 B( 70-C ,102-H ) :   0.9687 B( 71-C ,103-H ) :   0.9998

-----------------------------------------------------------------------------
         ABSORPTION SPECTRUM VIA TRANSITION ELECTRIC DIPOLE MOMENTS
-----------------------------------------------------------------------------
State   Energy  Wavelength   fosc         T2         TX        TY        TZ
        (cm-1)    (nm)                  (au**2)     (au)      (au)      (au)
-----------------------------------------------------------------------------
   0   14950.8    668.9   0.070049335   1.54246   0.63937   0.90391   0.56268
   1   18492.5    540.8   0.000096166   0.00171  -0.00090  -0.03969   0.01165
   2   19545.5    511.6   0.001234770   0.02080  -0.02930  -0.06428  -0.12573
   3   23207.0    430.9   0.000062182   0.00088   0.01042   0.00822   0.02657
   4   24258.9    412.2   0.007261816   0.09855   0.12667   0.18364  -0.22086
   5   26390.2    378.9   0.000826197   0.01031   0.04507   0.08886   0.01947
   6   26481.2    377.6   0.074974088   0.93207   0.19290   0.24681   0.91321
   7   26798.9    373.1   0.205517292   2.52469  -0.40844  -1.53248   0.09672
   8   27724.2    360.7   0.002709670   0.03218  -0.00884  -0.01412   0.17860
   9   28247.4    354.0   0.286661785   3.34093   0.47740  -0.38845   1.72108
  10   28923.2    345.7   0.095660961   1.08884   0.41658  -0.36948  -0.88249
  11   29185.0    342.6   0.238418179   2.68940   0.44245  -0.50614   1.49582
  12   29571.4    338.2   0.184541226   2.05446  -0.40690   1.32979  -0.34720
  13   30114.4    332.1   0.028065605   0.30681  -0.12272  -0.39107   0.37259
  14   30385.6    329.1   0.031160013   0.33760   0.05216  -0.26910   0.51232
  15   30486.3    328.0   0.014257284   0.15396   0.22998  -0.25440   0.19066
  16   31073.6    321.8   0.001964821   0.02082  -0.00919   0.13018   0.06153
  17   31406.8    318.4   0.194542913   2.03923  -0.31060  -1.37426   0.23274
  18   31465.2    317.8   0.062109600   0.64984  -0.03068  -0.22515  -0.77343
  19   32165.7    310.9   0.065232603   0.66765   0.39247   0.18539  -0.69228
  20   32232.0    310.3   0.011216350   0.11456   0.16534   0.19901   0.21822
  21   32940.6    303.6   0.008851265   0.08846  -0.03777   0.13570  -0.26195
  22   33182.6    301.4   0.006061863   0.06014   0.03274  -0.01386  -0.24265
  23   33370.2    299.7   0.829308227   8.18150  -0.62673   0.67991  -2.70674
  24   33482.7    298.7   0.230327556   2.26465  -0.74741   1.23239  -0.43272
  25   34056.6    293.6   0.036644299   0.35423   0.00966  -0.19295  -0.56294
  26   34512.6    289.7   0.164718382   1.57123  -0.55155   0.53504  -0.99033
  27   34631.7    288.8   0.000044351   0.00042  -0.00300  -0.00344   0.02002
  28   34714.8    288.1   0.018378399   0.17429  -0.00930  -0.04503   0.41494
  29   34744.8    287.8   0.009151154   0.08671  -0.28532   0.02036   0.06990
  30   35105.0    284.9   0.309596933   2.90337   0.73505   0.59032   1.41937
  31   35158.3    284.4   0.975123029   9.13075   1.48562  -2.59369   0.44324
  32   35758.1    279.7   0.001042914   0.00960  -0.05023   0.05145  -0.06657
  33   36447.9    274.4   0.013706720   0.12380  -0.00116  -0.27620  -0.21798
  34   36465.6    274.2   0.106859073   0.96473   0.00640  -0.70789   0.68087
  35   36793.2    271.8   0.052178302   0.46687  -0.01474   0.48131  -0.48476
  36   36816.1    271.6   0.038561371   0.34482  -0.00194   0.25828  -0.52736
  37   37615.2    265.8   0.000681266   0.00596   0.03970  -0.03997   0.05281
  38   37902.1    263.8   0.001217423   0.01057  -0.01845   0.03481   0.09498
  39   38020.4    263.0   0.407596165   3.52930  -0.28163   0.43654   1.80538
  40   38197.6    261.8   0.031595123   0.27231   0.13679  -0.14696  -0.48166
  41   38311.4    261.0   0.063444493   0.54518   0.32170  -0.37315   0.54995
  42   38539.7    259.5   0.001808028   0.01544   0.05499  -0.08924   0.06675
  43   38763.1    258.0   0.000112819   0.00096   0.00986  -0.02615   0.01331
  44   38946.8    256.8   0.020284503   0.17146  -0.10085   0.11203   0.38567
  45   39040.0    256.1   0.000630579   0.00532  -0.01170   0.04135   0.05891
  46   39535.2    252.9   0.000050051   0.00042  -0.00359   0.00563  -0.01929
  47   39602.9    252.5   0.000076777   0.00064   0.00380  -0.00860   0.02345
  48   39654.6    252.2   0.015961667   0.13251   0.09970  -0.26030  -0.23413
  49   39867.4    250.8   0.697588399   5.76045   0.34326   0.06370  -2.37457
  50   40149.0    249.1   0.006589793   0.05403  -0.06273   0.13302   0.18002

FINAL SINGLE POINT ENERGY     -5813.218207877710

DIPOLE MOMENT
-------------
                                X             Y             Z
Electronic contribution:     -9.80157     -41.72161       5.45821
Nuclear contribution   :     10.02408      44.30869      -3.65761
                        -----------------------------------------
Total Dipole Moment    :      0.22251       2.58708       1.80060
                        -----------------------------------------
Magnitude (a.u.)       :      3.15985
Magnitude (Debye)      :      8.03171

Rotational constants in cm-1:     0.001383     0.000251     0.000227
Rotational constants in MHz :    41.455541     7.520302     6.794598

                             ****ORCA TERMINATED NORMALLY****
TOTAL RUN TIME: 0 days 0 hours 10 minutes 48 seconds 822 msec
