                         Program Version 4.2.0 -  RELEASE  -
|  1> # ORCA input file
|  2> # SCF done       -159.335540516145          0.000377020364
|  3> ! CAM-B3LYP def2-SVP def2/J RIJCOSX Grid4 TightSCF
|  4> %maxcore 5000
|  5> %tddft
|  6>     Mode sTDDFT
|  7>     Ethresh 5.0
|  8>     maxcore 5000
|  9> end
| 10>
| 11> %pal
| 12>   nprocs 6
| 13>   end
| 14> * xyz 0 1
| 15>    C        0.41106        -4.79227         2.78904
| 16>    C        1.50700        -4.26408         2.16661
| 17>    C        2.10338        -2.94968         2.50223
| 18>    O        2.62538        -2.23549         1.69263
| 19>    O        2.00546        -2.57441         3.79269
| 20>    C        1.91532        -5.05644         1.04139
| 21>    C        1.10197        -6.14384         0.87172
| 22>    S       -0.14165        -6.23335         2.04220
| 23>    C        3.04606        -4.77768         0.19467
| 24>    C        4.32970        -4.20516         0.60741
| 25>    N        5.18301        -4.05537        -0.36505
| 26>    C        4.54404        -4.49121        -1.48400
| 27>    C        3.20612        -5.01346        -1.14611
| 28>    C        2.51344        -5.41548        -2.34868
| 29>    S        0.97752        -5.99879        -2.46375
| 30>    C        3.43921        -5.11529        -3.40841
| 31>    C        4.67734        -4.54355        -2.84665
| 32>    N        5.52636        -4.16616        -3.84242
| 33>    C        4.88620        -4.40235        -4.95287
| 34>    C        3.55935        -4.98720        -4.77712
| 35>    C        2.63602        -5.32647        -5.82458
| 36>    C        1.74122        -6.36477        -5.65016
| 37>    C        0.78985        -6.63829        -6.64415
| 38>    C       -0.22926        -7.58929        -6.69056
| 39>    C       -0.45988        -8.68168        -5.70743
| 40>    C       -1.75348        -8.45937        -4.89731
| 41>    N       -1.68240        -9.22787        -3.67616
| 42>    C       -0.44394       -10.05127        -6.41283
| 43>    N       -0.38202       -11.13471        -5.44193
| 44>    C       -0.96630        -7.34391        -7.90484
| 45>    C       -2.11277        -7.86746        -8.38321
| 46>    C       -2.64025        -7.49235        -9.72102
| 47>    C       -1.90952        -6.37863       -10.39744
| 48>    C       -0.80427        -5.81152        -9.87401
| 49>    C       -0.30030        -6.24938        -8.62933
| 50>    C        0.75530        -5.81872        -7.84350
| 51>    C        1.71360        -4.79602        -8.01531
| 52>    C        2.62930        -4.56713        -7.03682
| 53>    C       -2.47016        -8.72673       -10.57631
| 54>    C       -3.42663        -9.25242       -11.34707
| 55>    C       -3.25564       -10.44875       -12.11498
| 56>    C       -4.16006       -10.85826       -13.18697
| 57>    N       -3.84551       -11.98440       -13.76303
| 58>    C       -2.73150       -12.42017       -13.11459
| 59>    C       -2.32638       -11.46633       -12.06238
| 60>    C       -1.18392       -11.98744       -11.35350
| 61>    S       -0.41642       -11.35385       -10.04040
| 62>    C       -0.88156       -13.23298       -12.01657
| 63>    C       -1.85935       -13.47638       -13.09237
| 64>    N       -1.59815       -14.65275       -13.72316
| 65>    C       -0.52447       -15.12369       -13.16127
| 66>    C        0.00310       -14.28409       -12.07582
| 67>    C        1.14536       -14.58269       -11.27454
| 68>    C        2.26606       -15.32752       -11.61535
| 69>    C        2.57398       -15.76789       -12.99463
| 70>    O        2.19344       -15.19909       -13.98074
| 71>    O        3.35361       -16.86281       -13.09010
| 72>    C        3.16001       -15.48165       -10.52789
| 73>    C        2.72228       -14.86994        -9.39595
| 74>    S        1.21986       -14.07858        -9.61703
| 75>    H       -0.14683        -4.39184         3.61478
| 76>    H        1.59149        -3.24541         4.35027
| 77>    H        1.18155        -6.90491         0.12177
| 78>    H        4.60492        -3.95620         1.61625
| 79>    H        5.35963        -4.21137        -5.90062
| 80>    H        1.77209        -6.95836        -4.75081
| 81>    H        0.35503        -8.67078        -4.97717
| 82>    H       -2.62225        -8.70879        -5.52985
| 83>    H       -1.82529        -7.39990        -4.62809
| 84>    H       -1.55856       -10.21038        -3.90378
| 85>    H       -2.51634        -9.10708        -3.11482
| 86>    H        0.39790       -10.06477        -7.12522
| 87>    H       -1.35876       -10.18970        -6.99295
| 88>    H        0.48682       -11.08089        -4.91859
| 89>    H       -0.39591       -12.02670        -5.92571
| 90>    H       -2.66759        -8.62530        -7.85071
| 91>    H       -3.71003        -7.25663        -9.65832
| 92>    H       -2.30174        -6.06835       -11.35371
| 93>    H       -0.30001        -5.00832       -10.39145
| 94>    H        1.70317        -4.19756        -8.91421
| 95>    H        3.35147        -3.77206        -7.14504
| 96>    H       -1.48957        -9.17593       -10.53660
| 97>    H       -4.39715        -8.77704       -11.42644
| 98>    H       -5.02347       -10.30123       -13.50878
| 99>    H       -0.11561       -16.06657       -13.47324
|100>    H        3.57318       -17.23976       -12.22796
|101>    H        4.11088       -15.98424       -10.58773
|102>    H        3.21095       -14.82638        -8.44283
|103> *
|104>
|105>                          ****END OF INPUT****

CARTESIAN COORDINATES (ANGSTROEM)
---------------------------------
  C      0.411060   -4.792270    2.789040
  C      1.507000   -4.264080    2.166610
  C      2.103380   -2.949680    2.502230
  O      2.625380   -2.235490    1.692630
  O      2.005460   -2.574410    3.792690
  C      1.915320   -5.056440    1.041390
  C      1.101970   -6.143840    0.871720
  S     -0.141650   -6.233350    2.042200
  C      3.046060   -4.777680    0.194670
  C      4.329700   -4.205160    0.607410
  N      5.183010   -4.055370   -0.365050
  C      4.544040   -4.491210   -1.484000
  C      3.206120   -5.013460   -1.146110
  C      2.513440   -5.415480   -2.348680
  S      0.977520   -5.998790   -2.463750
  C      3.439210   -5.115290   -3.408410
  C      4.677340   -4.543550   -2.846650
  N      5.526360   -4.166160   -3.842420
  C      4.886200   -4.402350   -4.952870
  C      3.559350   -4.987200   -4.777120
  C      2.636020   -5.326470   -5.824580
  C      1.741220   -6.364770   -5.650160
  C      0.789850   -6.638290   -6.644150
  C     -0.229260   -7.589290   -6.690560
  C     -0.459880   -8.681680   -5.707430
  C     -1.753480   -8.459370   -4.897310
  N     -1.682400   -9.227870   -3.676160
  C     -0.443940  -10.051270   -6.412830
  N     -0.382020  -11.134710   -5.441930
  C     -0.966300   -7.343910   -7.904840
  C     -2.112770   -7.867460   -8.383210
  C     -2.640250   -7.492350   -9.721020
  C     -1.909520   -6.378630  -10.397440
  C     -0.804270   -5.811520   -9.874010
  C     -0.300300   -6.249380   -8.629330
  C      0.755300   -5.818720   -7.843500
  C      1.713600   -4.796020   -8.015310
  C      2.629300   -4.567130   -7.036820
  C     -2.470160   -8.726730  -10.576310
  C     -3.426630   -9.252420  -11.347070
  C     -3.255640  -10.448750  -12.114980
  C     -4.160060  -10.858260  -13.186970
  N     -3.845510  -11.984400  -13.763030
  C     -2.731500  -12.420170  -13.114590
  C     -2.326380  -11.466330  -12.062380
  C     -1.183920  -11.987440  -11.353500
  S     -0.416420  -11.353850  -10.040400
  C     -0.881560  -13.232980  -12.016570
  C     -1.859350  -13.476380  -13.092370
  N     -1.598150  -14.652750  -13.723160
  C     -0.524470  -15.123690  -13.161270
  C      0.003100  -14.284090  -12.075820
  C      1.145360  -14.582690  -11.274540
  C      2.266060  -15.327520  -11.615350
  C      2.573980  -15.767890  -12.994630
  O      2.193440  -15.199090  -13.980740
  O      3.353610  -16.862810  -13.090100
  C      3.160010  -15.481650  -10.527890
  C      2.722280  -14.869940   -9.395950
  S      1.219860  -14.078580   -9.617030
  H     -0.146830   -4.391840    3.614780
  H      1.591490   -3.245410    4.350270
  H      1.181550   -6.904910    0.121770
  H      4.604920   -3.956200    1.616250
  H      5.359630   -4.211370   -5.900620
  H      1.772090   -6.958360   -4.750810
  H      0.355030   -8.670780   -4.977170
  H     -2.622250   -8.708790   -5.529850
  H     -1.825290   -7.399900   -4.628090
  H     -1.558560  -10.210380   -3.903780
  H     -2.516340   -9.107080   -3.114820
  H      0.397900  -10.064770   -7.125220
  H     -1.358760  -10.189700   -6.992950
  H      0.486820  -11.080890   -4.918590
  H     -0.395910  -12.026700   -5.925710
  H     -2.667590   -8.625300   -7.850710
  H     -3.710030   -7.256630   -9.658320
  H     -2.301740   -6.068350  -11.353710
  H     -0.300010   -5.008320  -10.391450
  H      1.703170   -4.197560   -8.914210
  H      3.351470   -3.772060   -7.145040
  H     -1.489570   -9.175930  -10.536600
  H     -4.397150   -8.777040  -11.426440
  H     -5.023470  -10.301230  -13.508780
  H     -0.115610  -16.066570  -13.473240
  H      3.573180  -17.239760  -12.227960
  H      4.110880  -15.984240  -10.587730
  H      3.210950  -14.826380   -8.442830

 Total Charge           Charge          ....    0
 Multiplicity           Mult            ....    1
 Number of Electrons    NEL             ....  442
 Basis Dimension        Dim             ....  996

ORBITAL ENERGIES
----------------

  NO   OCC          E(Eh)            E(eV)
   0   2.0000     -88.978956     -2421.2405
   1   2.0000     -88.974054     -2421.1071
   2   2.0000     -88.905051     -2419.2294
   3   2.0000     -88.887885     -2418.7623
   4   2.0000     -19.268632      -524.3261
   5   2.0000     -19.263756      -524.1934
   6   2.0000     -19.207694      -522.6679
   7   2.0000     -19.203922      -522.5653
   8   2.0000     -14.417167      -392.3111
   9   2.0000     -14.414842      -392.2478
  10   2.0000     -14.404000      -391.9528
  11   2.0000     -14.400615      -391.8606
  12   2.0000     -14.387815      -391.5124
  13   2.0000     -14.351818      -390.5328
  14   2.0000     -10.413371      -283.3622
  15   2.0000     -10.409018      -283.2438
  16   2.0000     -10.349693      -281.6295
  17   2.0000     -10.336736      -281.2769
  18   2.0000     -10.334329      -281.2114
  19   2.0000     -10.332197      -281.1534
  20   2.0000     -10.332157      -281.1523
  21   2.0000     -10.331206      -281.1264
  22   2.0000     -10.330295      -281.1016
  23   2.0000     -10.322731      -280.8958
  24   2.0000     -10.321598      -280.8650
  25   2.0000     -10.318131      -280.7706
  26   2.0000     -10.317744      -280.7601
  27   2.0000     -10.317483      -280.7530
  28   2.0000     -10.316527      -280.7270
  29   2.0000     -10.314852      -280.6814
  30   2.0000     -10.307650      -280.4854
  31   2.0000     -10.305053      -280.4148
  32   2.0000     -10.304292      -280.3940
  33   2.0000     -10.303586      -280.3748
  34   2.0000     -10.301212      -280.3102
  35   2.0000     -10.300677      -280.2957
  36   2.0000     -10.299977      -280.2766
  37   2.0000     -10.297946      -280.2214
  38   2.0000     -10.296498      -280.1820
  39   2.0000     -10.296204      -280.1740
  40   2.0000     -10.296037      -280.1694
  41   2.0000     -10.292855      -280.0828
  42   2.0000     -10.292029      -280.0603
  43   2.0000     -10.287095      -279.9261
  44   2.0000     -10.283506      -279.8284
  45   2.0000     -10.282624      -279.8044
  46   2.0000     -10.280244      -279.7397
  47   2.0000     -10.276796      -279.6458
  48   2.0000     -10.274233      -279.5761
  49   2.0000     -10.272901      -279.5398
  50   2.0000     -10.271268      -279.4954
  51   2.0000     -10.269863      -279.4572
  52   2.0000     -10.267283      -279.3870
  53   2.0000     -10.267143      -279.3832
  54   2.0000     -10.266655      -279.3699
  55   2.0000     -10.261591      -279.2321
  56   2.0000     -10.261331      -279.2250
  57   2.0000     -10.260726      -279.2085
  58   2.0000     -10.260086      -279.1911
  59   2.0000     -10.259608      -279.1781
  60   2.0000      -8.074197      -219.7101
  61   2.0000      -8.070265      -219.6031
  62   2.0000      -8.000640      -217.7085
  63   2.0000      -7.983592      -217.2446
  64   2.0000      -6.043322      -164.4472
  65   2.0000      -6.039427      -164.3412
  66   2.0000      -6.038821      -164.3247
  67   2.0000      -6.036863      -164.2714
  68   2.0000      -6.034918      -164.2185
  69   2.0000      -6.032938      -164.1646
  70   2.0000      -5.969402      -162.4357
  71   2.0000      -5.968934      -162.4230
  72   2.0000      -5.960170      -162.1845
  73   2.0000      -5.952533      -161.9767
  74   2.0000      -5.951920      -161.9600
  75   2.0000      -5.942902      -161.7146
  76   2.0000      -1.191058       -32.4103
  77   2.0000      -1.186339       -32.2819
  78   2.0000      -1.106382       -30.1062
  79   2.0000      -1.102423       -29.9985
  80   2.0000      -1.085589       -29.5404
  81   2.0000      -1.071156       -29.1476
  82   2.0000      -1.066396       -29.0181
  83   2.0000      -1.052049       -28.6277
  84   2.0000      -1.005580       -27.3632
  85   2.0000      -0.999096       -27.1868
  86   2.0000      -0.983170       -26.7534
  87   2.0000      -0.969311       -26.3763
  88   2.0000      -0.965772       -26.2800
  89   2.0000      -0.951218       -25.8839
  90   2.0000      -0.947153       -25.7733
  91   2.0000      -0.934446       -25.4276
  92   2.0000      -0.920681       -25.0530
  93   2.0000      -0.900745       -24.5105
  94   2.0000      -0.898792       -24.4574
  95   2.0000      -0.889876       -24.2148
  96   2.0000      -0.874667       -23.8009
  97   2.0000      -0.865567       -23.5533
  98   2.0000      -0.862647       -23.4738
  99   2.0000      -0.855592       -23.2818
 100   2.0000      -0.854418       -23.2499
 101   2.0000      -0.840674       -22.8759
 102   2.0000      -0.835561       -22.7368
 103   2.0000      -0.830958       -22.6115
 104   2.0000      -0.824582       -22.4380
 105   2.0000      -0.821524       -22.3548
 106   2.0000      -0.812887       -22.1198
 107   2.0000      -0.794493       -21.6192
 108   2.0000      -0.778068       -21.1723
 109   2.0000      -0.766603       -20.8603
 110   2.0000      -0.752092       -20.4655
 111   2.0000      -0.744697       -20.2642
 112   2.0000      -0.733781       -19.9672
 113   2.0000      -0.727228       -19.7889
 114   2.0000      -0.722890       -19.6708
 115   2.0000      -0.719421       -19.5765
 116   2.0000      -0.717273       -19.5180
 117   2.0000      -0.708732       -19.2856
 118   2.0000      -0.694968       -18.9110
 119   2.0000      -0.693916       -18.8824
 120   2.0000      -0.686888       -18.6912
 121   2.0000      -0.683408       -18.5965
 122   2.0000      -0.679596       -18.4928
 123   2.0000      -0.672216       -18.2919
 124   2.0000      -0.670195       -18.2369
 125   2.0000      -0.665744       -18.1158
 126   2.0000      -0.659606       -17.9488
 127   2.0000      -0.658533       -17.9196
 128   2.0000      -0.654449       -17.8085
 129   2.0000      -0.640952       -17.4412
 130   2.0000      -0.635673       -17.2976
 131   2.0000      -0.628402       -17.0997
 132   2.0000      -0.617471       -16.8022
 133   2.0000      -0.601488       -16.3673
 134   2.0000      -0.593517       -16.1504
 135   2.0000      -0.585315       -15.9272
 136   2.0000      -0.579595       -15.7716
 137   2.0000      -0.578981       -15.7549
 138   2.0000      -0.570904       -15.5351
 139   2.0000      -0.566412       -15.4129
 140   2.0000      -0.564746       -15.3675
 141   2.0000      -0.559531       -15.2256
 142   2.0000      -0.556351       -15.1391
 143   2.0000      -0.551399       -15.0043
 144   2.0000      -0.546901       -14.8819
 145   2.0000      -0.545700       -14.8493
 146   2.0000      -0.543816       -14.7980
 147   2.0000      -0.541698       -14.7403
 148   2.0000      -0.541520       -14.7355
 149   2.0000      -0.537479       -14.6255
 150   2.0000      -0.535890       -14.5823
 151   2.0000      -0.532424       -14.4880
 152   2.0000      -0.529819       -14.4171
 153   2.0000      -0.528009       -14.3679
 154   2.0000      -0.522755       -14.2249
 155   2.0000      -0.521410       -14.1883
 156   2.0000      -0.516458       -14.0535
 157   2.0000      -0.512523       -13.9465
 158   2.0000      -0.510413       -13.8890
 159   2.0000      -0.506992       -13.7959
 160   2.0000      -0.503236       -13.6938
 161   2.0000      -0.501402       -13.6438
 162   2.0000      -0.497351       -13.5336
 163   2.0000      -0.496569       -13.5123
 164   2.0000      -0.492804       -13.4099
 165   2.0000      -0.490994       -13.3606
 166   2.0000      -0.489339       -13.3156
 167   2.0000      -0.484870       -13.1940
 168   2.0000      -0.481614       -13.1054
 169   2.0000      -0.480943       -13.0871
 170   2.0000      -0.478815       -13.0292
 171   2.0000      -0.477450       -12.9921
 172   2.0000      -0.475301       -12.9336
 173   2.0000      -0.472808       -12.8658
 174   2.0000      -0.469350       -12.7717
 175   2.0000      -0.465369       -12.6633
 176   2.0000      -0.465298       -12.6614
 177   2.0000      -0.462047       -12.5729
 178   2.0000      -0.456646       -12.4260
 179   2.0000      -0.453309       -12.3352
 180   2.0000      -0.449773       -12.2390
 181   2.0000      -0.447376       -12.1737
 182   2.0000      -0.444480       -12.0949
 183   2.0000      -0.437323       -11.9002
 184   2.0000      -0.435395       -11.8477
 185   2.0000      -0.432532       -11.7698
 186   2.0000      -0.429606       -11.6902
 187   2.0000      -0.424109       -11.5406
 188   2.0000      -0.416627       -11.3370
 189   2.0000      -0.413437       -11.2502
 190   2.0000      -0.409761       -11.1502
 191   2.0000      -0.405994       -11.0477
 192   2.0000      -0.402436       -10.9508
 193   2.0000      -0.398428       -10.8418
 194   2.0000      -0.397115       -10.8061
 195   2.0000      -0.391923       -10.6648
 196   2.0000      -0.382852       -10.4179
 197   2.0000      -0.376131       -10.2350
 198   2.0000      -0.369096       -10.0436
 199   2.0000      -0.364723        -9.9246
 200   2.0000      -0.362250        -9.8573
 201   2.0000      -0.356553        -9.7023
 202   2.0000      -0.354606        -9.6493
 203   2.0000      -0.351641        -9.5686
 204   2.0000      -0.346354        -9.4248
 205   2.0000      -0.344297        -9.3688
 206   2.0000      -0.340243        -9.2585
 207   2.0000      -0.337082        -9.1725
 208   2.0000      -0.331751        -9.0274
 209   2.0000      -0.327006        -8.8983
 210   2.0000      -0.319242        -8.6870
 211   2.0000      -0.308404        -8.3921
 212   2.0000      -0.305078        -8.3016
 213   2.0000      -0.300040        -8.1645
 214   2.0000      -0.294445        -8.0122
 215   2.0000      -0.291751        -7.9389
 216   2.0000      -0.284220        -7.7340
 217   2.0000      -0.279821        -7.6143
 218   2.0000      -0.278915        -7.5897
 219   2.0000      -0.271057        -7.3758
 220   2.0000      -0.218513        -5.9460
 221   0.0000      -0.112427        -3.0593
 222   0.0000      -0.097611        -2.6561
 223   0.0000      -0.085275        -2.3204
 224   0.0000      -0.072544        -1.9740
 225   0.0000      -0.056179        -1.5287

MULLIKEN ATOMIC CHARGES
-----------------------
   0 C :   -0.161580
   1 C :   -0.016086
   2 C :    0.158527
   3 O :   -0.166726
   4 O :   -0.156633
   5 C :    0.055735
   6 C :   -0.085653
   7 S :    0.150407
   8 C :    0.003865
   9 C :    0.081962
  10 N :   -0.034336
  11 C :    0.026079
  12 C :   -0.029149
  13 C :   -0.002351
  14 S :   -0.138643
  15 C :   -0.024791
  16 C :   -0.005847
  17 N :   -0.034870
  18 C :    0.046437
  19 C :    0.007671
  20 C :    0.061606
  21 C :   -0.045934
  22 C :    0.036111
  23 C :   -0.009485
  24 C :   -0.061271
  25 C :    0.161907
  26 N :   -0.226517
  27 C :    0.131685
  28 N :   -0.217392
  29 C :    0.104372
  30 C :   -0.133371
  31 C :    0.116746
  32 C :   -0.029271
  33 C :    0.024894
  34 C :    0.004488
  35 C :    0.047943
  36 C :   -0.006011
  37 C :   -0.020449
  38 C :   -0.004179
  39 C :   -0.015321
  40 C :    0.014838
  41 C :    0.056390
  42 N :   -0.023804
  43 C :   -0.004507
  44 C :   -0.009617
  45 C :    0.004219
  46 S :   -0.144764
  47 C :   -0.029619
  48 C :    0.013718
  49 N :   -0.024488
  50 C :    0.087508
  51 C :    0.006315
  52 C :   -0.155888
  53 C :   -0.010941
  54 C :    0.150695
  55 O :   -0.171474
  56 O :   -0.153603
  57 C :   -0.008588
  58 C :   -0.063696
  59 S :    0.211590
  60 H :    0.030314
  61 H :    0.179097
  62 H :    0.035187
  63 H :    0.006403
  64 H :    0.006301
  65 H :   -0.028558
  66 H :   -0.024103
  67 H :   -0.039501
  68 H :    0.000243
  69 H :    0.082263
  70 H :    0.079793
  71 H :    0.004134
  72 H :   -0.016673
  73 H :    0.100492
  74 H :    0.094342
  75 H :    0.005934
  76 H :    0.018873
  77 H :   -0.013021
  78 H :   -0.032717
  79 H :   -0.037671
  80 H :   -0.029027
  81 H :    0.025975
  82 H :   -0.020713
  83 H :    0.005679
  84 H :    0.017019
  85 H :    0.180835
  86 H :   -0.006660
  87 H :    0.036907
Sum of atomic charges:    0.0000000

LOEWDIN ATOMIC CHARGES
----------------------
   0 C :   -0.188504
   1 C :   -0.112431
   2 C :    0.081536
   3 O :   -0.142309
   4 O :   -0.030654
   5 C :   -0.055537
   6 C :   -0.148566
   7 S :    0.477773
   8 C :   -0.025944
   9 C :    0.097842
  10 N :   -0.084312
  11 C :    0.039030
  12 C :   -0.036014
  13 C :   -0.135095
  14 S :    0.066101
  15 C :   -0.047487
  16 C :    0.033278
  17 N :   -0.080415
  18 C :    0.079019
  19 C :   -0.023662
  20 C :   -0.040617
  21 C :    0.020831
  22 C :   -0.021110
  23 C :   -0.016095
  24 C :   -0.039461
  25 C :    0.031399
  26 N :   -0.129073
  27 C :    0.024893
  28 N :   -0.101258
  29 C :   -0.016081
  30 C :    0.073733
  31 C :   -0.028929
  32 C :   -0.034127
  33 C :   -0.011709
  34 C :   -0.036128
  35 C :   -0.028794
  36 C :   -0.011128
  37 C :   -0.028358
  38 C :    0.045188
  39 C :   -0.057729
  40 C :   -0.027292
  41 C :    0.082180
  42 N :   -0.076015
  43 C :    0.034060
  44 C :   -0.043811
  45 C :   -0.134238
  46 S :    0.054817
  47 C :   -0.038355
  48 C :    0.040897
  49 N :   -0.077394
  50 C :    0.105842
  51 C :   -0.046881
  52 C :   -0.152080
  53 C :   -0.116223
  54 C :    0.079348
  55 O :   -0.148055
  56 O :   -0.028824
  57 C :   -0.072159
  58 C :   -0.175400
  59 S :    0.507888
  60 H :    0.022166
  61 H :    0.092539
  62 H :    0.021080
  63 H :    0.023684
  64 H :    0.023848
  65 H :    0.017320
  66 H :    0.026330
  67 H :   -0.009259
  68 H :    0.018071
  69 H :    0.033531
  70 H :    0.047515
  71 H :    0.003124
  72 H :    0.010974
  73 H :    0.056061
  74 H :    0.056097
  75 H :    0.028436
  76 H :    0.049059
  77 H :    0.024457
  78 H :    0.031153
  79 H :    0.026925
  80 H :    0.024796
  81 H :    0.014178
  82 H :    0.027534
  83 H :    0.025394
  84 H :    0.027524
  85 H :    0.092896
  86 H :    0.028501
  87 H :    0.028664

  Mayer bond orders larger than 0.100000
B(  0-C ,  1-C ) :   1.5158 B(  0-C ,  7-S ) :   1.2021 B(  0-C , 60-H ) :   0.9678
B(  1-C ,  2-C ) :   0.9022 B(  1-C ,  5-C ) :   1.2459 B(  2-C ,  3-O ) :   2.1621
B(  2-C ,  4-O ) :   1.2393 B(  4-O , 61-H ) :   0.9533 B(  5-C ,  6-C ) :   1.5666
B(  5-C ,  8-C ) :   1.0015 B(  6-C ,  7-S ) :   1.1784 B(  6-C , 62-H ) :   0.9516
B(  8-C ,  9-C ) :   1.0293 B(  8-C , 12-C ) :   1.6108 B(  9-C , 10-N ) :   1.7181
B(  9-C , 63-H ) :   0.9885 B( 10-N , 11-C ) :   1.2802 B( 11-C , 12-C ) :   1.0471
B( 11-C , 16-C ) :   1.5082 B( 12-C , 13-C ) :   1.0206 B( 13-C , 14-S ) :   1.6652
B( 13-C , 15-C ) :   1.0499 B( 15-C , 16-C ) :   1.0614 B( 15-C , 19-C ) :   1.5312
B( 16-C , 17-N ) :   1.2734 B( 17-N , 18-C ) :   1.7139 B( 18-C , 19-C ) :   1.0466
B( 18-C , 64-H ) :   0.9898 B( 19-C , 20-C ) :   1.0117 B( 20-C , 21-C ) :   1.5117
B( 20-C , 37-C ) :   1.1234 B( 21-C , 22-C ) :   1.1649 B( 21-C , 65-H ) :   0.9805
B( 22-C , 23-C ) :   1.4660 B( 22-C , 35-C ) :   1.1153 B( 23-C , 24-C ) :   1.0345
B( 23-C , 29-C ) :   1.0901 B( 24-C , 25-C ) :   1.0328 B( 24-C , 27-C ) :   1.0406
B( 24-C , 66-H ) :   0.8774 B( 25-C , 26-N ) :   1.1092 B( 25-C , 67-H ) :   0.9242
B( 25-C , 68-H ) :   0.9422 B( 26-N , 69-H ) :   0.9394 B( 26-N , 70-H ) :   0.9682
B( 27-C , 28-N ) :   1.0737 B( 27-C , 71-H ) :   0.9496 B( 27-C , 72-H ) :   0.9274
B( 28-N , 69-H ) :   0.1040 B( 28-N , 73-H ) :   0.9636 B( 28-N , 74-H ) :   0.9674
B( 29-C , 30-C ) :   1.6428 B( 29-C , 34-C ) :   1.0436 B( 30-C , 31-C ) :   0.9797
B( 30-C , 75-H ) :   0.9653 B( 31-C , 32-C ) :   0.9906 B( 31-C , 38-C ) :   0.9548
B( 31-C , 76-H ) :   0.8858 B( 32-C , 33-C ) :   1.7020 B( 32-C , 77-H ) :   0.9708
B( 33-C , 34-C ) :   1.1421 B( 33-C , 78-H ) :   0.9886 B( 34-C , 35-C ) :   1.4298
B( 35-C , 36-C ) :   1.1459 B( 36-C , 37-C ) :   1.6056 B( 36-C , 79-H ) :   0.9917
B( 37-C , 80-H ) :   0.9853 B( 38-C , 39-C ) :   1.7630 B( 38-C , 81-H ) :   0.9389
B( 39-C , 40-C ) :   1.0814 B( 39-C , 82-H ) :   0.9688 B( 40-C , 41-C ) :   1.0318
B( 40-C , 44-C ) :   1.5029 B( 41-C , 42-N ) :   1.7065 B( 41-C , 83-H ) :   0.9929
B( 42-N , 43-C ) :   1.2761 B( 43-C , 44-C ) :   1.0683 B( 43-C , 48-C ) :   1.5202
B( 44-C , 45-C ) :   1.0556 B( 45-C , 46-S ) :   1.6611 B( 45-C , 47-C ) :   1.0252
B( 47-C , 48-C ) :   1.0632 B( 47-C , 51-C ) :   1.5744 B( 48-C , 49-N ) :   1.2758
B( 49-N , 50-C ) :   1.7247 B( 50-C , 51-C ) :   1.0201 B( 50-C , 84-H ) :   0.9878
B( 51-C , 52-C ) :   1.0954 B( 52-C , 53-C ) :   1.4867 B( 52-C , 59-S ) :   1.1996
B( 53-C , 54-C ) :   0.9140 B( 53-C , 57-C ) :   1.2401 B( 54-C , 55-O ) :   2.1619
B( 54-C , 56-O ) :   1.2406 B( 56-O , 85-H ) :   0.9534 B( 57-C , 58-C ) :   1.5639
B( 57-C , 86-H ) :   0.9868 B( 58-C , 59-S ) :   1.1870 B( 58-C , 87-H ) :   0.9705

-----------------------------------------------------------------------------
         ABSORPTION SPECTRUM VIA TRANSITION ELECTRIC DIPOLE MOMENTS
-----------------------------------------------------------------------------
State   Energy  Wavelength   fosc         T2         TX        TY        TZ
        (cm-1)    (nm)                  (au**2)     (au)      (au)      (au)
-----------------------------------------------------------------------------
   0   10076.4    992.4   0.092368150   3.01782   0.52182   1.26132   1.07451
   1   11226.2    890.8   0.013808160   0.40493   0.44896   0.00781   0.45089
   2   13965.6    716.0   0.014373845   0.33883   0.00885   0.42116  -0.40173
   3   14862.6    672.8   0.021471083   0.47559  -0.07008  -0.31806  -0.60788
   4   16036.0    623.6   0.004108348   0.08434   0.17673  -0.22815   0.03255
   5   16382.8    610.4   0.013775782   0.27682   0.26212   0.06224   0.45194
   6   17200.7    581.4   0.141226785   2.70300  -0.40863  -0.15605  -1.58482
   7   17794.3    562.0   0.000035669   0.00066  -0.00515  -0.00683  -0.02422
   8   18978.0    526.9   0.044629620   0.77419  -0.31372  -0.28833  -0.76983
   9   19374.0    516.2   0.060687015   1.03122   0.62213  -0.80254  -0.01011
  10   19958.8    501.0   0.073276076   1.20866  -0.12857  -0.16054  -1.07998
  11   20634.9    484.6   0.015122687   0.24127   0.42431  -0.11343   0.21991
  12   22535.3    443.7   0.018615310   0.27195   0.41160   0.22247   0.23031
  13   24216.4    412.9   0.021912237   0.29789  -0.27763  -0.34554  -0.31846
  14   24734.0    404.3   0.016686605   0.22210   0.39472  -0.25408   0.04167
  15   25204.1    396.8   0.107535476   1.40461   0.25136   0.52459   1.03259
  16   25305.8    395.2   0.085684873   1.11471  -0.12282  -0.39246  -0.97242
  17   25481.2    392.4   0.020082301   0.25946  -0.18908   0.16040   0.44495
  18   25667.0    389.6   0.079332623   1.01754   0.57587  -0.82810  -0.01314
  19   26011.8    384.4   0.037362169   0.47287  -0.38838  -0.21878  -0.52360
  20   26172.5    382.1   0.003042607   0.03827  -0.18319   0.02374  -0.06442
  21   26359.1    379.4   0.090699917   1.13280  -0.08946  -0.84788  -0.63709
  22   27075.3    369.3   0.116522802   1.41682  -0.56211  -0.53474  -0.90272
  23   27150.8    368.3   0.065657779   0.79612  -0.76708   0.08547  -0.44766
  24   27344.3    365.7   0.031945340   0.38461   0.27444   0.32841   0.44882
  25   28378.8    352.4   0.008402071   0.09747  -0.26298  -0.15060  -0.07501
  26   28420.8    351.9   0.545114359   6.31433  -1.20630   2.14076   0.52565
  27   28898.7    346.0   0.111121547   1.26589  -0.28569   0.68571   0.84503
  28   29125.4    343.3   0.001216472   0.01375   0.03528  -0.11148   0.00881
  29   29134.8    343.2   0.068859554   0.77809  -0.78498   0.30284  -0.26492
  30   29252.9    341.8   0.027234644   0.30650  -0.21431   0.20514  -0.46743
  31   29393.0    340.2   0.337100564   3.77565   0.42850  -0.43714   1.84416
  32   30072.8    332.5   0.077893765   0.85272   0.12572  -0.01302   0.91474
  33   30426.4    328.7   0.124577501   1.34792   0.28395  -0.25223   1.09712
  34   30799.3    324.7   0.093709019   1.00165   0.03995   0.15470  -0.98799
  35   31040.0    322.2   0.010566801   0.11207   0.01620  -0.13101  -0.30765
  36   31158.5    320.9   0.014928902   0.15773  -0.10434   0.19616   0.32919
  37   31274.2    319.8   0.007123033   0.07498  -0.01741   0.08888  -0.25841
  38   31613.2    316.3   0.039733079   0.41377   0.15268  -0.62392  -0.03439
  39   31673.9    315.7   0.011304131   0.11749  -0.23895   0.06886  -0.23591
  40   32296.9    309.6   0.073020508   0.74432  -0.63921  -0.02755  -0.57877
  41   32554.8    307.2   0.001453342   0.01470  -0.03299  -0.05604   0.10231
  42   32932.3    303.7   0.013871874   0.13867  -0.16110  -0.13633  -0.30681
  43   33113.8    302.0   0.022039805   0.21912  -0.02598  -0.13128  -0.44856
  44   33303.6    300.3   0.130658325   1.29158  -0.39110   0.02212  -1.06683
  45   33358.7    299.8   0.046957202   0.46341   0.06141   0.18723   0.65160
  46   33932.5    294.7   0.042927373   0.41648  -0.49225   0.10032  -0.40510
  47   34186.0    292.5   0.002368102   0.02280   0.07597  -0.00099  -0.13051
  48   34278.5    291.7   0.007491525   0.07195   0.15848  -0.17527  -0.12694
  49   34440.6    290.4   0.063177538   0.60390   0.50789  -0.57906   0.10317
  50   34563.6    289.3   0.020071953   0.19118   0.12747   0.07794   0.41092
  51   35252.1    283.7   0.007461333   0.06968   0.23660  -0.11380   0.02738
  52   35370.9    282.7   0.155360208   1.44600   1.11906   0.34711   0.27060
  53   35532.9    281.4   0.018571608   0.17207  -0.31125  -0.26361   0.07551
  54   35598.5    280.9   0.039304099   0.36348   0.38478   0.20795   0.41495
  55   35654.2    280.5   0.010973659   0.10132  -0.19220   0.08675   0.23845
  56   35719.9    280.0   0.004265633   0.03931  -0.04966   0.12073   0.14924
  57   35934.0    278.3   0.178059582   1.63131   0.79774   0.36534   0.92814
  58   36116.9    276.9   0.136357685   1.24293   0.76341   0.49060   0.64765
  59   36242.0    275.9   0.157044753   1.42655   0.52006   0.19814   1.05680
  60   36604.8    273.2   0.015255310   0.13720  -0.22853  -0.16682   0.23905
  61   36737.1    272.2   0.147867282   1.32508  -0.87389  -0.19867   0.72245
  62   37120.8    269.4   0.051792785   0.45933   0.04088  -0.50129  -0.45428
  63   37216.6    268.7   0.015452151   0.13669  -0.24240   0.00566   0.27910
  64   37768.3    264.8   0.046320066   0.40375   0.28000   0.57001  -0.02098
  65   37861.8    264.1   0.007855228   0.06830  -0.20991  -0.15509   0.01371
  66   38014.6    263.1   0.153110974   1.32596  -1.10920  -0.17533   0.25475
  67   38261.5    261.4   0.144320109   1.24177  -1.02413  -0.43290   0.07429
  68   38371.6    260.6   0.005547158   0.04759   0.15874   0.06166  -0.13635
  69   38540.4    259.5   0.018884391   0.16131  -0.22737   0.19836   0.26508
  70   38623.6    258.9   0.048618386   0.41440   0.06556  -0.12285  -0.62850
  71   38937.2    256.8   0.064345284   0.54404   0.14294   0.57596   0.43803
  72   39038.7    256.2   0.042247468   0.35627  -0.39903  -0.41790  -0.14969
  73   39173.3    255.3   0.086876342   0.73011   0.18280  -0.68834  -0.47210
  74   39185.3    255.2   0.031531900   0.26491  -0.45116   0.13204   0.20961
  75   39263.4    254.7   0.010270271   0.08611   0.08028  -0.00527   0.28221
  76   39662.1    252.1   0.025231302   0.20943  -0.11896   0.38129   0.22338
  77   39692.7    251.9   0.023266546   0.19297   0.20230   0.23704   0.30961
  78   39817.3    251.1   0.126518347   1.04606  -0.88841  -0.35311  -0.36347

FINAL SINGLE POINT ENERGY     -3988.213213597702

DIPOLE MOMENT
-------------
                                X             Y             Z
Electronic contribution:     15.77793      -0.31386       2.53757
Nuclear contribution   :    -17.34027      -1.95375      -0.90310
                        -----------------------------------------
Total Dipole Moment    :     -1.56234      -2.26761       1.63447
                        -----------------------------------------
Magnitude (a.u.)       :      3.20226
Magnitude (Debye)      :      8.13949

Rotational constants in cm-1:     0.002283     0.000436     0.000419
Rotational constants in MHz :    68.454237    13.064207    12.572216

                             ****ORCA TERMINATED NORMALLY****
TOTAL RUN TIME: 0 days 0 hours 8 minutes 6 seconds 852 msec
