                         Program Version 4.2.0 -  RELEASE  -
|  1> # ORCA input file
|  2> # SCF done       -182.329373362575          0.000716840017
|  3> ! CAM-B3LYP def2-SVP def2/J RIJCOSX Grid4 TightSCF
|  4> %maxcore 5000
|  5> %tddft
|  6>     Mode sTDDFT
|  7>     Ethresh 5.0
|  8>     maxcore 5000
|  9> end
| 10>
| 11> %pal
| 12>   nprocs 6
| 13>   end
| 14> * xyz 0 1
| 15>    C       -4.81549         4.65223        -3.66151
| 16>    C       -5.26941         3.82464        -2.67013
| 17>    C       -6.12568         2.72365        -2.88914
| 18>    N       -6.82379         1.81930        -2.99803
| 19>    C       -4.94252         3.93979        -1.30202
| 20>    N       -4.71653         3.96981        -0.17674
| 21>    C       -5.09351         4.51207        -5.08383
| 22>    C       -4.36179         5.50629        -5.79470
| 23>    C       -4.42039         5.61195        -7.15500
| 24>    C       -5.22889         4.71048        -7.88163
| 25>    C       -5.97125         3.71771        -7.17776
| 26>    C       -5.89085         3.63265        -5.76950
| 27>    C       -6.78176         2.82808        -7.91241
| 28>    C       -6.85489         2.91201        -9.27621
| 29>    C       -6.12202         3.88826        -9.96812
| 30>    C       -5.32594         4.76794        -9.28595
| 31>    C       -3.59944         6.33368        -4.84884
| 32>    O       -2.92103         7.30156        -5.11232
| 33>    C       -3.91205         5.78224        -3.49471
| 34>    C       -3.53604         6.35752        -2.32591
| 35>    C       -2.57707         7.40398        -2.18653
| 36>    C       -2.72532         8.53409        -1.25619
| 37>    N       -1.76080         9.40141        -1.31394
| 38>    C       -0.88135         8.91054        -2.23306
| 39>    C       -1.36240         7.63378        -2.78378
| 40>    C       -0.38640         7.09834        -3.70334
| 41>    S       -0.47583         5.63113        -4.45176
| 42>    C        0.64615         8.09650        -3.77133
| 43>    C        0.29460         9.20840        -2.86118
| 44>    N        1.20435        10.22213        -2.94823
| 45>    C        2.05605         9.84155        -3.84335
| 46>    C        1.80564         8.49970        -4.41094
| 47>    C        2.71605         7.96969        -5.35677
| 48>    S        3.79126         9.10604        -6.13187
| 49>    C        4.62731         7.84203        -6.96869
| 50>    C        4.07783         6.58783        -6.67485
| 51>    C        2.98921         6.65941        -5.76602
| 52>    O        2.39721         5.55547        -5.30473
| 53>    O        4.61234         5.49477        -7.24645
| 54>    C        4.00036         4.22839        -7.07666
| 55>    C        5.75532         8.14638        -7.76111
| 56>    C        6.70562         7.18520        -8.34966
| 57>    N        7.73433         7.73172        -8.91818
| 58>    C        7.57149         9.08096        -8.77381
| 59>    C        6.30680         9.37409        -8.07116
| 60>    C        6.13958        10.79227        -7.95044
| 61>    S        4.79515        11.64847        -7.52859
| 62>    C        7.37463        11.34041        -8.44863
| 63>    C        8.21508        10.26612        -9.00760
| 64>    N        9.35980        10.79013        -9.53615
| 65>    C        9.28356        12.07340        -9.34553
| 66>    C        8.07082        12.50694        -8.63604
| 67>    C        7.68748        13.84328        -8.30673
| 68>    C        6.95802        14.15420        -7.20924
| 69>    C        6.22104        15.38078        -6.93970
| 70>    C        6.38957        16.58884        -7.55849
| 71>    C        5.63218        17.74119        -7.25786
| 72>    N        5.05292        18.71072        -7.05478
| 73>    C        7.36589        16.84912        -8.54321
| 74>    N        8.14712        17.11592        -9.34076
| 75>    C        5.25689        15.07445        -5.89143
| 76>    C        5.53785        13.77862        -5.36674
| 77>    C        6.70018        13.21422        -6.06834
| 78>    O        7.38257        12.26988        -5.74095
| 79>    C        4.77509        13.21812        -4.38173
| 80>    C        3.65750        13.92541        -3.88755
| 81>    C        3.36942        15.22199        -4.40861
| 82>    C        4.19016        15.78788        -5.40990
| 83>    C        2.24690        15.91737        -3.91407
| 84>    C        1.43861        15.35636        -2.96283
| 85>    C        1.71842        14.07792        -2.45690
| 86>    C        2.80769        13.38079        -2.90415
| 87>    H       -3.85391         6.37420        -7.66920
| 88>    H       -6.46862         2.87354        -5.26658
| 89>    H       -7.34305         2.07753        -7.37559
| 90>    H       -7.47814         2.22617        -9.82996
| 91>    H       -6.19197         3.94007       -11.04430
| 92>    H       -4.76012         5.52206        -9.81312
| 93>    H       -4.01274         6.05112        -1.40195
| 94>    H       -3.56128         8.67644        -0.59387
| 95>    H        2.88426        10.46767        -4.12633
| 96>    H        1.48974         5.71369        -4.94046
| 97>    H        4.60406         3.54268        -7.66908
| 98>    H        2.97404         4.22970        -7.44845
| 99>    H        4.00493         3.91808        -6.03104
|100>    H        6.59076         6.11764        -8.31573
|101>    H       10.07189        12.72885        -9.67247
|102>    H        7.95405        14.60706        -9.02697
|103>    H        5.01434        12.23689        -3.99869
|104>    H        3.94364        16.76824        -5.78688
|105>    H        2.03564        16.90138        -4.30657
|106>    H        0.57777        15.89530        -2.59633
|107>    H        1.06818        13.64233        -1.71416
|108>    H        3.02013        12.39886        -2.50982
|109> *
|110>
|111>                          ****END OF INPUT****

CARTESIAN COORDINATES (ANGSTROEM)
---------------------------------
  C     -4.815490    4.652230   -3.661510
  C     -5.269410    3.824640   -2.670130
  C     -6.125680    2.723650   -2.889140
  N     -6.823790    1.819300   -2.998030
  C     -4.942520    3.939790   -1.302020
  N     -4.716530    3.969810   -0.176740
  C     -5.093510    4.512070   -5.083830
  C     -4.361790    5.506290   -5.794700
  C     -4.420390    5.611950   -7.155000
  C     -5.228890    4.710480   -7.881630
  C     -5.971250    3.717710   -7.177760
  C     -5.890850    3.632650   -5.769500
  C     -6.781760    2.828080   -7.912410
  C     -6.854890    2.912010   -9.276210
  C     -6.122020    3.888260   -9.968120
  C     -5.325940    4.767940   -9.285950
  C     -3.599440    6.333680   -4.848840
  O     -2.921030    7.301560   -5.112320
  C     -3.912050    5.782240   -3.494710
  C     -3.536040    6.357520   -2.325910
  C     -2.577070    7.403980   -2.186530
  C     -2.725320    8.534090   -1.256190
  N     -1.760800    9.401410   -1.313940
  C     -0.881350    8.910540   -2.233060
  C     -1.362400    7.633780   -2.783780
  C     -0.386400    7.098340   -3.703340
  S     -0.475830    5.631130   -4.451760
  C      0.646150    8.096500   -3.771330
  C      0.294600    9.208400   -2.861180
  N      1.204350   10.222130   -2.948230
  C      2.056050    9.841550   -3.843350
  C      1.805640    8.499700   -4.410940
  C      2.716050    7.969690   -5.356770
  S      3.791260    9.106040   -6.131870
  C      4.627310    7.842030   -6.968690
  C      4.077830    6.587830   -6.674850
  C      2.989210    6.659410   -5.766020
  O      2.397210    5.555470   -5.304730
  O      4.612340    5.494770   -7.246450
  C      4.000360    4.228390   -7.076660
  C      5.755320    8.146380   -7.761110
  C      6.705620    7.185200   -8.349660
  N      7.734330    7.731720   -8.918180
  C      7.571490    9.080960   -8.773810
  C      6.306800    9.374090   -8.071160
  C      6.139580   10.792270   -7.950440
  S      4.795150   11.648470   -7.528590
  C      7.374630   11.340410   -8.448630
  C      8.215080   10.266120   -9.007600
  N      9.359800   10.790130   -9.536150
  C      9.283560   12.073400   -9.345530
  C      8.070820   12.506940   -8.636040
  C      7.687480   13.843280   -8.306730
  C      6.958020   14.154200   -7.209240
  C      6.221040   15.380780   -6.939700
  C      6.389570   16.588840   -7.558490
  C      5.632180   17.741190   -7.257860
  N      5.052920   18.710720   -7.054780
  C      7.365890   16.849120   -8.543210
  N      8.147120   17.115920   -9.340760
  C      5.256890   15.074450   -5.891430
  C      5.537850   13.778620   -5.366740
  C      6.700180   13.214220   -6.068340
  O      7.382570   12.269880   -5.740950
  C      4.775090   13.218120   -4.381730
  C      3.657500   13.925410   -3.887550
  C      3.369420   15.221990   -4.408610
  C      4.190160   15.787880   -5.409900
  C      2.246900   15.917370   -3.914070
  C      1.438610   15.356360   -2.962830
  C      1.718420   14.077920   -2.456900
  C      2.807690   13.380790   -2.904150
  H     -3.853910    6.374200   -7.669200
  H     -6.468620    2.873540   -5.266580
  H     -7.343050    2.077530   -7.375590
  H     -7.478140    2.226170   -9.829960
  H     -6.191970    3.940070  -11.044300
  H     -4.760120    5.522060   -9.813120
  H     -4.012740    6.051120   -1.401950
  H     -3.561280    8.676440   -0.593870
  H      2.884260   10.467670   -4.126330
  H      1.489740    5.713690   -4.940460
  H      4.604060    3.542680   -7.669080
  H      2.974040    4.229700   -7.448450
  H      4.004930    3.918080   -6.031040
  H      6.590760    6.117640   -8.315730
  H     10.071890   12.728850   -9.672470
  H      7.954050   14.607060   -9.026970
  H      5.014340   12.236890   -3.998690
  H      3.943640   16.768240   -5.786880
  H      2.035640   16.901380   -4.306570
  H      0.577770   15.895300   -2.596330
  H      1.068180   13.642330   -1.714160
  H      3.020130   12.398860   -2.509820

 Total Charge           Charge          ....    0
 Multiplicity           Mult            ....    1
 Number of Electrons    NEL             ....  500
 Basis Dimension        Dim             .... 1130

ORBITAL ENERGIES
----------------

  NO   OCC          E(Eh)            E(eV)
   0   2.0000     -88.972028     -2421.0520
   1   2.0000     -88.927188     -2419.8318
   2   2.0000     -88.913193     -2419.4510
   3   2.0000     -19.271139      -524.3944
   4   2.0000     -19.252492      -523.8869
   5   2.0000     -19.227885      -523.2174
   6   2.0000     -19.213808      -522.8343
   7   2.0000     -14.440305      -392.9407
   8   2.0000     -14.428284      -392.6136
   9   2.0000     -14.428103      -392.6086
  10   2.0000     -14.426591      -392.5675
  11   2.0000     -14.423566      -392.4852
  12   2.0000     -14.419228      -392.3672
  13   2.0000     -14.418320      -392.3424
  14   2.0000     -14.416286      -392.2871
  15   2.0000     -10.378531      -282.4142
  16   2.0000     -10.368932      -282.1530
  17   2.0000     -10.367267      -282.1077
  18   2.0000     -10.365922      -282.0711
  19   2.0000     -10.363018      -281.9921
  20   2.0000     -10.357163      -281.8327
  21   2.0000     -10.356603      -281.8175
  22   2.0000     -10.352667      -281.7104
  23   2.0000     -10.352631      -281.7094
  24   2.0000     -10.351677      -281.6835
  25   2.0000     -10.345419      -281.5132
  26   2.0000     -10.344947      -281.5003
  27   2.0000     -10.343462      -281.4599
  28   2.0000     -10.341870      -281.4166
  29   2.0000     -10.341517      -281.4070
  30   2.0000     -10.341123      -281.3963
  31   2.0000     -10.338832      -281.3339
  32   2.0000     -10.337140      -281.2879
  33   2.0000     -10.335920      -281.2547
  34   2.0000     -10.332135      -281.1517
  35   2.0000     -10.330674      -281.1119
  36   2.0000     -10.330281      -281.1012
  37   2.0000     -10.328632      -281.0564
  38   2.0000     -10.328306      -281.0475
  39   2.0000     -10.325120      -280.9608
  40   2.0000     -10.323236      -280.9095
  41   2.0000     -10.320847      -280.8445
  42   2.0000     -10.320529      -280.8359
  43   2.0000     -10.318719      -280.7866
  44   2.0000     -10.318399      -280.7779
  45   2.0000     -10.318245      -280.7737
  46   2.0000     -10.318123      -280.7704
  47   2.0000     -10.313411      -280.6422
  48   2.0000     -10.312992      -280.6308
  49   2.0000     -10.310201      -280.5548
  50   2.0000     -10.307405      -280.4788
  51   2.0000     -10.307225      -280.4739
  52   2.0000     -10.307012      -280.4681
  53   2.0000     -10.306923      -280.4656
  54   2.0000     -10.306599      -280.4568
  55   2.0000     -10.306451      -280.4528
  56   2.0000     -10.304018      -280.3866
  57   2.0000     -10.303654      -280.3767
  58   2.0000     -10.298695      -280.2417
  59   2.0000     -10.297543      -280.2104
  60   2.0000     -10.297482      -280.2087
  61   2.0000     -10.297015      -280.1960
  62   2.0000     -10.296900      -280.1929
  63   2.0000     -10.295344      -280.1506
  64   2.0000     -10.294829      -280.1365
  65   2.0000     -10.294592      -280.1301
  66   2.0000     -10.294110      -280.1170
  67   2.0000     -10.290918      -280.0301
  68   2.0000     -10.284097      -279.8445
  69   2.0000     -10.283401      -279.8256
  70   2.0000     -10.282718      -279.8070
  71   2.0000     -10.282214      -279.7933
  72   2.0000      -8.066717      -219.5065
  73   2.0000      -8.023340      -218.3262
  74   2.0000      -8.008524      -217.9230
  75   2.0000      -6.036290      -164.2558
  76   2.0000      -6.032187      -164.1442
  77   2.0000      -6.028053      -164.0317
  78   2.0000      -5.991945      -163.0491
  79   2.0000      -5.990817      -163.0184
  80   2.0000      -5.983711      -162.8250
  81   2.0000      -5.977239      -162.6489
  82   2.0000      -5.976706      -162.6345
  83   2.0000      -5.968201      -162.4030
  84   2.0000      -1.179371       -32.0923
  85   2.0000      -1.150280       -31.3007
  86   2.0000      -1.143254       -31.1095
  87   2.0000      -1.131050       -30.7774
  88   2.0000      -1.103296       -30.0222
  89   2.0000      -1.090740       -29.6805
  90   2.0000      -1.082149       -29.4468
  91   2.0000      -1.070856       -29.1395
  92   2.0000      -1.029932       -28.0259
  93   2.0000      -1.019552       -27.7434
  94   2.0000      -1.009346       -27.4657
  95   2.0000      -1.005401       -27.3583
  96   2.0000      -1.001737       -27.2587
  97   2.0000      -0.999362       -27.1940
  98   2.0000      -0.995517       -27.0894
  99   2.0000      -0.983142       -26.7527
 100   2.0000      -0.981628       -26.7115
 101   2.0000      -0.973478       -26.4897
 102   2.0000      -0.970671       -26.4133
 103   2.0000      -0.938955       -25.5503
 104   2.0000      -0.928063       -25.2539
 105   2.0000      -0.925659       -25.1885
 106   2.0000      -0.922111       -25.0919
 107   2.0000      -0.915933       -24.9238
 108   2.0000      -0.897383       -24.4190
 109   2.0000      -0.890966       -24.2444
 110   2.0000      -0.890457       -24.2306
 111   2.0000      -0.885981       -24.1088
 112   2.0000      -0.880534       -23.9605
 113   2.0000      -0.876434       -23.8490
 114   2.0000      -0.864986       -23.5375
 115   2.0000      -0.857031       -23.3210
 116   2.0000      -0.852181       -23.1890
 117   2.0000      -0.841022       -22.8854
 118   2.0000      -0.837956       -22.8019
 119   2.0000      -0.827517       -22.5179
 120   2.0000      -0.822502       -22.3814
 121   2.0000      -0.812287       -22.1035
 122   2.0000      -0.798042       -21.7158
 123   2.0000      -0.797315       -21.6960
 124   2.0000      -0.780985       -21.2517
 125   2.0000      -0.775871       -21.1125
 126   2.0000      -0.772617       -21.0240
 127   2.0000      -0.761939       -20.7334
 128   2.0000      -0.758725       -20.6460
 129   2.0000      -0.746599       -20.3160
 130   2.0000      -0.729312       -19.8456
 131   2.0000      -0.721327       -19.6283
 132   2.0000      -0.718993       -19.5648
 133   2.0000      -0.713924       -19.4269
 134   2.0000      -0.712877       -19.3984
 135   2.0000      -0.706896       -19.2356
 136   2.0000      -0.704654       -19.1746
 137   2.0000      -0.701451       -19.0875
 138   2.0000      -0.693351       -18.8670
 139   2.0000      -0.687893       -18.7185
 140   2.0000      -0.687683       -18.7128
 141   2.0000      -0.678653       -18.4671
 142   2.0000      -0.676879       -18.4188
 143   2.0000      -0.660807       -17.9815
 144   2.0000      -0.656926       -17.8759
 145   2.0000      -0.646502       -17.5922
 146   2.0000      -0.639509       -17.4019
 147   2.0000      -0.638574       -17.3765
 148   2.0000      -0.629641       -17.1334
 149   2.0000      -0.623759       -16.9733
 150   2.0000      -0.616285       -16.7700
 151   2.0000      -0.613441       -16.6926
 152   2.0000      -0.612230       -16.6596
 153   2.0000      -0.606778       -16.5113
 154   2.0000      -0.606179       -16.4950
 155   2.0000      -0.600319       -16.3355
 156   2.0000      -0.590450       -16.0670
 157   2.0000      -0.584708       -15.9107
 158   2.0000      -0.581053       -15.8113
 159   2.0000      -0.578249       -15.7349
 160   2.0000      -0.576613       -15.6904
 161   2.0000      -0.569765       -15.5041
 162   2.0000      -0.566430       -15.4134
 163   2.0000      -0.563399       -15.3309
 164   2.0000      -0.556027       -15.1303
 165   2.0000      -0.555866       -15.1259
 166   2.0000      -0.554153       -15.0793
 167   2.0000      -0.550409       -14.9774
 168   2.0000      -0.548165       -14.9163
 169   2.0000      -0.547569       -14.9001
 170   2.0000      -0.546814       -14.8796
 171   2.0000      -0.545394       -14.8409
 172   2.0000      -0.537976       -14.6391
 173   2.0000      -0.533765       -14.5245
 174   2.0000      -0.532268       -14.4838
 175   2.0000      -0.530394       -14.4328
 176   2.0000      -0.526779       -14.3344
 177   2.0000      -0.523815       -14.2537
 178   2.0000      -0.520899       -14.1744
 179   2.0000      -0.519282       -14.1304
 180   2.0000      -0.518597       -14.1117
 181   2.0000      -0.516162       -14.0455
 182   2.0000      -0.512853       -13.9554
 183   2.0000      -0.511807       -13.9270
 184   2.0000      -0.509938       -13.8761
 185   2.0000      -0.507996       -13.8233
 186   2.0000      -0.507177       -13.8010
 187   2.0000      -0.505565       -13.7571
 188   2.0000      -0.502332       -13.6692
 189   2.0000      -0.500111       -13.6087
 190   2.0000      -0.498506       -13.5650
 191   2.0000      -0.496751       -13.5173
 192   2.0000      -0.495679       -13.4881
 193   2.0000      -0.493356       -13.4249
 194   2.0000      -0.489783       -13.3277
 195   2.0000      -0.485972       -13.2240
 196   2.0000      -0.482406       -13.1269
 197   2.0000      -0.475698       -12.9444
 198   2.0000      -0.474710       -12.9175
 199   2.0000      -0.464440       -12.6381
 200   2.0000      -0.463255       -12.6058
 201   2.0000      -0.460102       -12.5200
 202   2.0000      -0.458644       -12.4803
 203   2.0000      -0.455190       -12.3864
 204   2.0000      -0.453045       -12.3280
 205   2.0000      -0.452089       -12.3020
 206   2.0000      -0.450392       -12.2558
 207   2.0000      -0.447882       -12.1875
 208   2.0000      -0.445645       -12.1266
 209   2.0000      -0.444795       -12.1035
 210   2.0000      -0.443903       -12.0792
 211   2.0000      -0.439687       -11.9645
 212   2.0000      -0.439311       -11.9543
 213   2.0000      -0.436350       -11.8737
 214   2.0000      -0.435835       -11.8597
 215   2.0000      -0.433320       -11.7912
 216   2.0000      -0.430313       -11.7094
 217   2.0000      -0.429506       -11.6874
 218   2.0000      -0.426736       -11.6121
 219   2.0000      -0.420975       -11.4553
 220   2.0000      -0.420504       -11.4425
 221   2.0000      -0.420091       -11.4313
 222   2.0000      -0.417221       -11.3532
 223   2.0000      -0.410890       -11.1809
 224   2.0000      -0.410011       -11.1570
 225   2.0000      -0.405508       -11.0344
 226   2.0000      -0.390248       -10.6192
 227   2.0000      -0.389185       -10.5903
 228   2.0000      -0.381259       -10.3746
 229   2.0000      -0.378983       -10.3127
 230   2.0000      -0.375896       -10.2286
 231   2.0000      -0.367677       -10.0050
 232   2.0000      -0.365610        -9.9487
 233   2.0000      -0.361350        -9.8328
 234   2.0000      -0.356082        -9.6895
 235   2.0000      -0.350661        -9.5420
 236   2.0000      -0.342554        -9.3214
 237   2.0000      -0.337077        -9.1723
 238   2.0000      -0.335504        -9.1295
 239   2.0000      -0.326531        -8.8854
 240   2.0000      -0.325861        -8.8671
 241   2.0000      -0.323321        -8.7980
 242   2.0000      -0.318654        -8.6710
 243   2.0000      -0.315542        -8.5863
 244   2.0000      -0.304318        -8.2809
 245   2.0000      -0.301644        -8.2081
 246   2.0000      -0.299192        -8.1414
 247   2.0000      -0.292353        -7.9553
 248   2.0000      -0.284506        -7.7418
 249   2.0000      -0.269498        -7.3334
 250   0.0000      -0.133429        -3.6308
 251   0.0000      -0.122318        -3.3284
 252   0.0000      -0.111289        -3.0283
 253   0.0000      -0.094169        -2.5625
 254   0.0000      -0.082852        -2.2545

MULLIKEN ATOMIC CHARGES
-----------------------
   0 C :    0.306076
   1 C :   -0.337319
   2 C :   -0.180107
   3 N :    0.155302
   4 C :   -0.191768
   5 N :    0.162020
   6 C :    0.057168
   7 C :   -0.017709
   8 C :   -0.074514
   9 C :    0.098749
  10 C :    0.095352
  11 C :   -0.083629
  12 C :   -0.018767
  13 C :    0.037521
  14 C :    0.035745
  15 C :   -0.015219
  16 C :    0.155443
  17 O :   -0.137170
  18 C :   -0.050824
  19 C :   -0.053235
  20 C :   -0.007883
  21 C :    0.064381
  22 N :   -0.026167
  23 C :    0.004308
  24 C :    0.035453
  25 C :    0.019365
  26 S :   -0.130667
  27 C :   -0.062799
  28 C :    0.010968
  29 N :   -0.018806
  30 C :    0.051669
  31 C :    0.044192
  32 C :   -0.160946
  33 S :    0.150971
  34 C :   -0.142585
  35 C :    0.155358
  36 C :    0.117900
  37 O :   -0.197265
  38 O :   -0.314280
  39 C :    0.195978
  40 C :    0.023452
  41 C :    0.071877
  42 N :   -0.016313
  43 C :    0.016216
  44 C :   -0.040498
  45 C :   -0.003139
  46 S :   -0.111871
  47 C :    0.032651
  48 C :    0.006993
  49 N :   -0.030687
  50 C :    0.073235
  51 C :   -0.006239
  52 C :   -0.032073
  53 C :   -0.042661
  54 C :    0.298888
  55 C :   -0.338687
  56 C :   -0.182540
  57 N :    0.153888
  58 C :   -0.184067
  59 N :    0.151202
  60 C :    0.053772
  61 C :    0.037810
  62 C :    0.090488
  63 O :   -0.142270
  64 C :   -0.086242
  65 C :    0.101955
  66 C :    0.094510
  67 C :   -0.083629
  68 C :   -0.017908
  69 C :    0.036726
  70 C :    0.038242
  71 C :   -0.020555
  72 H :   -0.011463
  73 H :   -0.006012
  74 H :   -0.006647
  75 H :   -0.001522
  76 H :   -0.000188
  77 H :   -0.015059
  78 H :    0.033036
  79 H :    0.013445
  80 H :    0.021505
  81 H :    0.178433
  82 H :    0.033894
  83 H :    0.027885
  84 H :    0.042895
  85 H :    0.021206
  86 H :    0.015191
  87 H :    0.028226
  88 H :   -0.016345
  89 H :   -0.006983
  90 H :   -0.010818
  91 H :   -0.004110
  92 H :    0.004112
  93 H :   -0.015469
Sum of atomic charges:   -0.0000000

LOEWDIN ATOMIC CHARGES
----------------------
   0 C :    0.073990
   1 C :   -0.127165
   2 C :   -0.016764
   3 N :   -0.044475
   4 C :   -0.021528
   5 N :   -0.043374
   6 C :   -0.026397
   7 C :   -0.055786
   8 C :    0.035375
   9 C :   -0.007078
  10 C :   -0.005026
  11 C :    0.021562
  12 C :   -0.004465
  13 C :   -0.010541
  14 C :   -0.009651
  15 C :   -0.008600
  16 C :    0.079115
  17 O :   -0.133536
  18 C :   -0.061642
  19 C :    0.058246
  20 C :   -0.045897
  21 C :    0.085591
  22 N :   -0.076383
  23 C :    0.024269
  24 C :    0.000830
  25 C :   -0.115166
  26 S :    0.125157
  27 C :   -0.072404
  28 C :    0.056549
  29 N :   -0.067578
  30 C :    0.089554
  31 C :   -0.033784
  32 C :   -0.217923
  33 S :    0.470123
  34 C :   -0.186547
  35 C :    0.013235
  36 C :    0.016231
  37 O :   -0.047289
  38 O :   -0.091476
  39 C :    0.084615
  40 C :   -0.043397
  41 C :    0.101227
  42 N :   -0.074370
  43 C :    0.051374
  44 C :   -0.046519
  45 C :   -0.135283
  46 S :    0.093793
  47 C :   -0.001934
  48 C :    0.036456
  49 N :   -0.079580
  50 C :    0.093441
  51 C :   -0.046690
  52 C :    0.049732
  53 C :   -0.054762
  54 C :    0.078777
  55 C :   -0.133793
  56 C :   -0.018191
  57 N :   -0.048914
  58 C :   -0.018742
  59 N :   -0.049596
  60 C :   -0.024923
  61 C :   -0.053580
  62 C :    0.067053
  63 O :   -0.142925
  64 C :    0.021300
  65 C :   -0.008026
  66 C :   -0.006390
  67 C :    0.021437
  68 C :   -0.006410
  69 C :   -0.011985
  70 C :   -0.002842
  71 C :   -0.009231
  72 H :    0.039831
  73 H :    0.039618
  74 H :    0.035607
  75 H :    0.034552
  76 H :    0.034462
  77 H :    0.032798
  78 H :    0.049187
  79 H :    0.028540
  80 H :    0.018138
  81 H :    0.007313
  82 H :    0.025448
  83 H :    0.020071
  84 H :    0.022493
  85 H :    0.027142
  86 H :    0.029638
  87 H :    0.047041
  88 H :    0.033710
  89 H :    0.039069
  90 H :    0.034088
  91 H :    0.033480
  92 H :    0.037179
  93 H :    0.030123

  Mayer bond orders larger than 0.100000
B(  0-C ,  1-C ) :   1.6553 B(  0-C ,  6-C ) :   0.9994 B(  0-C , 18-C ) :   1.0420
B(  1-C ,  2-C ) :   1.1424 B(  1-C ,  4-C ) :   1.1396 B(  2-C ,  3-N ) :   2.9658
B(  4-C ,  5-N ) :   2.9784 B(  6-C ,  7-C ) :   1.2110 B(  6-C , 11-C ) :   1.4400
B(  7-C ,  8-C ) :   1.4722 B(  7-C , 16-C ) :   0.9471 B(  8-C ,  9-C ) :   1.1826
B(  8-C , 72-H ) :   1.0157 B(  9-C , 10-C ) :   1.2525 B(  9-C , 15-C ) :   1.2430
B( 10-C , 11-C ) :   1.2130 B( 10-C , 12-C ) :   1.2378 B( 11-C , 73-H ) :   0.9892
B( 12-C , 13-C ) :   1.4931 B( 12-C , 74-H ) :   0.9972 B( 13-C , 14-C ) :   1.2582
B( 13-C , 75-H ) :   0.9883 B( 14-C , 15-C ) :   1.4911 B( 14-C , 76-H ) :   0.9881
B( 15-C , 77-H ) :   0.9976 B( 16-C , 17-O ) :   2.2308 B( 16-C , 18-C ) :   0.9184
B( 18-C , 19-C ) :   1.6995 B( 19-C , 20-C ) :   1.0727 B( 19-C , 78-H ) :   0.9322
B( 20-C , 21-C ) :   1.0265 B( 20-C , 24-C ) :   1.5399 B( 21-C , 22-N ) :   1.7189
B( 21-C , 79-H ) :   0.9945 B( 22-N , 23-C ) :   1.2725 B( 23-C , 24-C ) :   1.0779
B( 23-C , 28-C ) :   1.5196 B( 24-C , 25-C ) :   1.0390 B( 25-C , 26-S ) :   1.6327
B( 25-C , 27-C ) :   1.0735 B( 26-S , 81-H ) :   0.2028 B( 27-C , 28-C ) :   1.0637
B( 27-C , 31-C ) :   1.4905 B( 28-C , 29-N ) :   1.2648 B( 29-N , 30-C ) :   1.7210
B( 30-C , 31-C ) :   1.0243 B( 30-C , 80-H ) :   0.9716 B( 31-C , 32-C ) :   1.1548
B( 32-C , 33-S ) :   1.0696 B( 32-C , 34-C ) :   0.1198 B( 32-C , 36-C ) :   1.3715
B( 33-S , 34-C ) :   1.1184 B( 34-C , 35-C ) :   1.4441 B( 34-C , 40-C ) :   1.1539
B( 35-C , 36-C ) :   1.2072 B( 35-C , 38-O ) :   1.1925 B( 36-C , 37-O ) :   1.3241
B( 37-O , 81-H ) :   0.8505 B( 38-O , 39-C ) :   0.9157 B( 39-C , 82-H ) :   0.9771
B( 39-C , 83-H ) :   0.9763 B( 39-C , 84-H ) :   0.9749 B( 40-C , 41-C ) :   1.0283
B( 40-C , 44-C ) :   1.4932 B( 41-C , 42-N ) :   1.7206 B( 41-C , 85-H ) :   0.9838
B( 42-N , 43-C ) :   1.2639 B( 43-C , 44-C ) :   1.0704 B( 43-C , 48-C ) :   1.5191
B( 44-C , 45-C ) :   1.0502 B( 45-C , 46-S ) :   1.6565 B( 45-C , 47-C ) :   1.0292
B( 47-C , 48-C ) :   1.0755 B( 47-C , 51-C ) :   1.5557 B( 48-C , 49-N ) :   1.2670
B( 49-N , 50-C ) :   1.7170 B( 50-C , 51-C ) :   1.0231 B( 50-C , 86-H ) :   0.9942
B( 51-C , 52-C ) :   1.0579 B( 52-C , 53-C ) :   1.7179 B( 52-C , 87-H ) :   0.9345
B( 53-C , 54-C ) :   1.0465 B( 53-C , 62-C ) :   0.8947 B( 54-C , 55-C ) :   1.6533
B( 54-C , 60-C ) :   1.0033 B( 55-C , 56-C ) :   1.1376 B( 55-C , 58-C ) :   1.1386
B( 56-C , 57-N ) :   2.9753 B( 58-C , 59-N ) :   2.9805 B( 60-C , 61-C ) :   1.2097
B( 60-C , 67-C ) :   1.4432 B( 61-C , 62-C ) :   0.9194 B( 61-C , 64-C ) :   1.4624
B( 62-C , 63-O ) :   2.2479 B( 64-C , 65-C ) :   1.1873 B( 64-C , 88-H ) :   1.0098
B( 65-C , 66-C ) :   1.2490 B( 65-C , 71-C ) :   1.2280 B( 66-C , 67-C ) :   1.2151
B( 66-C , 68-C ) :   1.2404 B( 67-C , 89-H ) :   0.9900 B( 68-C , 69-C ) :   1.4885
B( 68-C , 90-H ) :   0.9968 B( 69-C , 70-C ) :   1.2517 B( 69-C , 91-H ) :   0.9898
B( 70-C , 71-C ) :   1.5043 B( 70-C , 92-H ) :   0.9895 B( 71-C , 93-H ) :   0.9936

-----------------------------------------------------------------------------
         ABSORPTION SPECTRUM VIA TRANSITION ELECTRIC DIPOLE MOMENTS
-----------------------------------------------------------------------------
State   Energy  Wavelength   fosc         T2         TX        TY        TZ
        (cm-1)    (nm)                  (au**2)     (au)      (au)      (au)
-----------------------------------------------------------------------------
   0   13116.2    762.4   0.234680277   5.89038   2.02073   0.83783  -1.05123
   1   14331.3    697.8   0.057363357   1.31772  -0.62344  -0.88244   0.38773
   2   15354.5    651.3   0.089294111   1.91453  -1.10937  -0.62721   0.53893
   3   15683.2    637.6   0.041523515   0.87164   0.54344   0.73745  -0.18019
   4   17596.5    568.3   0.501688360   9.38604   2.39868   1.38024  -1.31427
   5   17611.3    567.8   0.003774868   0.07056   0.20622   0.05113  -0.15944
   6   19262.2    519.2   0.009932132   0.16975  -0.34217   0.22943  -0.00572
   7   19589.9    510.5   0.016377132   0.27522   0.29792  -0.29949  -0.31108
   8   20098.2    497.6   0.028656430   0.46940   0.30706   0.60964   0.05871
   9   20447.1    489.1   0.040478854   0.65174  -0.75687  -0.26925   0.07997
  10   20871.7    479.1   0.012146773   0.19159  -0.28516  -0.28331   0.17324
  11   21590.5    463.2   0.007815735   0.11917  -0.16783   0.18912   0.23503
  12   21758.3    459.6   0.018727092   0.28335  -0.05386   0.52030   0.09869
  13   22172.9    451.0   0.027391403   0.40669  -0.01304   0.63742  -0.01477
  14   22638.6    441.7   0.014520952   0.21116  -0.44665  -0.03848  -0.10092
  15   22670.4    441.1   0.116624932   1.69359   0.44367   1.22031   0.08708
  16   22857.3    437.5   0.056110290   0.80815  -0.54344  -0.59721   0.39519
  17   22965.7    435.4   0.026236853   0.37610  -0.21650   0.51072   0.26153
  18   23128.8    432.4   0.002417529   0.03441  -0.17936   0.04206  -0.02176
  19   24003.8    416.6   0.100410955   1.37713  -0.71378  -0.88179   0.30015
  20   24081.3    415.3   0.035372407   0.48357  -0.57338   0.21545   0.32922
  21   24382.3    410.1   0.009787914   0.13216   0.11599   0.34271  -0.03540
  22   25194.7    396.9   0.044380456   0.57991  -0.43975  -0.45021  -0.42876
  23   25403.2    393.7   0.005490846   0.07116  -0.03375   0.24525   0.09936
  24   25767.9    388.1   0.017920777   0.22896  -0.00735   0.45856   0.13649
  25   25901.4    386.1   0.032804543   0.41695   0.53554   0.35701  -0.05189
  26   26092.3    383.3   0.134740940   1.70006  -0.59795  -1.14268   0.19184
  27   26339.8    379.7   0.002920015   0.03650  -0.15587   0.03694   0.10410
  28   26481.7    377.6   0.023111035   0.28731  -0.08529   0.07042  -0.52448
  29   26710.3    374.4   0.052872854   0.65167  -0.61880  -0.51102  -0.08724
  30   26859.0    372.3   0.018714651   0.22939   0.47567   0.00169  -0.05589
  31   27263.4    366.8   0.037229701   0.44956  -0.45014   0.35539   0.34731
  32   27458.4    364.2   0.009815998   0.11769  -0.23915  -0.15910   0.18758
  33   27731.8    360.6   0.043506438   0.51648  -0.41994   0.45111   0.36963
  34   27976.3    357.4   0.029292862   0.34470  -0.00610  -0.41319  -0.41706
  35   28035.3    356.7   0.008681100   0.10194   0.22795   0.21107   0.07367
  36   28091.9    356.0   0.070196143   0.82264  -0.18499   0.69566   0.55179
  37   28181.8    354.8   0.056470991   0.65968   0.80607   0.09546  -0.02869
  38   28529.7    350.5   0.194001750   2.23864  -1.26227  -0.69536  -0.40222
  39   29015.3    344.6   0.199311028   2.26141  -1.39032  -0.36358   0.44300
  40   29250.4    341.9   0.003128164   0.03521  -0.12880   0.11467   0.07394
  41   29750.5    336.1   0.075601977   0.83659  -0.75368   0.09982   0.50852
  42   30086.4    332.4   0.118976200   1.30186  -1.10895   0.24677   0.10583
  43   30295.6    330.1   0.116148410   1.26215   0.21924  -0.77892   0.77933
  44   30539.1    327.4   0.329859308   3.55589  -0.10971   1.39351   1.26569
  45   30674.9    326.0   0.038517114   0.41338  -0.21637   0.25952  -0.54700
  46   30748.5    325.2   0.341778207   3.65929   1.68147  -0.54046  -0.73475
  47   30804.9    324.6   0.135884171   1.45219  -0.04046   0.14390   1.19576
  48   31199.5    320.5   0.025857997   0.27285  -0.17617  -0.49069   0.03226
  49   31341.2    319.1   0.077792890   0.81715  -0.22066   0.79238   0.37496
  50   31507.4    317.4   0.032117127   0.33558  -0.03696   0.30581  -0.49061
  51   31586.5    316.6   0.008599983   0.08963   0.28008   0.09842  -0.03875
  52   31695.5    315.5   0.049595248   0.51513   0.13557  -0.26089   0.65474
  53   31964.1    312.9   0.086557279   0.89149   0.13105  -0.11212   0.92830
  54   32109.3    311.4   0.000421809   0.00432   0.03800  -0.02671  -0.04656
  55   32364.5    309.0   0.009921534   0.10092  -0.12243   0.20546   0.20909
  56   33057.9    302.5   0.003440438   0.03426  -0.04173  -0.15014  -0.09989
  57   33091.3    302.2   0.006676275   0.06642   0.01010  -0.07563  -0.24617
  58   33192.7    301.3   0.035542844   0.35252  -0.04507   0.53703   0.24918
  59   33360.9    299.8   0.044317518   0.43733  -0.19020  -0.62844   0.07886
  60   33380.6    299.6   0.088285304   0.87070  -0.29369  -0.87732   0.12148
  61   33420.7    299.2   0.028732041   0.28303  -0.07956  -0.08257  -0.51950
  62   33544.9    298.1   0.056332269   0.55285  -0.03064   0.54631   0.50344
  63   33734.4    296.4   0.062572211   0.61064  -0.03244  -0.78074   0.00535
  64   33773.4    296.1   0.030942548   0.30162  -0.34654   0.20442   0.37382
  65   33928.1    294.7   0.004033362   0.03914   0.15568  -0.05622  -0.10836
  66   34093.4    293.3   0.078908829   0.76196  -0.17198  -0.55984  -0.64727
  67   34277.4    291.7   0.047186784   0.45320  -0.25268   0.51524   0.35197
  68   34550.3    289.4   0.027231057   0.25947  -0.34164   0.31553   0.20784
  69   34590.2    289.1   0.018953642   0.18039   0.27550   0.05727   0.31814
  70   34751.2    287.8   0.006960622   0.06594  -0.09519  -0.09128  -0.22034
  71   34983.6    285.8   0.029226106   0.27503   0.15635  -0.50019  -0.01992
  72   35328.7    283.1   0.041850836   0.38999   0.46918  -0.35286   0.21295
  73   35341.0    283.0   0.141530289   1.31840  -0.41022  -0.14224   1.06296
  74   35480.5    281.8   0.064176420   0.59547   0.01274  -0.11640  -0.76273
  75   35795.9    279.4   0.010899311   0.10024   0.20011  -0.10213  -0.22309
  76   35819.5    279.2   0.090096926   0.82807   0.32171   0.43932  -0.72909
  77   35991.2    277.8   0.038583068   0.35292   0.20628   0.07930  -0.55143
  78   36036.0    277.5   0.017564120   0.16046   0.04243   0.39831   0.00318
  79   36215.7    276.1   0.028686802   0.26077  -0.21274   0.29302  -0.36007
  80   36288.6    275.6   0.067371975   0.61120   0.06899  -0.58946   0.50890
  81   36451.3    274.3   0.130264205   1.17649  -0.55467  -0.92154   0.13998
  82   36548.5    273.6   0.418994200   3.77410   0.75338   0.57269  -1.69663
  83   36746.2    272.1   0.002126363   0.01905  -0.08413   0.10414   0.03358
  84   36856.8    271.3   0.239735668   2.14136   0.22929   1.00240  -1.04115
  85   37028.8    270.1   0.039997216   0.35560   0.01556   0.20458  -0.55992
  86   37539.0    266.4   0.041050463   0.36001   0.48236   0.35633  -0.01896
  87   37763.7    264.8   0.002121462   0.01849  -0.11450  -0.07126   0.01751
  88   37826.1    264.4   0.057292289   0.49863   0.36242  -0.18962  -0.57561
  89   38083.1    262.6   0.042279215   0.36549  -0.51891  -0.12406   0.28431
  90   38144.3    262.2   0.105321102   0.90900   0.08974  -0.21280  -0.92502
  91   38285.8    261.2   0.133240016   1.14570   0.58607   0.15764  -0.88169
  92   38422.3    260.3   0.038984792   0.33403  -0.23152  -0.38907  -0.35924
  93   38481.1    259.9   0.040551746   0.34693  -0.50264  -0.27071  -0.14491
  94   38890.6    257.1   0.014133519   0.11964   0.22656  -0.13278  -0.22513
  95   39090.8    255.8   0.031710303   0.26706  -0.32407  -0.37833   0.13747
  96   39210.0    255.0   0.244931353   2.05648   1.22476   0.31791  -0.67481
  97   39307.6    254.4   0.112117782   0.93902   0.49551   0.80312   0.22019
  98   39601.1    252.5   0.155824576   1.29540  -0.68020  -0.50255   0.76169
  99   39620.2    252.4   0.095294183   0.79182   0.14442  -0.36746  -0.79746
 100   39676.8    252.0   0.033844921   0.28082  -0.18230   0.04556   0.49549
 101   39903.5    250.6   0.062097798   0.51232  -0.61399  -0.09766   0.35468
 102   40045.4    249.7   0.067141148   0.55197  -0.22197  -0.70877  -0.01845

FINAL SINGLE POINT ENERGY     -4114.490984275994

DIPOLE MOMENT
-------------
                                X             Y             Z
Electronic contribution:     19.49968      11.95265       4.33236
Nuclear contribution   :    -22.03662     -14.17642      -5.23621
                        -----------------------------------------
Total Dipole Moment    :     -2.53694      -2.22377      -0.90386
                        -----------------------------------------
Magnitude (a.u.)       :      3.49259
Magnitude (Debye)      :      8.87745

Rotational constants in cm-1:     0.001593     0.000427     0.000383
Rotational constants in MHz :    47.765586    12.792930    11.475616

                             ****ORCA TERMINATED NORMALLY****
TOTAL RUN TIME: 0 days 0 hours 15 minutes 11 seconds 984 msec
