                         Program Version 4.2.0 -  RELEASE  -
|  1> # ORCA input file
|  2> # SCF done       -170.643636374676          0.000486675470
|  3> ! CAM-B3LYP def2-SVP def2/J RIJCOSX Grid4 TightSCF
|  4> %maxcore 5000
|  5> %tddft
|  6>     Mode sTDDFT
|  7>     Ethresh 5.0
|  8>     maxcore 5000
|  9> end
| 10>
| 11> %pal
| 12>   nprocs 6
| 13>   end
| 14> * xyz 0 1
| 15>    C       -2.35605        -0.29926         3.60712
| 16>    C       -1.63844        -0.96709         4.56070
| 17>    F       -1.12868        -0.29092         5.60003
| 18>    C       -1.38826        -2.35506         4.50281
| 19>    F       -0.60506        -2.87373         5.46459
| 20>    C       -1.86980        -3.15978         3.48402
| 21>    C       -2.58686        -2.47675         2.46325
| 22>    C       -2.83546        -1.06071         2.53082
| 23>    N       -3.53183        -0.62930         1.47959
| 24>    S       -3.84029        -1.87306         0.51412
| 25>    N       -3.11246        -3.02390         1.37101
| 26>    C       -1.64368        -4.57658         3.37901
| 27>    S       -1.42082        -5.25901         1.80936
| 28>    C       -1.12786        -6.84322         2.43373
| 29>    C       -1.25767        -6.85060         3.83000
| 30>    C       -1.56409        -5.55902         4.36978
| 31>    C       -1.82753        -5.42831         5.75040
| 32>    C       -1.72614        -6.52804         6.54942
| 33>    F       -1.98545        -6.42778         7.86137
| 34>    C       -1.37154        -7.79227         6.02261
| 35>    F       -1.28076        -8.84226         6.85471
| 36>    C       -1.14934        -7.96234         4.68842
| 37>    C       -0.81120        -7.94711         1.59785
| 38>    C       -0.77137        -7.88352         0.24791
| 39>    C       -0.44693        -8.92856        -0.67989
| 40>    C       -0.45363       -10.26251        -0.50936
| 41>    C       -0.89387       -10.98154         0.72535
| 42>    C       -0.04049       -11.16014        -1.65423
| 43>    N       -1.13659       -11.98746        -2.10050
| 44>    C       -1.28418       -13.28148        -1.76406
| 45>    C       -2.42896       -14.00460        -1.92333
| 46>    C       -2.49177       -15.37279        -1.61337
| 47>    C       -3.60334       -16.17316        -1.71263
| 48>    C       -4.92028       -15.85524        -2.11904
| 49>    C       -5.78402       -16.90887        -2.08392
| 50>    C       -5.19732       -18.11961        -1.65319
| 51>    S       -3.51261       -17.88098        -1.28860
| 52>    C       -5.81103       -19.35675        -1.51912
| 53>    C       -7.15890       -19.68419        -1.75454
| 54>    C       -7.45073       -21.00074        -1.52945
| 55>    C       -6.34737       -21.77271        -1.11195
| 56>    S       -4.91903       -20.77258        -1.00304
| 57>    C       -6.35177       -23.12913        -0.82698
| 58>    C       -5.21894       -23.82909        -0.44388
| 59>    C       -5.18165       -25.18495        -0.15858
| 60>    C       -4.02685       -25.94885         0.22319
| 61>    C       -2.73317       -25.49687         0.37219
| 62>    C       -1.64989       -26.31231         0.74888
| 63>    N       -0.72255       -26.92107         1.05084
| 64>    C       -2.29366       -24.17434         0.17340
| 65>    N       -1.84010       -23.12732         0.03022
| 66>    C       -4.45542       -27.33320         0.42875
| 67>    C       -5.84507       -27.41666         0.17506
| 68>    C       -6.34996       -26.07725        -0.20310
| 69>    O       -7.50259       -25.80478        -0.48632
| 70>    C       -6.54985       -28.58903         0.28101
| 71>    C       -5.84820       -29.74077         0.65629
| 72>    C       -4.46117       -29.64830         0.90744
| 73>    C       -3.74776       -28.45937         0.80036
| 74>    S       -3.78887       -31.18820         1.35648
| 75>    C       -5.36237       -31.92293         1.20104
| 76>    C       -6.34085       -31.06359         0.83328
| 77>   Br       -5.56488       -33.75806         1.53969
| 78>    H       -2.53284         0.76011         3.67154
| 79>    H       -2.12172        -4.48934         6.18594
| 80>    H       -0.90791        -8.94227         4.31120
| 81>    H       -0.55830        -8.85820         2.11372
| 82>    H       -0.97299        -6.92048        -0.20678
| 83>    H       -0.16919        -8.56231        -1.66174
| 84>    H       -0.07252       -11.05447         1.43897
| 85>    H       -1.21089       -11.99524         0.48491
| 86>    H       -1.72227       -10.46312         1.20370
| 87>    H        0.77051       -11.81982        -1.33221
| 88>    H        0.31565       -10.55948        -2.49691
| 89>    H       -1.96048       -11.49302        -2.41318
| 90>    H       -0.39423       -13.76292        -1.37978
| 91>    H       -3.31312       -13.51057        -2.29922
| 92>    H       -1.58143       -15.83907        -1.26038
| 93>    H       -5.19970       -14.86264        -2.42367
| 94>    H       -6.82181       -16.84796        -2.35800
| 95>    H       -7.87852       -18.95363        -2.07825
| 96>    H       -8.42486       -21.43907        -1.65386
| 97>    H       -7.28974       -23.65730        -0.91805
| 98>    H       -4.29692       -23.26546        -0.36875
| 99>    H       -7.60945       -28.61933         0.08055
|100>    H       -2.69023       -28.44350         1.00351
|101>    H       -7.36785       -31.34723         0.69175
|102> *
|103>
|104>                          ****END OF INPUT****

CARTESIAN COORDINATES (ANGSTROEM)
---------------------------------
  C     -2.356050   -0.299260    3.607120
  C     -1.638440   -0.967090    4.560700
  F     -1.128680   -0.290920    5.600030
  C     -1.388260   -2.355060    4.502810
  F     -0.605060   -2.873730    5.464590
  C     -1.869800   -3.159780    3.484020
  C     -2.586860   -2.476750    2.463250
  C     -2.835460   -1.060710    2.530820
  N     -3.531830   -0.629300    1.479590
  S     -3.840290   -1.873060    0.514120
  N     -3.112460   -3.023900    1.371010
  C     -1.643680   -4.576580    3.379010
  S     -1.420820   -5.259010    1.809360
  C     -1.127860   -6.843220    2.433730
  C     -1.257670   -6.850600    3.830000
  C     -1.564090   -5.559020    4.369780
  C     -1.827530   -5.428310    5.750400
  C     -1.726140   -6.528040    6.549420
  F     -1.985450   -6.427780    7.861370
  C     -1.371540   -7.792270    6.022610
  F     -1.280760   -8.842260    6.854710
  C     -1.149340   -7.962340    4.688420
  C     -0.811200   -7.947110    1.597850
  C     -0.771370   -7.883520    0.247910
  C     -0.446930   -8.928560   -0.679890
  C     -0.453630  -10.262510   -0.509360
  C     -0.893870  -10.981540    0.725350
  C     -0.040490  -11.160140   -1.654230
  N     -1.136590  -11.987460   -2.100500
  C     -1.284180  -13.281480   -1.764060
  C     -2.428960  -14.004600   -1.923330
  C     -2.491770  -15.372790   -1.613370
  C     -3.603340  -16.173160   -1.712630
  C     -4.920280  -15.855240   -2.119040
  C     -5.784020  -16.908870   -2.083920
  C     -5.197320  -18.119610   -1.653190
  S     -3.512610  -17.880980   -1.288600
  C     -5.811030  -19.356750   -1.519120
  C     -7.158900  -19.684190   -1.754540
  C     -7.450730  -21.000740   -1.529450
  C     -6.347370  -21.772710   -1.111950
  S     -4.919030  -20.772580   -1.003040
  C     -6.351770  -23.129130   -0.826980
  C     -5.218940  -23.829090   -0.443880
  C     -5.181650  -25.184950   -0.158580
  C     -4.026850  -25.948850    0.223190
  C     -2.733170  -25.496870    0.372190
  C     -1.649890  -26.312310    0.748880
  N     -0.722550  -26.921070    1.050840
  C     -2.293660  -24.174340    0.173400
  N     -1.840100  -23.127320    0.030220
  C     -4.455420  -27.333200    0.428750
  C     -5.845070  -27.416660    0.175060
  C     -6.349960  -26.077250   -0.203100
  O     -7.502590  -25.804780   -0.486320
  C     -6.549850  -28.589030    0.281010
  C     -5.848200  -29.740770    0.656290
  C     -4.461170  -29.648300    0.907440
  C     -3.747760  -28.459370    0.800360
  S     -3.788870  -31.188200    1.356480
  C     -5.362370  -31.922930    1.201040
  C     -6.340850  -31.063590    0.833280
  Br    -5.564880  -33.758060    1.539690
  H     -2.532840    0.760110    3.671540
  H     -2.121720   -4.489340    6.185940
  H     -0.907910   -8.942270    4.311200
  H     -0.558300   -8.858200    2.113720
  H     -0.972990   -6.920480   -0.206780
  H     -0.169190   -8.562310   -1.661740
  H     -0.072520  -11.054470    1.438970
  H     -1.210890  -11.995240    0.484910
  H     -1.722270  -10.463120    1.203700
  H      0.770510  -11.819820   -1.332210
  H      0.315650  -10.559480   -2.496910
  H     -1.960480  -11.493020   -2.413180
  H     -0.394230  -13.762920   -1.379780
  H     -3.313120  -13.510570   -2.299220
  H     -1.581430  -15.839070   -1.260380
  H     -5.199700  -14.862640   -2.423670
  H     -6.821810  -16.847960   -2.358000
  H     -7.878520  -18.953630   -2.078250
  H     -8.424860  -21.439070   -1.653860
  H     -7.289740  -23.657300   -0.918050
  H     -4.296920  -23.265460   -0.368750
  H     -7.609450  -28.619330    0.080550
  H     -2.690230  -28.443500    1.003510
  H     -7.367850  -31.347230    0.691750

 Total Charge           Charge          ....    0
 Multiplicity           Mult            ....    1
 Number of Electrons    NEL             ....  500
 Basis Dimension        Dim             .... 1040

ORBITAL ENERGIES
----------------

  NO   OCC          E(Eh)            E(eV)
   0   2.0000    -482.867909    -13139.5038
   1   2.0000     -89.036961     -2422.8189
   2   2.0000     -88.979163     -2421.2461
   3   2.0000     -88.954899     -2420.5859
   4   2.0000     -88.953492     -2420.5476
   5   2.0000     -88.945294     -2420.3245
   6   2.0000     -62.545604     -1701.9524
   7   2.0000     -56.379530     -1534.1650
   8   2.0000     -56.376863     -1534.0924
   9   2.0000     -56.376818     -1534.0912
  10   2.0000     -24.811002      -675.1417
  11   2.0000     -24.804044      -674.9524
  12   2.0000     -24.792011      -674.6249
  13   2.0000     -24.790735      -674.5902
  14   2.0000     -19.182818      -521.9910
  15   2.0000     -14.469647      -393.7391
  16   2.0000     -14.453477      -393.2991
  17   2.0000     -14.450279      -393.2121
  18   2.0000     -14.384850      -391.4317
  19   2.0000     -14.382768      -391.3750
  20   2.0000     -10.391732      -282.7734
  21   2.0000     -10.391351      -282.7630
  22   2.0000     -10.373761      -282.2844
  23   2.0000     -10.372992      -282.2635
  24   2.0000     -10.350437      -281.6497
  25   2.0000     -10.343357      -281.4570
  26   2.0000     -10.341407      -281.4040
  27   2.0000     -10.337329      -281.2930
  28   2.0000     -10.337283      -281.2918
  29   2.0000     -10.333078      -281.1774
  30   2.0000     -10.328386      -281.0497
  31   2.0000     -10.328086      -281.0415
  32   2.0000     -10.322927      -280.9011
  33   2.0000     -10.317580      -280.7556
  34   2.0000     -10.311081      -280.5788
  35   2.0000     -10.310303      -280.5576
  36   2.0000     -10.309039      -280.5232
  37   2.0000     -10.307128      -280.4712
  38   2.0000     -10.305670      -280.4315
  39   2.0000     -10.303884      -280.3829
  40   2.0000     -10.303872      -280.3826
  41   2.0000     -10.303443      -280.3709
  42   2.0000     -10.301948      -280.3303
  43   2.0000     -10.301402      -280.3154
  44   2.0000     -10.300948      -280.3030
  45   2.0000     -10.300864      -280.3008
  46   2.0000     -10.300281      -280.2849
  47   2.0000     -10.296991      -280.1954
  48   2.0000     -10.293605      -280.1032
  49   2.0000     -10.293595      -280.1030
  50   2.0000     -10.293107      -280.0897
  51   2.0000     -10.291464      -280.0450
  52   2.0000     -10.291365      -280.0423
  53   2.0000     -10.289548      -279.9928
  54   2.0000     -10.288118      -279.9539
  55   2.0000     -10.287649      -279.9412
  56   2.0000     -10.285010      -279.8693
  57   2.0000     -10.282200      -279.7929
  58   2.0000     -10.279444      -279.7179
  59   2.0000     -10.279393      -279.7165
  60   2.0000     -10.277999      -279.6786
  61   2.0000     -10.276075      -279.6262
  62   2.0000     -10.274400      -279.5806
  63   2.0000     -10.274296      -279.5778
  64   2.0000     -10.263113      -279.2735
  65   2.0000     -10.255740      -279.0729
  66   2.0000     -10.253217      -279.0042
  67   2.0000      -8.775005      -238.7800
  68   2.0000      -8.128869      -221.1978
  69   2.0000      -8.073607      -219.6940
  70   2.0000      -8.051245      -219.0855
  71   2.0000      -8.049433      -219.0362
  72   2.0000      -8.041145      -218.8107
  73   2.0000      -6.611199      -179.8999
  74   2.0000      -6.596765      -179.5071
  75   2.0000      -6.596639      -179.5037
  76   2.0000      -6.100079      -165.9916
  77   2.0000      -6.092371      -165.7818
  78   2.0000      -6.091192      -165.7497
  79   2.0000      -6.042556      -164.4263
  80   2.0000      -6.038350      -164.3118
  81   2.0000      -6.036566      -164.2633
  82   2.0000      -6.020886      -163.8366
  83   2.0000      -6.019151      -163.7894
  84   2.0000      -6.016831      -163.7263
  85   2.0000      -6.014870      -163.6729
  86   2.0000      -6.012325      -163.6037
  87   2.0000      -6.010706      -163.5596
  88   2.0000      -6.010652      -163.5582
  89   2.0000      -6.006675      -163.4499
  90   2.0000      -6.002456      -163.3351
  91   2.0000      -2.727094       -74.2080
  92   2.0000      -2.723021       -74.0972
  93   2.0000      -2.722938       -74.0949
  94   2.0000      -2.711455       -73.7824
  95   2.0000      -2.711453       -73.7824
  96   2.0000      -1.331202       -36.2238
  97   2.0000      -1.313882       -35.7525
  98   2.0000      -1.313474       -35.7414
  99   2.0000      -1.298868       -35.3440
 100   2.0000      -1.139491       -31.0071
 101   2.0000      -1.095754       -29.8170
 102   2.0000      -1.069453       -29.1013
 103   2.0000      -1.017930       -27.6993
 104   2.0000      -1.000925       -27.2366
 105   2.0000      -0.996490       -27.1159
 106   2.0000      -0.993346       -27.0303
 107   2.0000      -0.984128       -26.7795
 108   2.0000      -0.983011       -26.7491
 109   2.0000      -0.976108       -26.5612
 110   2.0000      -0.963387       -26.2151
 111   2.0000      -0.959593       -26.1118
 112   2.0000      -0.951715       -25.8975
 113   2.0000      -0.939691       -25.5703
 114   2.0000      -0.919981       -25.0340
 115   2.0000      -0.916562       -24.9409
 116   2.0000      -0.907693       -24.6996
 117   2.0000      -0.889992       -24.2179
 118   2.0000      -0.881774       -23.9943
 119   2.0000      -0.878308       -23.9000
 120   2.0000      -0.873332       -23.7646
 121   2.0000      -0.867336       -23.6014
 122   2.0000      -0.862343       -23.4655
 123   2.0000      -0.859521       -23.3888
 124   2.0000      -0.850979       -23.1563
 125   2.0000      -0.847972       -23.0745
 126   2.0000      -0.841835       -22.9075
 127   2.0000      -0.824727       -22.4420
 128   2.0000      -0.823914       -22.4198
 129   2.0000      -0.819771       -22.3071
 130   2.0000      -0.804177       -21.8828
 131   2.0000      -0.799828       -21.7644
 132   2.0000      -0.789725       -21.4895
 133   2.0000      -0.772358       -21.0169
 134   2.0000      -0.761564       -20.7232
 135   2.0000      -0.747681       -20.3454
 136   2.0000      -0.743793       -20.2396
 137   2.0000      -0.729900       -19.8616
 138   2.0000      -0.729206       -19.8427
 139   2.0000      -0.727334       -19.7918
 140   2.0000      -0.720910       -19.6170
 141   2.0000      -0.710932       -19.3455
 142   2.0000      -0.703585       -19.1455
 143   2.0000      -0.689531       -18.7631
 144   2.0000      -0.681840       -18.5538
 145   2.0000      -0.670998       -18.2588
 146   2.0000      -0.667915       -18.1749
 147   2.0000      -0.661580       -18.0025
 148   2.0000      -0.652242       -17.7484
 149   2.0000      -0.649529       -17.6746
 150   2.0000      -0.646342       -17.5879
 151   2.0000      -0.641130       -17.4460
 152   2.0000      -0.640442       -17.4273
 153   2.0000      -0.633392       -17.2355
 154   2.0000      -0.630891       -17.1674
 155   2.0000      -0.627413       -17.0728
 156   2.0000      -0.625137       -17.0108
 157   2.0000      -0.619599       -16.8601
 158   2.0000      -0.616209       -16.7679
 159   2.0000      -0.610757       -16.6195
 160   2.0000      -0.609414       -16.5830
 161   2.0000      -0.603262       -16.4156
 162   2.0000      -0.599428       -16.3113
 163   2.0000      -0.595915       -16.2157
 164   2.0000      -0.584890       -15.9157
 165   2.0000      -0.581095       -15.8124
 166   2.0000      -0.578907       -15.7529
 167   2.0000      -0.575706       -15.6658
 168   2.0000      -0.571644       -15.5552
 169   2.0000      -0.567817       -15.4511
 170   2.0000      -0.566117       -15.4048
 171   2.0000      -0.560505       -15.2521
 172   2.0000      -0.559924       -15.2363
 173   2.0000      -0.556298       -15.1376
 174   2.0000      -0.554799       -15.0968
 175   2.0000      -0.551997       -15.0206
 176   2.0000      -0.540772       -14.7152
 177   2.0000      -0.539220       -14.6729
 178   2.0000      -0.538695       -14.6586
 179   2.0000      -0.533031       -14.5045
 180   2.0000      -0.530037       -14.4230
 181   2.0000      -0.521281       -14.1848
 182   2.0000      -0.518952       -14.1214
 183   2.0000      -0.515112       -14.0169
 184   2.0000      -0.514083       -13.9889
 185   2.0000      -0.510254       -13.8847
 186   2.0000      -0.507657       -13.8141
 187   2.0000      -0.505383       -13.7522
 188   2.0000      -0.504620       -13.7314
 189   2.0000      -0.502539       -13.6748
 190   2.0000      -0.502048       -13.6614
 191   2.0000      -0.501021       -13.6335
 192   2.0000      -0.499328       -13.5874
 193   2.0000      -0.492317       -13.3966
 194   2.0000      -0.491150       -13.3649
 195   2.0000      -0.488009       -13.2794
 196   2.0000      -0.485402       -13.2085
 197   2.0000      -0.483642       -13.1606
 198   2.0000      -0.480728       -13.0813
 199   2.0000      -0.478747       -13.0274
 200   2.0000      -0.475175       -12.9302
 201   2.0000      -0.471832       -12.8392
 202   2.0000      -0.469575       -12.7778
 203   2.0000      -0.468255       -12.7419
 204   2.0000      -0.465333       -12.6624
 205   2.0000      -0.464270       -12.6334
 206   2.0000      -0.461982       -12.5712
 207   2.0000      -0.458412       -12.4740
 208   2.0000      -0.456520       -12.4225
 209   2.0000      -0.448146       -12.1947
 210   2.0000      -0.444909       -12.1066
 211   2.0000      -0.443427       -12.0663
 212   2.0000      -0.437135       -11.8951
 213   2.0000      -0.436046       -11.8654
 214   2.0000      -0.434822       -11.8321
 215   2.0000      -0.433517       -11.7966
 216   2.0000      -0.429029       -11.6745
 217   2.0000      -0.428704       -11.6656
 218   2.0000      -0.428432       -11.6582
 219   2.0000      -0.422793       -11.5048
 220   2.0000      -0.420837       -11.4516
 221   2.0000      -0.415609       -11.3093
 222   2.0000      -0.413581       -11.2541
 223   2.0000      -0.412546       -11.2259
 224   2.0000      -0.405667       -11.0388
 225   2.0000      -0.403919       -10.9912
 226   2.0000      -0.400483       -10.8977
 227   2.0000      -0.397231       -10.8092
 228   2.0000      -0.393735       -10.7141
 229   2.0000      -0.387287       -10.5386
 230   2.0000      -0.380175       -10.3451
 231   2.0000      -0.377923       -10.2838
 232   2.0000      -0.377573       -10.2743
 233   2.0000      -0.370679       -10.0867
 234   2.0000      -0.361108        -9.8263
 235   2.0000      -0.357677        -9.7329
 236   2.0000      -0.344520        -9.3749
 237   2.0000      -0.339394        -9.2354
 238   2.0000      -0.339049        -9.2260
 239   2.0000      -0.332710        -9.0535
 240   2.0000      -0.325121        -8.8470
 241   2.0000      -0.321426        -8.7465
 242   2.0000      -0.318291        -8.6611
 243   2.0000      -0.311489        -8.4760
 244   2.0000      -0.303683        -8.2636
 245   2.0000      -0.290783        -7.9126
 246   2.0000      -0.273925        -7.4539
 247   2.0000      -0.265649        -7.2287
 248   2.0000      -0.251756        -6.8506
 249   2.0000      -0.208498        -5.6735
 250   0.0000      -0.092859        -2.5268
 251   0.0000      -0.085238        -2.3194
 252   0.0000      -0.055900        -1.5211
 253   0.0000      -0.042887        -1.1670
 254   0.0000      -0.023678        -0.6443

MULLIKEN ATOMIC CHARGES
-----------------------
   0 C :   -0.124216
   1 C :    0.271991
   2 F :   -0.174163
   3 C :    0.128723
   4 F :   -0.165413
   5 C :    0.050738
   6 C :   -0.027393
   7 C :    0.070965
   8 N :   -0.268131
   9 S :    0.508845
  10 N :   -0.287746
  11 C :   -0.179497
  12 S :    0.206165
  13 C :   -0.106104
  14 C :    0.105545
  15 C :    0.153370
  16 C :   -0.102536
  17 C :    0.219358
  18 F :   -0.177085
  19 C :    0.226787
  20 F :   -0.178275
  21 C :   -0.113730
  22 C :    0.009204
  23 C :   -0.002632
  24 C :    0.011752
  25 C :   -0.205646
  26 C :    0.084013
  27 C :    0.204588
  28 N :   -0.135778
  29 C :    0.060589
  30 C :   -0.026591
  31 C :    0.054411
  32 C :   -0.085472
  33 C :    0.049794
  34 C :    0.007571
  35 C :   -0.027862
  36 S :    0.125749
  37 C :   -0.063719
  38 C :    0.042607
  39 C :    0.015249
  40 C :    0.008175
  41 S :    0.108409
  42 C :   -0.032640
  43 C :   -0.038576
  44 C :   -0.097404
  45 C :    0.332494
  46 C :   -0.378300
  47 C :   -0.189062
  48 N :    0.125445
  49 C :   -0.189242
  50 N :    0.121072
  51 C :    0.011461
  52 C :   -0.006212
  53 C :    0.130352
  54 O :   -0.173663
  55 C :   -0.082459
  56 C :    0.119541
  57 C :   -0.095006
  58 C :   -0.028729
  59 S :    0.172920
  60 C :   -0.123627
  61 C :    0.035605
  62 Br:    0.005470
  63 H :   -0.002001
  64 H :   -0.008091
  65 H :   -0.015330
  66 H :   -0.022380
  67 H :   -0.005456
  68 H :   -0.020014
  69 H :    0.042778
  70 H :    0.014259
  71 H :    0.035039
  72 H :    0.027152
  73 H :    0.014908
  74 H :    0.125643
  75 H :    0.017188
  76 H :   -0.020271
  77 H :   -0.006669
  78 H :   -0.013164
  79 H :   -0.013013
  80 H :   -0.012686
  81 H :   -0.007871
  82 H :    0.010329
  83 H :    0.008812
  84 H :   -0.019282
  85 H :   -0.012630
  86 H :   -0.009297
Sum of atomic charges:   -0.0000000

LOEWDIN ATOMIC CHARGES
----------------------
   0 C :   -0.049015
   1 C :    0.072892
   2 F :   -0.048396
   3 C :    0.060726
   4 F :   -0.040631
   5 C :   -0.067591
   6 C :   -0.054869
   7 C :   -0.052185
   8 N :   -0.283548
   9 S :    0.644836
  10 N :   -0.298686
  11 C :   -0.182924
  12 S :    0.528236
  13 C :   -0.179493
  14 C :   -0.045322
  15 C :   -0.037666
  16 C :   -0.038596
  17 C :    0.062345
  18 F :   -0.054025
  19 C :    0.061457
  20 F :   -0.056419
  21 C :   -0.044242
  22 C :   -0.031537
  23 C :   -0.037349
  24 C :   -0.049533
  25 C :   -0.040955
  26 C :   -0.055920
  27 C :    0.048757
  28 N :    0.018453
  29 C :    0.062185
  30 C :   -0.119519
  31 C :    0.003241
  32 C :   -0.191054
  33 C :   -0.012281
  34 C :   -0.048542
  35 C :   -0.140891
  36 S :    0.403925
  37 C :   -0.212584
  38 C :   -0.009454
  39 C :   -0.057699
  40 C :   -0.101629
  41 S :    0.411592
  42 C :   -0.086568
  43 C :    0.046892
  44 C :   -0.122648
  45 C :    0.072957
  46 C :   -0.168250
  47 C :   -0.018952
  48 N :   -0.080785
  49 C :   -0.020812
  50 N :   -0.078084
  51 C :   -0.016265
  52 C :   -0.046965
  53 C :    0.079652
  54 O :   -0.167103
  55 C :    0.013168
  56 C :   -0.038604
  57 C :   -0.147459
  58 C :   -0.016603
  59 S :    0.421810
  60 C :   -0.277640
  61 C :   -0.071523
  62 Br:    0.122919
  63 H :    0.051184
  64 H :    0.038830
  65 H :    0.037681
  66 H :    0.030913
  67 H :    0.022591
  68 H :    0.027372
  69 H :    0.039915
  70 H :    0.030487
  71 H :    0.037946
  72 H :    0.034305
  73 H :    0.028622
  74 H :    0.084241
  75 H :    0.032942
  76 H :    0.022974
  77 H :    0.034087
  78 H :    0.032027
  79 H :    0.032302
  80 H :    0.032100
  81 H :    0.035540
  82 H :    0.036184
  83 H :    0.030200
  84 H :    0.037049
  85 H :    0.039036
  86 H :    0.036248

  Mayer bond orders larger than 0.100000
B(  0-C ,  1-C ) :   1.4521 B(  0-C ,  5-C ) :   0.1232 B(  0-C ,  7-C ) :   1.1432
B(  0-C , 63-H ) :   1.0483 B(  1-C ,  2-F ) :   1.1121 B(  1-C ,  3-C ) :   1.1327
B(  3-C ,  4-F ) :   1.1598 B(  3-C ,  5-C ) :   1.4301 B(  5-C ,  6-C ) :   1.1730
B(  5-C , 11-C ) :   1.0453 B(  6-C ,  7-C ) :   1.1585 B(  6-C , 10-N ) :   1.5470
B(  7-C ,  8-N ) :   1.5195 B(  8-N ,  9-S ) :   1.2751 B(  8-N , 10-N ) :   0.1475
B(  9-S , 10-N ) :   1.2539 B( 11-C , 12-S ) :   1.1854 B( 11-C , 13-C ) :   0.1191
B( 11-C , 15-C ) :   1.3935 B( 12-S , 13-C ) :   1.1590 B( 13-C , 14-C ) :   1.3350
B( 13-C , 22-C ) :   1.1740 B( 14-C , 15-C ) :   1.2060 B( 14-C , 21-C ) :   1.1587
B( 15-C , 16-C ) :   1.1487 B( 16-C , 17-C ) :   1.5264 B( 16-C , 21-C ) :   0.1124
B( 16-C , 64-H ) :   0.9947 B( 17-C , 18-F ) :   1.1252 B( 17-C , 19-C ) :   1.1464
B( 19-C , 20-F ) :   1.1301 B( 19-C , 21-C ) :   1.5139 B( 21-C , 65-H ) :   0.9967
B( 22-C , 23-C ) :   1.6879 B( 22-C , 66-H ) :   0.9596 B( 23-C , 24-C ) :   1.1285
B( 23-C , 67-H ) :   0.9594 B( 24-C , 25-C ) :   1.7958 B( 24-C , 68-H ) :   0.9530
B( 25-C , 26-C ) :   1.0770 B( 25-C , 27-C ) :   1.0488 B( 26-C , 69-H ) :   0.9359
B( 26-C , 70-H ) :   0.9444 B( 26-C , 71-H ) :   0.9430 B( 27-C , 28-N ) :   0.9883
B( 27-C , 72-H ) :   0.9310 B( 27-C , 73-H ) :   0.9400 B( 28-N , 29-C ) :   1.2692
B( 28-N , 74-H ) :   0.9352 B( 29-C , 30-C ) :   1.5385 B( 29-C , 75-H ) :   0.9661
B( 30-C , 31-C ) :   1.2504 B( 30-C , 76-H ) :   0.9628 B( 31-C , 32-C ) :   1.5151
B( 31-C , 77-H ) :   0.9640 B( 32-C , 33-C ) :   1.1858 B( 32-C , 36-S ) :   1.0145
B( 33-C , 34-C ) :   1.5721 B( 33-C , 78-H ) :   0.9890 B( 34-C , 35-C ) :   1.2185
B( 34-C , 79-H ) :   0.9929 B( 35-C , 36-S ) :   1.1137 B( 35-C , 37-C ) :   1.4152
B( 37-C , 38-C ) :   1.2551 B( 37-C , 41-S ) :   1.0414 B( 38-C , 39-C ) :   1.4998
B( 38-C , 80-H ) :   0.9927 B( 39-C , 40-C ) :   1.2149 B( 39-C , 81-H ) :   1.0019
B( 40-C , 41-S ) :   1.1023 B( 40-C , 42-C ) :   1.3595 B( 42-C , 43-C ) :   1.3164
B( 42-C , 82-H ) :   0.9783 B( 43-C , 44-C ) :   1.4184 B( 43-C , 83-H ) :   0.9450
B( 44-C , 45-C ) :   1.1407 B( 44-C , 53-C ) :   0.9811 B( 45-C , 46-C ) :   1.5589
B( 45-C , 51-C ) :   0.9820 B( 46-C , 47-C ) :   1.1540 B( 46-C , 49-C ) :   1.1575
B( 47-C , 48-N ) :   2.9566 B( 49-C , 50-N ) :   2.9533 B( 51-C , 52-C ) :   1.2817
B( 51-C , 58-C ) :   1.4261 B( 52-C , 53-C ) :   0.9318 B( 52-C , 55-C ) :   1.4358
B( 53-C , 54-O ) :   2.1768 B( 55-C , 56-C ) :   1.2342 B( 55-C , 84-H ) :   1.0157
B( 56-C , 57-C ) :   1.3242 B( 56-C , 61-C ) :   1.1584 B( 57-C , 58-C ) :   1.3150
B( 57-C , 59-S ) :   1.0798 B( 58-C , 85-H ) :   0.9787 B( 59-S , 60-C ) :   1.0842
B( 60-C , 61-C ) :   1.6225 B( 60-C , 62-Br) :   1.0080 B( 61-C , 86-H ) :   0.9997

-----------------------------------------------------------------------------
         ABSORPTION SPECTRUM VIA TRANSITION ELECTRIC DIPOLE MOMENTS
-----------------------------------------------------------------------------
State   Energy  Wavelength   fosc         T2         TX        TY        TZ
        (cm-1)    (nm)                  (au**2)     (au)      (au)      (au)
-----------------------------------------------------------------------------
   0   11765.8    849.9   1.604599262  44.89726   0.96101   6.57917  -0.82957
   1   18937.4    528.1   0.160222345   2.78534  -0.04718  -1.49154  -0.74729
   2   20117.3    497.1   0.331230037   5.42044   0.48490  -2.21861  -0.51292
   3   21329.8    468.8   0.159067562   2.45511  -1.44632  -0.57087  -0.19329
   4   23539.8    424.8   0.205499119   2.87397  -1.42398  -0.83312  -0.39007
   5   24813.6    403.0   0.258988936   3.43611  -0.93743  -1.06377  -1.19403
   6   25665.6    389.6   0.208528218   2.67479   1.48933   0.31232  -0.59930
   7   25902.8    386.1   0.026596805   0.33803  -0.50692   0.20994   0.19231
   8   26618.2    375.7   0.158171509   1.95626  -0.47070   1.06716   0.77192
   9   27120.1    368.7   0.194337040   2.35906   1.20172  -0.86273   0.41306
  10   27603.1    362.3   0.000020637   0.00025  -0.01496  -0.00102  -0.00461
  11   29641.8    337.4   0.010845244   0.12045   0.17250  -0.28718   0.09070
  12   31402.5    318.4   0.000174762   0.00183  -0.04226   0.00448   0.00511
  13   31474.7    317.7   0.020092489   0.21016  -0.34786   0.15339  -0.25617
  14   31604.1    316.4   0.024623055   0.25649  -0.35185  -0.25132   0.26368
  15   32023.4    312.3   0.032579852   0.33493  -0.03782  -0.10654   0.56758
  16   32251.6    310.1   0.230254581   2.35035  -0.15846  -1.45299   0.46266
  17   32882.1    304.1   0.251509116   2.51808  -0.74584  -1.40060  -0.01112
  18   33166.9    301.5   0.034326023   0.34072  -0.32118   0.16972   0.45690
  19   33316.6    300.2   0.000367032   0.00363  -0.02127  -0.05621  -0.00381
  20   34115.9    293.1   0.280113137   2.70304   0.70738   1.48073   0.10042
  21   34553.5    289.4   0.100483278   0.95736  -0.12047  -0.50468   0.82955
  22   34815.4    287.2   0.023323259   0.22054   0.10313  -0.28561   0.35824
  23   35265.8    283.6   0.146046136   1.36336  -0.40393  -1.09417   0.05481
  24   35760.9    279.6   0.004981467   0.04586  -0.02907   0.13877  -0.16049
  25   36443.8    274.4   0.131041353   1.18375  -1.08128   0.07925  -0.09109
  26   36871.6    271.2   0.227345184   2.02987  -0.27605   0.49941   1.30547
  27   37223.3    268.6   0.119610842   1.05787   0.52501  -0.01350   0.88434
  28   37338.5    267.8   0.044195226   0.38967   0.06007  -0.62133   0.00265
  29   37998.9    263.2   0.103562241   0.89723   0.34080  -0.10992   0.87693
  30   38164.1    262.0   0.081552533   0.70349  -0.71580  -0.27153  -0.34262
  31   38468.5    260.0   0.029708877   0.25425   0.42319   0.25488   0.10099
  32   38641.6    258.8   0.042041676   0.35818  -0.56127   0.04106   0.20364
  33   38828.7    257.5   0.043959769   0.37272  -0.60536   0.00234  -0.07903
  34   39625.8    252.4   0.034195701   0.28410  -0.02845   0.43574   0.30565
  35   40302.0    248.1   0.014263928   0.11652   0.22268  -0.25793  -0.02000
  36   40319.9    248.0   0.085472783   0.69789   0.40697  -0.72676  -0.06393

FINAL SINGLE POINT ENERGY     -7114.832881290923

DIPOLE MOMENT
-------------
                                X             Y             Z
Electronic contribution:    -19.49751    -144.82850      48.82258
Nuclear contribution   :     18.78621     152.60127     -51.24398
                        -----------------------------------------
Total Dipole Moment    :     -0.71131       7.77277      -2.42140
                        -----------------------------------------
Magnitude (a.u.)       :      8.17221
Magnitude (Debye)      :     20.77211

Rotational constants in cm-1:     0.002307     0.000136     0.000133
Rotational constants in MHz :    69.148169     4.080968     3.983151

                             ****ORCA TERMINATED NORMALLY****
TOTAL RUN TIME: 0 days 0 hours 16 minutes 45 seconds 100 msec
