                         Program Version 4.2.0 -  RELEASE  -
|  1> # ORCA input file
|  2> # SCF done       -158.272456940476          0.000373452790
|  3> ! CAM-B3LYP def2-SVP def2/J RIJCOSX Grid4 TightSCF
|  4> %maxcore 5000
|  5> %tddft
|  6>     Mode sTDDFT
|  7>     Ethresh 5.0
|  8>     maxcore 5000
|  9> end
| 10>
| 11> %pal
| 12>   nprocs 6
| 13>   end
| 14> * xyz 0 1
| 15>    C       -7.11141        -3.35825         4.07450
| 16>    C       -5.91769        -2.84510         3.74926
| 17>    C       -5.47976        -1.48488         3.88828
| 18>    C       -4.21576        -1.25927         3.47041
| 19>    C       -3.54817        -2.41226         2.96686
| 20>    S       -4.60495        -3.80847         3.05121
| 21>    C       -2.27137        -2.48476         2.46880
| 22>    C       -1.32257        -1.43731         2.34100
| 23>    C       -0.14463        -1.82704         1.79534
| 24>    C       -0.07006        -3.20967         1.45381
| 25>    S       -1.58671        -3.98657         1.87380
| 26>    C        1.00619        -3.77338         0.82506
| 27>    C        1.28806        -5.06594         0.35014
| 28>    C        0.96983        -6.35975         0.61073
| 29>    C        0.05566        -6.79705         1.71688
| 30>    C       -1.32204        -7.22240         1.20169
| 31>    C        1.65022        -7.33967        -0.23305
| 32>    C        1.39368        -8.82056        -0.14098
| 33>    C        0.61326        -9.30804        -1.36359
| 34>    C        2.49271        -6.84385        -1.15400
| 35>    S        2.54673        -5.05258        -0.95452
| 36>    O        2.11237        -4.30264        -2.09922
| 37>    O        3.82168        -4.68451        -0.39256
| 38>    C        3.34926        -7.45162        -2.14007
| 39>    C        3.14545        -7.13041        -3.50173
| 40>    N        2.12450        -6.43336        -3.99509
| 41>    S        2.30499        -6.30591        -5.57932
| 42>    N        3.66451        -7.16296        -5.73062
| 43>    C        4.04925        -7.58351        -4.52634
| 44>    C        5.17169        -8.39371        -4.18603
| 45>    C        5.31233        -8.70058        -2.83496
| 46>    C        4.44118        -8.24805        -1.84553
| 47>    C        6.11336        -8.88644        -5.13839
| 48>    C        6.05530        -8.66404        -6.47890
| 49>    C        7.00433        -9.19167        -7.36478
| 50>    C        7.12883        -9.06157        -8.72358
| 51>    C        6.18635        -8.18265        -9.49694
| 52>    C        6.54179        -6.70484        -9.31401
| 53>    C        8.21856        -9.77320        -9.31288
| 54>    C        8.51535        -9.74006       -10.78563
| 55>    C        9.54020        -8.65362       -11.12089
| 56>    C        9.01501       -10.48128        -8.43500
| 57>    S        8.33879       -10.24093        -6.77939
| 58>    O        9.25630        -9.49837        -5.95281
| 59>    O        7.82951       -11.47990        -6.24779
| 60>    C       10.13870       -11.25036        -8.70844
| 61>    C       10.92922       -11.94781        -7.81646
| 62>    C       12.05964       -12.71266        -8.20752
| 63>    C       12.70522       -13.32590        -7.18027
| 64>    C       12.11340       -13.07288        -5.91999
| 65>    S       10.71132       -12.02846        -6.09051
| 66>    C       12.52816       -13.54871        -4.69327
| 67>    C       13.64044       -14.39426        -4.42657
| 68>    C       13.80760       -14.70142        -3.12036
| 69>    C       12.82960       -14.11665        -2.24916
| 70>    S       11.69298       -13.15401        -3.21057
| 71>    C       12.74167       -14.24284        -0.91695
| 72>    H       -7.88092        -2.73466         4.49413
| 73>    H       -7.33955        -4.39780         3.92710
| 74>    H       -6.13668        -0.73727         4.29624
| 75>    H       -3.72845        -0.30094         3.50140
| 76>    H       -1.54325        -0.43172         2.65089
| 77>    H        0.68970        -1.17258         1.61546
| 78>    H        1.78699        -3.06967         0.55109
| 79>    H       -0.06275        -5.97093         2.41637
| 80>    H        0.51336        -7.62495         2.26289
| 81>    H       -1.75340        -6.43538         0.58973
| 82>    H       -1.98750        -7.40708         2.04104
| 83>    H       -1.25870        -8.12651         0.60408
| 84>    H        0.84530        -9.06708         0.76557
| 85>    H        2.35104        -9.34379        -0.10855
| 86>    H       -0.33090        -8.77682        -1.45581
| 87>    H        0.40969       -10.37304        -1.27910
| 88>    H        1.18844        -9.13472        -2.26929
| 89>    H        6.15309        -9.31174        -2.54180
| 90>    H        4.64183        -8.49718        -0.81436
| 91>    H        6.92802        -9.48104        -4.74817
| 92>    H        5.24403        -8.06630        -6.87264
| 93>    H        5.17105        -8.34907        -9.13239
| 94>    H        6.20478        -8.42671       -10.55803
| 95>    H        6.49005        -6.42967        -8.26435
| 96>    H        5.84806        -6.08183        -9.87361
| 97>    H        7.54996        -6.50519        -9.66849
| 98>    H        7.60400        -9.56399       -11.35628
| 99>    H        8.90786       -10.71096       -11.09307
|100>    H        9.14774        -7.67060       -10.87602
|101>    H        9.77921        -8.67561       -12.18165
|102>    H       10.45395        -8.80668       -10.55212
|103>    H       10.44906       -11.32493        -9.74513
|104>    H       12.35582       -12.78317        -9.23983
|105>    H       13.57737       -13.94388        -7.29572
|106>    H       14.27908       -14.74512        -5.21755
|107>    H       14.59122       -15.32541        -2.72869
|108>    H       13.45497       -14.83613        -0.37240
|109>    H       11.96566       -13.75766        -0.35439
|110> *
|111>
|112>                          ****END OF INPUT****

CARTESIAN COORDINATES (ANGSTROEM)
---------------------------------
  C     -7.111410   -3.358250    4.074500
  C     -5.917690   -2.845100    3.749260
  C     -5.479760   -1.484880    3.888280
  C     -4.215760   -1.259270    3.470410
  C     -3.548170   -2.412260    2.966860
  S     -4.604950   -3.808470    3.051210
  C     -2.271370   -2.484760    2.468800
  C     -1.322570   -1.437310    2.341000
  C     -0.144630   -1.827040    1.795340
  C     -0.070060   -3.209670    1.453810
  S     -1.586710   -3.986570    1.873800
  C      1.006190   -3.773380    0.825060
  C      1.288060   -5.065940    0.350140
  C      0.969830   -6.359750    0.610730
  C      0.055660   -6.797050    1.716880
  C     -1.322040   -7.222400    1.201690
  C      1.650220   -7.339670   -0.233050
  C      1.393680   -8.820560   -0.140980
  C      0.613260   -9.308040   -1.363590
  C      2.492710   -6.843850   -1.154000
  S      2.546730   -5.052580   -0.954520
  O      2.112370   -4.302640   -2.099220
  O      3.821680   -4.684510   -0.392560
  C      3.349260   -7.451620   -2.140070
  C      3.145450   -7.130410   -3.501730
  N      2.124500   -6.433360   -3.995090
  S      2.304990   -6.305910   -5.579320
  N      3.664510   -7.162960   -5.730620
  C      4.049250   -7.583510   -4.526340
  C      5.171690   -8.393710   -4.186030
  C      5.312330   -8.700580   -2.834960
  C      4.441180   -8.248050   -1.845530
  C      6.113360   -8.886440   -5.138390
  C      6.055300   -8.664040   -6.478900
  C      7.004330   -9.191670   -7.364780
  C      7.128830   -9.061570   -8.723580
  C      6.186350   -8.182650   -9.496940
  C      6.541790   -6.704840   -9.314010
  C      8.218560   -9.773200   -9.312880
  C      8.515350   -9.740060  -10.785630
  C      9.540200   -8.653620  -11.120890
  C      9.015010  -10.481280   -8.435000
  S      8.338790  -10.240930   -6.779390
  O      9.256300   -9.498370   -5.952810
  O      7.829510  -11.479900   -6.247790
  C     10.138700  -11.250360   -8.708440
  C     10.929220  -11.947810   -7.816460
  C     12.059640  -12.712660   -8.207520
  C     12.705220  -13.325900   -7.180270
  C     12.113400  -13.072880   -5.919990
  S     10.711320  -12.028460   -6.090510
  C     12.528160  -13.548710   -4.693270
  C     13.640440  -14.394260   -4.426570
  C     13.807600  -14.701420   -3.120360
  C     12.829600  -14.116650   -2.249160
  S     11.692980  -13.154010   -3.210570
  C     12.741670  -14.242840   -0.916950
  H     -7.880920   -2.734660    4.494130
  H     -7.339550   -4.397800    3.927100
  H     -6.136680   -0.737270    4.296240
  H     -3.728450   -0.300940    3.501400
  H     -1.543250   -0.431720    2.650890
  H      0.689700   -1.172580    1.615460
  H      1.786990   -3.069670    0.551090
  H     -0.062750   -5.970930    2.416370
  H      0.513360   -7.624950    2.262890
  H     -1.753400   -6.435380    0.589730
  H     -1.987500   -7.407080    2.041040
  H     -1.258700   -8.126510    0.604080
  H      0.845300   -9.067080    0.765570
  H      2.351040   -9.343790   -0.108550
  H     -0.330900   -8.776820   -1.455810
  H      0.409690  -10.373040   -1.279100
  H      1.188440   -9.134720   -2.269290
  H      6.153090   -9.311740   -2.541800
  H      4.641830   -8.497180   -0.814360
  H      6.928020   -9.481040   -4.748170
  H      5.244030   -8.066300   -6.872640
  H      5.171050   -8.349070   -9.132390
  H      6.204780   -8.426710  -10.558030
  H      6.490050   -6.429670   -8.264350
  H      5.848060   -6.081830   -9.873610
  H      7.549960   -6.505190   -9.668490
  H      7.604000   -9.563990  -11.356280
  H      8.907860  -10.710960  -11.093070
  H      9.147740   -7.670600  -10.876020
  H      9.779210   -8.675610  -12.181650
  H     10.453950   -8.806680  -10.552120
  H     10.449060  -11.324930   -9.745130
  H     12.355820  -12.783170   -9.239830
  H     13.577370  -13.943880   -7.295720
  H     14.279080  -14.745120   -5.217550
  H     14.591220  -15.325410   -2.728690
  H     13.454970  -14.836130   -0.372400
  H     11.965660  -13.757660   -0.354390

 Total Charge           Charge          ....    0
 Multiplicity           Mult            ....    1
 Number of Electrons    NEL             ....  460
 Basis Dimension        Dim             .... 1016

ORBITAL ENERGIES
----------------

  NO   OCC          E(Eh)            E(eV)
   0   2.0000     -89.121416     -2425.1170
   1   2.0000     -89.112179     -2424.8657
   2   2.0000     -89.010714     -2422.1047
   3   2.0000     -88.945158     -2420.3208
   4   2.0000     -88.939381     -2420.1636
   5   2.0000     -88.933940     -2420.0155
   6   2.0000     -88.932365     -2419.9727
   7   2.0000     -19.178207      -521.8656
   8   2.0000     -19.178051      -521.8613
   9   2.0000     -19.174060      -521.7527
  10   2.0000     -19.172445      -521.7087
  11   2.0000     -14.426129      -392.5549
  12   2.0000     -14.424422      -392.5085
  13   2.0000     -10.311770      -280.5975
  14   2.0000     -10.311366      -280.5865
  15   2.0000     -10.311257      -280.5836
  16   2.0000     -10.309378      -280.5324
  17   2.0000     -10.308323      -280.5037
  18   2.0000     -10.307490      -280.4811
  19   2.0000     -10.307143      -280.4716
  20   2.0000     -10.305782      -280.4346
  21   2.0000     -10.302463      -280.3443
  22   2.0000     -10.299208      -280.2557
  23   2.0000     -10.292831      -280.0822
  24   2.0000     -10.290715      -280.0246
  25   2.0000     -10.290343      -280.0145
  26   2.0000     -10.289305      -279.9862
  27   2.0000     -10.289031      -279.9788
  28   2.0000     -10.288628      -279.9678
  29   2.0000     -10.287444      -279.9356
  30   2.0000     -10.287159      -279.9278
  31   2.0000     -10.286079      -279.8984
  32   2.0000     -10.285626      -279.8861
  33   2.0000     -10.285537      -279.8837
  34   2.0000     -10.284672      -279.8602
  35   2.0000     -10.284523      -279.8561
  36   2.0000     -10.282898      -279.8119
  37   2.0000     -10.282304      -279.7957
  38   2.0000     -10.281854      -279.7835
  39   2.0000     -10.281431      -279.7720
  40   2.0000     -10.280190      -279.7382
  41   2.0000     -10.279306      -279.7141
  42   2.0000     -10.278073      -279.6806
  43   2.0000     -10.277265      -279.6586
  44   2.0000     -10.274424      -279.5813
  45   2.0000     -10.273561      -279.5578
  46   2.0000     -10.272728      -279.5351
  47   2.0000     -10.271527      -279.5024
  48   2.0000     -10.271422      -279.4996
  49   2.0000     -10.270299      -279.4690
  50   2.0000     -10.267713      -279.3987
  51   2.0000     -10.267195      -279.3846
  52   2.0000     -10.265752      -279.3453
  53   2.0000     -10.260156      -279.1930
  54   2.0000     -10.256357      -279.0897
  55   2.0000     -10.256006      -279.0801
  56   2.0000     -10.255606      -279.0692
  57   2.0000      -8.186792      -222.7739
  58   2.0000      -8.178972      -222.5611
  59   2.0000      -8.102648      -220.4843
  60   2.0000      -8.040846      -218.8025
  61   2.0000      -8.036098      -218.6734
  62   2.0000      -8.030616      -218.5242
  63   2.0000      -8.028599      -218.4693
  64   2.0000      -6.155757      -167.5067
  65   2.0000      -6.155307      -167.4944
  66   2.0000      -6.155038      -167.4871
  67   2.0000      -6.147804      -167.2903
  68   2.0000      -6.147567      -167.2838
  69   2.0000      -6.146897      -167.2656
  70   2.0000      -6.073895      -165.2791
  71   2.0000      -6.066099      -165.0669
  72   2.0000      -6.064999      -165.0370
  73   2.0000      -6.010642      -163.5579
  74   2.0000      -6.006534      -163.4461
  75   2.0000      -6.005953      -163.4303
  76   2.0000      -6.001996      -163.3226
  77   2.0000      -6.001754      -163.3160
  78   2.0000      -6.000447      -163.2805
  79   2.0000      -5.998463      -163.2265
  80   2.0000      -5.996598      -163.1757
  81   2.0000      -5.996410      -163.1706
  82   2.0000      -5.994108      -163.1080
  83   2.0000      -5.991212      -163.0292
  84   2.0000      -5.989252      -162.9758
  85   2.0000      -1.182734       -32.1838
  86   2.0000      -1.177081       -32.0300
  87   2.0000      -1.111548       -30.2468
  88   2.0000      -1.059897       -28.8413
  89   2.0000      -1.054009       -28.6810
  90   2.0000      -0.992719       -27.0133
  91   2.0000      -0.987043       -26.8588
  92   2.0000      -0.973374       -26.4868
  93   2.0000      -0.969427       -26.3795
  94   2.0000      -0.968281       -26.3483
  95   2.0000      -0.964314       -26.2403
  96   2.0000      -0.961593       -26.1663
  97   2.0000      -0.949219       -25.8295
  98   2.0000      -0.906034       -24.6544
  99   2.0000      -0.898334       -24.4449
 100   2.0000      -0.885173       -24.0868
 101   2.0000      -0.876918       -23.8622
 102   2.0000      -0.869842       -23.6696
 103   2.0000      -0.865671       -23.5561
 104   2.0000      -0.860078       -23.4039
 105   2.0000      -0.850320       -23.1384
 106   2.0000      -0.847401       -23.0589
 107   2.0000      -0.846882       -23.0448
 108   2.0000      -0.844178       -22.9713
 109   2.0000      -0.839511       -22.8443
 110   2.0000      -0.835475       -22.7344
 111   2.0000      -0.821673       -22.3589
 112   2.0000      -0.815313       -22.1858
 113   2.0000      -0.808298       -21.9949
 114   2.0000      -0.797333       -21.6965
 115   2.0000      -0.780575       -21.2405
 116   2.0000      -0.763707       -20.7815
 117   2.0000      -0.761291       -20.7158
 118   2.0000      -0.760298       -20.6888
 119   2.0000      -0.735942       -20.0260
 120   2.0000      -0.726206       -19.7611
 121   2.0000      -0.721483       -19.6326
 122   2.0000      -0.711832       -19.3699
 123   2.0000      -0.701775       -19.0963
 124   2.0000      -0.695529       -18.9263
 125   2.0000      -0.689600       -18.7650
 126   2.0000      -0.688141       -18.7253
 127   2.0000      -0.685653       -18.6576
 128   2.0000      -0.681021       -18.5315
 129   2.0000      -0.669173       -18.2091
 130   2.0000      -0.658097       -17.9077
 131   2.0000      -0.649273       -17.6676
 132   2.0000      -0.640264       -17.4225
 133   2.0000      -0.631832       -17.1930
 134   2.0000      -0.627597       -17.0778
 135   2.0000      -0.623556       -16.9678
 136   2.0000      -0.620107       -16.8740
 137   2.0000      -0.614394       -16.7185
 138   2.0000      -0.607471       -16.5301
 139   2.0000      -0.598675       -16.2908
 140   2.0000      -0.596090       -16.2204
 141   2.0000      -0.593848       -16.1594
 142   2.0000      -0.587644       -15.9906
 143   2.0000      -0.582618       -15.8538
 144   2.0000      -0.574528       -15.6337
 145   2.0000      -0.566660       -15.4196
 146   2.0000      -0.564112       -15.3503
 147   2.0000      -0.557638       -15.1741
 148   2.0000      -0.555480       -15.1154
 149   2.0000      -0.550549       -14.9812
 150   2.0000      -0.540222       -14.7002
 151   2.0000      -0.535849       -14.5812
 152   2.0000      -0.534020       -14.5314
 153   2.0000      -0.531094       -14.4518
 154   2.0000      -0.523332       -14.2406
 155   2.0000      -0.521058       -14.1787
 156   2.0000      -0.520505       -14.1637
 157   2.0000      -0.518239       -14.1020
 158   2.0000      -0.514226       -13.9928
 159   2.0000      -0.510767       -13.8987
 160   2.0000      -0.510095       -13.8804
 161   2.0000      -0.508758       -13.8440
 162   2.0000      -0.507315       -13.8048
 163   2.0000      -0.506411       -13.7801
 164   2.0000      -0.502965       -13.6864
 165   2.0000      -0.499456       -13.5909
 166   2.0000      -0.498015       -13.5517
 167   2.0000      -0.495161       -13.4740
 168   2.0000      -0.494200       -13.4479
 169   2.0000      -0.491449       -13.3730
 170   2.0000      -0.489522       -13.3206
 171   2.0000      -0.487272       -13.2593
 172   2.0000      -0.481789       -13.1101
 173   2.0000      -0.481062       -13.0904
 174   2.0000      -0.477039       -12.9809
 175   2.0000      -0.473847       -12.8940
 176   2.0000      -0.471662       -12.8346
 177   2.0000      -0.467054       -12.7092
 178   2.0000      -0.464372       -12.6362
 179   2.0000      -0.461023       -12.5451
 180   2.0000      -0.458730       -12.4827
 181   2.0000      -0.456399       -12.4192
 182   2.0000      -0.454959       -12.3801
 183   2.0000      -0.452155       -12.3038
 184   2.0000      -0.450642       -12.2626
 185   2.0000      -0.448792       -12.2123
 186   2.0000      -0.445198       -12.1145
 187   2.0000      -0.441512       -12.0142
 188   2.0000      -0.439988       -11.9727
 189   2.0000      -0.436529       -11.8786
 190   2.0000      -0.431161       -11.7325
 191   2.0000      -0.427937       -11.6448
 192   2.0000      -0.427165       -11.6238
 193   2.0000      -0.426247       -11.5988
 194   2.0000      -0.423054       -11.5119
 195   2.0000      -0.420550       -11.4437
 196   2.0000      -0.419080       -11.4037
 197   2.0000      -0.415821       -11.3151
 198   2.0000      -0.415672       -11.3110
 199   2.0000      -0.413646       -11.2559
 200   2.0000      -0.413036       -11.2393
 201   2.0000      -0.410599       -11.1730
 202   2.0000      -0.408380       -11.1126
 203   2.0000      -0.398772       -10.8512
 204   2.0000      -0.397735       -10.8229
 205   2.0000      -0.395960       -10.7746
 206   2.0000      -0.389197       -10.5906
 207   2.0000      -0.382679       -10.4132
 208   2.0000      -0.377862       -10.2821
 209   2.0000      -0.374985       -10.2039
 210   2.0000      -0.371813       -10.1176
 211   2.0000      -0.366344        -9.9687
 212   2.0000      -0.358310        -9.7501
 213   2.0000      -0.353109        -9.6086
 214   2.0000      -0.344643        -9.3782
 215   2.0000      -0.342835        -9.3290
 216   2.0000      -0.339006        -9.2248
 217   2.0000      -0.337584        -9.1861
 218   2.0000      -0.332360        -9.0440
 219   2.0000      -0.330210        -8.9855
 220   2.0000      -0.325920        -8.8687
 221   2.0000      -0.325494        -8.8571
 222   2.0000      -0.321865        -8.7584
 223   2.0000      -0.320295        -8.7157
 224   2.0000      -0.312511        -8.5039
 225   2.0000      -0.293559        -7.9882
 226   2.0000      -0.284294        -7.7360
 227   2.0000      -0.253867        -6.9081
 228   2.0000      -0.220260        -5.9936
 229   2.0000      -0.202552        -5.5117
 230   0.0000      -0.084044        -2.2870
 231   0.0000      -0.070678        -1.9233
 232   0.0000      -0.050215        -1.3664
 233   0.0000      -0.017979        -0.4892
 234   0.0000      -0.016127        -0.4388

MULLIKEN ATOMIC CHARGES
-----------------------
   0 C :   -0.026751
   1 C :   -0.065858
   2 C :    0.056406
   3 C :    0.029108
   4 C :   -0.064875
   5 S :    0.078589
   6 C :   -0.048673
   7 C :    0.036088
   8 C :    0.033105
   9 C :   -0.006752
  10 S :    0.071273
  11 C :   -0.005813
  12 C :   -0.108194
  13 C :   -0.052298
  14 C :    0.031085
  15 C :    0.022426
  16 C :   -0.029781
  17 C :    0.090167
  18 C :    0.011540
  19 C :   -0.132099
  20 S :    0.753509
  21 O :   -0.435057
  22 O :   -0.465436
  23 C :   -0.012404
  24 C :    0.020964
  25 N :   -0.229453
  26 S :    0.508477
  27 N :   -0.297346
  28 C :    0.042438
  29 C :    0.104057
  30 C :   -0.037257
  31 C :    0.011662
  32 C :   -0.051776
  33 C :   -0.002102
  34 C :   -0.050954
  35 C :   -0.039368
  36 C :    0.073326
  37 C :    0.019676
  38 C :   -0.064922
  39 C :    0.059954
  40 C :    0.027424
  41 C :   -0.032842
  42 S :    0.735468
  43 O :   -0.460822
  44 O :   -0.462294
  45 C :   -0.056320
  46 C :   -0.013313
  47 C :    0.013981
  48 C :    0.037272
  49 C :   -0.044798
  50 S :    0.141211
  51 C :   -0.066952
  52 C :    0.029155
  53 C :    0.053324
  54 C :   -0.067882
  55 S :    0.102379
  56 C :   -0.026111
  57 H :    0.021405
  58 H :    0.022818
  59 H :   -0.010031
  60 H :   -0.010086
  61 H :   -0.011997
  62 H :   -0.002821
  63 H :    0.009955
  64 H :    0.016711
  65 H :    0.017785
  66 H :    0.025277
  67 H :    0.020848
  68 H :    0.008749
  69 H :   -0.000956
  70 H :    0.009035
  71 H :    0.020954
  72 H :    0.017370
  73 H :    0.029833
  74 H :   -0.010208
  75 H :   -0.013604
  76 H :   -0.008499
  77 H :    0.004524
  78 H :    0.024281
  79 H :   -0.005873
  80 H :    0.028897
  81 H :    0.018929
  82 H :    0.010085
  83 H :    0.004057
  84 H :    0.011533
  85 H :    0.008192
  86 H :    0.017803
  87 H :    0.020392
  88 H :   -0.021349
  89 H :   -0.016375
  90 H :   -0.015298
  91 H :   -0.012581
  92 H :   -0.011024
  93 H :    0.020703
  94 H :    0.025005
Sum of atomic charges:   -0.0000000

LOEWDIN ATOMIC CHARGES
----------------------
   0 C :   -0.073403
   1 C :   -0.139186
   2 C :   -0.028128
   3 C :   -0.026060
   4 C :   -0.173211
   5 S :    0.349865
   6 C :   -0.182865
   7 C :   -0.029275
   8 C :   -0.027423
   9 C :   -0.133319
  10 S :    0.395296
  11 C :   -0.079894
  12 C :   -0.161988
  13 C :   -0.027787
  14 C :   -0.036598
  15 C :   -0.054087
  16 C :   -0.009906
  17 C :   -0.028998
  18 C :   -0.044105
  19 C :   -0.159581
  20 S :    1.177114
  21 O :   -0.488640
  22 O :   -0.509365
  23 C :   -0.058421
  24 C :   -0.051074
  25 N :   -0.262531
  26 S :    0.642368
  27 N :   -0.291480
  28 C :   -0.037291
  29 C :   -0.019378
  30 C :   -0.009519
  31 C :    0.000539
  32 C :   -0.015319
  33 C :   -0.028997
  34 C :   -0.166652
  35 C :   -0.016295
  36 C :   -0.028069
  37 C :   -0.044364
  38 C :   -0.039655
  39 C :   -0.028524
  40 C :   -0.046875
  41 C :   -0.158159
  42 S :    1.164742
  43 O :   -0.501459
  44 O :   -0.501943
  45 C :   -0.091083
  46 C :   -0.133629
  47 C :   -0.040867
  48 C :   -0.024995
  49 C :   -0.186304
  50 S :    0.424269
  51 C :   -0.169027
  52 C :   -0.028014
  53 C :   -0.028159
  54 C :   -0.140030
  55 S :    0.369099
  56 C :   -0.070600
  57 H :    0.029413
  58 H :    0.026820
  59 H :    0.034213
  60 H :    0.033083
  61 H :    0.032554
  62 H :    0.036916
  63 H :    0.039162
  64 H :    0.020889
  65 H :    0.031170
  66 H :    0.018166
  67 H :    0.028913
  68 H :    0.020667
  69 H :    0.024864
  70 H :    0.034786
  71 H :    0.024252
  72 H :    0.026051
  73 H :    0.028916
  74 H :    0.036445
  75 H :    0.035178
  76 H :    0.023869
  77 H :    0.031302
  78 H :    0.036807
  79 H :    0.025527
  80 H :    0.029611
  81 H :    0.026308
  82 H :    0.022357
  83 H :    0.027298
  84 H :    0.029478
  85 H :    0.023326
  86 H :    0.025490
  87 H :    0.026719
  88 H :    0.035391
  89 H :    0.030804
  90 H :    0.030686
  91 H :    0.031934
  92 H :    0.033499
  93 H :    0.028856
  94 H :    0.027515

  Mayer bond orders larger than 0.100000
B(  0-C ,  1-C ) :   1.8683 B(  0-C , 57-H ) :   0.9499 B(  0-C , 58-H ) :   0.9417
B(  1-C ,  2-C ) :   1.0788 B(  1-C ,  5-S ) :   1.0064 B(  2-C ,  3-C ) :   1.6662
B(  2-C , 59-H ) :   0.9923 B(  3-C ,  4-C ) :   1.1477 B(  3-C , 60-H ) :   0.9921
B(  4-C ,  5-S ) :   1.0447 B(  4-C ,  6-C ) :   1.5670 B(  6-C ,  7-C ) :   1.1571
B(  6-C , 10-S ) :   1.0340 B(  7-C ,  8-C ) :   1.6206 B(  7-C , 61-H ) :   0.9919
B(  8-C ,  9-C ) :   1.1242 B(  8-C , 62-H ) :   0.9992 B(  9-C , 10-S ) :   1.0299
B(  9-C , 11-C ) :   1.6511 B( 11-C , 12-C ) :   1.1208 B( 11-C , 63-H ) :   0.9220
B( 12-C , 13-C ) :   1.6813 B( 12-C , 20-S ) :   0.8284 B( 13-C , 14-C ) :   1.0821
B( 13-C , 16-C ) :   1.0645 B( 14-C , 15-C ) :   1.0899 B( 14-C , 64-H ) :   0.9173
B( 14-C , 65-H ) :   0.9176 B( 15-C , 66-H ) :   0.9598 B( 15-C , 67-H ) :   0.9629
B( 15-C , 68-H ) :   0.9666 B( 16-C , 17-C ) :   1.0824 B( 16-C , 19-C ) :   1.7799
B( 17-C , 18-C ) :   1.1088 B( 17-C , 69-H ) :   0.9151 B( 17-C , 70-H ) :   0.9109
B( 18-C , 71-H ) :   0.9634 B( 18-C , 72-H ) :   0.9662 B( 18-C , 73-H ) :   0.9694
B( 19-C , 20-S ) :   0.7806 B( 19-C , 23-C ) :   0.9952 B( 20-S , 21-O ) :   1.7415
B( 20-S , 22-O ) :   1.6866 B( 23-C , 24-C ) :   1.1993 B( 23-C , 29-C ) :   0.1119
B( 23-C , 31-C ) :   1.5055 B( 24-C , 25-N ) :   1.5481 B( 24-C , 28-C ) :   1.1696
B( 25-N , 26-S ) :   1.2798 B( 25-N , 27-N ) :   0.1479 B( 26-S , 27-N ) :   1.2444
B( 27-N , 28-C ) :   1.5208 B( 28-C , 29-C ) :   1.1500 B( 29-C , 30-C ) :   1.4290
B( 29-C , 32-C ) :   1.1314 B( 30-C , 31-C ) :   1.2005 B( 30-C , 74-H ) :   1.0009
B( 31-C , 75-H ) :   0.9942 B( 32-C , 33-C ) :   1.5992 B( 32-C , 76-H ) :   0.9590
B( 33-C , 34-C ) :   1.2259 B( 33-C , 77-H ) :   0.9392 B( 34-C , 35-C ) :   1.5886
B( 34-C , 42-S ) :   0.7961 B( 35-C , 36-C ) :   1.0826 B( 35-C , 38-C ) :   1.1692
B( 36-C , 37-C ) :   1.1064 B( 36-C , 78-H ) :   0.9127 B( 36-C , 79-H ) :   0.9175
B( 37-C , 80-H ) :   0.9683 B( 37-C , 81-H ) :   0.9652 B( 37-C , 82-H ) :   0.9647
B( 38-C , 39-C ) :   1.0821 B( 38-C , 41-C ) :   1.5687 B( 39-C , 40-C ) :   1.1018
B( 39-C , 83-H ) :   0.9213 B( 39-C , 84-H ) :   0.9122 B( 40-C , 85-H ) :   0.9678
B( 40-C , 86-H ) :   0.9646 B( 40-C , 87-H ) :   0.9686 B( 41-C , 42-S ) :   0.7806
B( 41-C , 45-C ) :   1.2560 B( 42-S , 43-O ) :   1.6596 B( 42-S , 44-O ) :   1.6652
B( 45-C , 46-C ) :   1.5157 B( 45-C , 88-H ) :   0.9543 B( 46-C , 47-C ) :   1.1462
B( 46-C , 50-S ) :   1.0857 B( 47-C , 48-C ) :   1.5872 B( 47-C , 89-H ) :   1.0001
B( 48-C , 49-C ) :   1.1796 B( 48-C , 90-H ) :   0.9931 B( 49-C , 50-S ) :   1.0485
B( 49-C , 51-C ) :   1.5263 B( 51-C , 52-C ) :   1.1573 B( 51-C , 55-S ) :   1.0589
B( 52-C , 53-C ) :   1.6542 B( 52-C , 91-H ) :   0.9914 B( 53-C , 54-C ) :   1.0824
B( 53-C , 92-H ) :   0.9928 B( 54-C , 55-S ) :   1.0088 B( 54-C , 56-C ) :   1.8591
B( 56-C , 93-H ) :   0.9510 B( 56-C , 94-H ) :   0.9413

-----------------------------------------------------------------------------
         ABSORPTION SPECTRUM VIA TRANSITION ELECTRIC DIPOLE MOMENTS
-----------------------------------------------------------------------------
State   Energy  Wavelength   fosc         T2         TX        TY        TZ
        (cm-1)    (nm)                  (au**2)     (au)      (au)      (au)
-----------------------------------------------------------------------------
   0   12161.0    822.3   0.939130825  25.42337  -4.10831   2.90961  -0.28174
   1   17927.7    557.8   1.086217762  19.94660  -3.10243   1.16306   2.99480
   2   19240.9    519.7   0.161341683   2.76055   0.79655  -0.68442   1.28749
   3   20716.0    482.7   0.149732325   2.37950  -1.36728   0.64620  -0.30409
   4   21099.3    473.9   0.061620510   0.96146   0.96168  -0.17636   0.07434
   5   22530.9    443.8   0.296980161   4.33934   0.76868  -0.22391  -1.92310
   6   25778.9    387.9   0.686386034   8.76555   0.48628   0.04400  -2.92013
   7   26539.3    376.8   0.020861858   0.25879  -0.50726   0.01171  -0.03660
   8   27216.0    367.4   0.042824699   0.51802   0.42448  -0.17926   0.55290
   9   28513.2    350.7   0.077000149   0.88904  -0.57752  -0.25198   0.70144
  10   29016.1    344.6   0.058006575   0.65813  -0.15879   0.14353  -0.78251
  11   29900.7    334.4   0.021992833   0.24215  -0.01672   0.29073   0.39666
  12   31041.2    322.2   0.000157739   0.00167   0.03469  -0.02143  -0.00314
  13   31666.5    315.8   0.123813766   1.28720   0.80131   0.80219   0.03980
  14   32131.7    311.2   0.055311190   0.56670  -0.28803   0.47317   0.50975
  15   32316.1    309.4   0.059574670   0.60690  -0.38098  -0.67942  -0.01189
  16   33036.1    302.7   0.057797701   0.57597  -0.65187  -0.27475   0.27485
  17   33940.9    294.6   0.030833239   0.29907   0.14019  -0.45960  -0.26112
  18   34419.0    290.5   0.030287991   0.28970  -0.12108  -0.42621  -0.30559
  19   34790.5    287.4   0.000026630   0.00025   0.01140  -0.01105   0.00016
  20   35014.4    285.6   0.001905699   0.01792   0.01124  -0.06656   0.11559
  21   35303.4    283.3   0.015764047   0.14700  -0.29538   0.23753  -0.05774
  22   35642.7    280.6   0.142644451   1.31753  -0.49390   0.66562  -0.79407
  23   35773.0    279.5   0.014419697   0.13270   0.10225   0.34602   0.05017
  24   35969.9    278.0   0.011073319   0.10135  -0.11293   0.28335  -0.09114
  25   36098.0    277.0   0.108692482   0.99127  -0.52444   0.34332  -0.77354
  26   36247.5    275.9   0.033371023   0.30309  -0.36971   0.36629  -0.17952
  27   36673.6    272.7   0.014873545   0.13352   0.28941   0.12920   0.18184
  28   37204.0    268.8   0.014348659   0.12697  -0.05725  -0.18098   0.30156
  29   37910.3    263.8   0.111643439   0.96951  -0.43874  -0.00920   0.88144
  30   38165.4    262.0   0.015676506   0.13522   0.12117   0.34473   0.04125
  31   38262.8    261.4   0.045443294   0.39099   0.32488  -0.17799  -0.50375
  32   38999.0    256.4   0.061030546   0.51519  -0.16233   0.69375  -0.08692
  33   39433.7    253.6   0.090978278   0.75953  -0.78022  -0.02209   0.38768
  34   39843.8    251.0   0.002044080   0.01689  -0.07534  -0.10160   0.02985
  35   40116.2    249.3   0.006328220   0.05193  -0.16612  -0.01806   0.15495

FINAL SINGLE POINT ENERGY     -4893.447488877756

DIPOLE MOMENT
-------------
                                X             Y             Z
Electronic contribution:      3.49075       7.74247      14.56573
Nuclear contribution   :     -4.20373      -8.43846     -14.71515
                        -----------------------------------------
Total Dipole Moment    :     -0.71298      -0.69598      -0.14942
                        -----------------------------------------
Magnitude (a.u.)       :      1.00750
Magnitude (Debye)      :      2.56086

Rotational constants in cm-1:     0.002514     0.000343     0.000314
Rotational constants in MHz :    75.355372    10.289759     9.425763

                             ****ORCA TERMINATED NORMALLY****
TOTAL RUN TIME: 0 days 0 hours 8 minutes 9 seconds 317 msec
