                         Program Version 4.2.0 -  RELEASE  -
|  1> # ORCA input file
|  2> # SCF done       -124.190168448788          0.000332353783
|  3> ! CAM-B3LYP def2-SVP def2/J RIJCOSX Grid4 TightSCF
|  4> %maxcore 5000
|  5> %tddft
|  6>     Mode sTDDFT
|  7>     Ethresh 5.0
|  8>     maxcore 5000
|  9> end
| 10>
| 11> %pal
| 12>   nprocs 6
| 13>   end
| 14> * xyz 0 1
| 15>    C       10.01914         1.59603        -8.49515
| 16>    C       10.77421         0.98776        -9.41031
| 17>    C       10.07394         1.28733        -7.12921
| 18>    C       10.12437         1.02207        -5.94556
| 19>    C       10.18372         0.72732        -4.59090
| 20>    C        9.49145         1.42561        -3.65370
| 21>    C        9.58643         1.10534        -2.27644
| 22>    N       10.37510         0.12316        -1.85748
| 23>    C       10.30699         0.12245        -0.51590
| 24>    C        9.43927         1.19592        -0.03178
| 25>    C        9.37548         1.19103         1.43091
| 26>    O        8.77446         1.95566         2.16199
| 27>    C       10.22181         0.03876         1.78800
| 28>    C       10.77926        -0.57989         0.57285
| 29>    N       11.55277        -1.64548         0.88825
| 30>    C       11.50449        -1.72696         2.19850
| 31>    C       10.68610        -0.71271         2.82253
| 32>    C        8.92466         1.82146        -1.14788
| 33>    C        8.00471         2.89876        -1.14180
| 34>    C        7.18499         3.46031        -2.13772
| 35>    C        6.36319         4.52392        -1.65054
| 36>    N        5.50795         5.17986        -2.44975
| 37>    C        5.46026         4.78602        -3.69466
| 38>    C        6.25585         3.72465        -4.19663
| 39>    C        6.16409         3.30631        -5.62646
| 40>    N        7.09911         3.07991        -3.42597
| 41>    C        6.55461         4.79688        -0.28291
| 42>    S        7.71622         3.70476         0.38083
| 43>    C        5.89702         5.79926         0.44584
| 44>    C        6.13337         6.07829         1.76059
| 45>    C        5.48374         7.07980         2.49442
| 46>    C        5.74853         7.42708         3.83185
| 47>    C        4.92659         8.48974         4.31781
| 48>    N        5.06543         8.94073         5.58169
| 49>    C        5.97972         8.35430         6.30413
| 50>    C        6.80337         7.29786         5.82533
| 51>    C        7.83445         6.67580         6.70432
| 52>    N        6.68187         6.84458         4.60086
| 53>    C        4.01925         8.96658         3.35825
| 54>    S        4.21571         8.08981         1.87358
| 55>    C        3.04453         9.98469         3.45976
| 56>    C        2.81342        10.71211         4.57733
| 57>    C        1.80085        11.73243         4.63796
| 58>    C        1.58095        12.47254         5.81295
| 59>    N        0.65427        13.40581         5.89604
| 60>    C       -0.07812        13.63118         4.81223
| 61>    C        0.13082        12.91216         3.64049
| 62>    N        1.05413        11.97585         3.55084
| 63>    H        9.31918         2.37440        -8.77563
| 64>    H       11.47368         0.21511        -9.13844
| 65>    H       10.71401         1.24838       -10.45278
| 66>    H       10.81632        -0.09456        -4.27958
| 67>    H        8.83678         2.23565        -3.93625
| 68>    H       12.04900        -2.49896         2.71408
| 69>    H       10.51297        -0.60929         3.87567
| 70>    H        4.77221         5.31329        -4.34154
| 71>    H        6.84917         2.48448        -5.81696
| 72>    H        6.41168         4.14379        -6.27726
| 73>    H        5.14815         2.99038        -5.85846
| 74>    H        5.16815         6.37629        -0.10954
| 75>    H        6.87390         5.51134         2.31069
| 76>    H        6.09251         8.71697         7.31751
| 77>    H        8.34663         5.88683         6.16160
| 78>    H        7.36729         6.25941         7.59551
| 79>    H        8.55746         7.42536         7.02327
| 80>    H        2.44644        10.18281         2.58031
| 81>    H        3.39636        10.53447         5.46839
| 82>    H        2.17206        12.29987         6.70249
| 83>    H       -0.83646        14.39681         4.89369
| 84>    H       -0.45726        13.08907         2.74945
| 85> *
| 86>
| 87>                          ****END OF INPUT****

CARTESIAN COORDINATES (ANGSTROEM)
---------------------------------
  C     10.019140    1.596030   -8.495150
  C     10.774210    0.987760   -9.410310
  C     10.073940    1.287330   -7.129210
  C     10.124370    1.022070   -5.945560
  C     10.183720    0.727320   -4.590900
  C      9.491450    1.425610   -3.653700
  C      9.586430    1.105340   -2.276440
  N     10.375100    0.123160   -1.857480
  C     10.306990    0.122450   -0.515900
  C      9.439270    1.195920   -0.031780
  C      9.375480    1.191030    1.430910
  O      8.774460    1.955660    2.161990
  C     10.221810    0.038760    1.788000
  C     10.779260   -0.579890    0.572850
  N     11.552770   -1.645480    0.888250
  C     11.504490   -1.726960    2.198500
  C     10.686100   -0.712710    2.822530
  C      8.924660    1.821460   -1.147880
  C      8.004710    2.898760   -1.141800
  C      7.184990    3.460310   -2.137720
  C      6.363190    4.523920   -1.650540
  N      5.507950    5.179860   -2.449750
  C      5.460260    4.786020   -3.694660
  C      6.255850    3.724650   -4.196630
  C      6.164090    3.306310   -5.626460
  N      7.099110    3.079910   -3.425970
  C      6.554610    4.796880   -0.282910
  S      7.716220    3.704760    0.380830
  C      5.897020    5.799260    0.445840
  C      6.133370    6.078290    1.760590
  C      5.483740    7.079800    2.494420
  C      5.748530    7.427080    3.831850
  C      4.926590    8.489740    4.317810
  N      5.065430    8.940730    5.581690
  C      5.979720    8.354300    6.304130
  C      6.803370    7.297860    5.825330
  C      7.834450    6.675800    6.704320
  N      6.681870    6.844580    4.600860
  C      4.019250    8.966580    3.358250
  S      4.215710    8.089810    1.873580
  C      3.044530    9.984690    3.459760
  C      2.813420   10.712110    4.577330
  C      1.800850   11.732430    4.637960
  C      1.580950   12.472540    5.812950
  N      0.654270   13.405810    5.896040
  C     -0.078120   13.631180    4.812230
  C      0.130820   12.912160    3.640490
  N      1.054130   11.975850    3.550840
  H      9.319180    2.374400   -8.775630
  H     11.473680    0.215110   -9.138440
  H     10.714010    1.248380  -10.452780
  H     10.816320   -0.094560   -4.279580
  H      8.836780    2.235650   -3.936250
  H     12.049000   -2.498960    2.714080
  H     10.512970   -0.609290    3.875670
  H      4.772210    5.313290   -4.341540
  H      6.849170    2.484480   -5.816960
  H      6.411680    4.143790   -6.277260
  H      5.148150    2.990380   -5.858460
  H      5.168150    6.376290   -0.109540
  H      6.873900    5.511340    2.310690
  H      6.092510    8.716970    7.317510
  H      8.346630    5.886830    6.161600
  H      7.367290    6.259410    7.595510
  H      8.557460    7.425360    7.023270
  H      2.446440   10.182810    2.580310
  H      3.396360   10.534470    5.468390
  H      2.172060   12.299870    6.702490
  H     -0.836460   14.396810    4.893690
  H     -0.457260   13.089070    2.749450

 Total Charge           Charge          ....    0
 Multiplicity           Mult            ....    1
 Number of Electrons    NEL             ....  340
 Basis Dimension        Dim             ....  790

ORBITAL ENERGIES
----------------

  NO   OCC          E(Eh)            E(eV)
   0   2.0000     -88.972781     -2421.0725
   1   2.0000     -88.965360     -2420.8705
   2   2.0000     -19.196759      -522.3704
   3   2.0000     -14.427904      -392.6032
   4   2.0000     -14.427776      -392.5998
   5   2.0000     -14.420503      -392.4018
   6   2.0000     -14.420235      -392.3945
   7   2.0000     -14.413192      -392.2029
   8   2.0000     -14.412357      -392.1802
   9   2.0000     -14.396817      -391.7573
  10   2.0000     -14.389343      -391.5539
  11   2.0000     -10.357682      -281.8469
  12   2.0000     -10.334290      -281.2103
  13   2.0000     -10.327352      -281.0215
  14   2.0000     -10.324172      -280.9350
  15   2.0000     -10.319768      -280.8152
  16   2.0000     -10.318304      -280.7753
  17   2.0000     -10.316675      -280.7310
  18   2.0000     -10.315100      -280.6881
  19   2.0000     -10.312127      -280.6072
  20   2.0000     -10.311380      -280.5869
  21   2.0000     -10.310998      -280.5765
  22   2.0000     -10.310565      -280.5647
  23   2.0000     -10.308990      -280.5219
  24   2.0000     -10.308768      -280.5158
  25   2.0000     -10.307928      -280.4930
  26   2.0000     -10.306759      -280.4612
  27   2.0000     -10.306757      -280.4611
  28   2.0000     -10.306353      -280.4501
  29   2.0000     -10.305083      -280.4156
  30   2.0000     -10.304144      -280.3900
  31   2.0000     -10.303844      -280.3819
  32   2.0000     -10.303016      -280.3593
  33   2.0000     -10.301193      -280.3097
  34   2.0000     -10.297993      -280.2226
  35   2.0000     -10.286617      -279.9131
  36   2.0000     -10.285566      -279.8845
  37   2.0000     -10.281760      -279.7809
  38   2.0000     -10.281142      -279.7641
  39   2.0000     -10.280625      -279.7500
  40   2.0000     -10.275252      -279.6038
  41   2.0000     -10.274062      -279.5714
  42   2.0000     -10.273133      -279.5462
  43   2.0000     -10.272899      -279.5398
  44   2.0000     -10.271705      -279.5073
  45   2.0000     -10.271599      -279.5044
  46   2.0000     -10.268589      -279.4225
  47   2.0000     -10.267690      -279.3980
  48   2.0000      -8.067673      -219.5325
  49   2.0000      -8.059340      -219.3058
  50   2.0000      -6.036451      -164.2602
  51   2.0000      -6.032609      -164.1556
  52   2.0000      -6.030627      -164.1017
  53   2.0000      -6.028253      -164.0371
  54   2.0000      -6.024081      -163.9236
  55   2.0000      -6.022177      -163.8718
  56   2.0000      -1.111778       -30.2530
  57   2.0000      -1.081189       -29.4207
  58   2.0000      -1.080428       -29.3999
  59   2.0000      -1.067834       -29.0572
  60   2.0000      -1.064904       -28.9775
  61   2.0000      -1.043276       -28.3890
  62   2.0000      -1.005041       -27.3486
  63   2.0000      -1.004597       -27.3365
  64   2.0000      -0.989089       -26.9145
  65   2.0000      -0.983970       -26.7752
  66   2.0000      -0.978773       -26.6338
  67   2.0000      -0.927155       -25.2292
  68   2.0000      -0.911239       -24.7961
  69   2.0000      -0.906799       -24.6753
  70   2.0000      -0.896433       -24.3932
  71   2.0000      -0.888617       -24.1805
  72   2.0000      -0.878858       -23.9149
  73   2.0000      -0.873393       -23.7662
  74   2.0000      -0.869746       -23.6670
  75   2.0000      -0.847737       -23.0681
  76   2.0000      -0.844542       -22.9811
  77   2.0000      -0.823513       -22.4089
  78   2.0000      -0.818679       -22.2774
  79   2.0000      -0.806915       -21.9573
  80   2.0000      -0.800833       -21.7918
  81   2.0000      -0.784473       -21.3466
  82   2.0000      -0.767582       -20.8870
  83   2.0000      -0.754754       -20.5379
  84   2.0000      -0.748624       -20.3711
  85   2.0000      -0.744389       -20.2558
  86   2.0000      -0.735489       -20.0137
  87   2.0000      -0.730756       -19.8849
  88   2.0000      -0.719408       -19.5761
  89   2.0000      -0.712928       -19.3997
  90   2.0000      -0.697838       -18.9891
  91   2.0000      -0.694591       -18.9008
  92   2.0000      -0.689402       -18.7596
  93   2.0000      -0.661633       -18.0040
  94   2.0000      -0.648977       -17.6596
  95   2.0000      -0.646317       -17.5872
  96   2.0000      -0.639023       -17.3887
  97   2.0000      -0.634080       -17.2542
  98   2.0000      -0.627212       -17.0673
  99   2.0000      -0.619510       -16.8577
 100   2.0000      -0.609050       -16.5731
 101   2.0000      -0.601682       -16.3726
 102   2.0000      -0.597663       -16.2632
 103   2.0000      -0.595013       -16.1911
 104   2.0000      -0.590422       -16.0662
 105   2.0000      -0.588612       -16.0169
 106   2.0000      -0.578463       -15.7408
 107   2.0000      -0.564092       -15.3497
 108   2.0000      -0.559508       -15.2250
 109   2.0000      -0.553067       -15.0497
 110   2.0000      -0.549282       -14.9467
 111   2.0000      -0.544335       -14.8121
 112   2.0000      -0.541580       -14.7371
 113   2.0000      -0.541309       -14.7298
 114   2.0000      -0.534962       -14.5571
 115   2.0000      -0.532393       -14.4872
 116   2.0000      -0.528673       -14.3859
 117   2.0000      -0.517944       -14.0940
 118   2.0000      -0.516076       -14.0431
 119   2.0000      -0.514635       -14.0039
 120   2.0000      -0.510610       -13.8944
 121   2.0000      -0.510093       -13.8803
 122   2.0000      -0.503587       -13.7033
 123   2.0000      -0.501983       -13.6596
 124   2.0000      -0.499472       -13.5913
 125   2.0000      -0.498224       -13.5574
 126   2.0000      -0.488541       -13.2939
 127   2.0000      -0.481374       -13.0988
 128   2.0000      -0.478361       -13.0169
 129   2.0000      -0.477404       -12.9908
 130   2.0000      -0.476072       -12.9546
 131   2.0000      -0.473183       -12.8760
 132   2.0000      -0.469500       -12.7757
 133   2.0000      -0.463013       -12.5992
 134   2.0000      -0.461045       -12.5457
 135   2.0000      -0.459876       -12.5139
 136   2.0000      -0.458806       -12.4847
 137   2.0000      -0.453184       -12.3318
 138   2.0000      -0.451478       -12.2854
 139   2.0000      -0.446363       -12.1462
 140   2.0000      -0.445761       -12.1298
 141   2.0000      -0.440683       -11.9916
 142   2.0000      -0.438048       -11.9199
 143   2.0000      -0.432452       -11.7676
 144   2.0000      -0.426474       -11.6049
 145   2.0000      -0.423805       -11.5323
 146   2.0000      -0.409747       -11.1498
 147   2.0000      -0.404542       -11.0081
 148   2.0000      -0.389607       -10.6017
 149   2.0000      -0.387129       -10.5343
 150   2.0000      -0.385366       -10.4863
 151   2.0000      -0.382608       -10.4113
 152   2.0000      -0.374995       -10.2041
 153   2.0000      -0.372399       -10.1335
 154   2.0000      -0.354802        -9.6546
 155   2.0000      -0.347995        -9.4694
 156   2.0000      -0.339991        -9.2516
 157   2.0000      -0.337887        -9.1944
 158   2.0000      -0.330932        -9.0051
 159   2.0000      -0.323421        -8.8007
 160   2.0000      -0.323054        -8.7908
 161   2.0000      -0.321542        -8.7496
 162   2.0000      -0.320248        -8.7144
 163   2.0000      -0.319164        -8.6849
 164   2.0000      -0.315445        -8.5837
 165   2.0000      -0.312034        -8.4909
 166   2.0000      -0.309771        -8.4293
 167   2.0000      -0.276435        -7.5222
 168   2.0000      -0.267473        -7.2783
 169   2.0000      -0.221977        -6.0403
 170   0.0000      -0.108749        -2.9592
 171   0.0000      -0.085429        -2.3247
 172   0.0000      -0.052693        -1.4338
 173   0.0000      -0.026809        -0.7295
 174   0.0000      -0.019036        -0.5180

MULLIKEN ATOMIC CHARGES
-----------------------
   0 C :   -0.093493
   1 C :    0.012631
   2 C :   -0.026926
   3 C :    0.085723
   4 C :   -0.031723
   5 C :   -0.009506
   6 C :   -0.000956
   7 N :   -0.041194
   8 C :    0.074690
   9 C :   -0.216340
  10 C :    0.206945
  11 O :   -0.157815
  12 C :   -0.017703
  13 C :   -0.048410
  14 N :   -0.059594
  15 C :    0.081083
  16 C :   -0.102372
  17 C :    0.126651
  18 C :   -0.261545
  19 C :    0.104472
  20 C :   -0.007941
  21 N :    0.011460
  22 C :    0.011605
  23 C :   -0.123973
  24 C :    0.094212
  25 N :   -0.035656
  26 C :   -0.099095
  27 S :    0.221083
  28 C :   -0.021231
  29 C :   -0.000099
  30 C :   -0.145979
  31 C :    0.048945
  32 C :    0.035438
  33 N :   -0.000842
  34 C :    0.027333
  35 C :   -0.157112
  36 C :    0.107392
  37 N :    0.007041
  38 C :   -0.134301
  39 S :    0.180384
  40 C :    0.046520
  41 C :   -0.011900
  42 C :    0.000186
  43 C :   -0.000692
  44 N :   -0.045783
  45 C :    0.012336
  46 C :    0.033435
  47 N :   -0.059754
  48 H :    0.031842
  49 H :    0.040479
  50 H :    0.036971
  51 H :    0.051283
  52 H :    0.003523
  53 H :    0.000912
  54 H :   -0.013155
  55 H :   -0.001452
  56 H :    0.037784
  57 H :    0.032051
  58 H :    0.034806
  59 H :    0.001716
  60 H :    0.018999
  61 H :   -0.001871
  62 H :    0.035886
  63 H :    0.031977
  64 H :    0.032154
  65 H :   -0.006962
  66 H :   -0.003440
  67 H :    0.000340
  68 H :    0.010917
  69 H :    0.007603
Sum of atomic charges:    0.0000000

LOEWDIN ATOMIC CHARGES
----------------------
   0 C :   -0.045881
   1 C :    0.006137
   2 C :   -0.016763
   3 C :   -0.034684
   4 C :    0.032707
   5 C :   -0.027594
   6 C :    0.080109
   7 N :   -0.104251
   8 C :    0.049868
   9 C :   -0.078143
  10 C :    0.059464
  11 O :   -0.164693
  12 C :   -0.044771
  13 C :    0.007348
  14 N :   -0.100016
  15 C :    0.059015
  16 C :   -0.042725
  17 C :   -0.036702
  18 C :   -0.196419
  19 C :   -0.036471
  20 C :   -0.059001
  21 N :   -0.026502
  22 C :   -0.004679
  23 C :    0.003455
  24 C :   -0.053118
  25 N :   -0.048454
  26 C :   -0.166264
  27 S :    0.555922
  28 C :   -0.046150
  29 C :   -0.018502
  30 C :   -0.186579
  31 C :   -0.040484
  32 C :   -0.051239
  33 N :   -0.029272
  34 C :    0.007937
  35 C :   -0.004411
  36 C :   -0.052037
  37 N :   -0.045941
  38 C :   -0.171661
  39 S :    0.498445
  40 C :   -0.018517
  41 C :   -0.025356
  42 C :   -0.011675
  43 C :    0.003024
  44 N :   -0.043546
  45 C :   -0.009911
  46 C :    0.001746
  47 N :   -0.053612
  48 H :    0.042835
  49 H :    0.033121
  50 H :    0.029810
  51 H :    0.051670
  52 H :    0.027709
  53 H :    0.019820
  54 H :    0.030904
  55 H :    0.023736
  56 H :    0.041003
  57 H :    0.039832
  58 H :    0.041163
  59 H :    0.031520
  60 H :    0.038766
  61 H :    0.024523
  62 H :    0.041583
  63 H :    0.039938
  64 H :    0.040092
  65 H :    0.031619
  66 H :    0.028385
  67 H :    0.024031
  68 H :    0.024154
  69 H :    0.024636

  Mayer bond orders larger than 0.100000
B(  0-C ,  1-C ) :   1.9238 B(  0-C ,  2-C ) :   1.0157 B(  0-C , 48-H ) :   0.9617
B(  1-C , 49-H ) :   0.9635 B(  1-C , 50-H ) :   0.9562 B(  2-C ,  3-C ) :   2.2852
B(  3-C ,  4-C ) :   0.9436 B(  4-C ,  5-C ) :   1.6497 B(  4-C , 51-H ) :   0.9614
B(  5-C ,  6-C ) :   1.1826 B(  5-C , 52-H ) :   0.9365 B(  6-C ,  7-N ) :   1.5883
B(  6-C ,  8-C ) :   0.1027 B(  6-C , 17-C ) :   0.9889 B(  7-N ,  8-C ) :   1.3632
B(  8-C ,  9-C ) :   1.0667 B(  8-C , 13-C ) :   1.4010 B(  9-C , 10-C ) :   0.8979
B(  9-C , 17-C ) :   1.5228 B( 10-C , 11-O ) :   2.2140 B( 10-C , 12-C ) :   0.9278
B( 12-C , 13-C ) :   1.0829 B( 12-C , 16-C ) :   1.5873 B( 13-C , 14-N ) :   1.3239
B( 14-N , 15-C ) :   1.6438 B( 15-C , 16-C ) :   1.0864 B( 15-C , 53-H ) :   0.9895
B( 16-C , 54-H ) :   1.0111 B( 17-C , 18-C ) :   1.1722 B( 18-C , 19-C ) :   1.3063
B( 18-C , 26-C ) :   0.1389 B( 18-C , 27-S ) :   1.1702 B( 19-C , 20-C ) :   1.2207
B( 19-C , 25-N ) :   1.3878 B( 20-C , 21-N ) :   1.4428 B( 20-C , 26-C ) :   1.2791
B( 21-N , 22-C ) :   1.6982 B( 22-C , 23-C ) :   1.1742 B( 22-C , 55-H ) :   0.9819
B( 23-C , 24-C ) :   1.0479 B( 23-C , 25-N ) :   1.6630 B( 24-C , 56-H ) :   0.9556
B( 24-C , 57-H ) :   0.9525 B( 24-C , 58-H ) :   0.9519 B( 26-C , 27-S ) :   1.1570
B( 26-C , 28-C ) :   1.2445 B( 28-C , 29-C ) :   1.4902 B( 28-C , 59-H ) :   0.9796
B( 29-C , 30-C ) :   1.2407 B( 29-C , 60-H ) :   0.9797 B( 30-C , 31-C ) :   1.2988
B( 30-C , 38-C ) :   0.1275 B( 30-C , 39-S ) :   1.1351 B( 31-C , 32-C ) :   1.2182
B( 31-C , 37-N ) :   1.4243 B( 32-C , 33-N ) :   1.3936 B( 32-C , 38-C ) :   1.3169
B( 33-N , 34-C ) :   1.7161 B( 34-C , 35-C ) :   1.1581 B( 34-C , 61-H ) :   0.9792
B( 35-C , 36-C ) :   1.0477 B( 35-C , 37-N ) :   1.7059 B( 36-C , 62-H ) :   0.9518
B( 36-C , 63-H ) :   0.9523 B( 36-C , 64-H ) :   0.9521 B( 38-C , 39-S ) :   1.1683
B( 38-C , 40-C ) :   1.1386 B( 40-C , 41-C ) :   1.6931 B( 40-C , 65-H ) :   0.9533
B( 41-C , 42-C ) :   1.0586 B( 41-C , 66-H ) :   0.9614 B( 42-C , 43-C ) :   1.3015
B( 42-C , 47-N ) :   1.5183 B( 43-C , 44-N ) :   1.5870 B( 43-C , 67-H ) :   0.9823
B( 44-N , 45-C ) :   1.5330 B( 45-C , 46-C ) :   1.3471 B( 45-C , 68-H ) :   0.9787
B( 46-C , 47-N ) :   1.5655 B( 46-C , 69-H ) :   0.9763

-----------------------------------------------------------------------------
         ABSORPTION SPECTRUM VIA TRANSITION ELECTRIC DIPOLE MOMENTS
-----------------------------------------------------------------------------
State   Energy  Wavelength   fosc         T2         TX        TY        TZ
        (cm-1)    (nm)                  (au**2)     (au)      (au)      (au)
-----------------------------------------------------------------------------
   0   10652.2    938.8   0.367730719  11.36488  -1.87924   2.66877   0.84322
   1   14880.1    672.0   0.904237630  20.00558   2.01080  -3.10095  -2.51920
   2   20105.0    497.4   0.026012370   0.42594  -0.03874  -0.03033  -0.65079
   3   20531.3    487.1   0.576798545   9.24877  -0.21099   0.83073  -2.91790
   4   20983.2    476.6   0.014895371   0.23370   0.09019   0.00725  -0.47488
   5   21905.5    456.5   0.143073107   2.15021   0.16994  -0.10021  -1.45303
   6   24754.0    404.0   0.045032011   0.59890   0.17614  -0.28740   0.69662
   7   25033.2    399.5   0.030445208   0.40039  -0.41079   0.43850   0.19840
   8   25368.0    394.2   0.002736787   0.03552   0.06780  -0.08672   0.15297
   9   25933.5    385.6   0.114259516   1.45047  -0.57051   0.56699  -0.89639
  10   26544.9    376.7   0.003367105   0.04176  -0.01395   0.17416  -0.10599
  11   26981.1    370.6   0.162110665   1.97800  -0.08868   0.49551  -1.31324
  12   27148.0    368.4   0.038780564   0.47027  -0.12649   0.08236  -0.66895
  13   27666.4    361.4   0.032241595   0.38365  -0.20123  -0.16464   0.56218
  14   28258.3    353.9   0.419357760   4.88555   1.18212  -1.43877  -1.19083
  15   29164.1    342.9   0.009228902   0.10418  -0.26769   0.15551   0.09129
  16   29458.3    339.5   0.005374956   0.06007   0.21066   0.00065   0.12525
  17   29956.2    333.8   0.024313874   0.26720   0.28590  -0.37510   0.21157
  18   30200.8    331.1   0.002353901   0.02566   0.10766   0.11037  -0.04344
  19   30432.5    328.6   0.009438210   0.10210   0.08925   0.22686  -0.20657
  20   31002.0    322.6   0.017799978   0.18902  -0.12345   0.41617   0.02410
  21   31892.2    313.6   0.334544513   3.45339  -0.42532   0.10731  -1.80582
  22   32249.7    310.1   0.463983176   4.73645  -1.47905   1.08818  -1.16821
  23   32648.1    306.3   0.014549575   0.14671  -0.14584   0.17345  -0.30881
  24   33558.5    298.0   0.062472833   0.61286   0.40990  -0.59519   0.30099
  25   34062.4    293.6   0.112024005   1.08271  -0.12969  -0.20654  -1.01155
  26   34464.0    290.2   0.038534928   0.36810  -0.22235  -0.05686  -0.56163
  27   35223.2    283.9   0.166714555   1.55819  -0.22711   0.03900  -1.22682
  28   35347.7    282.9   0.001807998   0.01684   0.06442   0.09580  -0.05925
  29   35648.3    280.5   0.127824246   1.18046   0.08739  -0.30470  -1.03922
  30   35769.2    279.6   0.090775309   0.83548  -0.38274   0.48825  -0.67127
  31   36176.6    276.4   0.030628001   0.27872   0.17843  -0.05998  -0.49324
  32   36402.9    274.7   0.098201888   0.88809  -0.76085   0.37416  -0.41135
  33   37183.6    268.9   0.078068779   0.69120   0.34038  -0.37445   0.65964
  34   37800.8    264.5   0.090663587   0.78960   0.38442   0.07113   0.79798
  35   37966.9    263.4   0.002015517   0.01748   0.09192   0.09496  -0.00292
  36   38177.7    261.9   0.258520535   2.22926  -0.06937   0.11263  -1.48720
  37   38661.5    258.7   0.005282578   0.04498  -0.12380  -0.02575   0.17027
  38   38814.0    257.6   0.169370116   1.43656   0.04613  -0.12295   1.19135
  39   39030.8    256.2   0.062728282   0.52909  -0.17350   0.01896  -0.70614
  40   39539.3    252.9   0.000671287   0.00559   0.00505   0.05711   0.04799
  41   39731.2    251.7   0.005883820   0.04875   0.14784   0.15328  -0.05832
  42   39975.3    250.2   0.039459204   0.32496  -0.39216   0.28330  -0.30152
  43   40067.4    249.6   0.003399780   0.02793  -0.14649   0.03626  -0.07183
  44   40298.3    248.1   0.011794899   0.09636   0.25901  -0.15995   0.06074

FINAL SINGLE POINT ENERGY     -2729.913578923445

DIPOLE MOMENT
-------------
                                X             Y             Z
Electronic contribution:      2.15488      -6.87751      10.79017
Nuclear contribution   :     -2.70512       7.79984     -11.89147
                        -----------------------------------------
Total Dipole Moment    :     -0.55024       0.92233      -1.10130
                        -----------------------------------------
Magnitude (a.u.)       :      1.53828
Magnitude (Debye)      :      3.91000

Rotational constants in cm-1:     0.003048     0.000711     0.000586
Rotational constants in MHz :    91.372658    21.327484    17.562982

                             ****ORCA TERMINATED NORMALLY****
TOTAL RUN TIME: 0 days 0 hours 4 minutes 50 seconds 523 msec
