                         Program Version 4.2.0 -  RELEASE  -
|  1> # ORCA input file
|  2> # SCF done       -134.237297947031          0.000350824544
|  3> ! CAM-B3LYP def2-SVP def2/J RIJCOSX Grid4 TightSCF
|  4> %maxcore 5000
|  5> %tddft
|  6>     Mode sTDDFT
|  7>     Ethresh 5.0
|  8>     maxcore 5000
|  9> end
| 10>
| 11> %pal
| 12>   nprocs 6
| 13>   end
| 14> * xyz 0 1
| 15>    C       -2.75686        -4.07762        -5.47089
| 16>    S       -2.50933        -5.00107        -4.06477
| 17>    C       -2.28358        -3.59628        -3.07192
| 18>    C       -2.40343        -2.43484        -3.83816
| 19>    C       -2.67923        -2.72436        -5.22216
| 20>    C       -2.84250        -1.67183        -6.14944
| 21>    C       -2.74829        -0.37565        -5.71807
| 22>    C       -2.91383         0.69362        -6.62949
| 23>    N       -3.05041         1.54761        -7.38070
| 24>    C       -2.48918        -0.08443        -4.33748
| 25>    C       -2.41723         1.26552        -3.92292
| 26>    N       -2.36027         2.35525        -3.57356
| 27>    C       -2.31866        -1.09224        -3.42166
| 28>    C       -2.02034        -3.77586        -1.68330
| 29>    S       -1.43210        -2.51945        -0.63948
| 30>    C       -1.43949        -3.59038         0.73439
| 31>    C       -1.01055        -3.06029         1.98818
| 32>    O       -1.06870        -3.62469         3.06343
| 33>    C       -1.84696        -4.88442         0.37923
| 34>    C       -2.17752        -4.95348        -0.99294
| 35>    C       -1.96249        -6.01338         1.24449
| 36>    S       -2.32615        -5.85266         2.92403
| 37>    C       -2.58676        -7.54697         3.11355
| 38>    C       -2.31427        -8.24256         1.92434
| 39>    C       -1.93888        -7.36906         0.86168
| 40>    C       -1.52058        -7.93000        -0.35584
| 41>    C       -1.55218        -9.29197        -0.55640
| 42>    C       -1.09982        -9.84823        -1.82968
| 43>    C       -1.21783        -9.24391        -3.00507
| 44>    C       -1.99516       -10.15961         0.48615
| 45>    C       -2.05952       -11.63808         0.26491
| 46>    C       -2.34831        -9.63096         1.69914
| 47>    C       -3.00502        -8.11001         4.34642
| 48>    C       -3.09302        -7.44758         5.51918
| 49>    C       -3.50612        -8.06729         6.75559
| 50>    C       -4.29924        -9.21510         6.78304
| 51>    C       -4.58671        -9.83906         7.99479
| 52>    C       -4.11667        -9.21885         9.16037
| 53>    N       -3.42730        -8.09710         9.15230
| 54>    C       -3.12125        -7.54087         7.99775
| 55>    C       -5.34594       -11.06773         8.04199
| 56>    S       -6.41876       -11.41080         9.34877
| 57>    C       -6.92416       -12.88697         8.66127
| 58>    C       -6.29508       -13.14334         7.46335
| 59>    C       -5.36480       -12.10067         7.10841
| 60>    C       -4.58399       -12.24500         5.94451
| 61>    C       -4.78732       -13.31883         5.11503
| 62>    C       -4.03625       -13.41033         3.92353
| 63>    N       -3.42079       -13.41803         2.95585
| 64>    C       -5.75719       -14.32614         5.43971
| 65>    C       -5.94327       -15.40822         4.54932
| 66>    N       -6.10332       -16.28547         3.82968
| 67>    C       -6.47522       -14.25039         6.60370
| 68>    H       -2.94829        -4.56234        -6.40720
| 69>    H       -3.04378        -1.89542        -7.18617
| 70>    H       -2.12878        -0.84902        -2.38835
| 71>    H       -0.59808        -2.03647         1.91198
| 72>    H       -2.59686        -5.82980        -1.45260
| 73>    H       -1.10674        -7.29752        -1.12495
| 74>    H       -0.64799       -10.82938        -1.78446
| 75>    H       -1.69342        -8.28302        -3.11644
| 76>    H       -0.85633        -9.69941        -3.91095
| 77>    H       -2.62728       -11.86725        -0.63543
| 78>    H       -2.52798       -12.13547         1.10973
| 79>    H       -1.05734       -12.04990         0.14391
| 80>    H       -2.64695       -10.29558         2.49612
| 81>    H       -3.24355        -9.16473         4.30896
| 82>    H       -2.78310        -6.41269         5.57073
| 83>    H       -4.73711        -9.58606         5.86905
| 84>    H       -4.31400        -9.65178        10.13267
| 85>    H       -2.53956        -6.63047         8.05226
| 86>    H       -7.65912       -13.48717         9.15892
| 87>    H       -3.81153       -11.52877         5.71140
| 88>    H       -7.18021       -15.02484         6.86586
| 89> *
| 90>
| 91>                          ****END OF INPUT****

CARTESIAN COORDINATES (ANGSTROEM)
---------------------------------
  C     -2.756860   -4.077620   -5.470890
  S     -2.509330   -5.001070   -4.064770
  C     -2.283580   -3.596280   -3.071920
  C     -2.403430   -2.434840   -3.838160
  C     -2.679230   -2.724360   -5.222160
  C     -2.842500   -1.671830   -6.149440
  C     -2.748290   -0.375650   -5.718070
  C     -2.913830    0.693620   -6.629490
  N     -3.050410    1.547610   -7.380700
  C     -2.489180   -0.084430   -4.337480
  C     -2.417230    1.265520   -3.922920
  N     -2.360270    2.355250   -3.573560
  C     -2.318660   -1.092240   -3.421660
  C     -2.020340   -3.775860   -1.683300
  S     -1.432100   -2.519450   -0.639480
  C     -1.439490   -3.590380    0.734390
  C     -1.010550   -3.060290    1.988180
  O     -1.068700   -3.624690    3.063430
  C     -1.846960   -4.884420    0.379230
  C     -2.177520   -4.953480   -0.992940
  C     -1.962490   -6.013380    1.244490
  S     -2.326150   -5.852660    2.924030
  C     -2.586760   -7.546970    3.113550
  C     -2.314270   -8.242560    1.924340
  C     -1.938880   -7.369060    0.861680
  C     -1.520580   -7.930000   -0.355840
  C     -1.552180   -9.291970   -0.556400
  C     -1.099820   -9.848230   -1.829680
  C     -1.217830   -9.243910   -3.005070
  C     -1.995160  -10.159610    0.486150
  C     -2.059520  -11.638080    0.264910
  C     -2.348310   -9.630960    1.699140
  C     -3.005020   -8.110010    4.346420
  C     -3.093020   -7.447580    5.519180
  C     -3.506120   -8.067290    6.755590
  C     -4.299240   -9.215100    6.783040
  C     -4.586710   -9.839060    7.994790
  C     -4.116670   -9.218850    9.160370
  N     -3.427300   -8.097100    9.152300
  C     -3.121250   -7.540870    7.997750
  C     -5.345940  -11.067730    8.041990
  S     -6.418760  -11.410800    9.348770
  C     -6.924160  -12.886970    8.661270
  C     -6.295080  -13.143340    7.463350
  C     -5.364800  -12.100670    7.108410
  C     -4.583990  -12.245000    5.944510
  C     -4.787320  -13.318830    5.115030
  C     -4.036250  -13.410330    3.923530
  N     -3.420790  -13.418030    2.955850
  C     -5.757190  -14.326140    5.439710
  C     -5.943270  -15.408220    4.549320
  N     -6.103320  -16.285470    3.829680
  C     -6.475220  -14.250390    6.603700
  H     -2.948290   -4.562340   -6.407200
  H     -3.043780   -1.895420   -7.186170
  H     -2.128780   -0.849020   -2.388350
  H     -0.598080   -2.036470    1.911980
  H     -2.596860   -5.829800   -1.452600
  H     -1.106740   -7.297520   -1.124950
  H     -0.647990  -10.829380   -1.784460
  H     -1.693420   -8.283020   -3.116440
  H     -0.856330   -9.699410   -3.910950
  H     -2.627280  -11.867250   -0.635430
  H     -2.527980  -12.135470    1.109730
  H     -1.057340  -12.049900    0.143910
  H     -2.646950  -10.295580    2.496120
  H     -3.243550   -9.164730    4.308960
  H     -2.783100   -6.412690    5.570730
  H     -4.737110   -9.586060    5.869050
  H     -4.314000   -9.651780   10.132670
  H     -2.539560   -6.630470    8.052260
  H     -7.659120  -13.487170    9.158920
  H     -3.811530  -11.528770    5.711400
  H     -7.180210  -15.024840    6.865860

 Total Charge           Charge          ....    0
 Multiplicity           Mult            ....    1
 Number of Electrons    NEL             ....  386
 Basis Dimension        Dim             ....  863

ORBITAL ENERGIES
----------------

  NO   OCC          E(Eh)            E(eV)
   0   2.0000     -89.004186     -2421.9270
   1   2.0000     -88.998670     -2421.7769
   2   2.0000     -88.982101     -2421.3261
   3   2.0000     -88.964858     -2420.8569
   4   2.0000     -19.213391      -522.8229
   5   2.0000     -14.422215      -392.4484
   6   2.0000     -14.415259      -392.2591
   7   2.0000     -14.413963      -392.2239
   8   2.0000     -14.413862      -392.2211
   9   2.0000     -14.412384      -392.1809
  10   2.0000     -10.364015      -282.0192
  11   2.0000     -10.342767      -281.4410
  12   2.0000     -10.341250      -281.3997
  13   2.0000     -10.339362      -281.3483
  14   2.0000     -10.338693      -281.3301
  15   2.0000     -10.338628      -281.3284
  16   2.0000     -10.338380      -281.3216
  17   2.0000     -10.333861      -281.1986
  18   2.0000     -10.331256      -281.1278
  19   2.0000     -10.324440      -280.9423
  20   2.0000     -10.323341      -280.9124
  21   2.0000     -10.323317      -280.9117
  22   2.0000     -10.322179      -280.8808
  23   2.0000     -10.322101      -280.8786
  24   2.0000     -10.321885      -280.8728
  25   2.0000     -10.320131      -280.8250
  26   2.0000     -10.318232      -280.7734
  27   2.0000     -10.318187      -280.7721
  28   2.0000     -10.315970      -280.7118
  29   2.0000     -10.314661      -280.6762
  30   2.0000     -10.314257      -280.6652
  31   2.0000     -10.313713      -280.6504
  32   2.0000     -10.312197      -280.6092
  33   2.0000     -10.312035      -280.6047
  34   2.0000     -10.311568      -280.5920
  35   2.0000     -10.309473      -280.5350
  36   2.0000     -10.309378      -280.5324
  37   2.0000     -10.307024      -280.4684
  38   2.0000     -10.300844      -280.3002
  39   2.0000     -10.300316      -280.2858
  40   2.0000     -10.298054      -280.2243
  41   2.0000     -10.297727      -280.2154
  42   2.0000     -10.292910      -280.0843
  43   2.0000     -10.284199      -279.8473
  44   2.0000     -10.283556      -279.8298
  45   2.0000     -10.279703      -279.7249
  46   2.0000     -10.278556      -279.6937
  47   2.0000     -10.275821      -279.6193
  48   2.0000     -10.274532      -279.5842
  49   2.0000     -10.273506      -279.5563
  50   2.0000     -10.268212      -279.4123
  51   2.0000     -10.268176      -279.4113
  52   2.0000     -10.249692      -278.9083
  53   2.0000      -8.099058      -220.3866
  54   2.0000      -8.093810      -220.2438
  55   2.0000      -8.077223      -219.7924
  56   2.0000      -8.058596      -219.2856
  57   2.0000      -6.067965      -165.1177
  58   2.0000      -6.063561      -164.9979
  59   2.0000      -6.062627      -164.9725
  60   2.0000      -6.062326      -164.9643
  61   2.0000      -6.058217      -164.8525
  62   2.0000      -6.057241      -164.8259
  63   2.0000      -6.046562      -164.5353
  64   2.0000      -6.042431      -164.4229
  65   2.0000      -6.039277      -164.3371
  66   2.0000      -6.027523      -164.0172
  67   2.0000      -6.023208      -163.8998
  68   2.0000      -6.021678      -163.8582
  69   2.0000      -1.126818       -30.6623
  70   2.0000      -1.049259       -28.5518
  71   2.0000      -1.037153       -28.2224
  72   2.0000      -1.030572       -28.0433
  73   2.0000      -1.013455       -27.5775
  74   2.0000      -1.010757       -27.5041
  75   2.0000      -1.005020       -27.3480
  76   2.0000      -0.998826       -27.1794
  77   2.0000      -0.994243       -27.0547
  78   2.0000      -0.991957       -26.9925
  79   2.0000      -0.969409       -26.3790
  80   2.0000      -0.968394       -26.3513
  81   2.0000      -0.943279       -25.6679
  82   2.0000      -0.932434       -25.3728
  83   2.0000      -0.918364       -24.9900
  84   2.0000      -0.911395       -24.8003
  85   2.0000      -0.894839       -24.3498
  86   2.0000      -0.888364       -24.1736
  87   2.0000      -0.887458       -24.1490
  88   2.0000      -0.880170       -23.9507
  89   2.0000      -0.874429       -23.7944
  90   2.0000      -0.873161       -23.7599
  91   2.0000      -0.857544       -23.3350
  92   2.0000      -0.847830       -23.0706
  93   2.0000      -0.829085       -22.5606
  94   2.0000      -0.825885       -22.4735
  95   2.0000      -0.818560       -22.2742
  96   2.0000      -0.786164       -21.3926
  97   2.0000      -0.769601       -20.9419
  98   2.0000      -0.767908       -20.8958
  99   2.0000      -0.764390       -20.8001
 100   2.0000      -0.762060       -20.7367
 101   2.0000      -0.755811       -20.5667
 102   2.0000      -0.744447       -20.2574
 103   2.0000      -0.726579       -19.7712
 104   2.0000      -0.723268       -19.6811
 105   2.0000      -0.721163       -19.6238
 106   2.0000      -0.711573       -19.3629
 107   2.0000      -0.699521       -19.0349
 108   2.0000      -0.686007       -18.6672
 109   2.0000      -0.680986       -18.5306
 110   2.0000      -0.664648       -18.0860
 111   2.0000      -0.648856       -17.6563
 112   2.0000      -0.643111       -17.4999
 113   2.0000      -0.635970       -17.3056
 114   2.0000      -0.633107       -17.2277
 115   2.0000      -0.624958       -17.0060
 116   2.0000      -0.620456       -16.8835
 117   2.0000      -0.620165       -16.8755
 118   2.0000      -0.616683       -16.7808
 119   2.0000      -0.610906       -16.6236
 120   2.0000      -0.605322       -16.4717
 121   2.0000      -0.599773       -16.3206
 122   2.0000      -0.587172       -15.9778
 123   2.0000      -0.570724       -15.5302
 124   2.0000      -0.570426       -15.5221
 125   2.0000      -0.562416       -15.3041
 126   2.0000      -0.561252       -15.2724
 127   2.0000      -0.557064       -15.1585
 128   2.0000      -0.555524       -15.1166
 129   2.0000      -0.549897       -14.9634
 130   2.0000      -0.541168       -14.7259
 131   2.0000      -0.536336       -14.5945
 132   2.0000      -0.535382       -14.5685
 133   2.0000      -0.535210       -14.5638
 134   2.0000      -0.529357       -14.4045
 135   2.0000      -0.526110       -14.3162
 136   2.0000      -0.524370       -14.2688
 137   2.0000      -0.520537       -14.1645
 138   2.0000      -0.517332       -14.0773
 139   2.0000      -0.508396       -13.8342
 140   2.0000      -0.508026       -13.8241
 141   2.0000      -0.503932       -13.7127
 142   2.0000      -0.502122       -13.6634
 143   2.0000      -0.499593       -13.5946
 144   2.0000      -0.494726       -13.4622
 145   2.0000      -0.494580       -13.4582
 146   2.0000      -0.490349       -13.3431
 147   2.0000      -0.486361       -13.2345
 148   2.0000      -0.483011       -13.1434
 149   2.0000      -0.479324       -13.0431
 150   2.0000      -0.476332       -12.9616
 151   2.0000      -0.473966       -12.8973
 152   2.0000      -0.469616       -12.7789
 153   2.0000      -0.466572       -12.6961
 154   2.0000      -0.463804       -12.6207
 155   2.0000      -0.457444       -12.4477
 156   2.0000      -0.455631       -12.3984
 157   2.0000      -0.454738       -12.3740
 158   2.0000      -0.454346       -12.3634
 159   2.0000      -0.449345       -12.2273
 160   2.0000      -0.448045       -12.1919
 161   2.0000      -0.442122       -12.0307
 162   2.0000      -0.441300       -12.0084
 163   2.0000      -0.440654       -11.9908
 164   2.0000      -0.440054       -11.9745
 165   2.0000      -0.437622       -11.9083
 166   2.0000      -0.427437       -11.6311
 167   2.0000      -0.423719       -11.5300
 168   2.0000      -0.420662       -11.4468
 169   2.0000      -0.419693       -11.4204
 170   2.0000      -0.417076       -11.3492
 171   2.0000      -0.415415       -11.3040
 172   2.0000      -0.414314       -11.2741
 173   2.0000      -0.413492       -11.2517
 174   2.0000      -0.411558       -11.1991
 175   2.0000      -0.408215       -11.1081
 176   2.0000      -0.406013       -11.0482
 177   2.0000      -0.398946       -10.8559
 178   2.0000      -0.394459       -10.7338
 179   2.0000      -0.377643       -10.2762
 180   2.0000      -0.363796        -9.8994
 181   2.0000      -0.356987        -9.7141
 182   2.0000      -0.347672        -9.4606
 183   2.0000      -0.341715        -9.2985
 184   2.0000      -0.340848        -9.2749
 185   2.0000      -0.337434        -9.1821
 186   2.0000      -0.335724        -9.1355
 187   2.0000      -0.329968        -8.9789
 188   2.0000      -0.312744        -8.5102
 189   2.0000      -0.292873        -7.9695
 190   2.0000      -0.284406        -7.7391
 191   2.0000      -0.279433        -7.6038
 192   2.0000      -0.238267        -6.4836
 193   0.0000      -0.090779        -2.4702
 194   0.0000      -0.076180        -2.0730
 195   0.0000      -0.068397        -1.8612
 196   0.0000      -0.036775        -1.0007
 197   0.0000      -0.029606        -0.8056

MULLIKEN ATOMIC CHARGES
-----------------------
   0 C :   -0.109839
   1 S :    0.192177
   2 C :   -0.107146
   3 C :    0.117496
   4 C :    0.097532
   5 C :   -0.010729
   6 C :   -0.072939
   7 C :   -0.176361
   8 N :    0.174657
   9 C :   -0.068635
  10 C :   -0.177353
  11 N :    0.176220
  12 C :   -0.046380
  13 C :   -0.041869
  14 S :    0.131349
  15 C :   -0.217377
  16 C :    0.188200
  17 O :   -0.212148
  18 C :    0.178743
  19 C :   -0.094883
  20 C :   -0.164120
  21 S :    0.217691
  22 C :   -0.103591
  23 C :    0.134176
  24 C :    0.137147
  25 C :   -0.137625
  26 C :    0.074645
  27 C :   -0.027853
  28 C :   -0.007644
  29 C :   -0.080084
  30 C :    0.103164
  31 C :   -0.095375
  32 C :    0.013917
  33 C :    0.001513
  34 C :    0.060519
  35 C :   -0.046891
  36 C :    0.045289
  37 C :   -0.018767
  38 N :   -0.046004
  39 C :   -0.007924
  40 C :   -0.145988
  41 S :    0.207733
  42 C :   -0.131858
  43 C :    0.104007
  44 C :    0.142830
  45 C :   -0.062826
  46 C :   -0.070810
  47 C :   -0.150980
  48 N :    0.170009
  49 C :   -0.065784
  50 C :   -0.177602
  51 N :    0.168798
  52 C :   -0.013503
  53 H :    0.035715
  54 H :   -0.002337
  55 H :    0.006328
  56 H :   -0.015091
  57 H :    0.007356
  58 H :   -0.029267
  59 H :   -0.000256
  60 H :   -0.000173
  61 H :    0.022132
  62 H :    0.022261
  63 H :    0.015422
  64 H :    0.025922
  65 H :   -0.045300
  66 H :   -0.024782
  67 H :    0.002107
  68 H :    0.002348
  69 H :   -0.001533
  70 H :    0.002803
  71 H :    0.031562
  72 H :    0.000515
  73 H :   -0.002654
Sum of atomic charges:    0.0000000

LOEWDIN ATOMIC CHARGES
----------------------
   0 C :   -0.177475
   1 S :    0.528409
   2 C :   -0.186643
   3 C :   -0.045765
   4 C :   -0.050147
   5 C :    0.038705
   6 C :   -0.055032
   7 C :   -0.032794
   8 N :   -0.032358
   9 C :   -0.049767
  10 C :   -0.032870
  11 N :   -0.031546
  12 C :    0.024649
  13 C :   -0.167377
  14 S :    0.460816
  15 C :   -0.248567
  16 C :    0.075058
  17 O :   -0.168670
  18 C :   -0.020487
  19 C :   -0.058633
  20 C :   -0.193541
  21 S :    0.551742
  22 C :   -0.187449
  23 C :   -0.040996
  24 C :   -0.038471
  25 C :   -0.019974
  26 C :   -0.022589
  27 C :   -0.015438
  28 C :   -0.041790
  29 C :   -0.011447
  30 C :   -0.049014
  31 C :   -0.025987
  32 C :   -0.024844
  33 C :   -0.031611
  34 C :   -0.037064
  35 C :    0.007162
  36 C :   -0.065244
  37 C :    0.010201
  38 N :   -0.056229
  39 C :    0.025572
  40 C :   -0.165688
  41 S :    0.529769
  42 C :   -0.187915
  43 C :   -0.050220
  44 C :   -0.049591
  45 C :    0.034126
  46 C :   -0.062367
  47 C :   -0.016516
  48 N :   -0.042137
  49 C :   -0.058002
  50 C :   -0.033323
  51 N :   -0.036202
  52 C :    0.038147
  53 H :    0.032535
  54 H :    0.046398
  55 H :    0.029901
  56 H :   -0.002568
  57 H :    0.028097
  58 H :    0.024818
  59 H :    0.031037
  60 H :    0.012811
  61 H :    0.024950
  62 H :    0.033337
  63 H :    0.031298
  64 H :    0.034198
  65 H :    0.024752
  66 H :    0.028718
  67 H :    0.027775
  68 H :    0.030949
  69 H :    0.016191
  70 H :    0.024046
  71 H :    0.030030
  72 H :    0.042098
  73 H :    0.046055

  Mayer bond orders larger than 0.100000
B(  0-C ,  1-S ) :   1.2140 B(  0-C ,  2-C ) :   0.1080 B(  0-C ,  4-C ) :   1.4122
B(  0-C , 53-H ) :   0.9712 B(  1-S ,  2-C ) :   1.1959 B(  2-C ,  3-C ) :   1.3617
B(  2-C , 13-C ) :   1.1323 B(  3-C ,  4-C ) :   1.1865 B(  3-C , 12-C ) :   1.1809
B(  4-C ,  5-C ) :   1.1540 B(  5-C ,  6-C ) :   1.5844 B(  5-C , 54-H ) :   1.0069
B(  6-C ,  7-C ) :   1.0773 B(  6-C ,  9-C ) :   1.2202 B(  7-C ,  8-N ) :   3.0479
B(  9-C , 10-C ) :   1.0813 B(  9-C , 12-C ) :   1.5972 B( 10-C , 11-N ) :   3.0427
B( 12-C , 55-H ) :   0.9816 B( 13-C , 14-S ) :   1.1538 B( 13-C , 19-C ) :   1.4773
B( 14-S , 15-C ) :   1.0666 B( 15-C , 16-C ) :   1.0653 B( 15-C , 18-C ) :   1.4042
B( 16-C , 17-O ) :   2.0661 B( 16-C , 56-H ) :   0.9579 B( 18-C , 19-C ) :   1.2692
B( 18-C , 20-C ) :   1.1152 B( 19-C , 57-H ) :   0.9906 B( 20-C , 21-S ) :   1.1816
B( 20-C , 22-C ) :   0.1145 B( 20-C , 24-C ) :   1.3103 B( 21-S , 22-C ) :   1.1535
B( 22-C , 23-C ) :   1.2922 B( 22-C , 32-C ) :   1.1739 B( 23-C , 24-C ) :   1.2275
B( 23-C , 31-C ) :   1.1810 B( 24-C , 25-C ) :   1.1800 B( 25-C , 26-C ) :   1.5110
B( 25-C , 58-H ) :   0.9896 B( 26-C , 27-C ) :   1.0321 B( 26-C , 29-C ) :   1.2043
B( 27-C , 28-C ) :   1.9784 B( 27-C , 59-H ) :   0.9508 B( 28-C , 60-H ) :   0.9534
B( 28-C , 61-H ) :   0.9488 B( 29-C , 30-C ) :   1.0775 B( 29-C , 31-C ) :   1.5568
B( 30-C , 62-H ) :   0.9384 B( 30-C , 63-H ) :   0.9402 B( 30-C , 64-H ) :   0.9339
B( 31-C , 65-H ) :   0.9881 B( 32-C , 33-C ) :   1.6919 B( 32-C , 66-H ) :   0.9615
B( 33-C , 34-C ) :   1.0520 B( 33-C , 67-H ) :   0.9757 B( 34-C , 35-C ) :   1.3705
B( 34-C , 39-C ) :   1.3152 B( 35-C , 36-C ) :   1.3854 B( 35-C , 68-H ) :   0.9846
B( 36-C , 37-C ) :   1.3191 B( 36-C , 40-C ) :   1.0205 B( 37-C , 38-N ) :   1.5738
B( 37-C , 69-H ) :   0.9883 B( 38-N , 39-C ) :   1.5599 B( 39-C , 70-H ) :   0.9888
B( 40-C , 41-S ) :   1.2168 B( 40-C , 42-C ) :   0.1091 B( 40-C , 44-C ) :   1.3867
B( 41-S , 42-C ) :   1.2099 B( 42-C , 43-C ) :   1.4173 B( 42-C , 71-H ) :   0.9717
B( 43-C , 44-C ) :   1.1855 B( 43-C , 52-C ) :   1.1499 B( 44-C , 45-C ) :   1.1809
B( 45-C , 46-C ) :   1.5816 B( 45-C , 72-H ) :   0.9959 B( 46-C , 47-C ) :   1.0812
B( 46-C , 49-C ) :   1.2124 B( 47-C , 48-N ) :   2.9901 B( 49-C , 50-C ) :   1.0752
B( 49-C , 52-C ) :   1.5851 B( 50-C , 51-N ) :   3.0440 B( 52-C , 73-H ) :   1.0061

-----------------------------------------------------------------------------
         ABSORPTION SPECTRUM VIA TRANSITION ELECTRIC DIPOLE MOMENTS
-----------------------------------------------------------------------------
State   Energy  Wavelength   fosc         T2         TX        TY        TZ
        (cm-1)    (nm)                  (au**2)     (au)      (au)      (au)
-----------------------------------------------------------------------------
   0   17067.5    585.9   0.254226308   4.90373   0.53251   1.80096  -1.17332
   1   20931.1    477.8   0.823194406  12.94752  -0.60710  -2.11395   2.84784
   2   21738.9    460.0   0.009982666   0.15118   0.13866   0.16943   0.32131
   3   24724.0    404.5   0.301019527   4.00823  -0.75112   0.27881  -1.83475
   4   27060.6    369.5   0.046113849   0.56101   0.36395   0.63581  -0.15587
   5   27520.7    363.4   0.172300204   2.06111   0.87244   0.98557  -0.57325
   6   28783.9    347.4   0.170122281   1.94575   0.05145   0.61191   1.25247
   7   29881.1    334.7   0.158368646   1.74481   0.10373  -0.09364  -1.31350
   8   29932.6    334.1   0.003428884   0.03771   0.18789  -0.04641   0.01601
   9   30893.8    323.7   0.003553362   0.03787  -0.19380   0.01306   0.01172
  10   31338.8    319.1   0.004845953   0.05091   0.09627  -0.04735  -0.19849
  11   32408.2    308.6   0.003079492   0.03128  -0.15342   0.08616  -0.01792
  12   32961.7    303.4   0.362211588   3.61767   0.29946  -1.05590  -1.55340
  13   33876.9    295.2   0.132105132   1.28378   0.20883   0.37696  -1.04789
  14   34032.5    293.8   0.008234449   0.07966   0.18779  -0.20197  -0.05998
  15   34877.0    286.7   0.015296987   0.14439  -0.03830   0.14151   0.35057
  16   35047.4    285.3   0.006158666   0.05785  -0.05093  -0.19019  -0.13814
  17   35067.5    285.2   0.033825185   0.31755   0.06641   0.46458   0.31194
  18   35360.3    282.8   0.054084093   0.50353  -0.10973  -0.61530  -0.33600
  19   35941.9    278.2   0.025823382   0.23653  -0.10090  -0.14024   0.45462
  20   36051.2    277.4   0.034618670   0.31613  -0.02312  -0.23449  -0.51050
  21   36445.8    274.4   0.032353321   0.29224  -0.00741   0.40806  -0.35451
  22   36606.5    273.2   0.065914254   0.59278  -0.06256   0.09313  -0.76171
  23   37136.2    269.3   0.037946024   0.33639  -0.00354  -0.11397  -0.56867
  24   37324.2    267.9   0.016732488   0.14759  -0.28874   0.02359  -0.25230
  25   37785.7    264.7   0.375765913   3.27390  -0.15640   1.61284  -0.80510
  26   38323.1    260.9   0.023271535   0.19991   0.06663   0.13521   0.42094
  27   38965.2    256.6   0.047684884   0.40288   0.23448   0.58547   0.07159
  28   39153.0    255.4   0.098601722   0.82908   0.10149  -0.84686   0.31877
  29   39671.2    252.1   0.108591378   0.90115  -0.14215   0.56026  -0.75303
  30   39970.9    250.2   0.003211134   0.02645  -0.15620   0.04432  -0.00920

FINAL SINGLE POINT ENERGY     -3589.825500843972

DIPOLE MOMENT
-------------
                                X             Y             Z
Electronic contribution:     -6.28480      24.58584       1.74605
Nuclear contribution   :      5.33325     -26.96948      -0.48312
                        -----------------------------------------
Total Dipole Moment    :     -0.95155      -2.38364       1.26293
                        -----------------------------------------
Magnitude (a.u.)       :      2.86045
Magnitude (Debye)      :      7.27069

Rotational constants in cm-1:     0.003019     0.000538     0.000483
Rotational constants in MHz :    90.508021    16.132977    14.475601

                             ****ORCA TERMINATED NORMALLY****
TOTAL RUN TIME: 0 days 0 hours 5 minutes 37 seconds 809 msec
