                         Program Version 4.2.0 -  RELEASE  -
|  1> # ORCA input file
|  2> # SCF done       -130.164754346381          0.000319897334
|  3> ! CAM-B3LYP def2-SVP def2/J RIJCOSX Grid4 TightSCF
|  4> %maxcore 5000
|  5> %tddft
|  6>     Mode sTDDFT
|  7>     Ethresh 5.0
|  8>     maxcore 5000
|  9> end
| 10>
| 11> %pal
| 12>   nprocs 6
| 13>   end
| 14> * xyz 0 1
| 15>    C        6.04674         5.72413         5.90419
| 16>    N        6.51699         5.07402         6.92683
| 17>    C        7.38663         4.15823         6.40966
| 18>    C        7.43843         4.26051         4.94329
| 19>    C        8.38471         3.28178         4.38489
| 20>    O        8.67225         3.08651         3.22476
| 21>    C        8.89359         2.60647         5.59489
| 22>    C        8.25120         3.17498         6.80760
| 23>    N        8.72173         2.56366         7.92407
| 24>    C        9.58842         1.68374         7.49541
| 25>    C        9.74780         1.65889         6.04961
| 26>    C        6.57696         5.27743         4.61308
| 27>    C        6.25554         5.81290         3.33441
| 28>    S        5.19720         7.16953         3.14096
| 29>    C        5.41190         7.15523         1.41710
| 30>    C        4.64069         8.12080         0.67326
| 31>    O        4.65154         8.30591        -0.52146
| 32>    C        6.27178         6.12396         1.02252
| 33>    C        6.72882         5.37186         2.11980
| 34>    C        6.67888         5.80395        -0.32265
| 35>    S        7.14072         4.17794        -0.70589
| 36>    C        7.49406         4.61365        -2.34619
| 37>    C        7.85466         3.55897        -3.26915
| 38>    O        8.09262         3.68976        -4.44433
| 39>    C        7.27363         5.96736        -2.56714
| 40>    C        6.80706         6.62473        -1.41519
| 41>    C        7.49195         6.69035        -3.81711
| 42>    C        6.56403         7.64132        -4.23628
| 43>    C        6.81484         8.37381        -5.38982
| 44>    C        7.98751         8.09322        -6.09453
| 45>    N        8.87534         7.21207        -5.68611
| 46>    C        8.65076         6.53326        -4.58074
| 47>    C        5.88398         9.39531        -5.86418
| 48>    N        6.10718        10.73188        -5.68542
| 49>    C        7.20923        11.32995        -4.97091
| 50>    C        8.35973        11.70643        -5.89996
| 51>    C        5.07686        11.51452        -6.25582
| 52>    O        5.06322        12.72818        -6.20479
| 53>    C        4.17216        10.54489        -6.82396
| 54>    C        4.70494         9.24415        -6.55451
| 55>    C        3.80146         8.26419        -7.11113
| 56>    O        3.80990         7.05415        -7.13108
| 57>    N        2.77014         9.04493        -7.68571
| 58>    C        1.68707         8.41970        -8.40406
| 59>    C        1.89838         8.48155        -9.91515
| 60>    C        2.98530        10.39057        -7.52211
| 61>    C        2.08234        11.39957        -8.00244
| 62>    C        2.30922        12.70552        -7.85066
| 63>    H        5.32874         6.51602         6.03218
| 64>    H       10.11427         1.05405         8.19204
| 65>    H       10.40969         1.01284         5.50766
| 66>    H        3.98385         8.72144         1.33290
| 67>    H        7.40436         4.53737         2.03207
| 68>    H        7.88227         2.56352        -2.78277
| 69>    H        6.58793         7.67535        -1.38616
| 70>    H        5.65687         7.80684        -3.67353
| 71>    H        8.20995         8.59498        -7.02654
| 72>    H        9.42872         5.84597        -4.28331
| 73>    H        7.54843        10.63193        -4.20092
| 74>    H        6.82015        12.23445        -4.49408
| 75>    H        8.78875        10.82244        -6.36491
| 76>    H        9.13611        12.21212        -5.33266
| 77>    H        8.00201        12.37842        -6.67596
| 78>    H        0.73896         8.88648        -8.12266
| 79>    H        1.67548         7.37530        -8.07917
| 80>    H        1.96803         9.51162       -10.25836
| 81>    H        1.06879         7.99763       -10.42319
| 82>    H        2.81757         7.96549       -10.18122
| 83>    H        1.18626        11.05574        -8.50004
| 84>    H        3.19411        13.07172        -7.35776
| 85>    H        1.61091        13.43786        -8.21755
| 86> *
| 87>
| 88>                          ****END OF INPUT****

CARTESIAN COORDINATES (ANGSTROEM)
---------------------------------
  C      6.046740    5.724130    5.904190
  N      6.516990    5.074020    6.926830
  C      7.386630    4.158230    6.409660
  C      7.438430    4.260510    4.943290
  C      8.384710    3.281780    4.384890
  O      8.672250    3.086510    3.224760
  C      8.893590    2.606470    5.594890
  C      8.251200    3.174980    6.807600
  N      8.721730    2.563660    7.924070
  C      9.588420    1.683740    7.495410
  C      9.747800    1.658890    6.049610
  C      6.576960    5.277430    4.613080
  C      6.255540    5.812900    3.334410
  S      5.197200    7.169530    3.140960
  C      5.411900    7.155230    1.417100
  C      4.640690    8.120800    0.673260
  O      4.651540    8.305910   -0.521460
  C      6.271780    6.123960    1.022520
  C      6.728820    5.371860    2.119800
  C      6.678880    5.803950   -0.322650
  S      7.140720    4.177940   -0.705890
  C      7.494060    4.613650   -2.346190
  C      7.854660    3.558970   -3.269150
  O      8.092620    3.689760   -4.444330
  C      7.273630    5.967360   -2.567140
  C      6.807060    6.624730   -1.415190
  C      7.491950    6.690350   -3.817110
  C      6.564030    7.641320   -4.236280
  C      6.814840    8.373810   -5.389820
  C      7.987510    8.093220   -6.094530
  N      8.875340    7.212070   -5.686110
  C      8.650760    6.533260   -4.580740
  C      5.883980    9.395310   -5.864180
  N      6.107180   10.731880   -5.685420
  C      7.209230   11.329950   -4.970910
  C      8.359730   11.706430   -5.899960
  C      5.076860   11.514520   -6.255820
  O      5.063220   12.728180   -6.204790
  C      4.172160   10.544890   -6.823960
  C      4.704940    9.244150   -6.554510
  C      3.801460    8.264190   -7.111130
  O      3.809900    7.054150   -7.131080
  N      2.770140    9.044930   -7.685710
  C      1.687070    8.419700   -8.404060
  C      1.898380    8.481550   -9.915150
  C      2.985300   10.390570   -7.522110
  C      2.082340   11.399570   -8.002440
  C      2.309220   12.705520   -7.850660
  H      5.328740    6.516020    6.032180
  H     10.114270    1.054050    8.192040
  H     10.409690    1.012840    5.507660
  H      3.983850    8.721440    1.332900
  H      7.404360    4.537370    2.032070
  H      7.882270    2.563520   -2.782770
  H      6.587930    7.675350   -1.386160
  H      5.656870    7.806840   -3.673530
  H      8.209950    8.594980   -7.026540
  H      9.428720    5.845970   -4.283310
  H      7.548430   10.631930   -4.200920
  H      6.820150   12.234450   -4.494080
  H      8.788750   10.822440   -6.364910
  H      9.136110   12.212120   -5.332660
  H      8.002010   12.378420   -6.675960
  H      0.738960    8.886480   -8.122660
  H      1.675480    7.375300   -8.079170
  H      1.968030    9.511620  -10.258360
  H      1.068790    7.997630  -10.423190
  H      2.817570    7.965490  -10.181220
  H      1.186260   11.055740   -8.500040
  H      3.194110   13.071720   -7.357760
  H      1.610910   13.437860   -8.217550

 Total Charge           Charge          ....    0
 Multiplicity           Mult            ....    1
 Number of Electrons    NEL             ....  346
 Basis Dimension        Dim             ....  795

ORBITAL ENERGIES
----------------

  NO   OCC          E(Eh)            E(eV)
   0   2.0000     -88.989153     -2421.5180
   1   2.0000     -88.970976     -2421.0233
   2   2.0000     -19.232797      -523.3510
   3   2.0000     -19.224356      -523.1213
   4   2.0000     -19.207664      -522.6671
   5   2.0000     -19.179118      -521.8903
   6   2.0000     -19.175430      -521.7900
   7   2.0000     -14.443677      -393.0324
   8   2.0000     -14.441343      -392.9689
   9   2.0000     -14.433597      -392.7581
  10   2.0000     -14.426481      -392.5645
  11   2.0000     -14.394778      -391.7018
  12   2.0000     -10.392487      -282.7940
  13   2.0000     -10.375375      -282.3283
  14   2.0000     -10.361530      -281.9516
  15   2.0000     -10.361154      -281.9413
  16   2.0000     -10.358445      -281.8676
  17   2.0000     -10.354960      -281.7728
  18   2.0000     -10.351896      -281.6894
  19   2.0000     -10.348897      -281.6078
  20   2.0000     -10.348104      -281.5862
  21   2.0000     -10.339286      -281.3463
  22   2.0000     -10.329962      -281.0926
  23   2.0000     -10.329401      -281.0773
  24   2.0000     -10.326394      -280.9955
  25   2.0000     -10.323559      -280.9183
  26   2.0000     -10.322775      -280.8970
  27   2.0000     -10.321896      -280.8731
  28   2.0000     -10.312345      -280.6132
  29   2.0000     -10.311142      -280.5804
  30   2.0000     -10.310515      -280.5634
  31   2.0000     -10.303869      -280.3825
  32   2.0000     -10.302191      -280.3369
  33   2.0000     -10.299507      -280.2638
  34   2.0000     -10.298889      -280.2470
  35   2.0000     -10.298731      -280.2427
  36   2.0000     -10.298507      -280.2366
  37   2.0000     -10.298461      -280.2354
  38   2.0000     -10.288460      -279.9632
  39   2.0000     -10.287779      -279.9447
  40   2.0000     -10.285659      -279.8870
  41   2.0000     -10.282328      -279.7964
  42   2.0000     -10.280572      -279.7486
  43   2.0000     -10.272630      -279.5325
  44   2.0000     -10.256435      -279.0918
  45   2.0000     -10.251898      -278.9683
  46   2.0000     -10.247185      -278.8401
  47   2.0000     -10.245839      -278.8035
  48   2.0000      -8.084682      -219.9954
  49   2.0000      -8.066410      -219.4982
  50   2.0000      -6.053728      -164.7303
  51   2.0000      -6.049706      -164.6209
  52   2.0000      -6.047174      -164.5520
  53   2.0000      -6.035493      -164.2341
  54   2.0000      -6.031402      -164.1228
  55   2.0000      -6.028919      -164.0552
  56   2.0000      -1.147073       -31.2135
  57   2.0000      -1.137380       -30.9497
  58   2.0000      -1.121717       -30.5235
  59   2.0000      -1.121108       -30.5069
  60   2.0000      -1.114169       -30.3181
  61   2.0000      -1.098704       -29.8972
  62   2.0000      -1.080635       -29.4056
  63   2.0000      -1.053180       -28.6585
  64   2.0000      -1.044986       -28.4355
  65   2.0000      -1.032279       -28.0897
  66   2.0000      -1.018678       -27.7196
  67   2.0000      -0.994594       -27.0643
  68   2.0000      -0.955174       -25.9916
  69   2.0000      -0.919344       -25.0166
  70   2.0000      -0.916613       -24.9423
  71   2.0000      -0.909201       -24.7406
  72   2.0000      -0.891919       -24.2703
  73   2.0000      -0.883671       -24.0459
  74   2.0000      -0.881320       -23.9819
  75   2.0000      -0.875132       -23.8136
  76   2.0000      -0.859835       -23.3973
  77   2.0000      -0.853999       -23.2385
  78   2.0000      -0.835667       -22.7397
  79   2.0000      -0.815321       -22.1860
  80   2.0000      -0.810101       -22.0440
  81   2.0000      -0.793053       -21.5801
  82   2.0000      -0.791104       -21.5270
  83   2.0000      -0.779850       -21.2208
  84   2.0000      -0.764880       -20.8134
  85   2.0000      -0.753442       -20.5022
  86   2.0000      -0.750719       -20.4281
  87   2.0000      -0.735723       -20.0200
  88   2.0000      -0.721033       -19.6203
  89   2.0000      -0.715072       -19.4581
  90   2.0000      -0.709542       -19.3076
  91   2.0000      -0.699121       -19.0240
  92   2.0000      -0.691948       -18.8289
  93   2.0000      -0.682602       -18.5745
  94   2.0000      -0.678727       -18.4691
  95   2.0000      -0.666503       -18.1365
  96   2.0000      -0.647494       -17.6192
  97   2.0000      -0.646526       -17.5929
  98   2.0000      -0.641061       -17.4442
  99   2.0000      -0.634661       -17.2700
 100   2.0000      -0.611264       -16.6333
 101   2.0000      -0.609825       -16.5942
 102   2.0000      -0.597793       -16.2668
 103   2.0000      -0.594471       -16.1764
 104   2.0000      -0.592852       -16.1323
 105   2.0000      -0.585344       -15.9280
 106   2.0000      -0.579988       -15.7823
 107   2.0000      -0.578156       -15.7324
 108   2.0000      -0.574445       -15.6314
 109   2.0000      -0.567393       -15.4395
 110   2.0000      -0.565015       -15.3748
 111   2.0000      -0.563323       -15.3288
 112   2.0000      -0.556375       -15.1397
 113   2.0000      -0.551118       -14.9967
 114   2.0000      -0.540798       -14.7159
 115   2.0000      -0.538442       -14.6517
 116   2.0000      -0.537124       -14.6159
 117   2.0000      -0.531983       -14.4760
 118   2.0000      -0.527764       -14.3612
 119   2.0000      -0.526287       -14.3210
 120   2.0000      -0.524319       -14.2675
 121   2.0000      -0.521205       -14.1827
 122   2.0000      -0.513349       -13.9689
 123   2.0000      -0.512601       -13.9486
 124   2.0000      -0.504900       -13.7390
 125   2.0000      -0.504618       -13.7313
 126   2.0000      -0.503247       -13.6941
 127   2.0000      -0.500950       -13.6315
 128   2.0000      -0.497969       -13.5504
 129   2.0000      -0.496819       -13.5191
 130   2.0000      -0.493439       -13.4272
 131   2.0000      -0.491526       -13.3751
 132   2.0000      -0.487148       -13.2560
 133   2.0000      -0.484074       -13.1723
 134   2.0000      -0.482138       -13.1197
 135   2.0000      -0.480860       -13.0849
 136   2.0000      -0.477056       -12.9814
 137   2.0000      -0.473500       -12.8846
 138   2.0000      -0.470030       -12.7902
 139   2.0000      -0.466012       -12.6808
 140   2.0000      -0.457567       -12.4510
 141   2.0000      -0.455085       -12.3835
 142   2.0000      -0.453194       -12.3320
 143   2.0000      -0.448893       -12.2150
 144   2.0000      -0.446223       -12.1424
 145   2.0000      -0.444996       -12.1089
 146   2.0000      -0.439357       -11.9555
 147   2.0000      -0.432938       -11.7809
 148   2.0000      -0.428691       -11.6653
 149   2.0000      -0.425705       -11.5840
 150   2.0000      -0.419906       -11.4262
 151   2.0000      -0.412682       -11.2296
 152   2.0000      -0.393838       -10.7169
 153   2.0000      -0.389953       -10.6112
 154   2.0000      -0.377561       -10.2739
 155   2.0000      -0.373691       -10.1687
 156   2.0000      -0.371675       -10.1138
 157   2.0000      -0.360605        -9.8126
 158   2.0000      -0.358426        -9.7533
 159   2.0000      -0.353687        -9.6243
 160   2.0000      -0.351058        -9.5528
 161   2.0000      -0.348481        -9.4827
 162   2.0000      -0.344157        -9.3650
 163   2.0000      -0.340401        -9.2628
 164   2.0000      -0.334648        -9.1062
 165   2.0000      -0.331097        -9.0096
 166   2.0000      -0.320585        -8.7236
 167   2.0000      -0.317041        -8.6271
 168   2.0000      -0.313352        -8.5267
 169   2.0000      -0.303640        -8.2625
 170   2.0000      -0.301359        -8.2004
 171   2.0000      -0.288516        -7.8509
 172   2.0000      -0.239676        -6.5219
 173   0.0000      -0.127275        -3.4633
 174   0.0000      -0.080047        -2.1782
 175   0.0000      -0.057643        -1.5686
 176   0.0000      -0.047356        -1.2886
 177   0.0000      -0.026848        -0.7306

MULLIKEN ATOMIC CHARGES
-----------------------
   0 C :    0.052042
   1 N :   -0.021452
   2 C :    0.056914
   3 C :   -0.152159
   4 C :    0.224319
   5 O :   -0.128750
   6 C :   -0.020555
   7 C :   -0.012422
   8 N :   -0.046384
   9 C :    0.099518
  10 C :   -0.087709
  11 C :    0.053121
  12 C :   -0.092587
  13 S :    0.150908
  14 C :   -0.209969
  15 C :    0.191585
  16 O :   -0.185198
  17 C :    0.194400
  18 C :   -0.060309
  19 C :   -0.122734
  20 S :    0.157832
  21 C :   -0.197575
  22 C :    0.182407
  23 O :   -0.173687
  24 C :    0.120186
  25 C :    0.014118
  26 C :   -0.003182
  27 C :    0.047242
  28 C :   -0.089277
  29 C :    0.028437
  30 N :   -0.057961
  31 C :    0.047900
  32 C :    0.070129
  33 N :   -0.258179
  34 C :    0.124824
  35 C :    0.000617
  36 C :    0.163879
  37 O :   -0.214003
  38 C :   -0.072952
  39 C :   -0.006212
  40 C :    0.131687
  41 O :   -0.181991
  42 N :   -0.272452
  43 C :    0.101805
  44 C :    0.005388
  45 C :    0.113598
  46 C :   -0.035746
  47 C :    0.015558
  48 H :    0.019965
  49 H :    0.021675
  50 H :    0.006295
  51 H :   -0.012383
  52 H :    0.013588
  53 H :   -0.019530
  54 H :    0.000545
  55 H :    0.009268
  56 H :    0.008383
  57 H :   -0.000366
  58 H :    0.024904
  59 H :    0.031393
  60 H :    0.012582
  61 H :    0.017654
  62 H :    0.032068
  63 H :    0.019493
  64 H :    0.042297
  65 H :    0.013551
  66 H :    0.019932
  67 H :    0.029500
  68 H :   -0.020057
  69 H :    0.056107
  70 H :    0.028167
Sum of atomic charges:    0.0000000

LOEWDIN ATOMIC CHARGES
----------------------
   0 C :    0.086485
   1 N :   -0.074249
   2 C :    0.046160
   3 C :   -0.044680
   4 C :    0.071802
   5 O :   -0.130054
   6 C :   -0.034420
   7 C :    0.042225
   8 N :   -0.088525
   9 C :    0.090760
  10 C :   -0.022029
  11 C :   -0.053900
  12 C :   -0.158640
  13 S :    0.466426
  14 C :   -0.226889
  15 C :    0.082635
  16 O :   -0.136822
  17 C :   -0.030724
  18 C :   -0.033185
  19 C :   -0.156810
  20 S :    0.474420
  21 C :   -0.232482
  22 C :    0.081624
  23 O :   -0.128159
  24 C :   -0.015734
  25 C :   -0.026670
  26 C :   -0.041584
  27 C :    0.033577
  28 C :   -0.058256
  29 C :    0.033933
  30 N :   -0.061942
  31 C :    0.049895
  32 C :    0.077954
  33 N :    0.004776
  34 C :    0.038828
  35 C :   -0.061210
  36 C :    0.078891
  37 O :   -0.204558
  38 C :   -0.133647
  39 C :   -0.127670
  40 C :    0.081257
  41 O :   -0.189943
  42 N :   -0.007620
  43 C :    0.035480
  44 C :   -0.061336
  45 C :    0.085432
  46 C :   -0.054719
  47 C :    0.024837
  48 H :    0.026040
  49 H :    0.028735
  50 H :    0.039040
  51 H :   -0.003421
  52 H :    0.030344
  53 H :   -0.006456
  54 H :    0.032347
  55 H :    0.041530
  56 H :    0.022954
  57 H :    0.023260
  58 H :    0.026714
  59 H :    0.033481
  60 H :    0.021910
  61 H :    0.029137
  62 H :    0.031536
  63 H :    0.021170
  64 H :    0.037180
  65 H :    0.021367
  66 H :    0.029159
  67 H :    0.032407
  68 H :    0.028854
  69 H :    0.032937
  70 H :    0.028833

  Mayer bond orders larger than 0.100000
B(  0-C ,  1-N ) :   1.7272 B(  0-C , 11-C ) :   1.0365 B(  0-C , 48-H ) :   0.9888
B(  1-N ,  2-C ) :   1.2771 B(  2-C ,  3-C ) :   1.0487 B(  2-C ,  7-C ) :   1.4928
B(  3-C ,  4-C ) :   0.8967 B(  3-C , 11-C ) :   1.6133 B(  4-C ,  5-O ) :   2.2095
B(  4-C ,  6-C ) :   0.9177 B(  6-C ,  7-C ) :   1.0492 B(  6-C , 10-C ) :   1.6383
B(  7-C ,  8-N ) :   1.2895 B(  8-N ,  9-C ) :   1.6788 B(  9-C , 10-C ) :   1.0454
B(  9-C , 49-H ) :   0.9883 B( 10-C , 50-H ) :   1.0105 B( 11-C , 12-C ) :   1.0829
B( 12-C , 13-S ) :   1.1508 B( 12-C , 18-C ) :   1.5009 B( 13-S , 14-C ) :   1.1020
B( 14-C , 15-C ) :   1.0173 B( 14-C , 17-C ) :   1.4468 B( 15-C , 16-O ) :   2.1214
B( 15-C , 51-H ) :   0.9531 B( 17-C , 18-C ) :   1.2546 B( 17-C , 19-C ) :   1.0529
B( 18-C , 52-H ) :   0.9741 B( 19-C , 20-S ) :   1.1666 B( 19-C , 25-C ) :   1.5013
B( 20-S , 21-C ) :   1.1050 B( 21-C , 22-C ) :   1.0048 B( 21-C , 24-C ) :   1.4799
B( 22-C , 23-O ) :   2.1546 B( 22-C , 53-H ) :   0.9497 B( 24-C , 25-C ) :   1.2912
B( 24-C , 26-C ) :   0.9583 B( 25-C , 54-H ) :   0.9874 B( 26-C , 27-C ) :   1.3895
B( 26-C , 31-C ) :   1.3629 B( 27-C , 28-C ) :   1.4184 B( 27-C , 55-H ) :   0.9928
B( 28-C , 29-C ) :   1.3747 B( 28-C , 32-C ) :   0.9234 B( 29-C , 30-N ) :   1.5561
B( 29-C , 56-H ) :   0.9792 B( 30-N , 31-C ) :   1.5631 B( 31-C , 57-H ) :   0.9836
B( 32-C , 33-N ) :   1.2203 B( 32-C , 39-C ) :   1.4916 B( 33-N , 34-C ) :   0.9472
B( 33-N , 36-C ) :   1.0362 B( 34-C , 35-C ) :   1.1214 B( 34-C , 58-H ) :   0.9451
B( 34-C , 59-H ) :   0.9344 B( 35-C , 60-H ) :   0.9641 B( 35-C , 61-H ) :   0.9659
B( 35-C , 62-H ) :   0.9669 B( 36-C , 37-O ) :   2.0370 B( 36-C , 38-C ) :   0.9988
B( 38-C , 39-C ) :   1.1939 B( 38-C , 45-C ) :   1.3908 B( 39-C , 40-C ) :   0.9575
B( 40-C , 41-O ) :   2.1791 B( 40-C , 42-N ) :   1.0107 B( 42-N , 43-C ) :   0.9491
B( 42-N , 45-C ) :   1.1715 B( 43-C , 44-C ) :   1.1198 B( 43-C , 63-H ) :   0.9511
B( 43-C , 64-H ) :   0.9268 B( 44-C , 65-H ) :   0.9686 B( 44-C , 66-H ) :   0.9680
B( 44-C , 67-H ) :   0.9641 B( 45-C , 46-C ) :   1.1217 B( 46-C , 47-C ) :   1.8947
B( 46-C , 68-H ) :   0.9530 B( 47-C , 69-H ) :   0.9265 B( 47-C , 70-H ) :   0.9443

-----------------------------------------------------------------------------
         ABSORPTION SPECTRUM VIA TRANSITION ELECTRIC DIPOLE MOMENTS
-----------------------------------------------------------------------------
State   Energy  Wavelength   fosc         T2         TX        TY        TZ
        (cm-1)    (nm)                  (au**2)     (au)      (au)      (au)
-----------------------------------------------------------------------------
   0   16661.4    600.2   0.000022701   0.00045  -0.00976   0.01330  -0.01328
   1   19827.8    504.3   0.161669060   2.68427  -0.80496   1.01347  -1.00459
   2   22355.1    447.3   0.007439468   0.10956  -0.03002   0.07292   0.32146
   3   22481.3    444.8   0.000909396   0.01332   0.07088   0.05800  -0.07021
   4   23604.6    423.6   0.001675822   0.02337  -0.12054  -0.09258  -0.01649
   5   24575.5    406.9   0.320105068   4.28812   1.71322   0.31945   1.11846
   6   26145.0    382.5   0.003317177   0.04177   0.09438  -0.07281   0.16601
   7   26289.8    380.4   0.000173670   0.00217  -0.01250   0.02922   0.03412
   8   26333.7    379.7   0.004159772   0.05200   0.11501  -0.04377  -0.19199
   9   28019.8    356.9   0.003155855   0.03708  -0.09849  -0.16443  -0.01845
  10   28455.2    351.4   0.004771126   0.05520   0.10020  -0.18843   0.09825
  11   28636.5    349.2   0.131294879   1.50940  -0.55047   0.71240   0.83598
  12   29553.0    338.4   0.046090476   0.51344  -0.18351   0.67172  -0.16899
  13   30272.6    330.3   0.307256957   3.34139   0.89627  -1.03081   1.21471
  14   30379.8    329.2   0.043642700   0.47294  -0.28165   0.36795  -0.50815
  15   30453.3    328.4   0.006947226   0.07510  -0.19089  -0.03044  -0.19426
  16   31090.0    321.6   0.412345817   4.36633  -0.30150   0.55423  -1.99205
  17   31297.6    319.5   0.085054339   0.89467  -0.19682   0.27827  -0.88232
  18   32013.7    312.4   0.001728682   0.01778   0.01387  -0.04487  -0.12478
  19   32130.5    311.2   0.020711425   0.21221  -0.01834   0.16971  -0.42787
  20   32557.1    307.2   0.377037983   3.81254  -1.10393   1.33715  -0.89773
  21   32889.3    304.1   0.013548853   0.13562  -0.01527  -0.07572   0.36007
  22   33180.4    301.4   0.002295886   0.02278  -0.03170  -0.00340   0.14752
  23   33576.7    297.8   0.197150675   1.93302  -0.68349   0.80092   0.90796
  24   33869.9    295.2   0.099260737   0.96480  -0.21528   0.79595  -0.53378
  25   34070.8    293.5   0.004940265   0.04774  -0.08698  -0.04029   0.19634
  26   34696.2    288.2   0.126678822   1.20198  -0.62334   0.78921  -0.43654
  27   35539.5    281.4   0.019176331   0.17764  -0.15409   0.35696  -0.16270
  28   35710.6    280.0   0.011378753   0.10490   0.15587   0.22663  -0.17101
  29   35748.1    279.7   0.005493538   0.05059   0.03486   0.19204  -0.11179
  30   36382.8    274.9   0.010438954   0.09446  -0.11915   0.23871   0.15257
  31   37113.8    269.4   0.051855238   0.45997  -0.11291   0.07199   0.66486
  32   37194.6    268.9   0.065426645   0.57910   0.27076  -0.71109   0.01158
  33   37331.2    267.9   0.006019888   0.05309  -0.11170   0.19924  -0.03026
  34   37663.4    265.5   0.020046170   0.17522   0.00826  -0.16345   0.38528
  35   37943.7    263.5   0.015106914   0.13107   0.27109  -0.23955  -0.01395
  36   38536.8    259.5   0.205307303   1.75390   0.31944   0.10231  -1.28117
  37   38932.4    256.9   0.067050734   0.56698  -0.12108  -0.43237   0.60447
  38   39507.3    253.1   0.009988171   0.08323  -0.12051  -0.11649  -0.23482
  39   39602.6    252.5   0.001920783   0.01597   0.05037  -0.02485   0.11319
  40   39746.8    251.6   0.026924692   0.22301  -0.33509  -0.33071  -0.03682
  41   40262.9    248.4   0.008295025   0.06782  -0.06919   0.19933  -0.15267

FINAL SINGLE POINT ENERGY     -2829.084192744836

DIPOLE MOMENT
-------------
                                X             Y             Z
Electronic contribution:     12.78549     -31.42114      58.27679
Nuclear contribution   :    -13.13195      31.16307     -55.85359
                        -----------------------------------------
Total Dipole Moment    :     -0.34646      -0.25807       2.42320
                        -----------------------------------------
Magnitude (a.u.)       :      2.46141
Magnitude (Debye)      :      6.25640

Rotational constants in cm-1:     0.004322     0.000691     0.000656
Rotational constants in MHz :   129.574772    20.722083    19.658790

                             ****ORCA TERMINATED NORMALLY****
TOTAL RUN TIME: 0 days 0 hours 5 minutes 6 seconds 859 msec
