                         Program Version 4.2.0 -  RELEASE  -
|  1> # ORCA input file
|  2> # SCF done       -162.044556594890          0.000266938041
|  3> ! CAM-B3LYP def2-SVP def2/J RIJCOSX Grid4 TightSCF
|  4> %maxcore 5000
|  5> %tddft
|  6>     Mode sTDDFT
|  7>     Ethresh 5.0
|  8>     maxcore 5000
|  9> end
| 10>
| 11> %pal
| 12>   nprocs 6
| 13>   end
| 14> * xyz 0 1
| 15>    C        2.49233         0.18311         0.06602
| 16>    N        1.84732        -0.91796        -0.16939
| 17>    C        1.91910        -1.09994        -1.51988
| 18>    C        2.67037        -0.00025        -2.15466
| 19>    C        2.73715        -0.21047        -3.61243
| 20>    O        3.25679         0.48378        -4.45751
| 21>    C        2.00671        -1.48077        -3.79277
| 22>    C        1.52375        -1.98286        -2.48216
| 23>    N        0.85366        -3.15511        -2.64080
| 24>    C        0.89324        -3.40211        -3.92149
| 25>    C        1.60095        -2.39608        -4.70299
| 26>    C        3.05212         0.83057        -1.13098
| 27>    C        3.81384         2.05371        -1.15064
| 28>    C        4.16592         2.70699         0.03254
| 29>    C        4.90111         3.87831         0.00443
| 30>    N        5.32884         4.37959         1.28730
| 31>    O        4.53409         4.30985         2.20062
| 32>    O        6.46294         4.79799         1.38916
| 33>    C        5.28685         4.48073        -1.20806
| 34>    C        4.96442         3.78460        -2.38368
| 35>    C        4.25055         2.61020        -2.36422
| 36>    C        5.93672         5.75972        -1.33043
| 37>    C        5.81290         6.80281        -0.47968
| 38>    C        6.50789         8.02595        -0.68188
| 39>    N        6.54198         9.03930         0.24237
| 40>    C        5.99681         8.99811         1.57911
| 41>    C        6.82679         8.10927         2.50197
| 42>    C        7.31205        10.12881        -0.20049
| 43>    O        7.49199        11.13707         0.45331
| 44>    C        7.75873         9.73868        -1.52051
| 45>    C        7.25397         8.44201        -1.78364
| 46>    C        7.68532         8.05655        -3.10908
| 47>    O        7.50841         7.04645        -3.76173
| 48>    N        8.43453         9.15362        -3.56332
| 49>    C        9.00997         9.16642        -4.88673
| 50>    C        8.16570         9.97960        -5.86494
| 51>    C        8.48967        10.16457        -2.63049
| 52>    C        9.19780        11.37375        -2.82529
| 53>    C        9.25919        12.34763        -1.87764
| 54>    C        9.97150        13.56316        -2.03097
| 55>    S        9.99581        14.72227        -0.73210
| 56>    C       10.97666        15.82651        -1.64528
| 57>    C       11.29029        15.28320        -2.90059
| 58>    C       10.71021        14.02625        -3.10519
| 59>    C       12.23650        15.84097        -3.86616
| 60>    O       12.29406        15.52046        -5.02595
| 61>    C       11.29326        17.08610        -1.08925
| 62>    C       11.64756        18.20431        -1.78072
| 63>    C       11.97943        19.41056        -1.11596
| 64>    N       12.02062        19.51486         0.21503
| 65>    C       12.38192        20.77831         0.46677
| 66>    C       12.58258        21.53998        -0.79476
| 67>    C       12.98593        22.93361        -0.49953
| 68>    O       13.22576        23.82714        -1.27691
| 69>    C       13.01974        22.94697         0.97279
| 70>    C       12.64585        21.62187         1.51804
| 71>    N       12.68001        21.63616         2.87160
| 72>    C       13.04315        22.85532         3.19235
| 73>    C       13.27168        23.72445         2.05784
| 74>    C       12.32636        20.66538        -1.79020
| 75>    H        2.57030         0.54780         1.07515
| 76>    H        0.42739        -4.28653        -4.32054
| 77>    H        1.74204        -2.42014        -5.76539
| 78>    H        3.90061         2.29974         0.99604
| 79>    H        5.27290         4.20910        -3.32677
| 80>    H        4.02010         2.10852        -3.29180
| 81>    H        6.52820         5.89171        -2.22746
| 82>    H        5.17106         6.74736         0.38760
| 83>    H        4.95761         8.65880         1.54105
| 84>    H        6.01403        10.02939         1.94245
| 85>    H        6.87922         7.08832         2.12924
| 86>    H        6.38192         8.09611         3.49295
| 87>    H        7.83928         8.49758         2.58066
| 88>    H        9.04291         8.12277        -5.21167
| 89>    H       10.03237         9.55107        -4.83851
| 90>    H        7.16864         9.55242        -5.93783
| 91>    H        8.62401         9.96087        -6.84967
| 92>    H        8.07544        11.01372        -5.53961
| 93>    H        9.71340        11.50525        -3.76473
| 94>    H        8.74041        12.20528        -0.93856
| 95>    H       10.86131        13.47878        -4.01789
| 96>    H       12.95261        16.56434        -3.43360
| 97>    H       11.20423        17.18721        -0.01496
| 98>    H       11.65567        18.22027        -2.86110
| 99>    H       13.14772        23.13495         4.22653
|100>    H       13.57374        24.75168         2.10903
|101>    H       12.35547        20.80366        -2.85318
|102> *
|103>
|104>                          ****END OF INPUT****

CARTESIAN COORDINATES (ANGSTROEM)
---------------------------------
  C      2.492330    0.183110    0.066020
  N      1.847320   -0.917960   -0.169390
  C      1.919100   -1.099940   -1.519880
  C      2.670370   -0.000250   -2.154660
  C      2.737150   -0.210470   -3.612430
  O      3.256790    0.483780   -4.457510
  C      2.006710   -1.480770   -3.792770
  C      1.523750   -1.982860   -2.482160
  N      0.853660   -3.155110   -2.640800
  C      0.893240   -3.402110   -3.921490
  C      1.600950   -2.396080   -4.702990
  C      3.052120    0.830570   -1.130980
  C      3.813840    2.053710   -1.150640
  C      4.165920    2.706990    0.032540
  C      4.901110    3.878310    0.004430
  N      5.328840    4.379590    1.287300
  O      4.534090    4.309850    2.200620
  O      6.462940    4.797990    1.389160
  C      5.286850    4.480730   -1.208060
  C      4.964420    3.784600   -2.383680
  C      4.250550    2.610200   -2.364220
  C      5.936720    5.759720   -1.330430
  C      5.812900    6.802810   -0.479680
  C      6.507890    8.025950   -0.681880
  N      6.541980    9.039300    0.242370
  C      5.996810    8.998110    1.579110
  C      6.826790    8.109270    2.501970
  C      7.312050   10.128810   -0.200490
  O      7.491990   11.137070    0.453310
  C      7.758730    9.738680   -1.520510
  C      7.253970    8.442010   -1.783640
  C      7.685320    8.056550   -3.109080
  O      7.508410    7.046450   -3.761730
  N      8.434530    9.153620   -3.563320
  C      9.009970    9.166420   -4.886730
  C      8.165700    9.979600   -5.864940
  C      8.489670   10.164570   -2.630490
  C      9.197800   11.373750   -2.825290
  C      9.259190   12.347630   -1.877640
  C      9.971500   13.563160   -2.030970
  S      9.995810   14.722270   -0.732100
  C     10.976660   15.826510   -1.645280
  C     11.290290   15.283200   -2.900590
  C     10.710210   14.026250   -3.105190
  C     12.236500   15.840970   -3.866160
  O     12.294060   15.520460   -5.025950
  C     11.293260   17.086100   -1.089250
  C     11.647560   18.204310   -1.780720
  C     11.979430   19.410560   -1.115960
  N     12.020620   19.514860    0.215030
  C     12.381920   20.778310    0.466770
  C     12.582580   21.539980   -0.794760
  C     12.985930   22.933610   -0.499530
  O     13.225760   23.827140   -1.276910
  C     13.019740   22.946970    0.972790
  C     12.645850   21.621870    1.518040
  N     12.680010   21.636160    2.871600
  C     13.043150   22.855320    3.192350
  C     13.271680   23.724450    2.057840
  C     12.326360   20.665380   -1.790200
  H      2.570300    0.547800    1.075150
  H      0.427390   -4.286530   -4.320540
  H      1.742040   -2.420140   -5.765390
  H      3.900610    2.299740    0.996040
  H      5.272900    4.209100   -3.326770
  H      4.020100    2.108520   -3.291800
  H      6.528200    5.891710   -2.227460
  H      5.171060    6.747360    0.387600
  H      4.957610    8.658800    1.541050
  H      6.014030   10.029390    1.942450
  H      6.879220    7.088320    2.129240
  H      6.381920    8.096110    3.492950
  H      7.839280    8.497580    2.580660
  H      9.042910    8.122770   -5.211670
  H     10.032370    9.551070   -4.838510
  H      7.168640    9.552420   -5.937830
  H      8.624010    9.960870   -6.849670
  H      8.075440   11.013720   -5.539610
  H      9.713400   11.505250   -3.764730
  H      8.740410   12.205280   -0.938560
  H     10.861310   13.478780   -4.017890
  H     12.952610   16.564340   -3.433600
  H     11.204230   17.187210   -0.014960
  H     11.655670   18.220270   -2.861100
  H     13.147720   23.134950    4.226530
  H     13.573740   24.751680    2.109030
  H     12.355470   20.803660   -2.853180

 Total Charge           Charge          ....    0
 Multiplicity           Mult            ....    1
 Number of Electrons    NEL             ....  418
 Basis Dimension        Dim             ....  979

ORBITAL ENERGIES
----------------

  NO   OCC          E(Eh)            E(eV)
   0   2.0000     -88.981890     -2421.3203
   1   2.0000     -19.257159      -524.0139
   2   2.0000     -19.256023      -523.9830
   3   2.0000     -19.228251      -523.2273
   4   2.0000     -19.223447      -523.0966
   5   2.0000     -19.204485      -522.5806
   6   2.0000     -19.195322      -522.3313
   7   2.0000     -19.194604      -522.3117
   8   2.0000     -14.660408      -398.9300
   9   2.0000     -14.457302      -393.4032
  10   2.0000     -14.456264      -393.3749
  11   2.0000     -14.427012      -392.5790
  12   2.0000     -14.421410      -392.4265
  13   2.0000     -14.404739      -391.9729
  14   2.0000     -14.401008      -391.8714
  15   2.0000     -10.388103      -282.6746
  16   2.0000     -10.377325      -282.3814
  17   2.0000     -10.377298      -282.3806
  18   2.0000     -10.368654      -282.1454
  19   2.0000     -10.366612      -282.0898
  20   2.0000     -10.347506      -281.5700
  21   2.0000     -10.345665      -281.5199
  22   2.0000     -10.342748      -281.4405
  23   2.0000     -10.342409      -281.4313
  24   2.0000     -10.342082      -281.4223
  25   2.0000     -10.341811      -281.4150
  26   2.0000     -10.341625      -281.4099
  27   2.0000     -10.340360      -281.3755
  28   2.0000     -10.333624      -281.1922
  29   2.0000     -10.328682      -281.0577
  30   2.0000     -10.327112      -281.0150
  31   2.0000     -10.320907      -280.8462
  32   2.0000     -10.320528      -280.8358
  33   2.0000     -10.320286      -280.8293
  34   2.0000     -10.318692      -280.7859
  35   2.0000     -10.317554      -280.7549
  36   2.0000     -10.313688      -280.6497
  37   2.0000     -10.312625      -280.6208
  38   2.0000     -10.312334      -280.6129
  39   2.0000     -10.307031      -280.4686
  40   2.0000     -10.307001      -280.4678
  41   2.0000     -10.304706      -280.4053
  42   2.0000     -10.304574      -280.4017
  43   2.0000     -10.302800      -280.3534
  44   2.0000     -10.302658      -280.3496
  45   2.0000     -10.300589      -280.2933
  46   2.0000     -10.299953      -280.2760
  47   2.0000     -10.298823      -280.2452
  48   2.0000     -10.297963      -280.2218
  49   2.0000     -10.297025      -280.1963
  50   2.0000     -10.295412      -280.1524
  51   2.0000     -10.294716      -280.1335
  52   2.0000     -10.294686      -280.1326
  53   2.0000     -10.292591      -280.0756
  54   2.0000     -10.284698      -279.8609
  55   2.0000     -10.284133      -279.8455
  56   2.0000     -10.267784      -279.4006
  57   2.0000     -10.265042      -279.3260
  58   2.0000     -10.263979      -279.2971
  59   2.0000     -10.255439      -279.0647
  60   2.0000      -8.077414      -219.7976
  61   2.0000      -6.046473      -164.5329
  62   2.0000      -6.042342      -164.4205
  63   2.0000      -6.039938      -164.3551
  64   2.0000      -1.336835       -36.3771
  65   2.0000      -1.155029       -31.4299
  66   2.0000      -1.143232       -31.1089
  67   2.0000      -1.137429       -30.9510
  68   2.0000      -1.136720       -30.9317
  69   2.0000      -1.130837       -30.7716
  70   2.0000      -1.120243       -30.4834
  71   2.0000      -1.092490       -29.7282
  72   2.0000      -1.074601       -29.2414
  73   2.0000      -1.074170       -29.2297
  74   2.0000      -1.067809       -29.0566
  75   2.0000      -1.059612       -28.8335
  76   2.0000      -1.055026       -28.7087
  77   2.0000      -1.010645       -27.5011
  78   2.0000      -0.999841       -27.2071
  79   2.0000      -0.949509       -25.8374
  80   2.0000      -0.939468       -25.5642
  81   2.0000      -0.934645       -25.4330
  82   2.0000      -0.930783       -25.3279
  83   2.0000      -0.924163       -25.1477
  84   2.0000      -0.911429       -24.8012
  85   2.0000      -0.903543       -24.5867
  86   2.0000      -0.890281       -24.2258
  87   2.0000      -0.875887       -23.8341
  88   2.0000      -0.874480       -23.7958
  89   2.0000      -0.868826       -23.6420
  90   2.0000      -0.867171       -23.5969
  91   2.0000      -0.857798       -23.3419
  92   2.0000      -0.853741       -23.2315
  93   2.0000      -0.842098       -22.9147
  94   2.0000      -0.821210       -22.3463
  95   2.0000      -0.812723       -22.1153
  96   2.0000      -0.800007       -21.7693
  97   2.0000      -0.786886       -21.4123
  98   2.0000      -0.782214       -21.2851
  99   2.0000      -0.770446       -20.9649
 100   2.0000      -0.766067       -20.8457
 101   2.0000      -0.761241       -20.7144
 102   2.0000      -0.751888       -20.4599
 103   2.0000      -0.740214       -20.1423
 104   2.0000      -0.730560       -19.8795
 105   2.0000      -0.724389       -19.7116
 106   2.0000      -0.717029       -19.5114
 107   2.0000      -0.709937       -19.3184
 108   2.0000      -0.708888       -19.2898
 109   2.0000      -0.697053       -18.9678
 110   2.0000      -0.682855       -18.5814
 111   2.0000      -0.670872       -18.2554
 112   2.0000      -0.666813       -18.1449
 113   2.0000      -0.658278       -17.9127
 114   2.0000      -0.656791       -17.8722
 115   2.0000      -0.652737       -17.7619
 116   2.0000      -0.651834       -17.7373
 117   2.0000      -0.645288       -17.5592
 118   2.0000      -0.643714       -17.5164
 119   2.0000      -0.634762       -17.2727
 120   2.0000      -0.634060       -17.2536
 121   2.0000      -0.623606       -16.9692
 122   2.0000      -0.616771       -16.7832
 123   2.0000      -0.609662       -16.5898
 124   2.0000      -0.608702       -16.5636
 125   2.0000      -0.605886       -16.4870
 126   2.0000      -0.594011       -16.1639
 127   2.0000      -0.592235       -16.1155
 128   2.0000      -0.589105       -16.0304
 129   2.0000      -0.585168       -15.9232
 130   2.0000      -0.584746       -15.9117
 131   2.0000      -0.574813       -15.6415
 132   2.0000      -0.570793       -15.5321
 133   2.0000      -0.569344       -15.4927
 134   2.0000      -0.566267       -15.4089
 135   2.0000      -0.559901       -15.2357
 136   2.0000      -0.558567       -15.1994
 137   2.0000      -0.554093       -15.0777
 138   2.0000      -0.544883       -14.8270
 139   2.0000      -0.542756       -14.7691
 140   2.0000      -0.540531       -14.7086
 141   2.0000      -0.536698       -14.6043
 142   2.0000      -0.535058       -14.5597
 143   2.0000      -0.533175       -14.5084
 144   2.0000      -0.532258       -14.4835
 145   2.0000      -0.529671       -14.4131
 146   2.0000      -0.527311       -14.3489
 147   2.0000      -0.523994       -14.2586
 148   2.0000      -0.520901       -14.1744
 149   2.0000      -0.520438       -14.1618
 150   2.0000      -0.519522       -14.1369
 151   2.0000      -0.514587       -14.0026
 152   2.0000      -0.512248       -13.9390
 153   2.0000      -0.508873       -13.8471
 154   2.0000      -0.506345       -13.7783
 155   2.0000      -0.504322       -13.7233
 156   2.0000      -0.498149       -13.5553
 157   2.0000      -0.496980       -13.5235
 158   2.0000      -0.489082       -13.3086
 159   2.0000      -0.487922       -13.2770
 160   2.0000      -0.486150       -13.2288
 161   2.0000      -0.483556       -13.1582
 162   2.0000      -0.481276       -13.0962
 163   2.0000      -0.479667       -13.0524
 164   2.0000      -0.476680       -12.9711
 165   2.0000      -0.472796       -12.8654
 166   2.0000      -0.468818       -12.7572
 167   2.0000      -0.468176       -12.7397
 168   2.0000      -0.468054       -12.7364
 169   2.0000      -0.466526       -12.6948
 170   2.0000      -0.465768       -12.6742
 171   2.0000      -0.461671       -12.5627
 172   2.0000      -0.458524       -12.4771
 173   2.0000      -0.455215       -12.3870
 174   2.0000      -0.453163       -12.3312
 175   2.0000      -0.451710       -12.2917
 176   2.0000      -0.446644       -12.1538
 177   2.0000      -0.442579       -12.0432
 178   2.0000      -0.440419       -11.9844
 179   2.0000      -0.437826       -11.9139
 180   2.0000      -0.430162       -11.7053
 181   2.0000      -0.424249       -11.5444
 182   2.0000      -0.413688       -11.2570
 183   2.0000      -0.406864       -11.0713
 184   2.0000      -0.398731       -10.8500
 185   2.0000      -0.392757       -10.6875
 186   2.0000      -0.384017       -10.4496
 187   2.0000      -0.374577       -10.1927
 188   2.0000      -0.371049       -10.0967
 189   2.0000      -0.368708       -10.0331
 190   2.0000      -0.358924        -9.7668
 191   2.0000      -0.356660        -9.7052
 192   2.0000      -0.352134        -9.5821
 193   2.0000      -0.351917        -9.5762
 194   2.0000      -0.349396        -9.5075
 195   2.0000      -0.348198        -9.4749
 196   2.0000      -0.346168        -9.4197
 197   2.0000      -0.345377        -9.3982
 198   2.0000      -0.344399        -9.3716
 199   2.0000      -0.341755        -9.2996
 200   2.0000      -0.340492        -9.2653
 201   2.0000      -0.335907        -9.1405
 202   2.0000      -0.327551        -8.9131
 203   2.0000      -0.325817        -8.8659
 204   2.0000      -0.323962        -8.8155
 205   2.0000      -0.318553        -8.6683
 206   2.0000      -0.303593        -8.2612
 207   2.0000      -0.284094        -7.7306
 208   2.0000      -0.238288        -6.4842
 209   0.0000      -0.122637        -3.3371
 210   0.0000      -0.118370        -3.2210
 211   0.0000      -0.088306        -2.4029
 212   0.0000      -0.063629        -1.7314
 213   0.0000      -0.054518        -1.4835

MULLIKEN ATOMIC CHARGES
-----------------------
   0 C :    0.057374
   1 N :   -0.021911
   2 C :    0.046709
   3 C :   -0.148428
   4 C :    0.225594
   5 O :   -0.133473
   6 C :   -0.012225
   7 C :    0.000656
   8 N :   -0.049470
   9 C :    0.094528
  10 C :   -0.092739
  11 C :    0.007887
  12 C :    0.093868
  13 C :   -0.060976
  14 C :    0.106649
  15 N :    0.229336
  16 O :   -0.229495
  17 O :   -0.212974
  18 C :    0.088753
  19 C :   -0.018948
  20 C :    0.011400
  21 C :   -0.011863
  22 C :    0.018654
  23 C :    0.092705
  24 N :   -0.250120
  25 C :    0.093136
  26 C :   -0.002190
  27 C :    0.164888
  28 O :   -0.208012
  29 C :   -0.066355
  30 C :   -0.052482
  31 C :    0.161712
  32 O :   -0.215078
  33 N :   -0.255403
  34 C :    0.100429
  35 C :    0.004863
  36 C :    0.129781
  37 C :   -0.023814
  38 C :    0.083210
  39 C :   -0.074427
  40 S :    0.201526
  41 C :   -0.097027
  42 C :    0.028887
  43 C :   -0.016963
  44 C :    0.128179
  45 O :   -0.177958
  46 C :    0.085805
  47 C :   -0.047776
  48 C :    0.047216
  49 N :   -0.056959
  50 C :    0.040997
  51 C :   -0.031379
  52 C :    0.210594
  53 O :   -0.120070
  54 C :   -0.047546
  55 C :   -0.012597
  56 N :   -0.058611
  57 C :    0.088103
  58 C :   -0.087924
  59 C :   -0.096270
  60 H :    0.017374
  61 H :    0.018225
  62 H :    0.004291
  63 H :   -0.008552
  64 H :    0.007657
  65 H :   -0.001488
  66 H :    0.027750
  67 H :   -0.013786
  68 H :    0.024283
  69 H :    0.042678
  70 H :    0.028378
  71 H :    0.023208
  72 H :    0.022187
  73 H :    0.043396
  74 H :    0.023748
  75 H :    0.029130
  76 H :    0.025350
  77 H :    0.016002
  78 H :   -0.026115
  79 H :    0.009367
  80 H :   -0.000772
  81 H :    0.001974
  82 H :    0.036105
  83 H :    0.000860
  84 H :    0.008259
  85 H :   -0.005927
  86 H :   -0.005552
Sum of atomic charges:   -0.0000000

LOEWDIN ATOMIC CHARGES
----------------------
   0 C :    0.089567
   1 N :   -0.074740
   2 C :    0.047149
   3 C :   -0.052139
   4 C :    0.072855
   5 O :   -0.130191
   6 C :   -0.035064
   7 C :    0.038023
   8 N :   -0.088431
   9 C :    0.085641
  10 C :   -0.024457
  11 C :   -0.028680
  12 C :   -0.027416
  13 C :    0.008115
  14 C :   -0.024349
  15 N :    0.282155
  16 O :   -0.198293
  17 O :   -0.186576
  18 C :   -0.003359
  19 C :    0.006705
  20 C :    0.022710
  21 C :    0.023057
  22 C :   -0.028229
  23 C :    0.078043
  24 N :    0.004576
  25 C :    0.036141
  26 C :   -0.063467
  27 C :    0.080773
  28 O :   -0.198785
  29 C :   -0.118330
  30 C :   -0.120546
  31 C :    0.080042
  32 O :   -0.204338
  33 N :    0.000451
  34 C :    0.036734
  35 C :   -0.060607
  36 C :    0.072298
  37 C :   -0.036304
  38 C :    0.005574
  39 C :   -0.161007
  40 S :    0.492911
  41 C :   -0.159751
  42 C :   -0.096754
  43 C :   -0.016040
  44 C :    0.102638
  45 O :   -0.128787
  46 C :    0.029525
  47 C :   -0.047080
  48 C :    0.060717
  49 N :   -0.117876
  50 C :    0.039605
  51 C :   -0.026450
  52 C :    0.061922
  53 O :   -0.134206
  54 C :   -0.043174
  55 C :    0.022896
  56 N :   -0.099582
  57 C :    0.073939
  58 C :   -0.040657
  59 C :   -0.023614
  60 H :    0.027612
  61 H :    0.027257
  62 H :    0.037871
  63 H :    0.036033
  64 H :    0.044365
  65 H :    0.035920
  66 H :    0.041520
  67 H :    0.026182
  68 H :    0.022898
  69 H :    0.036966
  70 H :    0.022436
  71 H :    0.031622
  72 H :    0.029911
  73 H :    0.038076
  74 H :    0.023133
  75 H :    0.032396
  76 H :    0.031554
  77 H :    0.022044
  78 H :    0.029239
  79 H :    0.037255
  80 H :    0.036484
  81 H :    0.001255
  82 H :    0.047029
  83 H :    0.033425
  84 H :    0.023081
  85 H :    0.033795
  86 H :    0.035159

  Mayer bond orders larger than 0.100000
B(  0-C ,  1-N ) :   1.7319 B(  0-C , 11-C ) :   1.0365 B(  0-C , 60-H ) :   0.9855
B(  1-N ,  2-C ) :   1.2737 B(  2-C ,  3-C ) :   1.0497 B(  2-C ,  7-C ) :   1.5015
B(  3-C ,  4-C ) :   0.8925 B(  3-C , 11-C ) :   1.6043 B(  4-C ,  5-O ) :   2.1903
B(  4-C ,  6-C ) :   0.9261 B(  5-O , 65-H ) :   0.1030 B(  6-C ,  7-C ) :   1.0496
B(  6-C , 10-C ) :   1.6362 B(  7-C ,  8-N ) :   1.2828 B(  8-N ,  9-C ) :   1.6882
B(  9-C , 10-C ) :   1.0446 B(  9-C , 61-H ) :   0.9881 B( 10-C , 62-H ) :   1.0114
B( 11-C , 12-C ) :   1.0362 B( 12-C , 13-C ) :   1.2906 B( 12-C , 20-C ) :   1.3294
B( 13-C , 14-C ) :   1.4039 B( 13-C , 63-H ) :   0.9899 B( 14-C , 15-N ) :   0.8575
B( 14-C , 18-C ) :   1.3408 B( 15-N , 16-O ) :   1.5324 B( 15-N , 17-O ) :   1.5310
B( 16-O , 17-O ) :   0.2681 B( 18-C , 19-C ) :   1.3196 B( 18-C , 21-C ) :   1.0721
B( 19-C , 20-C ) :   1.3950 B( 19-C , 64-H ) :   0.9983 B( 20-C , 65-H ) :   0.9733
B( 21-C , 22-C ) :   1.6531 B( 21-C , 66-H ) :   0.9375 B( 22-C , 23-C ) :   1.1823
B( 22-C , 67-H ) :   0.9465 B( 23-C , 24-N ) :   1.1717 B( 23-C , 30-C ) :   1.3401
B( 24-N , 25-C ) :   0.9398 B( 24-N , 27-C ) :   1.0602 B( 25-C , 26-C ) :   1.1197
B( 25-C , 68-H ) :   0.9496 B( 25-C , 69-H ) :   0.9285 B( 26-C , 70-H ) :   0.9597
B( 26-C , 71-H ) :   0.9656 B( 26-C , 72-H ) :   0.9607 B( 27-C , 28-O ) :   2.0254
B( 27-C , 29-C ) :   0.9868 B( 28-O , 79-H ) :   0.1159 B( 29-C , 30-C ) :   1.2534
B( 29-C , 36-C ) :   1.3386 B( 30-C , 31-C ) :   0.9867 B( 31-C , 32-O ) :   2.0260
B( 31-C , 33-N ) :   1.0621 B( 32-O , 66-H ) :   0.1057 B( 33-N , 34-C ) :   0.9444
B( 33-N , 36-C ) :   1.1567 B( 34-C , 35-C ) :   1.1217 B( 34-C , 73-H ) :   0.9275
B( 34-C , 74-H ) :   0.9494 B( 35-C , 75-H ) :   0.9635 B( 35-C , 76-H ) :   0.9680
B( 35-C , 77-H ) :   0.9684 B( 36-C , 37-C ) :   1.1699 B( 37-C , 38-C ) :   1.6230
B( 37-C , 78-H ) :   0.9606 B( 38-C , 39-C ) :   1.1248 B( 38-C , 79-H ) :   0.9374
B( 39-C , 40-S ) :   1.1362 B( 39-C , 43-C ) :   1.4357 B( 40-S , 41-C ) :   1.1529
B( 41-C , 42-C ) :   1.3728 B( 41-C , 46-C ) :   1.1283 B( 42-C , 43-C ) :   1.3080
B( 42-C , 44-C ) :   0.9623 B( 43-C , 80-H ) :   0.9990 B( 44-C , 45-O ) :   2.1772
B( 44-C , 81-H ) :   0.9575 B( 46-C , 47-C ) :   1.6271 B( 46-C , 82-H ) :   0.9546
B( 47-C , 48-C ) :   1.1527 B( 47-C , 83-H ) :   0.9659 B( 48-C , 49-N ) :   1.5565
B( 48-C , 50-C ) :   0.1071 B( 48-C , 59-C ) :   1.0356 B( 49-N , 50-C ) :   1.3885
B( 50-C , 51-C ) :   1.0268 B( 50-C , 55-C ) :   1.3959 B( 51-C , 52-C ) :   0.8656
B( 51-C , 59-C ) :   1.6263 B( 52-C , 53-O ) :   2.3249 B( 52-C , 54-C ) :   0.8894
B( 54-C , 55-C ) :   1.0450 B( 54-C , 58-C ) :   1.6052 B( 55-C , 56-N ) :   1.3276
B( 56-N , 57-C ) :   1.6428 B( 57-C , 58-C ) :   1.0856 B( 57-C , 84-H ) :   0.9899
B( 58-C , 85-H ) :   1.0091 B( 59-C , 86-H ) :   1.0167

-----------------------------------------------------------------------------
         ABSORPTION SPECTRUM VIA TRANSITION ELECTRIC DIPOLE MOMENTS
-----------------------------------------------------------------------------
State   Energy  Wavelength   fosc         T2         TX        TY        TZ
        (cm-1)    (nm)                  (au**2)     (au)      (au)      (au)
-----------------------------------------------------------------------------
   0   12882.4    776.3   1.322016020  33.78444   2.58201   5.20131   0.25304
   1   15560.0    642.7   0.016621204   0.35166  -0.10263   0.39865   0.42686
   2   18787.4    532.3   0.158902099   2.78444  -0.60601  -0.11231   1.55067
   3   21273.3    470.1   0.101200249   1.56611   0.32224   1.02209   0.64623
   4   21693.7    461.0   0.553770464   8.40371  -0.56240  -2.40453  -1.51843
   5   22446.5    445.5   0.177005513   2.59605   0.70678   1.34569   0.53445
   6   22931.6    436.1   0.000873775   0.01254   0.05299  -0.09865   0.00224
   7   23430.5    426.8   0.026376243   0.37060   0.41136   0.23017  -0.38524
   8   24453.5    408.9   0.159216037   2.14349   0.35598   1.31146   0.54484
   9   25510.9    392.0   0.007125953   0.09196  -0.08181  -0.25475  -0.14271
  10   26183.4    381.9   0.023890952   0.30039   0.28816   0.44779   0.12973
  11   26646.6    375.3   0.066659284   0.82356   0.23049   0.86529   0.14733
  12   26763.7    373.6   0.000034818   0.00043   0.01470   0.01232   0.00778
  13   26844.2    372.5   0.094799314   1.16260  -0.34748  -0.89605  -0.48884
  14   27316.6    366.1   0.044426752   0.53542   0.33736   0.60115   0.24540
  15   27473.8    364.0   0.017005409   0.20377   0.00921  -0.42152  -0.16128
  16   28076.8    356.2   0.042494893   0.49827   0.34366   0.36940  -0.49367
  17   28389.3    352.2   0.020454496   0.23720   0.30793   0.35797   0.11932
  18   28510.6    350.7   0.103385990   1.19380   0.30326   1.02178   0.24040
  19   28774.8    347.5   0.089815832   1.02758   0.35502   0.93463   0.16739
  20   28918.5    345.8   0.343476677   3.91019  -0.73044  -1.76302  -0.51808
  21   29324.1    341.0   0.013524333   0.15183   0.18854   0.02668  -0.33996
  22   30481.8    328.1   0.045949913   0.49627  -0.27135  -0.64890   0.03956
  23   31062.4    321.9   0.016837975   0.17846   0.02708   0.15589   0.39169
  24   31405.6    318.4   0.000011954   0.00013  -0.00549  -0.00291   0.00931
  25   31582.1    316.6   0.000162568   0.00169  -0.00834   0.03490   0.02017
  26   31824.4    314.2   0.001823404   0.01886   0.00165  -0.13100  -0.04122
  27   31957.5    312.9   0.068940629   0.71020  -0.08946  -0.35125  -0.76080
  28   31980.8    312.7   0.018022357   0.18552  -0.02772  -0.04739  -0.42721
  29   33101.8    302.1   0.234077694   2.32801   0.55870   1.18311   0.78493
  30   33324.0    300.1   0.004336405   0.04284  -0.02794  -0.19553  -0.06188
  31   33431.9    299.1   0.029019380   0.28576  -0.04799  -0.19994  -0.49344
  32   33656.4    297.1   0.067286122   0.65816  -0.43855  -0.20979   0.64948
  33   34197.7    292.4   0.026226254   0.25247  -0.13319   0.10698  -0.47253
  34   34204.5    292.4   0.095713656   0.92123   0.35429   0.87292   0.18362
  35   34986.1    285.8   0.082768594   0.77884  -0.29504  -0.55031  -0.62366
  36   35030.4    285.5   0.002675574   0.02514  -0.00799  -0.05278  -0.14931
  37   35967.4    278.0   0.248353919   2.27320   0.58306   1.13376   0.80487
  38   36124.4    276.8   0.073534261   0.67014  -0.46215  -0.48955  -0.46573
  39   36772.6    271.9   0.003521942   0.03153  -0.07594  -0.14774  -0.06274
  40   36853.8    271.3   0.001680705   0.01501   0.05647  -0.09852   0.04603
  41   37077.7    269.7   0.100088488   0.88868  -0.18764  -0.89185  -0.24099
  42   37639.7    265.7   0.188981418   1.65291   0.42402   1.09807   0.51707
  43   38211.2    261.7   0.000224281   0.00193   0.03909   0.01822   0.00850
  44   38235.6    261.5   0.016181254   0.13932  -0.22525  -0.24284   0.17207
  45   38958.2    256.7   0.019729860   0.16672  -0.12525  -0.37981  -0.08234
  46   39166.0    255.3   0.034360429   0.28882  -0.24862  -0.45462  -0.14258
  47   39367.6    254.0   0.117420379   0.98193  -0.32297  -0.83316  -0.42834
  48   39412.3    253.7   0.007333964   0.06126   0.07006   0.20323   0.12267
  49   39710.2    251.8   0.091625087   0.75960   0.16087   0.85096  -0.09795
  50   40001.3    250.0   0.107784005   0.88706   0.30871   0.77863   0.43070
  51   40130.5    249.2   0.015534234   0.12744   0.01677   0.18587   0.30432
  52   40170.0    248.9   0.089170033   0.73079   0.21710   0.72969   0.38885

FINAL SINGLE POINT ENERGY     -3035.422370089698

DIPOLE MOMENT
-------------
                                X             Y             Z
Electronic contribution:     -2.69916       0.58620       7.88648
Nuclear contribution   :      1.74779      -2.35897      -9.05007
                        -----------------------------------------
Total Dipole Moment    :     -0.95136      -1.77277      -1.16359
                        -----------------------------------------
Magnitude (a.u.)       :      2.32417
Magnitude (Debye)      :      5.90757

Rotational constants in cm-1:     0.004517     0.000266     0.000253
Rotational constants in MHz :   135.419310     7.960902     7.571404

                             ****ORCA TERMINATED NORMALLY****
TOTAL RUN TIME: 0 days 0 hours 7 minutes 6 seconds 204 msec
