                         Program Version 4.2.0 -  RELEASE  -
|  1> # ORCA input file
|  2> # SCF done       -175.194419668012          0.000326906391
|  3> ! CAM-B3LYP def2-SVP def2/J RIJCOSX Grid4 TightSCF
|  4> %maxcore 5000
|  5> %tddft
|  6>     Mode sTDDFT
|  7>     Ethresh 5.0
|  8>     maxcore 5000
|  9> end
| 10>
| 11> %pal
| 12>   nprocs 6
| 13>   end
| 14> * xyz 0 1
| 15>    C       11.52173        -7.16364         3.24020
| 16>    C       12.24162        -8.22677         3.69515
| 17>    S       12.91973        -9.12537         2.38995
| 18>    C       12.22995        -8.04525         1.20088
| 19>   Cl       12.46785        -8.28892        -0.45731
| 20>    C       11.51351        -7.05935         1.81066
| 21>    C       10.74807        -5.87805         1.39683
| 22>    O       10.66627        -5.39189         0.29726
| 23>    C       10.17703        -5.33437         2.68021
| 24>    C       10.74257        -6.08291         3.80508
| 25>    C       10.57517        -5.84826         5.13936
| 26>    C       11.17792        -6.67557         6.11300
| 27>    N       11.65987        -7.33785         6.91562
| 28>    C        9.82454        -4.79436         5.70177
| 29>    N        9.23429        -3.96260         6.22712
| 30>    C        9.29250        -4.32523         2.73304
| 31>    C        8.67475        -3.76065         1.52884
| 32>    N        8.73329        -2.44221         1.36734
| 33>    C        8.19506        -1.96140         0.25857
| 34>    C        7.59940        -2.76941        -0.69377
| 35>    C        7.54362        -4.14215        -0.41061
| 36>    N        8.07226        -4.61338         0.71879
| 37>    C        6.94230        -5.14276        -1.26510
| 38>    C        6.61619        -4.95385        -2.56038
| 39>    C        6.06617        -5.98515        -3.37438
| 40>    N        5.76595        -5.81985        -4.70709
| 41>    C        5.88897        -4.60853        -5.48045
| 42>    C        4.74211        -3.63824        -5.20620
| 43>    C        5.25072        -6.99917        -5.28364
| 44>    O        4.92165        -7.09312        -6.44802
| 45>    C        5.25156        -7.94609        -4.19439
| 46>    C        5.75323        -7.29922        -3.03884
| 47>    C        5.75417        -8.27199        -1.96912
| 48>    O        6.09882        -8.20847        -0.80709
| 49>    N        5.24405        -9.45042        -2.55588
| 50>    C        5.09966       -10.63753        -1.74895
| 51>    C        3.67764       -10.79237        -1.21326
| 52>    C        4.93675        -9.26657        -3.88502
| 53>    C        4.42975       -10.17223        -4.85156
| 54>    C        3.97643       -11.44228        -4.70503
| 55>    C        3.52256       -12.24369        -5.78822
| 56>    S        2.87766       -13.83099        -5.45906
| 57>    C        2.60759       -14.13851        -7.13992
| 58>    C        3.01182       -13.04303        -7.91719
| 59>    C        3.51820       -11.98800        -7.14379
| 60>    C        2.96680       -12.99557        -9.37224
| 61>    O        2.59787       -13.87697       -10.11178
| 62>    C        2.10591       -15.36326        -7.62856
| 63>    C        1.77935       -16.44076        -6.86969
| 64>    C        1.30570       -17.66575        -7.40282
| 65>    C        1.48614       -18.20268        -8.64231
| 66>    C        0.55557       -19.29796        -9.06948
| 67>    O       -0.21296       -19.89979        -8.35836
| 68>    C        0.76571       -19.41675       -10.51557
| 69>    C        0.22095       -20.10738       -11.55641
| 70>    S        1.02591       -19.69519       -13.05231
| 71>    C        2.09587       -18.60313       -12.25043
| 72>    C        1.84082       -18.55719       -10.91623
| 73>    C        2.38255       -17.89307        -9.74343
| 74>    C        3.61842       -17.30245        -9.71274
| 75>    C        4.40639       -17.18129       -10.87696
| 76>    N        5.06577       -17.07644       -11.80970
| 77>    C        4.26866       -16.82168        -8.56237
| 78>    N        4.86148       -16.43452        -7.65830
| 79>   Cl       -1.05119       -21.22538       -11.51869
| 80>    H       12.42063        -8.54576         4.70280
| 81>    H        8.97970        -3.88935         3.67173
| 82>    H        8.25183        -0.88683         0.13952
| 83>    H        7.17834        -2.35067        -1.59236
| 84>    H        6.80825        -6.11006        -0.79985
| 85>    H        6.79149        -3.99847        -3.03429
| 86>    H        5.86144        -4.91804        -6.52919
| 87>    H        6.85614        -4.13926        -5.27895
| 88>    H        3.79410        -4.10383        -5.46388
| 89>    H        4.86461        -2.74327        -5.80998
| 90>    H        4.71150        -3.35326        -4.15668
| 91>    H        5.78594       -10.51151        -0.90571
| 92>    H        5.41307       -11.51075        -2.32558
| 93>    H        3.44240        -9.95909        -0.55591
| 94>    H        3.59504       -11.71547        -0.64605
| 95>    H        2.94941       -10.80741        -2.02130
| 96>    H        4.40766        -9.72979        -5.83898
| 97>    H        3.92585       -11.91629        -3.73780
| 98>    H        3.88170       -11.07124        -7.57172
| 99>    H        3.32728       -12.03246        -9.77867
|100>    H        1.97305       -15.40088        -8.70169
|101>    H        1.81478       -16.35673        -5.79042
|102>    H        0.65846       -18.25218        -6.75646
|103>    H        2.82562       -18.06587       -12.82273
|104> *
|105>
|106>                          ****END OF INPUT****

CARTESIAN COORDINATES (ANGSTROEM)
---------------------------------
  C     11.521730   -7.163640    3.240200
  C     12.241620   -8.226770    3.695150
  S     12.919730   -9.125370    2.389950
  C     12.229950   -8.045250    1.200880
  Cl    12.467850   -8.288920   -0.457310
  C     11.513510   -7.059350    1.810660
  C     10.748070   -5.878050    1.396830
  O     10.666270   -5.391890    0.297260
  C     10.177030   -5.334370    2.680210
  C     10.742570   -6.082910    3.805080
  C     10.575170   -5.848260    5.139360
  C     11.177920   -6.675570    6.113000
  N     11.659870   -7.337850    6.915620
  C      9.824540   -4.794360    5.701770
  N      9.234290   -3.962600    6.227120
  C      9.292500   -4.325230    2.733040
  C      8.674750   -3.760650    1.528840
  N      8.733290   -2.442210    1.367340
  C      8.195060   -1.961400    0.258570
  C      7.599400   -2.769410   -0.693770
  C      7.543620   -4.142150   -0.410610
  N      8.072260   -4.613380    0.718790
  C      6.942300   -5.142760   -1.265100
  C      6.616190   -4.953850   -2.560380
  C      6.066170   -5.985150   -3.374380
  N      5.765950   -5.819850   -4.707090
  C      5.888970   -4.608530   -5.480450
  C      4.742110   -3.638240   -5.206200
  C      5.250720   -6.999170   -5.283640
  O      4.921650   -7.093120   -6.448020
  C      5.251560   -7.946090   -4.194390
  C      5.753230   -7.299220   -3.038840
  C      5.754170   -8.271990   -1.969120
  O      6.098820   -8.208470   -0.807090
  N      5.244050   -9.450420   -2.555880
  C      5.099660  -10.637530   -1.748950
  C      3.677640  -10.792370   -1.213260
  C      4.936750   -9.266570   -3.885020
  C      4.429750  -10.172230   -4.851560
  C      3.976430  -11.442280   -4.705030
  C      3.522560  -12.243690   -5.788220
  S      2.877660  -13.830990   -5.459060
  C      2.607590  -14.138510   -7.139920
  C      3.011820  -13.043030   -7.917190
  C      3.518200  -11.988000   -7.143790
  C      2.966800  -12.995570   -9.372240
  O      2.597870  -13.876970  -10.111780
  C      2.105910  -15.363260   -7.628560
  C      1.779350  -16.440760   -6.869690
  C      1.305700  -17.665750   -7.402820
  C      1.486140  -18.202680   -8.642310
  C      0.555570  -19.297960   -9.069480
  O     -0.212960  -19.899790   -8.358360
  C      0.765710  -19.416750  -10.515570
  C      0.220950  -20.107380  -11.556410
  S      1.025910  -19.695190  -13.052310
  C      2.095870  -18.603130  -12.250430
  C      1.840820  -18.557190  -10.916230
  C      2.382550  -17.893070   -9.743430
  C      3.618420  -17.302450   -9.712740
  C      4.406390  -17.181290  -10.876960
  N      5.065770  -17.076440  -11.809700
  C      4.268660  -16.821680   -8.562370
  N      4.861480  -16.434520   -7.658300
  Cl    -1.051190  -21.225380  -11.518690
  H     12.420630   -8.545760    4.702800
  H      8.979700   -3.889350    3.671730
  H      8.251830   -0.886830    0.139520
  H      7.178340   -2.350670   -1.592360
  H      6.808250   -6.110060   -0.799850
  H      6.791490   -3.998470   -3.034290
  H      5.861440   -4.918040   -6.529190
  H      6.856140   -4.139260   -5.278950
  H      3.794100   -4.103830   -5.463880
  H      4.864610   -2.743270   -5.809980
  H      4.711500   -3.353260   -4.156680
  H      5.785940  -10.511510   -0.905710
  H      5.413070  -11.510750   -2.325580
  H      3.442400   -9.959090   -0.555910
  H      3.595040  -11.715470   -0.646050
  H      2.949410  -10.807410   -2.021300
  H      4.407660   -9.729790   -5.838980
  H      3.925850  -11.916290   -3.737800
  H      3.881700  -11.071240   -7.571720
  H      3.327280  -12.032460   -9.778670
  H      1.973050  -15.400880   -8.701690
  H      1.814780  -16.356730   -5.790420
  H      0.658460  -18.252180   -6.756460
  H      2.825620  -18.065870  -12.822730

 Total Charge           Charge          ....    0
 Multiplicity           Mult            ....    1
 Number of Electrons    NEL             ....  484
 Basis Dimension        Dim             .... 1050

ORBITAL ENERGIES
----------------

  NO   OCC          E(Eh)            E(eV)
   0   2.0000    -101.617886     -2765.1632
   1   2.0000    -101.613898     -2765.0547
   2   2.0000     -88.995687     -2421.6958
   3   2.0000     -88.988950     -2421.5124
   4   2.0000     -88.982021     -2421.3239
   5   2.0000     -19.226553      -523.1811
   6   2.0000     -19.221688      -523.0487
   7   2.0000     -19.215395      -522.8775
   8   2.0000     -19.196890      -522.3739
   9   2.0000     -19.196278      -522.3573
  10   2.0000     -14.460096      -393.4792
  11   2.0000     -14.459767      -393.4703
  12   2.0000     -14.423357      -392.4795
  13   2.0000     -14.423217      -392.4757
  14   2.0000     -14.419114      -392.3641
  15   2.0000     -14.418582      -392.3496
  16   2.0000     -14.416792      -392.3009
  17   2.0000     -14.415033      -392.2530
  18   2.0000     -10.379849      -282.4500
  19   2.0000     -10.379644      -282.4445
  20   2.0000     -10.378032      -282.4006
  21   2.0000     -10.376850      -282.3685
  22   2.0000     -10.372254      -282.2434
  23   2.0000     -10.371729      -282.2291
  24   2.0000     -10.371667      -282.2274
  25   2.0000     -10.354281      -281.7543
  26   2.0000     -10.352684      -281.7109
  27   2.0000     -10.351488      -281.6783
  28   2.0000     -10.348307      -281.5917
  29   2.0000     -10.346027      -281.5297
  30   2.0000     -10.345225      -281.5079
  31   2.0000     -10.343733      -281.4673
  32   2.0000     -10.337195      -281.2894
  33   2.0000     -10.331587      -281.1368
  34   2.0000     -10.331488      -281.1341
  35   2.0000     -10.329119      -281.0696
  36   2.0000     -10.328027      -281.0399
  37   2.0000     -10.324960      -280.9564
  38   2.0000     -10.324651      -280.9480
  39   2.0000     -10.324446      -280.9424
  40   2.0000     -10.319820      -280.8166
  41   2.0000     -10.317259      -280.7469
  42   2.0000     -10.317234      -280.7462
  43   2.0000     -10.317016      -280.7403
  44   2.0000     -10.315887      -280.7096
  45   2.0000     -10.314841      -280.6811
  46   2.0000     -10.313548      -280.6459
  47   2.0000     -10.311672      -280.5949
  48   2.0000     -10.311093      -280.5791
  49   2.0000     -10.308448      -280.5071
  50   2.0000     -10.307051      -280.4691
  51   2.0000     -10.303414      -280.3701
  52   2.0000     -10.302992      -280.3587
  53   2.0000     -10.302576      -280.3474
  54   2.0000     -10.301213      -280.3103
  55   2.0000     -10.300898      -280.3017
  56   2.0000     -10.300881      -280.3012
  57   2.0000     -10.298857      -280.2462
  58   2.0000     -10.297751      -280.2161
  59   2.0000     -10.296165      -280.1729
  60   2.0000     -10.294451      -280.1262
  61   2.0000     -10.272015      -279.5158
  62   2.0000     -10.269693      -279.4526
  63   2.0000     -10.267878      -279.4032
  64   2.0000     -10.267489      -279.3926
  65   2.0000      -9.572681      -260.4859
  66   2.0000      -9.568681      -260.3770
  67   2.0000      -8.091385      -220.1778
  68   2.0000      -8.084700      -219.9959
  69   2.0000      -8.077618      -219.8032
  70   2.0000      -7.343325      -199.8220
  71   2.0000      -7.339269      -199.7117
  72   2.0000      -7.332711      -199.5332
  73   2.0000      -7.332168      -199.5184
  74   2.0000      -7.328747      -199.4254
  75   2.0000      -7.328214      -199.4108
  76   2.0000      -6.060717      -164.9205
  77   2.0000      -6.056131      -164.7957
  78   2.0000      -6.054065      -164.7395
  79   2.0000      -6.053713      -164.7299
  80   2.0000      -6.049514      -164.6156
  81   2.0000      -6.046931      -164.5454
  82   2.0000      -6.046596      -164.5362
  83   2.0000      -6.042636      -164.4285
  84   2.0000      -6.040148      -164.3608
  85   2.0000      -1.139530       -31.0082
  86   2.0000      -1.139400       -31.0047
  87   2.0000      -1.138889       -30.9907
  88   2.0000      -1.132670       -30.8215
  89   2.0000      -1.132419       -30.8147
  90   2.0000      -1.093017       -29.7425
  91   2.0000      -1.069461       -29.1015
  92   2.0000      -1.060638       -28.8614
  93   2.0000      -1.039556       -28.2878
  94   2.0000      -1.034036       -28.1376
  95   2.0000      -1.019941       -27.7540
  96   2.0000      -1.014797       -27.6140
  97   2.0000      -1.010363       -27.4934
  98   2.0000      -1.001576       -27.2543
  99   2.0000      -0.995175       -27.0801
 100   2.0000      -0.990448       -26.9515
 101   2.0000      -0.989424       -26.9236
 102   2.0000      -0.984365       -26.7859
 103   2.0000      -0.956495       -26.0275
 104   2.0000      -0.952254       -25.9121
 105   2.0000      -0.936552       -25.4849
 106   2.0000      -0.933243       -25.3948
 107   2.0000      -0.928699       -25.2712
 108   2.0000      -0.915478       -24.9114
 109   2.0000      -0.909602       -24.7515
 110   2.0000      -0.901489       -24.5308
 111   2.0000      -0.897996       -24.4357
 112   2.0000      -0.881162       -23.9776
 113   2.0000      -0.872675       -23.7467
 114   2.0000      -0.869137       -23.6504
 115   2.0000      -0.863560       -23.4987
 116   2.0000      -0.834312       -22.7028
 117   2.0000      -0.833670       -22.6853
 118   2.0000      -0.828365       -22.5410
 119   2.0000      -0.827465       -22.5165
 120   2.0000      -0.813415       -22.1342
 121   2.0000      -0.799419       -21.7533
 122   2.0000      -0.798036       -21.7157
 123   2.0000      -0.775312       -21.0973
 124   2.0000      -0.767669       -20.8893
 125   2.0000      -0.756636       -20.5891
 126   2.0000      -0.752953       -20.4889
 127   2.0000      -0.745684       -20.2911
 128   2.0000      -0.742642       -20.2083
 129   2.0000      -0.736298       -20.0357
 130   2.0000      -0.725313       -19.7368
 131   2.0000      -0.714751       -19.4494
 132   2.0000      -0.702735       -19.1224
 133   2.0000      -0.697706       -18.9856
 134   2.0000      -0.692214       -18.8361
 135   2.0000      -0.683621       -18.6023
 136   2.0000      -0.678638       -18.4667
 137   2.0000      -0.672173       -18.2908
 138   2.0000      -0.671846       -18.2819
 139   2.0000      -0.661154       -17.9909
 140   2.0000      -0.653411       -17.7802
 141   2.0000      -0.650457       -17.6998
 142   2.0000      -0.640232       -17.4216
 143   2.0000      -0.629032       -17.1168
 144   2.0000      -0.624922       -17.0050
 145   2.0000      -0.619984       -16.8706
 146   2.0000      -0.612595       -16.6696
 147   2.0000      -0.611735       -16.6461
 148   2.0000      -0.607330       -16.5263
 149   2.0000      -0.605043       -16.4641
 150   2.0000      -0.598559       -16.2876
 151   2.0000      -0.596711       -16.2373
 152   2.0000      -0.590903       -16.0793
 153   2.0000      -0.585590       -15.9347
 154   2.0000      -0.579976       -15.7819
 155   2.0000      -0.567808       -15.4508
 156   2.0000      -0.565273       -15.3819
 157   2.0000      -0.558312       -15.1924
 158   2.0000      -0.554443       -15.0872
 159   2.0000      -0.552556       -15.0358
 160   2.0000      -0.549757       -14.9597
 161   2.0000      -0.549259       -14.9461
 162   2.0000      -0.548139       -14.9156
 163   2.0000      -0.543902       -14.8003
 164   2.0000      -0.540210       -14.6999
 165   2.0000      -0.536613       -14.6020
 166   2.0000      -0.533362       -14.5135
 167   2.0000      -0.531366       -14.4592
 168   2.0000      -0.529211       -14.4006
 169   2.0000      -0.527142       -14.3443
 170   2.0000      -0.525020       -14.2865
 171   2.0000      -0.523258       -14.2386
 172   2.0000      -0.521680       -14.1956
 173   2.0000      -0.519420       -14.1341
 174   2.0000      -0.517317       -14.0769
 175   2.0000      -0.513951       -13.9853
 176   2.0000      -0.513457       -13.9719
 177   2.0000      -0.507695       -13.8151
 178   2.0000      -0.507532       -13.8107
 179   2.0000      -0.506019       -13.7695
 180   2.0000      -0.501246       -13.6396
 181   2.0000      -0.499564       -13.5938
 182   2.0000      -0.494617       -13.4592
 183   2.0000      -0.493573       -13.4308
 184   2.0000      -0.489853       -13.3296
 185   2.0000      -0.486108       -13.2277
 186   2.0000      -0.483355       -13.1528
 187   2.0000      -0.483289       -13.1510
 188   2.0000      -0.478135       -13.0107
 189   2.0000      -0.474187       -12.9033
 190   2.0000      -0.473176       -12.8758
 191   2.0000      -0.471470       -12.8294
 192   2.0000      -0.469988       -12.7890
 193   2.0000      -0.465738       -12.6734
 194   2.0000      -0.462141       -12.5755
 195   2.0000      -0.458417       -12.4742
 196   2.0000      -0.457699       -12.4546
 197   2.0000      -0.455758       -12.4018
 198   2.0000      -0.455277       -12.3887
 199   2.0000      -0.452872       -12.3233
 200   2.0000      -0.451792       -12.2939
 201   2.0000      -0.449955       -12.2439
 202   2.0000      -0.449413       -12.2291
 203   2.0000      -0.446722       -12.1559
 204   2.0000      -0.445853       -12.1323
 205   2.0000      -0.443388       -12.0652
 206   2.0000      -0.440515       -11.9870
 207   2.0000      -0.438780       -11.9398
 208   2.0000      -0.436523       -11.8784
 209   2.0000      -0.436269       -11.8715
 210   2.0000      -0.434865       -11.8333
 211   2.0000      -0.434384       -11.8202
 212   2.0000      -0.429545       -11.6885
 213   2.0000      -0.426688       -11.6108
 214   2.0000      -0.422453       -11.4955
 215   2.0000      -0.420094       -11.4313
 216   2.0000      -0.414225       -11.2716
 217   2.0000      -0.409461       -11.1420
 218   2.0000      -0.408957       -11.1283
 219   2.0000      -0.404247       -11.0001
 220   2.0000      -0.400281       -10.8922
 221   2.0000      -0.396708       -10.7950
 222   2.0000      -0.387484       -10.5440
 223   2.0000      -0.381880       -10.3915
 224   2.0000      -0.376816       -10.2537
 225   2.0000      -0.355183        -9.6650
 226   2.0000      -0.354105        -9.6357
 227   2.0000      -0.348882        -9.4936
 228   2.0000      -0.343086        -9.3359
 229   2.0000      -0.340722        -9.2715
 230   2.0000      -0.340402        -9.2628
 231   2.0000      -0.338676        -9.2159
 232   2.0000      -0.337586        -9.1862
 233   2.0000      -0.336186        -9.1481
 234   2.0000      -0.330365        -8.9897
 235   2.0000      -0.328844        -8.9483
 236   2.0000      -0.328588        -8.9413
 237   2.0000      -0.322016        -8.7625
 238   2.0000      -0.310646        -8.4531
 239   2.0000      -0.309857        -8.4316
 240   2.0000      -0.283035        -7.7018
 241   2.0000      -0.242734        -6.6051
 242   0.0000      -0.110001        -2.9933
 243   0.0000      -0.092828        -2.5260
 244   0.0000      -0.086580        -2.3560
 245   0.0000      -0.055657        -1.5145
 246   0.0000      -0.048992        -1.3331

MULLIKEN ATOMIC CHARGES
-----------------------
   0 C :    0.026786
   1 C :   -0.127608
   2 S :    0.190691
   3 C :   -0.170099
   4 Cl:    0.000533
   5 C :    0.081302
   6 C :    0.159739
   7 O :   -0.120563
   8 C :   -0.074271
   9 C :    0.295487
  10 C :   -0.323580
  11 C :   -0.196444
  12 N :    0.161125
  13 C :   -0.184871
  14 N :    0.168453
  15 C :    0.030443
  16 C :   -0.049439
  17 N :   -0.067953
  18 C :    0.077784
  19 C :   -0.041182
  20 C :    0.033139
  21 N :   -0.036727
  22 C :    0.051526
  23 C :    0.006658
  24 C :    0.130833
  25 N :   -0.266522
  26 C :    0.097755
  27 C :    0.006826
  28 C :    0.148590
  29 O :   -0.196238
  30 C :   -0.042210
  31 C :   -0.051389
  32 C :    0.157215
  33 O :   -0.199962
  34 N :   -0.267157
  35 C :    0.099248
  36 C :    0.001970
  37 C :    0.116098
  38 C :   -0.037795
  39 C :    0.074834
  40 C :   -0.077873
  41 S :    0.165045
  42 C :   -0.093352
  43 C :    0.034684
  44 C :   -0.001952
  45 C :    0.161489
  46 O :   -0.185861
  47 C :    0.009147
  48 C :    0.015888
  49 C :    0.036270
  50 C :   -0.133712
  51 C :    0.124433
  52 O :   -0.131639
  53 C :    0.098088
  54 C :   -0.174141
  55 S :    0.181574
  56 C :   -0.126509
  57 C :    0.007658
  58 C :    0.280812
  59 C :   -0.319828
  60 C :   -0.180922
  61 N :    0.153149
  62 C :   -0.193165
  63 N :    0.170633
  64 Cl:   -0.002515
  65 H :    0.054320
  66 H :    0.049730
  67 H :    0.012471
  68 H :   -0.003700
  69 H :    0.022920
  70 H :   -0.028569
  71 H :    0.045600
  72 H :    0.024501
  73 H :    0.030730
  74 H :    0.024594
  75 H :    0.011044
  76 H :    0.044421
  77 H :    0.025144
  78 H :    0.032178
  79 H :    0.023454
  80 H :    0.018589
  81 H :    0.006531
  82 H :   -0.017510
  83 H :    0.006561
  84 H :   -0.004868
  85 H :    0.045958
  86 H :    0.008243
  87 H :    0.031410
  88 H :    0.055824
Sum of atomic charges:   -0.0000000

LOEWDIN ATOMIC CHARGES
----------------------
   0 C :   -0.059721
   1 C :   -0.148679
   2 S :    0.480777
   3 C :   -0.272683
   4 Cl:    0.193052
   5 C :   -0.114927
   6 C :    0.085767
   7 O :   -0.118098
   8 C :   -0.058928
   9 C :    0.075383
  10 C :   -0.125483
  11 C :   -0.014410
  12 N :   -0.046169
  13 C :   -0.021968
  14 N :   -0.036671
  15 C :    0.077797
  16 C :    0.020901
  17 N :   -0.078368
  18 C :    0.051925
  19 C :   -0.047741
  20 C :    0.033936
  21 N :   -0.061402
  22 C :    0.032636
  23 C :   -0.033334
  24 C :    0.081426
  25 N :   -0.003467
  26 C :    0.035769
  27 C :   -0.060764
  28 C :    0.078263
  29 O :   -0.199007
  30 C :   -0.111777
  31 C :   -0.121662
  32 C :    0.083304
  33 O :   -0.190960
  34 N :   -0.003295
  35 C :    0.034810
  36 C :   -0.063500
  37 C :    0.069254
  38 C :   -0.020243
  39 C :   -0.027676
  40 C :   -0.158584
  41 S :    0.477209
  42 C :   -0.135584
  43 C :   -0.101970
  44 C :   -0.025697
  45 C :    0.118344
  46 O :   -0.136429
  47 C :    0.012799
  48 C :   -0.034905
  49 C :    0.064264
  50 C :   -0.083649
  51 C :    0.079876
  52 O :   -0.135801
  53 C :   -0.118160
  54 C :   -0.273640
  55 S :    0.471952
  56 C :   -0.150523
  57 C :   -0.055619
  58 C :    0.066711
  59 C :   -0.131424
  60 C :   -0.013368
  61 N :   -0.051729
  62 C :   -0.014005
  63 N :   -0.044676
  64 Cl:    0.189570
  65 H :    0.037920
  66 H :    0.052130
  67 H :    0.029159
  68 H :    0.032279
  69 H :    0.044647
  70 H :    0.027503
  71 H :    0.038940
  72 H :    0.023015
  73 H :    0.033100
  74 H :    0.031168
  75 H :    0.020248
  76 H :    0.038215
  77 H :    0.022256
  78 H :    0.034450
  79 H :    0.030938
  80 H :    0.020649
  81 H :    0.045867
  82 H :    0.029083
  83 H :    0.038013
  84 H :    0.004524
  85 H :    0.041131
  86 H :    0.029197
  87 H :    0.048315
  88 H :    0.038216

  Mayer bond orders larger than 0.100000
B(  0-C ,  1-C ) :   1.5342 B(  0-C ,  5-C ) :   1.2249 B(  0-C ,  9-C ) :   1.0111
B(  1-C ,  2-S ) :   1.1701 B(  1-C , 65-H ) :   0.9546 B(  2-S ,  3-C ) :   1.1512
B(  3-C ,  4-Cl) :   1.1289 B(  3-C ,  5-C ) :   1.4791 B(  5-C ,  6-C ) :   0.9439
B(  6-C ,  7-O ) :   2.2565 B(  6-C ,  8-C ) :   0.9089 B(  8-C ,  9-C ) :   1.0303
B(  8-C , 15-C ) :   1.8321 B(  9-C , 10-C ) :   1.6835 B( 10-C , 11-C ) :   1.1415
B( 10-C , 13-C ) :   1.1349 B( 11-C , 12-N ) :   2.9954 B( 13-C , 14-N ) :   2.9826
B( 15-C , 16-C ) :   0.9487 B( 15-C , 66-H ) :   0.9350 B( 16-C , 17-N ) :   1.5177
B( 16-C , 21-N ) :   1.5087 B( 17-N , 18-C ) :   1.5300 B( 18-C , 19-C ) :   1.3985
B( 18-C , 67-H ) :   0.9796 B( 19-C , 20-C ) :   1.3372 B( 19-C , 68-H ) :   0.9677
B( 20-C , 21-N ) :   1.5150 B( 20-C , 22-C ) :   1.0454 B( 22-C , 23-C ) :   1.6303
B( 22-C , 69-H ) :   0.9579 B( 23-C , 24-C ) :   1.1437 B( 23-C , 70-H ) :   0.9545
B( 24-C , 25-N ) :   1.1661 B( 24-C , 31-C ) :   1.3536 B( 25-N , 26-C ) :   0.9448
B( 25-N , 28-C ) :   1.0342 B( 26-C , 27-C ) :   1.1211 B( 26-C , 71-H ) :   0.9270
B( 26-C , 72-H ) :   0.9499 B( 27-C , 73-H ) :   0.9636 B( 27-C , 74-H ) :   0.9677
B( 27-C , 75-H ) :   0.9685 B( 28-C , 29-O ) :   2.1223 B( 28-C , 30-C ) :   0.9812
B( 30-C , 31-C ) :   1.2388 B( 30-C , 37-C ) :   1.3428 B( 31-C , 32-C ) :   0.9816
B( 32-C , 33-O ) :   2.0473 B( 32-C , 34-N ) :   1.0522 B( 34-N , 35-C ) :   0.9444
B( 34-N , 37-C ) :   1.1630 B( 35-C , 36-C ) :   1.1166 B( 35-C , 76-H ) :   0.9252
B( 35-C , 77-H ) :   0.9509 B( 36-C , 78-H ) :   0.9607 B( 36-C , 79-H ) :   0.9688
B( 36-C , 80-H ) :   0.9676 B( 37-C , 38-C ) :   1.1916 B( 38-C , 39-C ) :   1.6044
B( 38-C , 81-H ) :   0.9455 B( 39-C , 40-C ) :   1.1168 B( 39-C , 82-H ) :   0.9641
B( 40-C , 41-S ) :   1.1262 B( 40-C , 44-C ) :   1.4873 B( 41-S , 42-C ) :   1.1542
B( 42-C , 43-C ) :   1.4045 B( 42-C , 47-C ) :   1.2221 B( 43-C , 44-C ) :   1.2484
B( 43-C , 45-C ) :   0.9965 B( 44-C , 83-H ) :   0.9893 B( 45-C , 46-O ) :   2.1095
B( 45-C , 84-H ) :   0.9632 B( 47-C , 48-C ) :   1.5938 B( 47-C , 85-H ) :   0.9429
B( 48-C , 49-C ) :   1.1610 B( 48-C , 86-H ) :   0.9591 B( 49-C , 50-C ) :   1.6781
B( 49-C , 87-H ) :   0.9275 B( 50-C , 51-C ) :   0.9430 B( 50-C , 58-C ) :   1.0330
B( 51-C , 52-O ) :   2.2715 B( 51-C , 53-C ) :   0.9260 B( 53-C , 54-C ) :   1.4829
B( 53-C , 57-C ) :   1.2218 B( 54-C , 55-S ) :   1.1500 B( 54-C , 64-Cl) :   1.1259
B( 55-S , 56-C ) :   1.1564 B( 56-C , 57-C ) :   1.5575 B( 56-C , 88-H ) :   0.9544
B( 57-C , 58-C ) :   1.0067 B( 58-C , 59-C ) :   1.6638 B( 59-C , 60-C ) :   1.1326
B( 59-C , 62-C ) :   1.1715 B( 60-C , 61-N ) :   2.9980 B( 62-C , 63-N ) :   2.9817

-----------------------------------------------------------------------------
         ABSORPTION SPECTRUM VIA TRANSITION ELECTRIC DIPOLE MOMENTS
-----------------------------------------------------------------------------
State   Energy  Wavelength   fosc         T2         TX        TY        TZ
        (cm-1)    (nm)                  (au**2)     (au)      (au)      (au)
-----------------------------------------------------------------------------
   0   14810.8    675.2   1.169773977  26.00160   1.50258   4.47992   1.91682
   1   19227.4    520.1   0.053931409   0.92342   0.77096   0.52511  -0.23085
   2   21019.8    475.7   0.002331189   0.03651   0.19095  -0.00558  -0.00410
   3   22276.2    448.9   0.211656501   3.12800   0.08649   1.41419   1.05858
   4   25901.9    386.1   0.012790663   0.16257  -0.05450   0.28387  -0.28110
   5   26640.1    375.4   0.033489188   0.41385   0.25907   0.49267   0.32251
   6   27562.1    362.8   0.302370906   3.61162  -1.12095  -1.31999  -0.78276
   7   27805.5    359.6   0.016073134   0.19030  -0.28275  -0.04759  -0.32877
   8   28168.2    355.0   0.004768763   0.05573   0.05235   0.12642   0.19239
   9   28322.8    353.1   0.017371017   0.20191   0.13012  -0.11704   0.41386
  10   28367.9    352.5   0.007901460   0.09170  -0.17665   0.24287  -0.03880
  11   28730.8    348.1   0.016119523   0.18471   0.13342  -0.20966   0.35064
  12   29275.8    341.6   0.069143582   0.77753   0.30970  -0.02479   0.82523
  13   29484.4    339.2   0.015715774   0.17548   0.18072   0.16622  -0.33939
  14   29765.9    336.0   0.003256189   0.03601  -0.18729   0.02074   0.02253
  15   30165.5    331.5   0.044502162   0.48568  -0.16251   0.38861   0.55520
  16   31325.7    319.2   0.063756518   0.67004   0.72829  -0.08187   0.36460
  17   31360.6    318.9   0.086818563   0.91139   0.50892   0.69464   0.41216
  18   32426.9    308.4   0.045818893   0.46517  -0.37698  -0.56420  -0.06884
  19   32506.8    307.6   0.001530426   0.01550   0.04065  -0.09577   0.06836
  20   33077.8    302.3   0.185353462   1.84476   0.21031   0.00305   1.34184
  21   33552.6    298.0   0.004943439   0.04850   0.14946   0.03249   0.15847
  22   33758.0    296.2   0.095292997   0.92931   0.42638   0.65225   0.56752
  23   34204.2    292.4   0.012657784   0.12183   0.32400   0.11240  -0.06496
  24   34364.5    291.0   0.059280144   0.56790  -0.34609  -0.52907  -0.41013
  25   34641.1    288.7   0.029853290   0.28371   0.09821  -0.50589   0.13471
  26   34781.9    287.5   0.172885425   1.63637   0.84938   0.78933  -0.54025
  27   35210.5    284.0   0.012798358   0.11966  -0.15787   0.00870  -0.30768
  28   35554.2    281.3   0.047519041   0.44000   0.54319   0.27510   0.26319
  29   36108.6    276.9   0.225623004   2.05707   0.48467  -0.73160   1.13443
  30   36123.4    276.8   0.204497319   1.86369  -0.52544  -0.31183  -1.22081
  31   36806.0    271.7   0.064580191   0.57764   0.44500   0.44951   0.42137
  32   36995.9    270.3   0.232154423   2.06585  -0.87933  -0.47182  -1.03441
  33   37591.5    266.0   0.511466464   4.47923  -0.85835   1.36614   1.36972
  34   37726.9    265.1   0.030826263   0.26900  -0.36933   0.26117   0.25373
  35   38164.7    262.0   0.070102898   0.60471  -0.72717  -0.26800   0.06413
  36   38240.4    261.5   0.216065011   1.86010  -0.37331  -0.79441  -1.04386
  37   38443.6    260.1   0.049554550   0.42436   0.53931  -0.16571   0.32564
  38   38549.7    259.4   0.211762453   1.80844  -0.53826  -0.27585  -1.20109
  39   38792.9    257.8   0.395018796   3.35229   0.68056   0.68106   1.55733
  40   39481.8    253.3   0.080803935   0.67377   0.29772  -0.59602  -0.47947
  41   39622.0    252.4   0.039507509   0.32826  -0.27756   0.36944   0.33873
  42   39750.2    251.6   0.004662489   0.03861  -0.07080   0.14810   0.10802
  43   39787.4    251.3   0.025802613   0.21350   0.28401  -0.26321  -0.25210
  44   40098.3    249.4   0.105082025   0.86274  -0.21656  -0.41125  -0.80419
  45   40319.3    248.0   0.017445439   0.14244   0.22567  -0.30243   0.00702

FINAL SINGLE POINT ENERGY     -4730.496074084377

DIPOLE MOMENT
-------------
                                X             Y             Z
Electronic contribution:     16.49058     -55.18868      -8.33816
Nuclear contribution   :    -17.35997      55.92184       6.93942
                        -----------------------------------------
Total Dipole Moment    :     -0.86939       0.73316      -1.39874
                        -----------------------------------------
Magnitude (a.u.)       :      1.80273
Magnitude (Debye)      :      4.58218

Rotational constants in cm-1:     0.002037     0.000250     0.000237
Rotational constants in MHz :    61.060185     7.497010     7.099198

                             ****ORCA TERMINATED NORMALLY****
TOTAL RUN TIME: 0 days 0 hours 8 minutes 7 seconds 767 msec
