                         Program Version 4.2.0 -  RELEASE  -
|  1> # ORCA input file
|  2> # SCF done       -160.035516383901          0.000243736191
|  3> ! CAM-B3LYP def2-SVP def2/J RIJCOSX Grid4 TightSCF
|  4> %maxcore 5000
|  5> %tddft
|  6>     Mode sTDDFT
|  7>     Ethresh 5.0
|  8>     maxcore 5000
|  9> end
| 10>
| 11> %pal
| 12>   nprocs 6
| 13>   end
| 14> * xyz 0 1
| 15>    C       -8.36433        -6.48723        -1.05610
| 16>    S       -6.67570        -6.30968        -0.90743
| 17>    C       -6.78587        -5.89059         0.78218
| 18>    C       -8.12910        -5.89628         1.18976
| 19>    C       -9.02735        -6.24279         0.13126
| 20>    C      -10.41286        -6.29789         0.38463
| 21>    C      -10.90233        -6.01956         1.63596
| 22>    C      -12.34236        -6.07214         1.88915
| 23>    C      -13.17514        -6.93005         1.31587
| 24>    C      -10.00449        -5.66431         2.69180
| 25>    C      -10.54100        -5.37014         4.05976
| 26>    C       -8.65577        -5.61200         2.46194
| 27>    C       -5.65232        -5.60872         1.56459
| 28>    C       -4.37464        -5.64408         1.09196
| 29>    C       -3.17994        -5.39381         1.80979
| 30>    C       -1.94587        -5.54380         1.11446
| 31>    C       -0.69305        -5.43442         1.78624
| 32>    N        0.44982        -5.57421         1.09889
| 33>    C        0.39704        -5.81190        -0.18598
| 34>    C       -0.83621        -5.92659        -0.84461
| 35>    N       -1.97070        -5.79643        -0.20749
| 36>    C       -0.60949        -5.20065         3.18766
| 37>    C       -1.83011        -4.84604         3.83230
| 38>    C       -3.09397        -4.98391         3.16941
| 39>    N       -4.22309        -4.70195         3.84893
| 40>    C       -4.13401        -4.23259         5.06543
| 41>    C       -2.88999        -3.96908         5.65652
| 42>    N       -1.77516        -4.28973         5.05404
| 43>    C        0.65043        -5.26043         3.82462
| 44>    S        2.08077        -5.05094         2.86583
| 45>    C        3.13524        -5.11338         4.25334
| 46>    C        2.39385        -5.39716         5.42055
| 47>    C        0.99545        -5.49833         5.17911
| 48>    C        0.16762        -5.90576         6.23066
| 49>    C        0.67052        -6.11864         7.49820
| 50>    C       -0.22676        -6.51599         8.58100
| 51>    C       -1.34117        -7.22075         8.43208
| 52>    C        2.05761        -5.93559         7.75097
| 53>    C        2.62070        -6.15193         9.12288
| 54>    C        2.89279        -5.60203         6.71461
| 55>    C        4.51822        -4.95960         4.14202
| 56>    C        5.16990        -4.70220         2.96287
| 57>    C        6.55356        -4.57587         2.82273
| 58>    S        7.65332        -4.78719         4.14707
| 59>    C        9.06666        -4.56230         3.15229
| 60>    C        8.68768        -4.27455         1.82743
| 61>    C        7.27476        -4.29398         1.63924
| 62>    C        6.73657        -4.03130         0.37540
| 63>    C        7.55317        -3.73794        -0.69592
| 64>    C        6.97253        -3.45903        -2.00664
| 65>    C        5.84062        -3.98229        -2.46098
| 66>    C        8.96298        -3.67587        -0.50340
| 67>    C        9.86706        -3.33650        -1.64988
| 68>    C        9.50126        -3.93860         0.72957
| 69>    C       10.31560        -4.72611         3.78957
| 70>    C       11.54203        -4.87455         3.23200
| 71>    C       12.72054        -5.05877         4.03295
| 72>    C       13.98459        -5.24083         3.44236
| 73>    N       15.07883        -5.42147         4.15206
| 74>    C       14.94971        -5.42359         5.47434
| 75>    C       13.71028        -5.23784         6.07455
| 76>    N       12.61022        -5.05885         5.37071
| 77>    H       -8.79062        -6.76398        -1.99995
| 78>    H      -11.08395        -6.54136        -0.42495
| 79>    H      -12.72736        -5.35568         2.60228
| 80>    H      -12.83387        -7.68471         0.62692
| 81>    H      -14.23070        -6.92162         1.52782
| 82>    H      -11.13871        -4.45819         4.05046
| 83>    H       -9.72642        -5.23459         4.76688
| 84>    H      -11.17477        -6.18431         4.40860
| 85>    H       -7.98168        -5.35015         3.26393
| 86>    H       -5.82162        -5.35410         2.59956
| 87>    H       -4.21557        -5.90988         0.05361
| 88>    H        1.34065        -5.91076        -0.70404
| 89>    H       -0.89751        -6.12358        -1.90640
| 90>    H       -5.06573        -4.03356         5.57869
| 91>    H       -2.79843        -3.49315         6.62335
| 92>    H       -0.88404        -6.04509         6.05563
| 93>    H        0.06397        -6.20143         9.57424
| 94>    H       -1.66597        -7.59109         7.47410
| 95>    H       -1.96613        -7.47047         9.27263
| 96>    H        2.35655        -7.13976         9.49779
| 97>    H        2.23025        -5.41020         9.81985
| 98>    H        3.70433        -6.06511         9.10693
| 99>    H        3.95373        -5.50598         6.89229
|100>    H        5.10757        -5.04917         5.04558
|101>    H        4.57437        -4.59598         2.06652
|102>    H        5.66593        -4.02861         0.24557
|103>    H        7.52766        -2.77932        -2.63853
|104>    H        5.26561        -4.69270        -1.89096
|105>    H        5.45477        -3.73101        -3.43414
|106>    H        9.69220        -2.31540        -1.98922
|107>    H        9.69018        -4.00665        -2.49000
|108>    H       10.90942        -3.42058        -1.35239
|109>    H       10.56771        -3.86159         0.86285
|110>    H       10.27941        -4.78495         4.87101
|111>    H       11.69083        -4.89864         2.16431
|112>    H       14.10638        -5.23946         2.36658
|113>    H       15.85362        -5.57614         6.04663
|114>    H       13.59281        -5.23326         7.15055
|115> *
|116>
|117>                          ****END OF INPUT****

CARTESIAN COORDINATES (ANGSTROEM)
---------------------------------
  C     -8.364330   -6.487230   -1.056100
  S     -6.675700   -6.309680   -0.907430
  C     -6.785870   -5.890590    0.782180
  C     -8.129100   -5.896280    1.189760
  C     -9.027350   -6.242790    0.131260
  C    -10.412860   -6.297890    0.384630
  C    -10.902330   -6.019560    1.635960
  C    -12.342360   -6.072140    1.889150
  C    -13.175140   -6.930050    1.315870
  C    -10.004490   -5.664310    2.691800
  C    -10.541000   -5.370140    4.059760
  C     -8.655770   -5.612000    2.461940
  C     -5.652320   -5.608720    1.564590
  C     -4.374640   -5.644080    1.091960
  C     -3.179940   -5.393810    1.809790
  C     -1.945870   -5.543800    1.114460
  C     -0.693050   -5.434420    1.786240
  N      0.449820   -5.574210    1.098890
  C      0.397040   -5.811900   -0.185980
  C     -0.836210   -5.926590   -0.844610
  N     -1.970700   -5.796430   -0.207490
  C     -0.609490   -5.200650    3.187660
  C     -1.830110   -4.846040    3.832300
  C     -3.093970   -4.983910    3.169410
  N     -4.223090   -4.701950    3.848930
  C     -4.134010   -4.232590    5.065430
  C     -2.889990   -3.969080    5.656520
  N     -1.775160   -4.289730    5.054040
  C      0.650430   -5.260430    3.824620
  S      2.080770   -5.050940    2.865830
  C      3.135240   -5.113380    4.253340
  C      2.393850   -5.397160    5.420550
  C      0.995450   -5.498330    5.179110
  C      0.167620   -5.905760    6.230660
  C      0.670520   -6.118640    7.498200
  C     -0.226760   -6.515990    8.581000
  C     -1.341170   -7.220750    8.432080
  C      2.057610   -5.935590    7.750970
  C      2.620700   -6.151930    9.122880
  C      2.892790   -5.602030    6.714610
  C      4.518220   -4.959600    4.142020
  C      5.169900   -4.702200    2.962870
  C      6.553560   -4.575870    2.822730
  S      7.653320   -4.787190    4.147070
  C      9.066660   -4.562300    3.152290
  C      8.687680   -4.274550    1.827430
  C      7.274760   -4.293980    1.639240
  C      6.736570   -4.031300    0.375400
  C      7.553170   -3.737940   -0.695920
  C      6.972530   -3.459030   -2.006640
  C      5.840620   -3.982290   -2.460980
  C      8.962980   -3.675870   -0.503400
  C      9.867060   -3.336500   -1.649880
  C      9.501260   -3.938600    0.729570
  C     10.315600   -4.726110    3.789570
  C     11.542030   -4.874550    3.232000
  C     12.720540   -5.058770    4.032950
  C     13.984590   -5.240830    3.442360
  N     15.078830   -5.421470    4.152060
  C     14.949710   -5.423590    5.474340
  C     13.710280   -5.237840    6.074550
  N     12.610220   -5.058850    5.370710
  H     -8.790620   -6.763980   -1.999950
  H    -11.083950   -6.541360   -0.424950
  H    -12.727360   -5.355680    2.602280
  H    -12.833870   -7.684710    0.626920
  H    -14.230700   -6.921620    1.527820
  H    -11.138710   -4.458190    4.050460
  H     -9.726420   -5.234590    4.766880
  H    -11.174770   -6.184310    4.408600
  H     -7.981680   -5.350150    3.263930
  H     -5.821620   -5.354100    2.599560
  H     -4.215570   -5.909880    0.053610
  H      1.340650   -5.910760   -0.704040
  H     -0.897510   -6.123580   -1.906400
  H     -5.065730   -4.033560    5.578690
  H     -2.798430   -3.493150    6.623350
  H     -0.884040   -6.045090    6.055630
  H      0.063970   -6.201430    9.574240
  H     -1.665970   -7.591090    7.474100
  H     -1.966130   -7.470470    9.272630
  H      2.356550   -7.139760    9.497790
  H      2.230250   -5.410200    9.819850
  H      3.704330   -6.065110    9.106930
  H      3.953730   -5.505980    6.892290
  H      5.107570   -5.049170    5.045580
  H      4.574370   -4.595980    2.066520
  H      5.665930   -4.028610    0.245570
  H      7.527660   -2.779320   -2.638530
  H      5.265610   -4.692700   -1.890960
  H      5.454770   -3.731010   -3.434140
  H      9.692200   -2.315400   -1.989220
  H      9.690180   -4.006650   -2.490000
  H     10.909420   -3.420580   -1.352390
  H     10.567710   -3.861590    0.862850
  H     10.279410   -4.784950    4.871010
  H     11.690830   -4.898640    2.164310
  H     14.106380   -5.239460    2.366580
  H     15.853620   -5.576140    6.046630
  H     13.592810   -5.233260    7.150550

 Total Charge           Charge          ....    0
 Multiplicity           Mult            ....    1
 Number of Electrons    NEL             ....  446
 Basis Dimension        Dim             .... 1070

ORBITAL ENERGIES
----------------

  NO   OCC          E(Eh)            E(eV)
   0   2.0000     -88.954071     -2420.5633
   1   2.0000     -88.953396     -2420.5450
   2   2.0000     -88.946068     -2420.3455
   3   2.0000     -14.425655      -392.5420
   4   2.0000     -14.422597      -392.4588
   5   2.0000     -14.420119      -392.3914
   6   2.0000     -14.418470      -392.3465
   7   2.0000     -14.406998      -392.0343
   8   2.0000     -14.404685      -391.9714
   9   2.0000     -10.321079      -280.8508
  10   2.0000     -10.317157      -280.7441
  11   2.0000     -10.316656      -280.7305
  12   2.0000     -10.316345      -280.7220
  13   2.0000     -10.315270      -280.6928
  14   2.0000     -10.314103      -280.6610
  15   2.0000     -10.314037      -280.6592
  16   2.0000     -10.313406      -280.6420
  17   2.0000     -10.305913      -280.4382
  18   2.0000     -10.300431      -280.2890
  19   2.0000     -10.299349      -280.2595
  20   2.0000     -10.297072      -280.1976
  21   2.0000     -10.294845      -280.1370
  22   2.0000     -10.293836      -280.1095
  23   2.0000     -10.293299      -280.0949
  24   2.0000     -10.289271      -279.9853
  25   2.0000     -10.287241      -279.9300
  26   2.0000     -10.286215      -279.9021
  27   2.0000     -10.284192      -279.8471
  28   2.0000     -10.281353      -279.7698
  29   2.0000     -10.276039      -279.6252
  30   2.0000     -10.275143      -279.6009
  31   2.0000     -10.274958      -279.5958
  32   2.0000     -10.274668      -279.5879
  33   2.0000     -10.274382      -279.5801
  34   2.0000     -10.273093      -279.5451
  35   2.0000     -10.271701      -279.5072
  36   2.0000     -10.270798      -279.4826
  37   2.0000     -10.269456      -279.4461
  38   2.0000     -10.268583      -279.4224
  39   2.0000     -10.268144      -279.4104
  40   2.0000     -10.268125      -279.4099
  41   2.0000     -10.268039      -279.4075
  42   2.0000     -10.267815      -279.4015
  43   2.0000     -10.266893      -279.3764
  44   2.0000     -10.266328      -279.3610
  45   2.0000     -10.265093      -279.3274
  46   2.0000     -10.264509      -279.3115
  47   2.0000     -10.264280      -279.3053
  48   2.0000     -10.263596      -279.2866
  49   2.0000     -10.262979      -279.2699
  50   2.0000     -10.262960      -279.2693
  51   2.0000     -10.261697      -279.2350
  52   2.0000     -10.261630      -279.2332
  53   2.0000     -10.261479      -279.2290
  54   2.0000     -10.260012      -279.1891
  55   2.0000     -10.259160      -279.1659
  56   2.0000     -10.257995      -279.1342
  57   2.0000     -10.257087      -279.1095
  58   2.0000     -10.256901      -279.1045
  59   2.0000     -10.256645      -279.0975
  60   2.0000     -10.255669      -279.0709
  61   2.0000     -10.255379      -279.0630
  62   2.0000      -8.049216      -219.0303
  63   2.0000      -8.048475      -219.0101
  64   2.0000      -8.038934      -218.7505
  65   2.0000      -6.018108      -163.7610
  66   2.0000      -6.017313      -163.7394
  67   2.0000      -6.014223      -163.6553
  68   2.0000      -6.013186      -163.6271
  69   2.0000      -6.011994      -163.5947
  70   2.0000      -6.011650      -163.5853
  71   2.0000      -6.008264      -163.4932
  72   2.0000      -6.003670      -163.3682
  73   2.0000      -6.001678      -163.3140
  74   2.0000      -1.083688       -29.4886
  75   2.0000      -1.074984       -29.2518
  76   2.0000      -1.060840       -28.8669
  77   2.0000      -1.008237       -27.4355
  78   2.0000      -0.997855       -27.1530
  79   2.0000      -0.987722       -26.8773
  80   2.0000      -0.981784       -26.7157
  81   2.0000      -0.981700       -26.7134
  82   2.0000      -0.977956       -26.6115
  83   2.0000      -0.944036       -25.6885
  84   2.0000      -0.937312       -25.5056
  85   2.0000      -0.931776       -25.3549
  86   2.0000      -0.927811       -25.2470
  87   2.0000      -0.904297       -24.6072
  88   2.0000      -0.891053       -24.2468
  89   2.0000      -0.881533       -23.9877
  90   2.0000      -0.871054       -23.7026
  91   2.0000      -0.867477       -23.6053
  92   2.0000      -0.865658       -23.5557
  93   2.0000      -0.863069       -23.4853
  94   2.0000      -0.860386       -23.4123
  95   2.0000      -0.854531       -23.2530
  96   2.0000      -0.846331       -23.0298
  97   2.0000      -0.841061       -22.8864
  98   2.0000      -0.833069       -22.6690
  99   2.0000      -0.822647       -22.3854
 100   2.0000      -0.811822       -22.0908
 101   2.0000      -0.807059       -21.9612
 102   2.0000      -0.792359       -21.5612
 103   2.0000      -0.789265       -21.4770
 104   2.0000      -0.776044       -21.1172
 105   2.0000      -0.771651       -20.9977
 106   2.0000      -0.763752       -20.7828
 107   2.0000      -0.758990       -20.6532
 108   2.0000      -0.756276       -20.5793
 109   2.0000      -0.751367       -20.4457
 110   2.0000      -0.734822       -19.9955
 111   2.0000      -0.728821       -19.8322
 112   2.0000      -0.720710       -19.6115
 113   2.0000      -0.717964       -19.5368
 114   2.0000      -0.709800       -19.3147
 115   2.0000      -0.704801       -19.1786
 116   2.0000      -0.700459       -19.0605
 117   2.0000      -0.697149       -18.9704
 118   2.0000      -0.677915       -18.4470
 119   2.0000      -0.668502       -18.1909
 120   2.0000      -0.665680       -18.1141
 121   2.0000      -0.651852       -17.7378
 122   2.0000      -0.647923       -17.6309
 123   2.0000      -0.646799       -17.6003
 124   2.0000      -0.639564       -17.4034
 125   2.0000      -0.632214       -17.2034
 126   2.0000      -0.626354       -17.0440
 127   2.0000      -0.624911       -17.0047
 128   2.0000      -0.617855       -16.8127
 129   2.0000      -0.612714       -16.6728
 130   2.0000      -0.608950       -16.5704
 131   2.0000      -0.603438       -16.4204
 132   2.0000      -0.598505       -16.2862
 133   2.0000      -0.588468       -16.0130
 134   2.0000      -0.588369       -16.0103
 135   2.0000      -0.583642       -15.8817
 136   2.0000      -0.582270       -15.8444
 137   2.0000      -0.576002       -15.6738
 138   2.0000      -0.567957       -15.4549
 139   2.0000      -0.562121       -15.2961
 140   2.0000      -0.555900       -15.1268
 141   2.0000      -0.551788       -15.0149
 142   2.0000      -0.549632       -14.9563
 143   2.0000      -0.541868       -14.7450
 144   2.0000      -0.540473       -14.7070
 145   2.0000      -0.538026       -14.6404
 146   2.0000      -0.537408       -14.6236
 147   2.0000      -0.533753       -14.5242
 148   2.0000      -0.522732       -14.2243
 149   2.0000      -0.521560       -14.1924
 150   2.0000      -0.521356       -14.1868
 151   2.0000      -0.518582       -14.1113
 152   2.0000      -0.516410       -14.0522
 153   2.0000      -0.511955       -13.9310
 154   2.0000      -0.509222       -13.8566
 155   2.0000      -0.505915       -13.7666
 156   2.0000      -0.505080       -13.7439
 157   2.0000      -0.503710       -13.7066
 158   2.0000      -0.502484       -13.6733
 159   2.0000      -0.500990       -13.6326
 160   2.0000      -0.497580       -13.5398
 161   2.0000      -0.496557       -13.5120
 162   2.0000      -0.491705       -13.3800
 163   2.0000      -0.489302       -13.3146
 164   2.0000      -0.487340       -13.2612
 165   2.0000      -0.484257       -13.1773
 166   2.0000      -0.481020       -13.0892
 167   2.0000      -0.478681       -13.0256
 168   2.0000      -0.477392       -12.9905
 169   2.0000      -0.476164       -12.9571
 170   2.0000      -0.474334       -12.9073
 171   2.0000      -0.471520       -12.8307
 172   2.0000      -0.468315       -12.7435
 173   2.0000      -0.460376       -12.5275
 174   2.0000      -0.459413       -12.5013
 175   2.0000      -0.457451       -12.4479
 176   2.0000      -0.455302       -12.3894
 177   2.0000      -0.452141       -12.3034
 178   2.0000      -0.447636       -12.1808
 179   2.0000      -0.446720       -12.1559
 180   2.0000      -0.443342       -12.0640
 181   2.0000      -0.441986       -12.0271
 182   2.0000      -0.438732       -11.9385
 183   2.0000      -0.437241       -11.8979
 184   2.0000      -0.427672       -11.6375
 185   2.0000      -0.420956       -11.4548
 186   2.0000      -0.418075       -11.3764
 187   2.0000      -0.417120       -11.3504
 188   2.0000      -0.413358       -11.2481
 189   2.0000      -0.412136       -11.2148
 190   2.0000      -0.408955       -11.1282
 191   2.0000      -0.408310       -11.1107
 192   2.0000      -0.406855       -11.0711
 193   2.0000      -0.405337       -11.0298
 194   2.0000      -0.403596       -10.9824
 195   2.0000      -0.401441       -10.9238
 196   2.0000      -0.400666       -10.9027
 197   2.0000      -0.399443       -10.8694
 198   2.0000      -0.396210       -10.7814
 199   2.0000      -0.387826       -10.5533
 200   2.0000      -0.375441       -10.2163
 201   2.0000      -0.371587       -10.1114
 202   2.0000      -0.368070       -10.0157
 203   2.0000      -0.366630        -9.9765
 204   2.0000      -0.360196        -9.8014
 205   2.0000      -0.358690        -9.7605
 206   2.0000      -0.353984        -9.6324
 207   2.0000      -0.352225        -9.5845
 208   2.0000      -0.344514        -9.3747
 209   2.0000      -0.328225        -8.9314
 210   2.0000      -0.325929        -8.8690
 211   2.0000      -0.317934        -8.6514
 212   2.0000      -0.314732        -8.5643
 213   2.0000      -0.305873        -8.3232
 214   2.0000      -0.304885        -8.2963
 215   2.0000      -0.299883        -8.1602
 216   2.0000      -0.291341        -7.9278
 217   2.0000      -0.288269        -7.8442
 218   2.0000      -0.283383        -7.7112
 219   2.0000      -0.280703        -7.6383
 220   2.0000      -0.252562        -6.8726
 221   2.0000      -0.227160        -6.1813
 222   2.0000      -0.190950        -5.1960
 223   0.0000      -0.095382        -2.5955
 224   0.0000      -0.057927        -1.5763
 225   0.0000      -0.030235        -0.8227
 226   0.0000      -0.020797        -0.5659
 227   0.0000      -0.008310        -0.2261

MULLIKEN ATOMIC CHARGES
-----------------------
   0 C :   -0.121465
   1 S :    0.146621
   2 C :   -0.116186
   3 C :    0.144343
   4 C :    0.105293
   5 C :   -0.077172
   6 C :    0.076964
   7 C :   -0.035719
   8 C :   -0.015442
   9 C :   -0.074990
  10 C :    0.099429
  11 C :   -0.088308
  12 C :    0.021900
  13 C :   -0.113224
  14 C :    0.107764
  15 C :   -0.046769
  16 C :   -0.034176
  17 N :   -0.071040
  18 C :    0.044889
  19 C :    0.020307
  20 N :   -0.014282
  21 C :    0.136802
  22 C :   -0.097436
  23 C :   -0.033620
  24 N :   -0.032638
  25 C :    0.033365
  26 C :    0.034245
  27 N :   -0.028645
  28 C :   -0.200971
  29 S :    0.151068
  30 C :   -0.054784
  31 C :    0.114200
  32 C :    0.171847
  33 C :   -0.082197
  34 C :    0.080592
  35 C :   -0.035758
  36 C :   -0.017963
  37 C :   -0.076844
  38 C :    0.099579
  39 C :   -0.106443
  40 C :   -0.023460
  41 C :   -0.020090
  42 C :   -0.076672
  43 S :    0.137616
  44 C :   -0.117620
  45 C :    0.142362
  46 C :    0.126496
  47 C :   -0.115000
  48 C :    0.089337
  49 C :   -0.038879
  50 C :   -0.011865
  51 C :   -0.073792
  52 C :    0.100033
  53 C :   -0.108883
  54 C :    0.078842
  55 C :   -0.043439
  56 C :   -0.001603
  57 C :   -0.009063
  58 N :   -0.047571
  59 C :    0.008818
  60 C :    0.032257
  61 N :   -0.063990
  62 H :    0.012991
  63 H :   -0.039034
  64 H :   -0.004429
  65 H :    0.018546
  66 H :    0.020220
  67 H :    0.027717
  68 H :    0.006273
  69 H :    0.029469
  70 H :   -0.043910
  71 H :   -0.000024
  72 H :   -0.012744
  73 H :    0.007848
  74 H :    0.013170
  75 H :    0.006120
  76 H :    0.013648
  77 H :   -0.048044
  78 H :   -0.010039
  79 H :    0.017821
  80 H :    0.017093
  81 H :    0.027609
  82 H :    0.027996
  83 H :    0.007436
  84 H :   -0.049136
  85 H :   -0.011870
  86 H :   -0.007358
  87 H :   -0.037051
  88 H :   -0.005377
  89 H :    0.014964
  90 H :    0.019556
  91 H :    0.030493
  92 H :    0.029986
  93 H :    0.007972
  94 H :   -0.048523
  95 H :    0.000281
  96 H :   -0.023481
  97 H :   -0.005278
  98 H :    0.005906
  99 H :    0.006213
Sum of atomic charges:   -0.0000000

LOEWDIN ATOMIC CHARGES
----------------------
   0 C :   -0.190775
   1 S :    0.480826
   2 C :   -0.183411
   3 C :   -0.038687
   4 C :   -0.056993
   5 C :   -0.004039
   6 C :   -0.033053
   7 C :   -0.020121
   8 C :   -0.042142
   9 C :   -0.017721
  10 C :   -0.045567
  11 C :   -0.026819
  12 C :   -0.016885
  13 C :   -0.042296
  14 C :   -0.027258
  15 C :   -0.006620
  16 C :   -0.013764
  17 N :   -0.053029
  18 C :    0.011051
  19 C :    0.001992
  20 N :   -0.027620
  21 C :   -0.048669
  22 C :   -0.011212
  23 C :   -0.007843
  24 N :   -0.029478
  25 C :    0.005781
  26 C :    0.001553
  27 N :   -0.022442
  28 C :   -0.161656
  29 S :    0.506451
  30 C :   -0.175506
  31 C :   -0.042185
  32 C :   -0.032795
  33 C :    0.008504
  34 C :   -0.034434
  35 C :   -0.019007
  36 C :   -0.045864
  37 C :   -0.018220
  38 C :   -0.046019
  39 C :   -0.030558
  40 C :   -0.039789
  41 C :   -0.049683
  42 C :   -0.164151
  43 S :    0.469351
  44 C :   -0.181187
  45 C :   -0.035725
  46 C :   -0.046133
  47 C :   -0.001657
  48 C :   -0.031565
  49 C :   -0.020056
  50 C :   -0.041608
  51 C :   -0.012208
  52 C :   -0.044856
  53 C :   -0.029493
  54 C :   -0.010886
  55 C :   -0.063154
  56 C :   -0.006718
  57 C :   -0.005765
  58 N :   -0.044338
  59 C :   -0.018032
  60 C :    0.001584
  61 N :   -0.059052
  62 H :    0.021872
  63 H :    0.026625
  64 H :    0.027412
  65 H :    0.021093
  66 H :    0.023641
  67 H :    0.033436
  68 H :    0.028688
  69 H :    0.034529
  70 H :    0.024997
  71 H :    0.027520
  72 H :    0.018825
  73 H :    0.025659
  74 H :    0.026578
  75 H :    0.024072
  76 H :    0.027003
  77 H :    0.021237
  78 H :    0.026832
  79 H :    0.020315
  80 H :    0.022765
  81 H :    0.033917
  82 H :    0.033342
  83 H :    0.029306
  84 H :    0.022140
  85 H :    0.024012
  86 H :    0.024368
  87 H :    0.025861
  88 H :    0.028136
  89 H :    0.019446
  90 H :    0.023972
  91 H :    0.034519
  92 H :    0.035295
  93 H :    0.029618
  94 H :    0.023274
  95 H :    0.031698
  96 H :    0.022791
  97 H :    0.020675
  98 H :    0.022321
  99 H :    0.023862

  Mayer bond orders larger than 0.100000
B(  0-C ,  1-S ) :   1.2040 B(  0-C ,  2-C ) :   0.1024 B(  0-C ,  4-C ) :   1.3990
B(  0-C , 62-H ) :   0.9687 B(  1-S ,  2-C ) :   1.1367 B(  2-C ,  3-C ) :   1.3131
B(  2-C , 12-C ) :   1.1895 B(  3-C ,  4-C ) :   1.2017 B(  3-C , 11-C ) :   1.1990
B(  4-C ,  5-C ) :   1.1531 B(  5-C ,  6-C ) :   1.5362 B(  5-C , 63-H ) :   1.0024
B(  6-C ,  7-C ) :   1.0254 B(  6-C ,  9-C ) :   1.1899 B(  7-C ,  8-C ) :   1.9820
B(  7-C , 64-H ) :   0.9508 B(  8-C , 65-H ) :   0.9578 B(  8-C , 66-H ) :   0.9506
B(  9-C , 10-C ) :   1.0877 B(  9-C , 11-C ) :   1.5605 B( 10-C , 67-H ) :   0.9406
B( 10-C , 68-H ) :   0.9540 B( 10-C , 69-H ) :   0.9433 B( 11-C , 70-H ) :   0.9899
B( 12-C , 13-C ) :   1.5554 B( 12-C , 71-H ) :   0.9455 B( 13-C , 14-C ) :   1.2330
B( 13-C , 72-H ) :   0.9520 B( 14-C , 15-C ) :   1.2078 B( 14-C , 21-C ) :   0.1216
B( 14-C , 23-C ) :   1.2002 B( 15-C , 16-C ) :   1.1681 B( 15-C , 20-N ) :   1.4785
B( 16-C , 17-N ) :   1.4176 B( 16-C , 21-C ) :   1.2243 B( 17-N , 18-C ) :   1.6273
B( 18-C , 19-C ) :   1.2242 B( 18-C , 73-H ) :   0.9735 B( 19-C , 20-N ) :   1.6629
B( 19-C , 74-H ) :   0.9763 B( 21-C , 22-C ) :   1.2189 B( 21-C , 28-C ) :   1.2081
B( 22-C , 23-C ) :   1.1364 B( 22-C , 27-N ) :   1.4833 B( 23-C , 24-N ) :   1.4585
B( 24-N , 25-C ) :   1.6529 B( 25-C , 26-C ) :   1.2117 B( 25-C , 75-H ) :   0.9745
B( 26-C , 27-N ) :   1.6447 B( 26-C , 76-H ) :   0.9752 B( 28-C , 29-S ) :   1.1540
B( 28-C , 32-C ) :   1.2675 B( 29-S , 30-C ) :   1.0877 B( 30-C , 31-C ) :   1.2526
B( 30-C , 40-C ) :   1.2609 B( 31-C , 32-C ) :   1.2262 B( 31-C , 39-C ) :   1.2114
B( 32-C , 33-C ) :   1.2280 B( 33-C , 34-C ) :   1.4952 B( 33-C , 77-H ) :   0.9778
B( 34-C , 35-C ) :   1.0360 B( 34-C , 37-C ) :   1.2181 B( 35-C , 36-C ) :   1.9737
B( 35-C , 78-H ) :   0.9515 B( 36-C , 79-H ) :   0.9559 B( 36-C , 80-H ) :   0.9492
B( 37-C , 38-C ) :   1.0859 B( 37-C , 39-C ) :   1.5340 B( 38-C , 81-H ) :   0.9442
B( 38-C , 82-H ) :   0.9402 B( 38-C , 83-H ) :   0.9536 B( 39-C , 84-H ) :   0.9893
B( 40-C , 41-C ) :   1.5348 B( 40-C , 85-H ) :   0.9705 B( 41-C , 42-C ) :   1.2428
B( 41-C , 86-H ) :   0.9672 B( 42-C , 43-S ) :   1.1442 B( 42-C , 46-C ) :   1.2530
B( 43-S , 44-C ) :   1.1276 B( 44-C , 45-C ) :   1.3180 B( 44-C , 54-C ) :   1.1516
B( 45-C , 46-C ) :   1.2200 B( 45-C , 53-C ) :   1.1895 B( 46-C , 47-C ) :   1.2209
B( 47-C , 48-C ) :   1.4931 B( 47-C , 87-H ) :   0.9924 B( 48-C , 49-C ) :   1.0348
B( 48-C , 51-C ) :   1.2131 B( 49-C , 50-C ) :   1.9735 B( 49-C , 88-H ) :   0.9521
B( 50-C , 89-H ) :   0.9561 B( 50-C , 90-H ) :   0.9490 B( 51-C , 52-C ) :   1.0863
B( 51-C , 53-C ) :   1.5411 B( 52-C , 91-H ) :   0.9403 B( 52-C , 92-H ) :   0.9435
B( 52-C , 93-H ) :   0.9541 B( 53-C , 94-H ) :   0.9930 B( 54-C , 55-C ) :   1.6607
B( 54-C , 95-H ) :   0.9422 B( 55-C , 56-C ) :   1.0940 B( 55-C , 96-H ) :   0.9727
B( 56-C , 57-C ) :   1.2912 B( 56-C , 61-N ) :   1.5123 B( 57-C , 58-N ) :   1.5952
B( 57-C , 97-H ) :   0.9811 B( 58-N , 59-C ) :   1.5268 B( 59-C , 60-C ) :   1.3520
B( 59-C , 98-H ) :   0.9784 B( 60-C , 61-N ) :   1.5616 B( 60-C , 99-H ) :   0.9763

-----------------------------------------------------------------------------
         ABSORPTION SPECTRUM VIA TRANSITION ELECTRIC DIPOLE MOMENTS
-----------------------------------------------------------------------------
State   Energy  Wavelength   fosc         T2         TX        TY        TZ
        (cm-1)    (nm)                  (au**2)     (au)      (au)      (au)
-----------------------------------------------------------------------------
   0    7274.6   1374.6   0.848318052  38.39071  -6.09807  -0.37211  -1.03236
   1   14957.5    668.6   0.363265114   7.99541   2.80372   0.29929  -0.21210
   2   15263.8    655.1   0.225725221   4.86849  -1.92822  -0.02635   1.07227
   3   19688.4    507.9   0.181057914   3.02748  -1.69077  -0.27602   0.30429
   4   21706.3    460.7   0.138420677   2.09938   1.01674   0.23796   1.00448
   5   22578.8    442.9   0.248246221   3.61957  -1.82547  -0.17364  -0.50704
   6   22975.4    435.2   0.024117174   0.34557   0.26708   0.25627  -0.45669
   7   24208.7    413.1   0.025190700   0.34257   0.33317   0.04300   0.47929
   8   24743.5    404.1   0.011423583   0.15199  -0.18538   0.14291  -0.31177
   9   25010.9    399.8   0.015420658   0.20298  -0.24225   0.18599   0.33121
  10   25159.2    397.5   0.051993817   0.68035   0.71523  -0.11303   0.39499
  11   25499.7    392.2   0.161428576   2.08411  -0.73444   0.37026  -1.18643
  12   26304.5    380.2   0.035469582   0.44392   0.07072  -0.13948   0.64766
  13   26812.3    373.0   0.003918781   0.04812  -0.14073  -0.06097  -0.15683
  14   28636.5    349.2   0.338654637   3.89325  -0.71146   0.54041  -1.75927
  15   29055.9    344.2   0.031333702   0.35502   0.58059  -0.05466   0.12226
  16   29151.4    343.0   0.028070365   0.31700   0.20091   0.03067   0.52507
  17   29893.6    334.5   0.012204207   0.13440  -0.01005  -0.19936  -0.30750
  18   30133.8    331.9   0.078077024   0.85299   0.13544  -0.27440   0.87141
  19   31316.2    319.3   0.253552945   2.66548   1.41542  -0.09092   0.80857
  20   31600.6    316.4   0.003993059   0.04160   0.13950  -0.14532   0.03192
  21   31692.0    315.5   0.102315920   1.06284   0.64211   0.42066  -0.68818
  22   32019.1    312.3   0.064525361   0.66343   0.43662  -0.43048   0.53617
  23   32224.6    310.3   0.090582559   0.92541  -0.95149   0.11861   0.07749
  24   32496.5    307.7   0.078645773   0.79674  -0.01467   0.36953   0.81238
  25   32630.6    306.5   0.091158537   0.91970  -0.73147   0.03863   0.61900
  26   33398.4    299.4   0.190130612   1.87414   0.32656   0.13889  -1.32220
  27   33433.3    299.1   0.055361023   0.54513  -0.53039  -0.02314   0.51311
  28   34581.2    289.2   0.310188277   2.95298  -0.66114   0.41060   1.53208
  29   34621.7    288.8   0.150781251   1.43375  -1.05903  -0.13489   0.54223
  30   34796.5    287.4   0.032944794   0.31169   0.04210  -0.00736  -0.55666
  31   35660.8    280.4   0.035462968   0.32739   0.47682   0.01382  -0.31597
  32   35694.2    280.2   0.055181507   0.50895  -0.18338   0.38759  -0.57017
  33   36035.7    277.5   0.227413330   2.07758   0.76327  -0.35438   1.17022
  34   36428.5    274.5   0.054871084   0.49588   0.27006   0.16902  -0.62800
  35   36599.4    273.2   0.010905000   0.09809  -0.22749   0.04696   0.21008
  36   36970.4    270.5   0.070001402   0.62334   0.30130   0.30322  -0.66379
  37   37362.7    267.6   0.076039073   0.67000  -0.10351   0.02144   0.81168
  38   37528.7    266.5   0.002519498   0.02210   0.14648   0.02062  -0.01482
  39   38137.1    262.2   0.003800098   0.03280   0.17175  -0.05297   0.02238
  40   38160.5    262.1   0.052896153   0.45634   0.60775   0.02674  -0.29371
  41   38524.6    259.6   0.020606384   0.17609  -0.40727   0.05648  -0.08386
  42   39216.6    255.0   0.013268826   0.11139  -0.18691  -0.08387  -0.26347
  43   39601.4    252.5   0.078495934   0.65255   0.16847   0.28639  -0.73630
  44   39813.8    251.2   0.016919948   0.13991   0.25049   0.13287  -0.24394
  45   39842.8    251.0   0.303548661   2.50815   1.33622   0.07081  -0.84714
  46   39927.1    250.5   0.057681797   0.47560  -0.37511  -0.15131   0.55857
  47   40305.1    248.1   0.174188299   1.42277   0.98090  -0.02540  -0.67821

FINAL SINGLE POINT ENERGY     -3562.088035829377

DIPOLE MOMENT
-------------
                                X             Y             Z
Electronic contribution:     12.24580       1.41444      -8.41612
Nuclear contribution   :    -13.75405      -1.32756       8.22422
                        -----------------------------------------
Total Dipole Moment    :     -1.50826       0.08688      -0.19190
                        -----------------------------------------
Magnitude (a.u.)       :      1.52289
Magnitude (Debye)      :      3.87089

Rotational constants in cm-1:     0.002553     0.000353     0.000315
Rotational constants in MHz :    76.534200    10.595116     9.433827

                             ****ORCA TERMINATED NORMALLY****
TOTAL RUN TIME: 0 days 0 hours 8 minutes 54 seconds 309 msec
