                         Program Version 4.2.0 -  RELEASE  -
|  1> # ORCA input file
|  2> # SCF done       -190.229540649038          0.000295531900
|  3> ! CAM-B3LYP def2-SVP def2/J RIJCOSX Grid4 TightSCF
|  4> %maxcore 5000
|  5> %tddft
|  6>     Mode sTDDFT
|  7>     Ethresh 5.0
|  8>     maxcore 5000
|  9> end
| 10>
| 11> %pal
| 12>   nprocs 6
| 13>   end
| 14> * xyz 0 1
| 15>    C        9.82006       -16.38538         8.17972
| 16>    C        9.16965       -15.42234         7.50999
| 17>    C        7.75654       -15.18800         7.45759
| 18>    C        7.39563       -14.13220         6.69174
| 19>    C        8.48486       -13.45253         6.08335
| 20>    S        9.99723       -14.20889         6.51971
| 21>    C        8.41861       -12.34580         5.25799
| 22>    C        7.26314       -11.64499         4.84695
| 23>    C        7.51431       -10.59068         4.01941
| 24>    C        8.87926       -10.39011         3.72513
| 25>    S        9.83896       -11.60468         4.56518
| 26>    C        9.57305        -9.44113         2.99838
| 27>    C        9.19106        -8.38026         2.16345
| 28>    C        7.91817        -8.10507         1.57832
| 29>    C        7.67670        -6.93941         0.75259
| 30>    N        6.46406        -6.75572         0.21814
| 31>    C        5.50658        -7.63370         0.42427
| 32>    C        5.75111        -8.79021         1.21487
| 33>    N        6.93400        -8.98420         1.76290
| 34>    C        4.73646        -9.74948         1.44174
| 35>    N        3.89956       -10.50929         1.63347
| 36>    C        4.24036        -7.41581        -0.17102
| 37>    N        3.20986        -7.27172        -0.65124
| 38>    C        8.69344        -5.98383         0.47011
| 39>    C        9.97673        -6.30823         0.97796
| 40>    C       10.22172        -7.46804         1.78617
| 41>    N       11.49790        -7.55473         2.14830
| 42>    S       12.31482        -6.31040         1.53242
| 43>    N       11.08024        -5.59459         0.78102
| 44>    C        8.49763        -4.79080        -0.25608
| 45>    S        9.86735        -3.73873        -0.58640
| 46>    C        7.30026        -4.27124        -0.76305
| 47>    C        7.46999        -3.06659        -1.41302
| 48>    C        6.66140        -2.05049        -2.09370
| 49>    C        5.32616        -2.05760        -2.30144
| 50>    C        4.62089        -0.92888        -3.01336
| 51>    N        4.71438        -1.03482        -4.46416
| 52>    C        4.44731        -3.18729        -1.82197
| 53>    N        4.12628        -3.07239        -0.40514
| 54>    C        8.82701        -2.64086        -1.39620
| 55>    C        8.92360        -1.41167        -2.04048
| 56>    S       10.15189        -0.27750        -2.44766
| 57>    C        7.62975        -1.01916        -2.47905
| 58>    C        7.66075         0.18748        -3.14923
| 59>    C        8.94664         0.73461        -3.21795
| 60>    C        9.30328         1.95839        -3.82068
| 61>    C       10.64802         2.40037        -3.82593
| 62>    C       11.06615         3.64648        -4.42298
| 63>    N       12.34991         3.98474        -4.38762
| 64>    C       13.23631         3.19158        -3.80998
| 65>    C       12.82077         1.96622        -3.21795
| 66>    N       11.55483         1.60999        -3.24354
| 67>    C       13.76500         1.11470        -2.59404
| 68>    N       14.55382         0.44939        -2.09630
| 69>    C       14.59732         3.57062        -3.78588
| 70>    N       15.71244         3.83518        -3.74275
| 71>    C       10.13844         4.52484        -5.04888
| 72>    C        8.78368         4.07142        -5.04329
| 73>    C        8.36986         2.82671        -4.44978
| 74>    N        7.06031         2.63425        -4.57422
| 75>    S        6.40910         3.88521        -5.35883
| 76>    N        7.76330         4.73307        -5.57525
| 77>    C       10.41983         5.75492        -5.64763
| 78>    C       11.59235         6.46798        -5.82482
| 79>    C       11.60803         7.72579        -6.47634
| 80>    C       12.83942         8.30237        -6.57758
| 81>    C       13.85979         7.51679        -6.00674
| 82>    S       13.20908         6.03150        -5.33538
| 83>    C       15.21406         7.79305        -5.93831
| 84>    C       15.88827         8.94334        -6.43160
| 85>    C       17.22502         8.93347        -6.22138
| 86>    C       17.70127         7.76431        -5.54145
| 87>    S       16.33701         6.68986        -5.19176
| 88>    C       18.96403         7.46961        -5.19686
| 89>    H        9.27943       -17.10428         8.76965
| 90>    H       10.89073       -16.47085         8.14951
| 91>    H        7.07361       -15.82073         7.99572
| 92>    H        6.38008       -13.81377         6.53858
| 93>    H        6.27695       -11.92865         5.16726
| 94>    H        6.75273        -9.95260         3.61672
| 95>    H       10.65102        -9.49449         3.11190
| 96>    H        6.38065        -4.80539        -0.62222
| 97>    H        5.03360         0.03822        -2.71909
| 98>    H        3.55787        -0.93817        -2.75560
| 99>    H        5.68510        -0.99259        -4.75643
|100>    H        4.33721        -1.92484        -4.77383
|101>    H        4.92457        -4.15562        -1.98372
|102>    H        3.50148        -3.18266        -2.37033
|103>    H        4.97409        -3.09571         0.15139
|104>    H        3.65818        -2.19098        -0.22152
|105>    H        6.83540         0.70781        -3.59775
|106>    H        9.53684         6.23961        -6.05026
|107>    H       10.70133         8.16739        -6.85198
|108>    H       13.02437         9.25453        -7.04234
|109>    H       15.35637         9.73725        -6.92517
|110>    H       17.90280         9.71255        -6.52189
|111>    H       19.77027         8.14445        -5.42560
|112>    H       19.20732         6.55582        -4.68635
|113> *
|114>
|115>                          ****END OF INPUT****

CARTESIAN COORDINATES (ANGSTROEM)
---------------------------------
  C      9.820060  -16.385380    8.179720
  C      9.169650  -15.422340    7.509990
  C      7.756540  -15.188000    7.457590
  C      7.395630  -14.132200    6.691740
  C      8.484860  -13.452530    6.083350
  S      9.997230  -14.208890    6.519710
  C      8.418610  -12.345800    5.257990
  C      7.263140  -11.644990    4.846950
  C      7.514310  -10.590680    4.019410
  C      8.879260  -10.390110    3.725130
  S      9.838960  -11.604680    4.565180
  C      9.573050   -9.441130    2.998380
  C      9.191060   -8.380260    2.163450
  C      7.918170   -8.105070    1.578320
  C      7.676700   -6.939410    0.752590
  N      6.464060   -6.755720    0.218140
  C      5.506580   -7.633700    0.424270
  C      5.751110   -8.790210    1.214870
  N      6.934000   -8.984200    1.762900
  C      4.736460   -9.749480    1.441740
  N      3.899560  -10.509290    1.633470
  C      4.240360   -7.415810   -0.171020
  N      3.209860   -7.271720   -0.651240
  C      8.693440   -5.983830    0.470110
  C      9.976730   -6.308230    0.977960
  C     10.221720   -7.468040    1.786170
  N     11.497900   -7.554730    2.148300
  S     12.314820   -6.310400    1.532420
  N     11.080240   -5.594590    0.781020
  C      8.497630   -4.790800   -0.256080
  S      9.867350   -3.738730   -0.586400
  C      7.300260   -4.271240   -0.763050
  C      7.469990   -3.066590   -1.413020
  C      6.661400   -2.050490   -2.093700
  C      5.326160   -2.057600   -2.301440
  C      4.620890   -0.928880   -3.013360
  N      4.714380   -1.034820   -4.464160
  C      4.447310   -3.187290   -1.821970
  N      4.126280   -3.072390   -0.405140
  C      8.827010   -2.640860   -1.396200
  C      8.923600   -1.411670   -2.040480
  S     10.151890   -0.277500   -2.447660
  C      7.629750   -1.019160   -2.479050
  C      7.660750    0.187480   -3.149230
  C      8.946640    0.734610   -3.217950
  C      9.303280    1.958390   -3.820680
  C     10.648020    2.400370   -3.825930
  C     11.066150    3.646480   -4.422980
  N     12.349910    3.984740   -4.387620
  C     13.236310    3.191580   -3.809980
  C     12.820770    1.966220   -3.217950
  N     11.554830    1.609990   -3.243540
  C     13.765000    1.114700   -2.594040
  N     14.553820    0.449390   -2.096300
  C     14.597320    3.570620   -3.785880
  N     15.712440    3.835180   -3.742750
  C     10.138440    4.524840   -5.048880
  C      8.783680    4.071420   -5.043290
  C      8.369860    2.826710   -4.449780
  N      7.060310    2.634250   -4.574220
  S      6.409100    3.885210   -5.358830
  N      7.763300    4.733070   -5.575250
  C     10.419830    5.754920   -5.647630
  C     11.592350    6.467980   -5.824820
  C     11.608030    7.725790   -6.476340
  C     12.839420    8.302370   -6.577580
  C     13.859790    7.516790   -6.006740
  S     13.209080    6.031500   -5.335380
  C     15.214060    7.793050   -5.938310
  C     15.888270    8.943340   -6.431600
  C     17.225020    8.933470   -6.221380
  C     17.701270    7.764310   -5.541450
  S     16.337010    6.689860   -5.191760
  C     18.964030    7.469610   -5.196860
  H      9.279430  -17.104280    8.769650
  H     10.890730  -16.470850    8.149510
  H      7.073610  -15.820730    7.995720
  H      6.380080  -13.813770    6.538580
  H      6.276950  -11.928650    5.167260
  H      6.752730   -9.952600    3.616720
  H     10.651020   -9.494490    3.111900
  H      6.380650   -4.805390   -0.622220
  H      5.033600    0.038220   -2.719090
  H      3.557870   -0.938170   -2.755600
  H      5.685100   -0.992590   -4.756430
  H      4.337210   -1.924840   -4.773830
  H      4.924570   -4.155620   -1.983720
  H      3.501480   -3.182660   -2.370330
  H      4.974090   -3.095710    0.151390
  H      3.658180   -2.190980   -0.221520
  H      6.835400    0.707810   -3.597750
  H      9.536840    6.239610   -6.050260
  H     10.701330    8.167390   -6.851980
  H     13.024370    9.254530   -7.042340
  H     15.356370    9.737250   -6.925170
  H     17.902800    9.712550   -6.521890
  H     19.770270    8.144450   -5.425600
  H     19.207320    6.555820   -4.686350

 Total Charge           Charge          ....    0
 Multiplicity           Mult            ....    1
 Number of Electrons    NEL             ....  562
 Basis Dimension        Dim             .... 1188

ORBITAL ENERGIES
----------------

  NO   OCC          E(Eh)            E(eV)
   0   2.0000     -89.026891     -2422.5449
   1   2.0000     -89.026626     -2422.5377
   2   2.0000     -88.957839     -2420.6659
   3   2.0000     -88.952110     -2420.5100
   4   2.0000     -88.949383     -2420.4358
   5   2.0000     -88.949295     -2420.4334
   6   2.0000     -88.946008     -2420.3439
   7   2.0000     -88.944729     -2420.3091
   8   2.0000     -14.456706      -393.3870
   9   2.0000     -14.448409      -393.1612
  10   2.0000     -14.445821      -393.0908
  11   2.0000     -14.444824      -393.0636
  12   2.0000     -14.443835      -393.0367
  13   2.0000     -14.439731      -392.9251
  14   2.0000     -14.439197      -392.9105
  15   2.0000     -14.438606      -392.8945
  16   2.0000     -14.421194      -392.4206
  17   2.0000     -14.419541      -392.3757
  18   2.0000     -14.417937      -392.3320
  19   2.0000     -14.416286      -392.2871
  20   2.0000     -14.381571      -391.3424
  21   2.0000     -14.379266      -391.2797
  22   2.0000     -10.372298      -282.2446
  23   2.0000     -10.364779      -282.0400
  24   2.0000     -10.364161      -282.0232
  25   2.0000     -10.362948      -281.9901
  26   2.0000     -10.341170      -281.3976
  27   2.0000     -10.334629      -281.2196
  28   2.0000     -10.334373      -281.2126
  29   2.0000     -10.334137      -281.2062
  30   2.0000     -10.331450      -281.1330
  31   2.0000     -10.330560      -281.1088
  32   2.0000     -10.329217      -281.0723
  33   2.0000     -10.326371      -280.9948
  34   2.0000     -10.326091      -280.9872
  35   2.0000     -10.321840      -280.8715
  36   2.0000     -10.318941      -280.7927
  37   2.0000     -10.318723      -280.7867
  38   2.0000     -10.315148      -280.6894
  39   2.0000     -10.315087      -280.6878
  40   2.0000     -10.312565      -280.6192
  41   2.0000     -10.312526      -280.6181
  42   2.0000     -10.312401      -280.6147
  43   2.0000     -10.310353      -280.5590
  44   2.0000     -10.310156      -280.5536
  45   2.0000     -10.306228      -280.4467
  46   2.0000     -10.305053      -280.4147
  47   2.0000     -10.302131      -280.3352
  48   2.0000     -10.301499      -280.3180
  49   2.0000     -10.300354      -280.2869
  50   2.0000     -10.299975      -280.2766
  51   2.0000     -10.299885      -280.2741
  52   2.0000     -10.299005      -280.2502
  53   2.0000     -10.297498      -280.2092
  54   2.0000     -10.295436      -280.1530
  55   2.0000     -10.293681      -280.1053
  56   2.0000     -10.291047      -280.0336
  57   2.0000     -10.290839      -280.0280
  58   2.0000     -10.289576      -279.9936
  59   2.0000     -10.289001      -279.9779
  60   2.0000     -10.288950      -279.9766
  61   2.0000     -10.287999      -279.9507
  62   2.0000     -10.287064      -279.9252
  63   2.0000     -10.285510      -279.8830
  64   2.0000     -10.285354      -279.8787
  65   2.0000     -10.279784      -279.7271
  66   2.0000     -10.278785      -279.7000
  67   2.0000     -10.278137      -279.6823
  68   2.0000     -10.274758      -279.5904
  69   2.0000     -10.273895      -279.5669
  70   2.0000     -10.270308      -279.4693
  71   2.0000     -10.269640      -279.4511
  72   2.0000     -10.267114      -279.3824
  73   2.0000     -10.266854      -279.3753
  74   2.0000      -8.118543      -220.9168
  75   2.0000      -8.117957      -220.9008
  76   2.0000      -8.050775      -219.0727
  77   2.0000      -8.048541      -219.0119
  78   2.0000      -8.042969      -218.8603
  79   2.0000      -8.042727      -218.8537
  80   2.0000      -8.042232      -218.8403
  81   2.0000      -8.041194      -218.8120
  82   2.0000      -6.089865      -165.7136
  83   2.0000      -6.089202      -165.6956
  84   2.0000      -6.082104      -165.5025
  85   2.0000      -6.081522      -165.4866
  86   2.0000      -6.080729      -165.4651
  87   2.0000      -6.080279      -165.4528
  88   2.0000      -6.020631      -163.8297
  89   2.0000      -6.018231      -163.7644
  90   2.0000      -6.016071      -163.7056
  91   2.0000      -6.014124      -163.6526
  92   2.0000      -6.012509      -163.6087
  93   2.0000      -6.012446      -163.6070
  94   2.0000      -6.012270      -163.6022
  95   2.0000      -6.011926      -163.5928
  96   2.0000      -6.010805      -163.5623
  97   2.0000      -6.009375      -163.5234
  98   2.0000      -6.008578      -163.5017
  99   2.0000      -6.008058      -163.4876
 100   2.0000      -6.007241      -163.4653
 101   2.0000      -6.006865      -163.4551
 102   2.0000      -6.004954      -163.4031
 103   2.0000      -6.004254      -163.3841
 104   2.0000      -6.003402      -163.3609
 105   2.0000      -6.002223      -163.3288
 106   2.0000      -1.127719       -30.6868
 107   2.0000      -1.126194       -30.6453
 108   2.0000      -1.112063       -30.2608
 109   2.0000      -1.104857       -30.0647
 110   2.0000      -1.040145       -28.3038
 111   2.0000      -1.031157       -28.0592
 112   2.0000      -1.005948       -27.3732
 113   2.0000      -1.003088       -27.2954
 114   2.0000      -1.002895       -27.2902
 115   2.0000      -1.000674       -27.2297
 116   2.0000      -0.995915       -27.1002
 117   2.0000      -0.995414       -27.0866
 118   2.0000      -0.991553       -26.9815
 119   2.0000      -0.985806       -26.8251
 120   2.0000      -0.984005       -26.7761
 121   2.0000      -0.980218       -26.6731
 122   2.0000      -0.973584       -26.4926
 123   2.0000      -0.972661       -26.4674
 124   2.0000      -0.969364       -26.3777
 125   2.0000      -0.961853       -26.1734
 126   2.0000      -0.954536       -25.9742
 127   2.0000      -0.948470       -25.8092
 128   2.0000      -0.911103       -24.7924
 129   2.0000      -0.901421       -24.5289
 130   2.0000      -0.896902       -24.4059
 131   2.0000      -0.895727       -24.3740
 132   2.0000      -0.889315       -24.1995
 133   2.0000      -0.879697       -23.9378
 134   2.0000      -0.874062       -23.7844
 135   2.0000      -0.858024       -23.3480
 136   2.0000      -0.855230       -23.2720
 137   2.0000      -0.848746       -23.0955
 138   2.0000      -0.846730       -23.0407
 139   2.0000      -0.837688       -22.7946
 140   2.0000      -0.830450       -22.5977
 141   2.0000      -0.824531       -22.4366
 142   2.0000      -0.822300       -22.3759
 143   2.0000      -0.821353       -22.3502
 144   2.0000      -0.818706       -22.2781
 145   2.0000      -0.815349       -22.1868
 146   2.0000      -0.800247       -21.7758
 147   2.0000      -0.794908       -21.6305
 148   2.0000      -0.793545       -21.5935
 149   2.0000      -0.778770       -21.1914
 150   2.0000      -0.761985       -20.7347
 151   2.0000      -0.749845       -20.4043
 152   2.0000      -0.743547       -20.2329
 153   2.0000      -0.734164       -19.9776
 154   2.0000      -0.725259       -19.7353
 155   2.0000      -0.722856       -19.6699
 156   2.0000      -0.718762       -19.5585
 157   2.0000      -0.708192       -19.2709
 158   2.0000      -0.695393       -18.9226
 159   2.0000      -0.690809       -18.7979
 160   2.0000      -0.688635       -18.7387
 161   2.0000      -0.684001       -18.6126
 162   2.0000      -0.682733       -18.5781
 163   2.0000      -0.675917       -18.3926
 164   2.0000      -0.671536       -18.2734
 165   2.0000      -0.658419       -17.9165
 166   2.0000      -0.655794       -17.8451
 167   2.0000      -0.643923       -17.5220
 168   2.0000      -0.641553       -17.4576
 169   2.0000      -0.638000       -17.3609
 170   2.0000      -0.633275       -17.2323
 171   2.0000      -0.627622       -17.0785
 172   2.0000      -0.624074       -16.9819
 173   2.0000      -0.621984       -16.9251
 174   2.0000      -0.615405       -16.7460
 175   2.0000      -0.612897       -16.6778
 176   2.0000      -0.610147       -16.6030
 177   2.0000      -0.609500       -16.5853
 178   2.0000      -0.605571       -16.4784
 179   2.0000      -0.601419       -16.3655
 180   2.0000      -0.597162       -16.2496
 181   2.0000      -0.589116       -16.0307
 182   2.0000      -0.586663       -15.9639
 183   2.0000      -0.579479       -15.7684
 184   2.0000      -0.573081       -15.5943
 185   2.0000      -0.570066       -15.5123
 186   2.0000      -0.565580       -15.3902
 187   2.0000      -0.564983       -15.3740
 188   2.0000      -0.561392       -15.2762
 189   2.0000      -0.554713       -15.0945
 190   2.0000      -0.545502       -14.8439
 191   2.0000      -0.543366       -14.7857
 192   2.0000      -0.542987       -14.7754
 193   2.0000      -0.540408       -14.7053
 194   2.0000      -0.535739       -14.5782
 195   2.0000      -0.531093       -14.4518
 196   2.0000      -0.525522       -14.3002
 197   2.0000      -0.521635       -14.1944
 198   2.0000      -0.517989       -14.0952
 199   2.0000      -0.516399       -14.0519
 200   2.0000      -0.514037       -13.9877
 201   2.0000      -0.512961       -13.9584
 202   2.0000      -0.509017       -13.8510
 203   2.0000      -0.505578       -13.7575
 204   2.0000      -0.504382       -13.7249
 205   2.0000      -0.501680       -13.6514
 206   2.0000      -0.497868       -13.5477
 207   2.0000      -0.496138       -13.5006
 208   2.0000      -0.492603       -13.4044
 209   2.0000      -0.490499       -13.3471
 210   2.0000      -0.489891       -13.3306
 211   2.0000      -0.486933       -13.2501
 212   2.0000      -0.483697       -13.1621
 213   2.0000      -0.481680       -13.1072
 214   2.0000      -0.478052       -13.0085
 215   2.0000      -0.476431       -12.9643
 216   2.0000      -0.475440       -12.9374
 217   2.0000      -0.472221       -12.8498
 218   2.0000      -0.470867       -12.8129
 219   2.0000      -0.469046       -12.7634
 220   2.0000      -0.467130       -12.7112
 221   2.0000      -0.465182       -12.6582
 222   2.0000      -0.463624       -12.6158
 223   2.0000      -0.459684       -12.5086
 224   2.0000      -0.457950       -12.4615
 225   2.0000      -0.453562       -12.3421
 226   2.0000      -0.452829       -12.3221
 227   2.0000      -0.451210       -12.2781
 228   2.0000      -0.450613       -12.2618
 229   2.0000      -0.447688       -12.1822
 230   2.0000      -0.444861       -12.1053
 231   2.0000      -0.443676       -12.0730
 232   2.0000      -0.442547       -12.0423
 233   2.0000      -0.439744       -11.9660
 234   2.0000      -0.438146       -11.9226
 235   2.0000      -0.436669       -11.8824
 236   2.0000      -0.434161       -11.8141
 237   2.0000      -0.432193       -11.7606
 238   2.0000      -0.431246       -11.7348
 239   2.0000      -0.427466       -11.6319
 240   2.0000      -0.426250       -11.5988
 241   2.0000      -0.424868       -11.5612
 242   2.0000      -0.424483       -11.5508
 243   2.0000      -0.423430       -11.5221
 244   2.0000      -0.419432       -11.4133
 245   2.0000      -0.419146       -11.4055
 246   2.0000      -0.413301       -11.2465
 247   2.0000      -0.407925       -11.1002
 248   2.0000      -0.407823       -11.0974
 249   2.0000      -0.404653       -11.0112
 250   2.0000      -0.402933       -10.9644
 251   2.0000      -0.400091       -10.8870
 252   2.0000      -0.399463       -10.8699
 253   2.0000      -0.393928       -10.7193
 254   2.0000      -0.391790       -10.6612
 255   2.0000      -0.388970       -10.5844
 256   2.0000      -0.384336       -10.4583
 257   2.0000      -0.376844       -10.2544
 258   2.0000      -0.368872       -10.0375
 259   2.0000      -0.361839        -9.8461
 260   2.0000      -0.355362        -9.6699
 261   2.0000      -0.352249        -9.5852
 262   2.0000      -0.348044        -9.4708
 263   2.0000      -0.344530        -9.3751
 264   2.0000      -0.342632        -9.3235
 265   2.0000      -0.340428        -9.2635
 266   2.0000      -0.338992        -9.2245
 267   2.0000      -0.336704        -9.1622
 268   2.0000      -0.335282        -9.1235
 269   2.0000      -0.330228        -8.9859
 270   2.0000      -0.329024        -8.9532
 271   2.0000      -0.320876        -8.7315
 272   2.0000      -0.316842        -8.6217
 273   2.0000      -0.310943        -8.4612
 274   2.0000      -0.306338        -8.3359
 275   2.0000      -0.302011        -8.2181
 276   2.0000      -0.280790        -7.6407
 277   2.0000      -0.267022        -7.2660
 278   2.0000      -0.253681        -6.9030
 279   2.0000      -0.222123        -6.0443
 280   2.0000      -0.191492        -5.2108
 281   0.0000      -0.125642        -3.4189
 282   0.0000      -0.107772        -2.9326
 283   0.0000      -0.063802        -1.7361
 284   0.0000      -0.059866        -1.6290
 285   0.0000      -0.046525        -1.2660

MULLIKEN ATOMIC CHARGES
-----------------------
   0 C :   -0.019494
   1 C :   -0.071805
   2 C :    0.057791
   3 C :    0.030326
   4 C :   -0.054439
   5 S :    0.097522
   6 C :   -0.046128
   7 C :    0.016040
   8 C :    0.062414
   9 C :   -0.047201
  10 S :    0.098503
  11 C :   -0.053519
  12 C :    0.096250
  13 C :   -0.065148
  14 C :   -0.061512
  15 N :    0.030028
  16 C :   -0.110632
  17 C :   -0.123669
  18 N :    0.018717
  19 C :   -0.242160
  20 N :    0.231466
  21 C :   -0.227924
  22 N :    0.235581
  23 C :    0.201100
  24 C :   -0.032611
  25 C :    0.004038
  26 N :   -0.279865
  27 S :    0.530413
  28 N :   -0.326789
  29 C :   -0.175613
  30 S :    0.179836
  31 C :   -0.130976
  32 C :    0.110402
  33 C :    0.215664
  34 C :   -0.402063
  35 C :    0.175819
  36 N :   -0.211267
  37 C :    0.179897
  38 N :   -0.206139
  39 C :   -0.083820
  40 C :   -0.087033
  41 S :    0.174758
  42 C :    0.110502
  43 C :   -0.137020
  44 C :   -0.170746
  45 C :    0.164784
  46 C :   -0.050736
  47 C :   -0.015292
  48 N :   -0.017123
  49 C :   -0.093363
  50 C :   -0.094236
  51 N :   -0.013115
  52 C :   -0.250281
  53 N :    0.243032
  54 C :   -0.244302
  55 N :    0.218506
  56 C :    0.106696
  57 C :   -0.005621
  58 C :   -0.004511
  59 N :   -0.291642
  60 S :    0.519192
  61 N :   -0.279194
  62 C :   -0.139656
  63 C :    0.030109
  64 C :    0.019388
  65 C :    0.039375
  66 C :   -0.030726
  67 S :    0.121452
  68 C :   -0.062153
  69 C :    0.026480
  70 C :    0.065734
  71 C :   -0.080723
  72 S :    0.145862
  73 C :   -0.004584
  74 H :    0.026347
  75 H :    0.028332
  76 H :   -0.005938
  77 H :   -0.003612
  78 H :   -0.008499
  79 H :   -0.013208
  80 H :    0.002612
  81 H :    0.009331
  82 H :    0.021249
  83 H :   -0.006972
  84 H :    0.096707
  85 H :    0.091481
  86 H :    0.023923
  87 H :   -0.003020
  88 H :    0.094573
  89 H :    0.089228
  90 H :    0.005343
  91 H :   -0.001397
  92 H :   -0.008472
  93 H :   -0.015175
  94 H :   -0.006100
  95 H :   -0.002737
  96 H :    0.030470
  97 H :    0.042687
Sum of atomic charges:   -0.0000000

LOEWDIN ATOMIC CHARGES
----------------------
   0 C :   -0.061489
   1 C :   -0.140944
   2 C :   -0.023196
   3 C :   -0.025310
   4 C :   -0.163802
   5 S :    0.368217
   6 C :   -0.186606
   7 C :   -0.019667
   8 C :   -0.033189
   9 C :   -0.120090
  10 S :    0.390617
  11 C :   -0.051694
  12 C :   -0.040945
  13 C :   -0.009595
  14 C :   -0.006687
  15 N :    0.000248
  16 C :   -0.033352
  17 C :   -0.043584
  18 N :    0.003587
  19 C :   -0.038824
  20 N :   -0.022234
  21 C :   -0.037414
  22 N :   -0.013852
  23 C :   -0.056909
  24 C :   -0.050285
  25 C :   -0.040098
  26 N :   -0.279568
  27 S :    0.653103
  28 N :   -0.300599
  29 C :   -0.157460
  30 S :    0.476316
  31 C :   -0.043802
  32 C :   -0.046230
  33 C :   -0.043976
  34 C :   -0.016273
  35 C :    0.019908
  36 N :   -0.101075
  37 C :    0.021589
  38 N :   -0.097321
  39 C :   -0.184412
  40 C :   -0.195865
  41 S :    0.471821
  42 C :   -0.042341
  43 C :   -0.051837
  44 C :   -0.154069
  45 C :   -0.070143
  46 C :   -0.012869
  47 C :   -0.002329
  48 N :   -0.023852
  49 C :   -0.052538
  50 C :   -0.019601
  51 N :   -0.031892
  52 C :   -0.034813
  53 N :   -0.011223
  54 C :   -0.045727
  55 N :   -0.030955
  56 C :   -0.039698
  57 C :   -0.043861
  58 C :   -0.036713
  59 N :   -0.282692
  60 S :    0.642228
  61 N :   -0.278503
  62 C :   -0.042639
  63 C :   -0.128222
  64 C :   -0.037792
  65 C :   -0.022683
  66 C :   -0.207743
  67 S :    0.463309
  68 C :   -0.149703
  69 C :   -0.029929
  70 C :   -0.012122
  71 C :   -0.146134
  72 S :    0.414010
  73 C :   -0.038364
  74 H :    0.031359
  75 H :    0.028967
  76 H :    0.035717
  77 H :    0.035611
  78 H :    0.034227
  79 H :    0.029312
  80 H :    0.035699
  81 H :    0.026400
  82 H :    0.027070
  83 H :    0.020870
  84 H :    0.052607
  85 H :    0.055179
  86 H :    0.028197
  87 H :    0.022932
  88 H :    0.051191
  89 H :    0.054286
  90 H :    0.026152
  91 H :    0.042248
  92 H :    0.034281
  93 H :    0.030197
  94 H :    0.034480
  95 H :    0.036903
  96 H :    0.033215
  97 H :    0.035278

  Mayer bond orders larger than 0.100000
B(  0-C ,  1-C ) :   1.8543 B(  0-C , 74-H ) :   0.9510 B(  0-C , 75-H ) :   0.9417
B(  1-C ,  2-C ) :   1.0851 B(  1-C ,  5-S ) :   1.0075 B(  2-C ,  3-C ) :   1.6452
B(  2-C , 76-H ) :   0.9934 B(  3-C ,  4-C ) :   1.1675 B(  3-C , 77-H ) :   0.9932
B(  4-C ,  5-S ) :   1.0655 B(  4-C ,  6-C ) :   1.4903 B(  6-C ,  7-C ) :   1.1973
B(  6-C , 10-S ) :   1.0534 B(  7-C ,  8-C ) :   1.5566 B(  7-C , 78-H ) :   0.9955
B(  8-C ,  9-C ) :   1.1989 B(  8-C , 79-H ) :   0.9843 B(  9-C , 10-S ) :   1.0719
B(  9-C , 11-C ) :   1.4275 B( 11-C , 12-C ) :   1.3453 B( 11-C , 80-H ) :   0.9232
B( 12-C , 13-C ) :   1.1676 B( 12-C , 23-C ) :   0.1026 B( 12-C , 25-C ) :   1.1502
B( 13-C , 14-C ) :   1.0880 B( 13-C , 18-N ) :   1.4876 B( 14-C , 15-N ) :   1.4714
B( 14-C , 23-C ) :   1.2173 B( 15-N , 16-C ) :   1.6918 B( 16-C , 17-C ) :   1.2407
B( 16-C , 21-C ) :   1.1570 B( 17-C , 18-N ) :   1.6548 B( 17-C , 19-C ) :   1.1663
B( 19-C , 20-N ) :   3.0399 B( 21-C , 22-N ) :   3.0329 B( 23-C , 24-C ) :   1.1515
B( 23-C , 29-C ) :   1.2611 B( 24-C , 25-C ) :   1.1157 B( 24-C , 28-N ) :   1.5075
B( 25-C , 26-N ) :   1.5595 B( 26-N , 27-S ) :   1.2625 B( 26-N , 28-N ) :   0.1426
B( 27-S , 28-N ) :   1.2444 B( 29-C , 30-S ) :   1.0858 B( 29-C , 31-C ) :   1.3598
B( 30-S , 39-C ) :   1.0546 B( 31-C , 32-C ) :   1.2874 B( 31-C , 81-H ) :   0.9749
B( 32-C , 33-C ) :   1.0095 B( 32-C , 39-C ) :   1.3429 B( 33-C , 34-C ) :   1.7170
B( 33-C , 42-C ) :   1.0061 B( 34-C , 35-C ) :   1.0388 B( 34-C , 37-C ) :   1.0391
B( 35-C , 36-N ) :   1.1160 B( 35-C , 82-H ) :   0.9307 B( 35-C , 83-H ) :   0.9252
B( 36-N , 84-H ) :   0.9742 B( 36-N , 85-H ) :   0.9679 B( 37-C , 38-N ) :   1.1139
B( 37-C , 86-H ) :   0.9295 B( 37-C , 87-H ) :   0.9258 B( 38-N , 88-H ) :   0.9749
B( 38-N , 89-H ) :   0.9681 B( 39-C , 40-C ) :   1.3104 B( 40-C , 41-S ) :   1.0249
B( 40-C , 42-C ) :   1.3602 B( 41-S , 44-C ) :   1.0906 B( 42-C , 43-C ) :   1.2757
B( 43-C , 44-C ) :   1.3877 B( 43-C , 90-H ) :   0.9747 B( 44-C , 45-C ) :   1.2457
B( 45-C , 46-C ) :   1.2541 B( 45-C , 56-C ) :   0.1019 B( 45-C , 58-C ) :   1.1536
B( 46-C , 47-C ) :   1.0983 B( 46-C , 51-N ) :   1.4046 B( 47-C , 48-N ) :   1.4733
B( 47-C , 56-C ) :   1.1560 B( 48-N , 49-C ) :   1.5690 B( 49-C , 50-C ) :   1.2639
B( 49-C , 54-C ) :   1.1758 B( 50-C , 51-N ) :   1.6692 B( 50-C , 52-C ) :   1.1720
B( 52-C , 53-N ) :   3.0403 B( 54-C , 55-N ) :   2.9796 B( 56-C , 57-C ) :   1.1258
B( 56-C , 62-C ) :   1.3379 B( 57-C , 58-C ) :   1.1130 B( 57-C , 61-N ) :   1.5751
B( 58-C , 59-N ) :   1.5483 B( 59-N , 60-S ) :   1.2367 B( 59-N , 61-N ) :   0.1381
B( 60-S , 61-N ) :   1.2548 B( 62-C , 63-C ) :   1.3899 B( 62-C , 91-H ) :   0.9537
B( 63-C , 64-C ) :   1.1907 B( 63-C , 67-S ) :   1.0899 B( 64-C , 65-C ) :   1.5380
B( 64-C , 92-H ) :   1.0029 B( 65-C , 66-C ) :   1.2142 B( 65-C , 93-H ) :   0.9923
B( 66-C , 67-S ) :   1.0004 B( 66-C , 68-C ) :   1.4708 B( 68-C , 69-C ) :   1.1655
B( 68-C , 72-S ) :   1.0925 B( 69-C , 70-C ) :   1.6428 B( 69-C , 94-H ) :   0.9930
B( 70-C , 71-C ) :   1.0833 B( 70-C , 95-H ) :   0.9928 B( 71-C , 72-S ) :   1.0080
B( 71-C , 73-C ) :   1.8504 B( 73-C , 96-H ) :   0.9523 B( 73-C , 97-H ) :   0.9400

-----------------------------------------------------------------------------
         ABSORPTION SPECTRUM VIA TRANSITION ELECTRIC DIPOLE MOMENTS
-----------------------------------------------------------------------------
State   Energy  Wavelength   fosc         T2         TX        TY        TZ
        (cm-1)    (nm)                  (au**2)     (au)      (au)      (au)
-----------------------------------------------------------------------------
   0    2432.8   4110.5   0.324776435  43.94933  -1.67362  -5.60160   3.12576
   1    5748.2   1739.7   0.067888877   3.88812   1.59719  -0.61194   0.98114
   2   10019.6    998.0   0.048850271   1.60507  -1.11936   0.20848  -0.55556
   3   13498.5    740.8   0.178425753   4.35159   0.13948   1.89160  -0.86832
   4   15681.6    637.7   0.148686124   3.12145  -1.57738  -0.78408   0.13613
   5   16444.0    608.1   0.405727072   8.12274   1.55803   2.15726  -1.02054
   6   16642.0    600.9   0.524613930  10.37791  -0.51131   2.35360  -2.13940
   7   17716.0    564.5   0.060301365   1.12056   0.14164  -0.87461   0.57928
   8   17911.7    558.3   0.280296769   5.15176  -1.38123  -1.67781   0.65491
   9   19322.7    517.5   0.031918585   0.54382  -0.61455   0.18393  -0.36374
  10   19631.6    509.4   0.001765942   0.02961  -0.16157   0.01303  -0.05780
  11   20438.0    489.3   0.065949574   1.06231   0.84194  -0.43245   0.40795
  12   20987.3    476.5   0.042952286   0.67376   0.75439  -0.18757   0.26358
  13   21764.5    459.5   0.092261096   1.39555  -0.26960  -0.97017   0.61776
  14   22099.5    452.5   0.044437027   0.66197   0.61878   0.46915  -0.24284
  15   22862.8    437.4   0.115584963   1.66436   1.24516  -0.10471   0.32090
  16   23609.8    423.6   0.089324514   1.24553   1.06924  -0.15944   0.27718
  17   24157.9    413.9   0.263971941   3.59728   0.75111   1.55405  -0.78616
  18   24521.4    407.8   0.035356636   0.47468   0.00907  -0.53617   0.43258
  19   24568.9    407.0   0.002706275   0.03626   0.00256   0.13439   0.13489
  20   25807.3    387.5   0.047379970   0.60440   0.53524  -0.42782   0.36727
  21   26049.9    383.9   0.013384791   0.16915  -0.40868   0.00480  -0.04598
  22   26433.9    378.3   0.006212020   0.07737   0.21082  -0.17901  -0.02957
  23   26687.5    374.7   0.011663501   0.14388  -0.13453  -0.26540   0.23525
  24   27691.5    361.1   0.012349799   0.14682   0.31316  -0.18532   0.12003
  25   28177.0    354.9   0.058157906   0.67950  -0.43858   0.54666  -0.43396
  26   28234.2    354.2   0.005284743   0.06162  -0.24717  -0.00794   0.02157
  27   28727.3    348.1   0.016946572   0.19421   0.14308  -0.34406   0.23527
  28   28878.5    346.3   0.022563444   0.25722   0.24548  -0.38935   0.21300
  29   28954.9    345.4   0.054926195   0.62450   0.17621   0.72898  -0.24907
  30   29524.0    338.7   0.037348993   0.41647  -0.42384   0.39921  -0.27831
  31   29612.9    337.7   0.028385896   0.31557   0.55607   0.07264   0.03292
  32   29650.2    337.3   0.008689526   0.09648   0.23241   0.15168  -0.13951
  33   29898.2    334.5   0.006168061   0.06792  -0.24887   0.07448  -0.02081
  34   30026.1    333.0   0.028143293   0.30857   0.04376  -0.47099   0.29125
  35   30371.7    329.3   0.011874938   0.12872  -0.15081   0.27758  -0.17006
  36   30435.3    328.6   0.012063830   0.13049   0.28851  -0.19117   0.10347
  37   30645.8    326.3   0.000999607   0.01074   0.04642  -0.08886   0.02621
  38   30705.2    325.7   0.046889829   0.50274   0.65455  -0.24067   0.12798
  39   30877.7    323.9   0.053890768   0.57457   0.69105  -0.22959   0.21048
  40   31073.2    321.8   0.002226680   0.02359  -0.15070  -0.00313  -0.02948
  41   31602.6    316.4   0.378008142   3.93781  -1.87496   0.32597  -0.56220
  42   31716.6    315.3   0.004693366   0.04872   0.19559  -0.05989   0.08290
  43   31910.1    313.4   0.218241279   2.25157  -1.05330  -1.05769   0.15303
  44   32139.0    311.1   0.221707240   2.27103  -1.49094  -0.02501  -0.21793
  45   32810.0    304.8   0.000858310   0.00861  -0.02278   0.08968   0.00711
  46   32922.1    303.7   0.019289894   0.19289  -0.15871  -0.35345   0.20682
  47   33025.2    302.8   0.058632528   0.58448   0.25255   0.60054  -0.40006
  48   33117.5    302.0   0.193833419   1.92684  -1.34123  -0.27124  -0.23321
  49   33278.6    300.5   0.018490764   0.18292  -0.39792  -0.15540   0.02076
  50   33396.6    299.4   0.243524338   2.40058   1.48710   0.43067   0.06026
  51   33548.9    298.1   0.362730815   3.55944   1.54800  -0.82566   0.69385
  52   33846.8    295.4   0.002476456   0.02409   0.09305   0.09345  -0.08184
  53   34233.5    292.1   0.005310066   0.05107  -0.11269  -0.13703   0.13996
  54   34964.8    286.0   0.075608744   0.71190   0.23986  -0.62351   0.51536
  55   35138.9    284.6   0.074349062   0.69657  -0.49178   0.55618  -0.38129
  56   35400.7    282.5   0.231367031   2.15162  -1.45827  -0.12752  -0.09380
  57   35699.8    280.1   0.005626473   0.05189   0.20216   0.02972   0.10066
  58   35864.1    278.8   0.042767567   0.39258   0.30350  -0.47124   0.28001
  59   36159.8    276.6   0.075492368   0.68731   0.77546  -0.18867   0.22443
  60   36355.9    275.1   0.010502659   0.09510  -0.23092  -0.19766   0.05206
  61   36432.9    274.5   0.015694743   0.14182  -0.19020  -0.30549   0.11101
  62   36480.6    274.1   0.015317638   0.13823   0.00182   0.37100  -0.02424
  63   36909.3    270.9   0.015471140   0.13799   0.33859  -0.07559   0.13281
  64   37041.5    270.0   0.017673483   0.15708  -0.03188  -0.35026   0.18269
  65   37154.6    269.1   0.057372213   0.50835   0.54555   0.44512  -0.11221
  66   37258.6    268.4   0.022545280   0.19921  -0.41557  -0.16077  -0.02564
  67   37333.8    267.9   0.091114700   0.80346   0.87497  -0.07353   0.18023
  68   37459.9    267.0   0.016980653   0.14923  -0.37484   0.00730  -0.09314
  69   37729.2    265.0   0.037483692   0.32707   0.49865   0.27746   0.03785
  70   38039.0    262.9   0.012812986   0.11089   0.25509   0.21405   0.00110
  71   38270.6    261.3   0.041074705   0.35333   0.47067  -0.24436   0.26850
  72   38618.5    258.9   0.034335350   0.29270   0.35218  -0.31560   0.26280
  73   38757.1    258.0   0.071911908   0.61084  -0.72089  -0.30189   0.00417
  74   38799.6    257.7   0.010088342   0.08560  -0.21692   0.16073  -0.11275
  75   38880.1    257.2   0.062505737   0.52926  -0.66600   0.07467  -0.28307
  76   39026.3    256.2   0.011980524   0.10106  -0.25630   0.09187  -0.16411
  77   39070.8    255.9   0.005399358   0.04550   0.19541   0.03477   0.07812
  78   39136.5    255.5   0.037605693   0.31634   0.51526   0.22500  -0.01457
  79   39350.5    254.1   0.070429702   0.58922  -0.05851  -0.37759   0.66575
  80   39727.7    251.7   0.004908172   0.04067  -0.18765   0.02473   0.06962
  81   39799.8    251.3   0.008348990   0.06906  -0.19069  -0.15927   0.08561
  82   39954.2    250.3   0.011278616   0.09293  -0.26993   0.07607  -0.11951
  83   40199.7    248.8   0.006170297   0.05053   0.18714   0.07093  -0.10237
  84   40261.4    248.4   0.008828131   0.07219   0.14514  -0.11121   0.19686

FINAL SINGLE POINT ENERGY     -5943.317814434749

DIPOLE MOMENT
-------------
                                X             Y             Z
Electronic contribution:     23.33020       2.69372      -2.92194
Nuclear contribution   :    -21.92390       0.35487       2.50161
                        -----------------------------------------
Total Dipole Moment    :      1.40629       3.04859      -0.42033
                        -----------------------------------------
Magnitude (a.u.)       :      3.38352
Magnitude (Debye)      :      8.60024

Rotational constants in cm-1:     0.001616     0.000224     0.000197
Rotational constants in MHz :    48.441284     6.700771     5.912068

                             ****ORCA TERMINATED NORMALLY****
TOTAL RUN TIME: 0 days 0 hours 12 minutes 14 seconds 832 msec
