                         Program Version 4.2.0 -  RELEASE  -
|  1> # ORCA input file
|  2> # SCF done       -215.537139551708          0.000945442877
|  3> ! CAM-B3LYP def2-SVP def2/J RIJCOSX Grid4 TightSCF
|  4> %maxcore 5000
|  5> %tddft
|  6>     Mode sTDDFT
|  7>     Ethresh 5.0
|  8>     maxcore 5000
|  9> end
| 10>
| 11> %pal
| 12>   nprocs 6
| 13>   end
| 14> * xyz 0 1
| 15>    C        0.42431         3.49392         3.11872
| 16>    C        1.03962         2.42303         2.52460
| 17>    C        2.39293         2.07722         2.72658
| 18>    N        3.48393         1.74199         2.84761
| 19>    C        0.43700         1.52803         1.61544
| 20>    N        0.02466         0.76531         0.86233
| 21>    C        1.06767         4.44732         4.01555
| 22>    C        0.13375         5.46186         4.34918
| 23>    C        0.44178         6.51271         5.17973
| 24>    C        1.73335         6.56505         5.71158
| 25>    C        2.65941         5.54707         5.37684
| 26>    C        2.34787         4.48589         4.53422
| 27>    S        4.18935         5.81119         6.15001
| 28>    C        3.59074         7.25075         6.89830
| 29>    C        2.30521         7.52857         6.58889
| 30>    C       -1.14157         5.17976         3.68045
| 31>    O       -2.15522         5.85586         3.73366
| 32>    C       -0.95581         3.91781         2.94990
| 33>    C       -1.93827         3.23030         2.28890
| 34>    C       -3.29030         3.55521         2.08087
| 35>    C       -4.16338         2.67377         1.42917
| 36>    C       -5.44301         3.18075         1.32142
| 37>    C       -5.55361         4.47850         1.88220
| 38>    S       -4.09603         5.04744         2.55778
| 39>    C       -6.88951         4.91232         1.73242
| 40>    C       -7.62569         3.89574         1.08219
| 41>    C       -6.74093         2.77681         0.80370
| 42>    C       -7.06730         1.59959         0.19789
| 43>    C       -6.12255         0.57170        -0.00868
| 44>    N       -5.36179        -0.26940        -0.17584
| 45>    C       -8.37577         1.32664        -0.25513
| 46>    N       -9.43702         1.09769        -0.62402
| 47>    C       -8.95932         4.22764         0.90247
| 48>    C       -9.25190         5.49217         1.40504
| 49>    S       -7.84534         6.28043         2.10357
| 50>    C      -10.51760         6.13007         1.41203
| 51>    C      -10.67594         7.43294         1.93835
| 52>    C      -11.95577         8.08924         1.99883
| 53>    N      -12.04208         9.32058         2.51241
| 54>    C      -10.96589         9.92530         2.95460
| 55>    C       -9.69237         9.27252         2.89378
| 56>    N       -9.58975         8.06364         2.39633
| 57>    C       -8.52949         9.92684         3.37070
| 58>    N       -7.60871        10.48197         3.76541
| 59>    C      -11.07866        11.23051         3.49431
| 60>    N      -11.14052        12.28504         3.93647
| 61>    C      -13.14503         7.47497         1.54409
| 62>    C      -12.98710         6.18201         0.99053
| 63>    C      -11.70040         5.52521         0.92288
| 64>    N      -11.80053         4.31725         0.36711
| 65>    S      -13.32588         4.03220        -0.03015
| 66>    N      -13.95180         5.41572         0.48046
| 67>    C      -14.39721         8.12656         1.67011
| 68>    C      -15.64196         7.61809         1.31075
| 69>    C      -16.66737         8.50156         1.60873
| 70>    C      -16.20405         9.70239         2.19261
| 71>    S      -14.50414         9.73188         2.37528
| 72>    C      -17.32209        10.51953         2.47303
| 73>    C      -18.49323         9.83468         2.07811
| 74>    C      -18.11683         8.55273         1.50906
| 75>    C      -18.95319         7.61452         0.97927
| 76>    C      -18.48003         6.39693         0.44620
| 77>    N      -18.09908         5.40266         0.02108
| 78>    C      -20.34963         7.81434         0.94449
| 79>    N      -21.48275         7.98976         0.93259
| 80>    C      -19.65123        10.55928         2.31706
| 81>    C      -19.38615        11.80096         2.88100
| 82>    S      -17.66337        12.04601         3.14313
| 83>    C      -20.29211        12.79784         3.30442
| 84>    C      -21.60869        12.95241         2.99610
| 85>    C      -22.47659        12.38260         1.98636
| 86>    C      -22.11703        11.98591         0.72401
| 87>    C      -23.03905        11.57865        -0.26334
| 88>    N      -23.74815        11.25097        -1.10364
| 89>    C      -20.79804        12.03332         0.23375
| 90>    N      -19.73915        12.07431        -0.20891
| 91>    C      -23.84861        12.56370         2.44722
| 92>    C      -23.84297        13.43501         3.56789
| 93>    C      -22.45391        13.79065         3.89952
| 94>    O      -22.05561        14.55243         4.74983
| 95>    C      -24.99811        13.82181         4.20437
| 96>    C      -26.20942        13.31621         3.72289
| 97>    C      -26.20150        12.43313         2.61518
| 98>    C      -25.03498        12.04859         1.96381
| 99>    S      -27.80786        11.92306         2.20688
|100>    C      -28.46430        12.87894         3.48999
|101>    C      -27.53035        13.55078         4.19818
|102>    H       -0.29242         7.26863         5.41135
|103>    H        3.08878         3.73597         4.31352
|104>    H        4.24945         7.80927         7.53455
|105>    H        1.76664         8.38122         6.96085
|106>    H       -1.66581         2.27278         1.86128
|107>    H       -3.84193         1.71315         1.06678
|108>    H       -9.70886         3.61225         0.43997
|109>    H      -15.75241         6.64736         0.86334
|110>    H      -20.64687        10.19588         2.14000
|111>    H      -19.91385        13.50445         4.03751
|112>    H      -24.96704        14.49243         5.04897
|113>    H      -25.07374        11.36597         1.13092
|114>    H      -29.52677        12.87806         3.63783
|115>    H      -27.75230        14.19313         5.03101
|116> *
|117>
|118>                          ****END OF INPUT****

CARTESIAN COORDINATES (ANGSTROEM)
---------------------------------
  C      0.424310    3.493920    3.118720
  C      1.039620    2.423030    2.524600
  C      2.392930    2.077220    2.726580
  N      3.483930    1.741990    2.847610
  C      0.437000    1.528030    1.615440
  N      0.024660    0.765310    0.862330
  C      1.067670    4.447320    4.015550
  C      0.133750    5.461860    4.349180
  C      0.441780    6.512710    5.179730
  C      1.733350    6.565050    5.711580
  C      2.659410    5.547070    5.376840
  C      2.347870    4.485890    4.534220
  S      4.189350    5.811190    6.150010
  C      3.590740    7.250750    6.898300
  C      2.305210    7.528570    6.588890
  C     -1.141570    5.179760    3.680450
  O     -2.155220    5.855860    3.733660
  C     -0.955810    3.917810    2.949900
  C     -1.938270    3.230300    2.288900
  C     -3.290300    3.555210    2.080870
  C     -4.163380    2.673770    1.429170
  C     -5.443010    3.180750    1.321420
  C     -5.553610    4.478500    1.882200
  S     -4.096030    5.047440    2.557780
  C     -6.889510    4.912320    1.732420
  C     -7.625690    3.895740    1.082190
  C     -6.740930    2.776810    0.803700
  C     -7.067300    1.599590    0.197890
  C     -6.122550    0.571700   -0.008680
  N     -5.361790   -0.269400   -0.175840
  C     -8.375770    1.326640   -0.255130
  N     -9.437020    1.097690   -0.624020
  C     -8.959320    4.227640    0.902470
  C     -9.251900    5.492170    1.405040
  S     -7.845340    6.280430    2.103570
  C    -10.517600    6.130070    1.412030
  C    -10.675940    7.432940    1.938350
  C    -11.955770    8.089240    1.998830
  N    -12.042080    9.320580    2.512410
  C    -10.965890    9.925300    2.954600
  C     -9.692370    9.272520    2.893780
  N     -9.589750    8.063640    2.396330
  C     -8.529490    9.926840    3.370700
  N     -7.608710   10.481970    3.765410
  C    -11.078660   11.230510    3.494310
  N    -11.140520   12.285040    3.936470
  C    -13.145030    7.474970    1.544090
  C    -12.987100    6.182010    0.990530
  C    -11.700400    5.525210    0.922880
  N    -11.800530    4.317250    0.367110
  S    -13.325880    4.032200   -0.030150
  N    -13.951800    5.415720    0.480460
  C    -14.397210    8.126560    1.670110
  C    -15.641960    7.618090    1.310750
  C    -16.667370    8.501560    1.608730
  C    -16.204050    9.702390    2.192610
  S    -14.504140    9.731880    2.375280
  C    -17.322090   10.519530    2.473030
  C    -18.493230    9.834680    2.078110
  C    -18.116830    8.552730    1.509060
  C    -18.953190    7.614520    0.979270
  C    -18.480030    6.396930    0.446200
  N    -18.099080    5.402660    0.021080
  C    -20.349630    7.814340    0.944490
  N    -21.482750    7.989760    0.932590
  C    -19.651230   10.559280    2.317060
  C    -19.386150   11.800960    2.881000
  S    -17.663370   12.046010    3.143130
  C    -20.292110   12.797840    3.304420
  C    -21.608690   12.952410    2.996100
  C    -22.476590   12.382600    1.986360
  C    -22.117030   11.985910    0.724010
  C    -23.039050   11.578650   -0.263340
  N    -23.748150   11.250970   -1.103640
  C    -20.798040   12.033320    0.233750
  N    -19.739150   12.074310   -0.208910
  C    -23.848610   12.563700    2.447220
  C    -23.842970   13.435010    3.567890
  C    -22.453910   13.790650    3.899520
  O    -22.055610   14.552430    4.749830
  C    -24.998110   13.821810    4.204370
  C    -26.209420   13.316210    3.722890
  C    -26.201500   12.433130    2.615180
  C    -25.034980   12.048590    1.963810
  S    -27.807860   11.923060    2.206880
  C    -28.464300   12.878940    3.489990
  C    -27.530350   13.550780    4.198180
  H     -0.292420    7.268630    5.411350
  H      3.088780    3.735970    4.313520
  H      4.249450    7.809270    7.534550
  H      1.766640    8.381220    6.960850
  H     -1.665810    2.272780    1.861280
  H     -3.841930    1.713150    1.066780
  H     -9.708860    3.612250    0.439970
  H    -15.752410    6.647360    0.863340
  H    -20.646870   10.195880    2.140000
  H    -19.913850   13.504450    4.037510
  H    -24.967040   14.492430    5.048970
  H    -25.073740   11.365970    1.130920
  H    -29.526770   12.878060    3.637830
  H    -27.752300   14.193130    5.031010

 Total Charge           Charge          ....    0
 Multiplicity           Mult            ....    1
 Number of Electrons    NEL             ....  624
 Basis Dimension        Dim             .... 1316

ORBITAL ENERGIES
----------------

  NO   OCC          E(Eh)            E(eV)
   0   2.0000     -89.062946     -2423.5260
   1   2.0000     -89.000253     -2421.8200
   2   2.0000     -88.995923     -2421.7022
   3   2.0000     -88.994437     -2421.6618
   4   2.0000     -88.993563     -2421.6380
   5   2.0000     -88.970345     -2421.0062
   6   2.0000     -88.968598     -2420.9586
   7   2.0000     -19.228961      -523.2466
   8   2.0000     -19.218365      -522.9583
   9   2.0000     -14.487797      -394.2330
  10   2.0000     -14.487339      -394.2205
  11   2.0000     -14.470777      -393.7699
  12   2.0000     -14.470437      -393.7606
  13   2.0000     -14.448153      -393.1542
  14   2.0000     -14.447925      -393.1480
  15   2.0000     -14.436405      -392.8346
  16   2.0000     -14.435488      -392.8096
  17   2.0000     -14.433650      -392.7596
  18   2.0000     -14.432322      -392.7234
  19   2.0000     -14.420731      -392.4080
  20   2.0000     -14.419842      -392.3838
  21   2.0000     -14.417299      -392.3146
  22   2.0000     -14.416101      -392.2820
  23   2.0000     -10.405261      -283.1415
  24   2.0000     -10.404992      -283.1342
  25   2.0000     -10.376414      -282.3566
  26   2.0000     -10.371056      -282.2108
  27   2.0000     -10.369559      -282.1700
  28   2.0000     -10.368609      -282.1442
  29   2.0000     -10.368317      -282.1362
  30   2.0000     -10.368294      -282.1356
  31   2.0000     -10.363382      -282.0020
  32   2.0000     -10.363132      -281.9951
  33   2.0000     -10.358407      -281.8666
  34   2.0000     -10.356558      -281.8163
  35   2.0000     -10.347152      -281.5603
  36   2.0000     -10.346190      -281.5341
  37   2.0000     -10.346076      -281.5310
  38   2.0000     -10.346054      -281.5304
  39   2.0000     -10.345448      -281.5139
  40   2.0000     -10.341216      -281.3988
  41   2.0000     -10.341177      -281.3977
  42   2.0000     -10.340891      -281.3899
  43   2.0000     -10.340231      -281.3720
  44   2.0000     -10.337277      -281.2916
  45   2.0000     -10.337151      -281.2882
  46   2.0000     -10.336651      -281.2746
  47   2.0000     -10.336630      -281.2740
  48   2.0000     -10.336134      -281.2605
  49   2.0000     -10.335599      -281.2459
  50   2.0000     -10.334014      -281.2028
  51   2.0000     -10.333946      -281.2010
  52   2.0000     -10.333791      -281.1968
  53   2.0000     -10.332112      -281.1510
  54   2.0000     -10.332079      -281.1502
  55   2.0000     -10.330569      -281.1091
  56   2.0000     -10.327752      -281.0324
  57   2.0000     -10.324583      -280.9462
  58   2.0000     -10.323021      -280.9037
  59   2.0000     -10.322209      -280.8816
  60   2.0000     -10.321834      -280.8714
  61   2.0000     -10.320143      -280.8254
  62   2.0000     -10.318357      -280.7768
  63   2.0000     -10.317689      -280.7586
  64   2.0000     -10.316574      -280.7283
  65   2.0000     -10.316274      -280.7201
  66   2.0000     -10.315719      -280.7050
  67   2.0000     -10.314058      -280.6598
  68   2.0000     -10.311561      -280.5918
  69   2.0000     -10.310959      -280.5755
  70   2.0000     -10.310781      -280.5706
  71   2.0000     -10.310548      -280.5643
  72   2.0000     -10.309608      -280.5387
  73   2.0000     -10.309146      -280.5261
  74   2.0000     -10.307612      -280.4844
  75   2.0000     -10.307211      -280.4735
  76   2.0000     -10.305816      -280.4355
  77   2.0000     -10.305567      -280.4287
  78   2.0000     -10.304931      -280.4114
  79   2.0000     -10.304642      -280.4036
  80   2.0000     -10.304166      -280.3906
  81   2.0000     -10.303754      -280.3794
  82   2.0000     -10.301942      -280.3301
  83   2.0000     -10.295513      -280.1552
  84   2.0000     -10.293862      -280.1102
  85   2.0000     -10.292604      -280.0760
  86   2.0000     -10.290731      -280.0250
  87   2.0000      -8.153764      -221.8752
  88   2.0000      -8.094914      -220.2738
  89   2.0000      -8.088516      -220.0997
  90   2.0000      -8.087060      -220.0601
  91   2.0000      -8.085752      -220.0245
  92   2.0000      -8.066637      -219.5043
  93   2.0000      -8.064804      -219.4545
  94   2.0000      -6.124795      -166.6641
  95   2.0000      -6.116892      -166.4491
  96   2.0000      -6.116794      -166.4464
  97   2.0000      -6.064045      -165.0110
  98   2.0000      -6.059856      -164.8971
  99   2.0000      -6.058083      -164.8488
 100   2.0000      -6.057488      -164.8326
 101   2.0000      -6.056576      -164.8078
 102   2.0000      -6.055132      -164.7685
 103   2.0000      -6.053250      -164.7173
 104   2.0000      -6.051790      -164.6776
 105   2.0000      -6.050953      -164.6548
 106   2.0000      -6.050392      -164.6395
 107   2.0000      -6.049541      -164.6164
 108   2.0000      -6.048394      -164.5852
 109   2.0000      -6.036145      -164.2519
 110   2.0000      -6.034309      -164.2019
 111   2.0000      -6.031819      -164.1341
 112   2.0000      -6.030006      -164.0848
 113   2.0000      -6.028321      -164.0389
 114   2.0000      -6.026507      -163.9896
 115   2.0000      -1.160572       -31.5808
 116   2.0000      -1.146544       -31.1990
 117   2.0000      -1.144521       -31.1440
 118   2.0000      -1.133975       -30.8570
 119   2.0000      -1.075412       -29.2634
 120   2.0000      -1.053348       -28.6630
 121   2.0000      -1.049558       -28.5599
 122   2.0000      -1.033501       -28.1230
 123   2.0000      -1.027977       -27.9727
 124   2.0000      -1.025279       -27.8992
 125   2.0000      -1.024383       -27.8749
 126   2.0000      -1.024001       -27.8645
 127   2.0000      -1.022764       -27.8308
 128   2.0000      -1.016676       -27.6652
 129   2.0000      -1.013605       -27.5816
 130   2.0000      -1.012279       -27.5455
 131   2.0000      -1.011872       -27.5344
 132   2.0000      -1.010580       -27.4993
 133   2.0000      -1.009853       -27.4795
 134   2.0000      -1.001810       -27.2606
 135   2.0000      -0.997174       -27.1345
 136   2.0000      -0.996314       -27.1111
 137   2.0000      -0.992537       -27.0083
 138   2.0000      -0.989099       -26.9147
 139   2.0000      -0.987296       -26.8657
 140   2.0000      -0.967057       -26.3149
 141   2.0000      -0.962129       -26.1809
 142   2.0000      -0.936714       -25.4893
 143   2.0000      -0.935976       -25.4692
 144   2.0000      -0.929885       -25.3035
 145   2.0000      -0.929247       -25.2861
 146   2.0000      -0.921557       -25.0768
 147   2.0000      -0.911036       -24.7905
 148   2.0000      -0.902431       -24.5564
 149   2.0000      -0.895723       -24.3739
 150   2.0000      -0.885462       -24.0946
 151   2.0000      -0.883846       -24.0507
 152   2.0000      -0.880750       -23.9664
 153   2.0000      -0.879576       -23.9345
 154   2.0000      -0.870662       -23.6919
 155   2.0000      -0.864164       -23.5151
 156   2.0000      -0.863575       -23.4991
 157   2.0000      -0.861288       -23.4368
 158   2.0000      -0.854642       -23.2560
 159   2.0000      -0.827922       -22.5289
 160   2.0000      -0.827385       -22.5143
 161   2.0000      -0.825595       -22.4656
 162   2.0000      -0.824066       -22.4240
 163   2.0000      -0.806083       -21.9346
 164   2.0000      -0.798325       -21.7235
 165   2.0000      -0.784905       -21.3583
 166   2.0000      -0.782309       -21.2877
 167   2.0000      -0.771268       -20.9873
 168   2.0000      -0.764603       -20.8059
 169   2.0000      -0.760952       -20.7066
 170   2.0000      -0.757138       -20.6028
 171   2.0000      -0.745882       -20.2965
 172   2.0000      -0.730015       -19.8647
 173   2.0000      -0.725746       -19.7486
 174   2.0000      -0.723696       -19.6928
 175   2.0000      -0.710872       -19.3438
 176   2.0000      -0.707082       -19.2407
 177   2.0000      -0.703889       -19.1538
 178   2.0000      -0.696862       -18.9626
 179   2.0000      -0.695351       -18.9215
 180   2.0000      -0.692061       -18.8319
 181   2.0000      -0.689510       -18.7625
 182   2.0000      -0.688602       -18.7378
 183   2.0000      -0.682827       -18.5807
 184   2.0000      -0.677119       -18.4254
 185   2.0000      -0.672575       -18.3017
 186   2.0000      -0.665898       -18.1200
 187   2.0000      -0.664526       -18.0827
 188   2.0000      -0.656503       -17.8644
 189   2.0000      -0.651780       -17.7358
 190   2.0000      -0.645930       -17.5766
 191   2.0000      -0.642464       -17.4823
 192   2.0000      -0.639493       -17.4015
 193   2.0000      -0.635940       -17.3048
 194   2.0000      -0.627509       -17.0754
 195   2.0000      -0.624165       -16.9844
 196   2.0000      -0.622714       -16.9449
 197   2.0000      -0.620376       -16.8813
 198   2.0000      -0.617505       -16.8032
 199   2.0000      -0.610610       -16.6155
 200   2.0000      -0.603104       -16.4113
 201   2.0000      -0.601382       -16.3644
 202   2.0000      -0.599756       -16.3202
 203   2.0000      -0.595353       -16.2004
 204   2.0000      -0.587954       -15.9990
 205   2.0000      -0.578942       -15.7538
 206   2.0000      -0.576502       -15.6874
 207   2.0000      -0.570979       -15.5371
 208   2.0000      -0.565708       -15.3937
 209   2.0000      -0.563342       -15.3293
 210   2.0000      -0.555762       -15.1231
 211   2.0000      -0.554442       -15.0871
 212   2.0000      -0.553453       -15.0602
 213   2.0000      -0.550784       -14.9876
 214   2.0000      -0.545975       -14.8567
 215   2.0000      -0.545405       -14.8412
 216   2.0000      -0.543601       -14.7921
 217   2.0000      -0.541175       -14.7261
 218   2.0000      -0.540771       -14.7151
 219   2.0000      -0.536423       -14.5968
 220   2.0000      -0.531424       -14.4608
 221   2.0000      -0.529495       -14.4083
 222   2.0000      -0.523498       -14.2451
 223   2.0000      -0.521765       -14.1980
 224   2.0000      -0.519341       -14.1320
 225   2.0000      -0.518132       -14.0991
 226   2.0000      -0.513534       -13.9740
 227   2.0000      -0.512306       -13.9405
 228   2.0000      -0.511219       -13.9110
 229   2.0000      -0.509329       -13.8596
 230   2.0000      -0.507851       -13.8193
 231   2.0000      -0.504185       -13.7196
 232   2.0000      -0.502184       -13.6651
 233   2.0000      -0.500893       -13.6300
 234   2.0000      -0.500034       -13.6066
 235   2.0000      -0.499683       -13.5971
 236   2.0000      -0.499163       -13.5829
 237   2.0000      -0.497164       -13.5285
 238   2.0000      -0.495569       -13.4851
 239   2.0000      -0.494423       -13.4539
 240   2.0000      -0.490571       -13.3491
 241   2.0000      -0.488422       -13.2906
 242   2.0000      -0.486973       -13.2512
 243   2.0000      -0.485099       -13.2002
 244   2.0000      -0.482210       -13.1216
 245   2.0000      -0.478559       -13.0223
 246   2.0000      -0.476252       -12.9595
 247   2.0000      -0.474891       -12.9225
 248   2.0000      -0.470721       -12.8090
 249   2.0000      -0.470563       -12.8047
 250   2.0000      -0.467618       -12.7245
 251   2.0000      -0.466642       -12.6980
 252   2.0000      -0.464082       -12.6283
 253   2.0000      -0.463587       -12.6148
 254   2.0000      -0.462468       -12.5844
 255   2.0000      -0.461350       -12.5540
 256   2.0000      -0.459275       -12.4975
 257   2.0000      -0.457931       -12.4609
 258   2.0000      -0.455825       -12.4036
 259   2.0000      -0.454355       -12.3636
 260   2.0000      -0.452417       -12.3109
 261   2.0000      -0.451354       -12.2820
 262   2.0000      -0.446056       -12.1378
 263   2.0000      -0.445975       -12.1356
 264   2.0000      -0.445357       -12.1188
 265   2.0000      -0.445145       -12.1130
 266   2.0000      -0.444392       -12.0925
 267   2.0000      -0.443105       -12.0575
 268   2.0000      -0.442977       -12.0540
 269   2.0000      -0.442290       -12.0353
 270   2.0000      -0.441437       -12.0121
 271   2.0000      -0.439513       -11.9598
 272   2.0000      -0.437031       -11.8922
 273   2.0000      -0.436365       -11.8741
 274   2.0000      -0.434659       -11.8277
 275   2.0000      -0.434533       -11.8242
 276   2.0000      -0.433441       -11.7945
 277   2.0000      -0.430632       -11.7181
 278   2.0000      -0.430443       -11.7129
 279   2.0000      -0.429043       -11.6749
 280   2.0000      -0.427907       -11.6440
 281   2.0000      -0.425810       -11.5869
 282   2.0000      -0.423779       -11.5316
 283   2.0000      -0.421427       -11.4676
 284   2.0000      -0.420507       -11.4426
 285   2.0000      -0.413263       -11.2455
 286   2.0000      -0.410326       -11.1655
 287   2.0000      -0.407863       -11.0985
 288   2.0000      -0.406358       -11.0576
 289   2.0000      -0.404209       -10.9991
 290   2.0000      -0.395630       -10.7656
 291   2.0000      -0.390849       -10.6356
 292   2.0000      -0.385797       -10.4981
 293   2.0000      -0.379427       -10.3247
 294   2.0000      -0.374023       -10.1777
 295   2.0000      -0.370199       -10.0736
 296   2.0000      -0.368482       -10.0269
 297   2.0000      -0.360837        -9.8189
 298   2.0000      -0.354532        -9.6473
 299   2.0000      -0.353060        -9.6073
 300   2.0000      -0.346273        -9.4226
 301   2.0000      -0.344272        -9.3681
 302   2.0000      -0.338266        -9.2047
 303   2.0000      -0.328832        -8.9480
 304   2.0000      -0.326513        -8.8849
 305   2.0000      -0.318452        -8.6655
 306   2.0000      -0.316217        -8.6047
 307   2.0000      -0.312699        -8.5090
 308   2.0000      -0.298845        -8.1320
 309   2.0000      -0.297205        -8.0873
 310   2.0000      -0.282135        -7.6773
 311   2.0000      -0.250537        -6.8175
 312   0.0000      -0.149709        -4.0738
 313   0.0000      -0.113245        -3.0816
 314   0.0000      -0.107528        -2.9260
 315   0.0000      -0.090543        -2.4638
 316   0.0000      -0.089963        -2.4480

MULLIKEN ATOMIC CHARGES
-----------------------
   0 C :    0.321700
   1 C :   -0.345524
   2 C :   -0.186758
   3 N :    0.155196
   4 C :   -0.196151
   5 N :    0.154631
   6 C :    0.012104
   7 C :   -0.014545
   8 C :   -0.067072
   9 C :    0.113674
  10 C :   -0.095392
  11 C :   -0.022232
  12 S :    0.145226
  13 C :   -0.048689
  14 C :    0.025946
  15 C :    0.168418
  16 O :   -0.190167
  17 C :   -0.086288
  18 C :   -0.034141
  19 C :   -0.051675
  20 C :   -0.061997
  21 C :    0.048382
  22 C :   -0.078008
  23 S :    0.251364
  24 C :   -0.065308
  25 C :    0.043817
  26 C :    0.310304
  27 C :   -0.303548
  28 C :   -0.194966
  29 N :    0.185056
  30 C :   -0.187111
  31 N :    0.175093
  32 C :   -0.065808
  33 C :   -0.173552
  34 S :    0.212687
  35 C :    0.188297
  36 C :   -0.060776
  37 C :   -0.056549
  38 N :   -0.003672
  39 C :   -0.101159
  40 C :   -0.099134
  41 N :   -0.000040
  42 C :   -0.243434
  43 N :    0.259461
  44 C :   -0.243475
  45 N :    0.258808
  46 C :    0.187797
  47 C :   -0.012164
  48 C :   -0.009138
  49 N :   -0.282003
  50 S :    0.594299
  51 N :   -0.281829
  52 C :   -0.174461
  53 C :   -0.059367
  54 C :    0.041930
  55 C :   -0.064519
  56 S :    0.211450
  57 C :   -0.079428
  58 C :   -0.000004
  59 C :    0.310610
  60 C :   -0.290919
  61 C :   -0.184526
  62 N :    0.177290
  63 C :   -0.186871
  64 N :    0.168843
  65 C :   -0.006108
  66 C :   -0.105886
  67 S :    0.223970
  68 C :    0.078957
  69 C :   -0.129646
  70 C :    0.262921
  71 C :   -0.328469
  72 C :   -0.170932
  73 N :    0.161505
  74 C :   -0.200451
  75 N :    0.165147
  76 C :   -0.001444
  77 C :    0.003797
  78 C :    0.130492
  79 O :   -0.144059
  80 C :   -0.065703
  81 C :    0.106608
  82 C :   -0.092441
  83 C :   -0.018525
  84 S :    0.144182
  85 C :   -0.051349
  86 C :    0.027933
  87 H :   -0.009887
  88 H :   -0.005193
  89 H :    0.040974
  90 H :   -0.005096
  91 H :    0.019211
  92 H :    0.027279
  93 H :    0.023746
  94 H :    0.022660
  95 H :    0.024920
  96 H :    0.022931
  97 H :   -0.009367
  98 H :    0.002561
  99 H :    0.040505
 100 H :   -0.005727
Sum of atomic charges:   -0.0000000

LOEWDIN ATOMIC CHARGES
----------------------
   0 C :    0.076055
   1 C :   -0.138967
   2 C :   -0.018287
   3 N :   -0.050705
   4 C :   -0.023632
   5 N :   -0.046593
   6 C :   -0.021402
   7 C :   -0.054623
   8 C :    0.025198
   9 C :   -0.034987
  10 C :   -0.144723
  11 C :   -0.007493
  12 S :    0.433723
  13 C :   -0.148144
  14 C :   -0.057049
  15 C :    0.086748
  16 O :   -0.173486
  17 C :   -0.104744
  18 C :    0.053236
  19 C :   -0.179395
  20 C :    0.008957
  21 C :   -0.071510
  22 C :   -0.171350
  23 S :    0.553855
  24 C :   -0.179294
  25 C :   -0.063575
  26 C :    0.077355
  27 C :   -0.101181
  28 C :   -0.020421
  29 N :   -0.024741
  30 C :   -0.016149
  31 N :   -0.032701
  32 C :   -0.008139
  33 C :   -0.161279
  34 S :    0.514778
  35 C :   -0.037979
  36 C :   -0.013485
  37 C :   -0.014402
  38 N :   -0.016196
  39 C :   -0.020219
  40 C :   -0.019283
  41 N :   -0.015901
  42 C :   -0.039875
  43 N :    0.005923
  44 C :   -0.040167
  45 N :    0.005158
  46 C :   -0.035198
  47 C :   -0.036735
  48 C :   -0.035783
  49 N :   -0.269748
  50 S :    0.712460
  51 N :   -0.269895
  52 C :   -0.163885
  53 C :   -0.004102
  54 C :   -0.065739
  55 C :   -0.175901
  56 S :    0.514666
  57 C :   -0.164023
  58 C :   -0.058450
  59 C :    0.081124
  60 C :   -0.097632
  61 C :   -0.016495
  62 N :   -0.029579
  63 C :   -0.013316
  64 N :   -0.031818
  65 C :    0.006968
  66 C :   -0.174385
  67 S :    0.506119
  68 C :    0.037605
  69 C :   -0.084661
  70 C :    0.065061
  71 C :   -0.136137
  72 C :   -0.019307
  73 N :   -0.044080
  74 C :   -0.015988
  75 N :   -0.046276
  76 C :   -0.019326
  77 C :   -0.056474
  78 C :    0.083857
  79 O :   -0.143022
  80 C :    0.024905
  81 C :   -0.035542
  82 C :   -0.143960
  83 C :   -0.008162
  84 S :    0.433305
  85 C :   -0.148992
  86 C :   -0.057463
  87 H :    0.041223
  88 H :    0.041355
  89 H :    0.030212
  90 H :    0.035968
  91 H :    0.053769
  92 H :    0.047922
  93 H :    0.038948
  94 H :    0.039329
  95 H :    0.042656
  96 H :    0.046397
  97 H :    0.041166
  98 H :    0.042556
  99 H :    0.029978
 100 H :    0.035621

  Mayer bond orders larger than 0.100000
B(  0-C ,  1-C ) :   1.6315 B(  0-C ,  6-C ) :   1.0008 B(  0-C , 17-C ) :   1.0697
B(  1-C ,  2-C ) :   1.1435 B(  1-C ,  4-C ) :   1.1421 B(  2-C ,  3-N ) :   2.9705
B(  4-C ,  5-N ) :   2.9669 B(  6-C ,  7-C ) :   1.2661 B(  6-C , 11-C ) :   1.4173
B(  7-C ,  8-C ) :   1.4210 B(  7-C , 15-C ) :   0.9681 B(  8-C ,  9-C ) :   1.2450
B(  8-C , 87-H ) :   1.0168 B(  9-C , 10-C ) :   1.3006 B(  9-C , 14-C ) :   1.1720
B( 10-C , 11-C ) :   1.3203 B( 10-C , 12-S ) :   1.1024 B( 11-C , 88-H ) :   0.9813
B( 12-S , 13-C ) :   1.1274 B( 13-C , 14-C ) :   1.6278 B( 13-C , 89-H ) :   0.9686
B( 14-C , 90-H ) :   0.9998 B( 15-C , 16-O ) :   2.1075 B( 15-C , 17-C ) :   0.9783
B( 17-C , 18-C ) :   1.5099 B( 18-C , 19-C ) :   1.2547 B( 18-C , 91-H ) :   0.9411
B( 19-C , 20-C ) :   1.3292 B( 19-C , 23-S ) :   1.0798 B( 20-C , 21-C ) :   1.3331
B( 20-C , 92-H ) :   1.0082 B( 21-C , 22-C ) :   1.3489 B( 21-C , 26-C ) :   0.9829
B( 22-C , 23-S ) :   1.1195 B( 22-C , 24-C ) :   1.2162 B( 24-C , 25-C ) :   1.3904
B( 24-C , 34-S ) :   1.0871 B( 25-C , 26-C ) :   0.9910 B( 25-C , 32-C ) :   1.2841
B( 26-C , 27-C ) :   1.7162 B( 27-C , 28-C ) :   1.1334 B( 27-C , 30-C ) :   1.1401
B( 28-C , 29-N ) :   2.9963 B( 30-C , 31-N ) :   2.9853 B( 32-C , 33-C ) :   1.4024
B( 32-C , 93-H ) :   0.9820 B( 33-C , 34-S ) :   1.0919 B( 33-C , 35-C ) :   1.2128
B( 35-C , 36-C ) :   1.2495 B( 35-C , 46-C ) :   0.1227 B( 35-C , 48-C ) :   1.1955
B( 36-C , 37-C ) :   1.1091 B( 36-C , 41-N ) :   1.4066 B( 37-C , 38-N ) :   1.4046
B( 37-C , 46-C ) :   1.2489 B( 38-N , 39-C ) :   1.6931 B( 39-C , 40-C ) :   1.2209
B( 39-C , 44-C ) :   1.1673 B( 40-C , 41-N ) :   1.6951 B( 40-C , 42-C ) :   1.1681
B( 42-C , 43-N ) :   3.0399 B( 44-C , 45-N ) :   3.0401 B( 46-C , 47-C ) :   1.1939
B( 46-C , 52-C ) :   1.2176 B( 47-C , 48-C ) :   1.0993 B( 47-C , 51-N ) :   1.5178
B( 48-C , 49-N ) :   1.5163 B( 49-N , 50-S ) :   1.2877 B( 49-N , 51-N ) :   0.1459
B( 50-S , 51-N ) :   1.2874 B( 52-C , 53-C ) :   1.4015 B( 52-C , 56-S ) :   1.0883
B( 53-C , 54-C ) :   1.2890 B( 53-C , 94-H ) :   0.9816 B( 54-C , 55-C ) :   1.3946
B( 54-C , 59-C ) :   0.9879 B( 55-C , 56-S ) :   1.0875 B( 55-C , 57-C ) :   1.2110
B( 57-C , 58-C ) :   1.3976 B( 57-C , 67-S ) :   1.1489 B( 58-C , 59-C ) :   0.9953
B( 58-C , 65-C ) :   1.3606 B( 59-C , 60-C ) :   1.7173 B( 60-C , 61-C ) :   1.1372
B( 60-C , 63-C ) :   1.1325 B( 61-C , 62-N ) :   2.9873 B( 63-C , 64-N ) :   2.9831
B( 65-C , 66-C ) :   1.3910 B( 65-C , 95-H ) :   0.9794 B( 66-C , 67-S ) :   1.0977
B( 66-C , 68-C ) :   1.1315 B( 68-C , 69-C ) :   1.6814 B( 68-C , 96-H ) :   0.9273
B( 69-C , 70-C ) :   1.0325 B( 69-C , 78-C ) :   0.9374 B( 70-C , 71-C ) :   1.6502
B( 70-C , 76-C ) :   1.0115 B( 71-C , 72-C ) :   1.1252 B( 71-C , 74-C ) :   1.1712
B( 72-C , 73-N ) :   2.9946 B( 74-C , 75-N ) :   2.9938 B( 76-C , 77-C ) :   1.2684
B( 76-C , 83-C ) :   1.4188 B( 77-C , 78-C ) :   0.9274 B( 77-C , 80-C ) :   1.4257
B( 78-C , 79-O ) :   2.2623 B( 80-C , 81-C ) :   1.2530 B( 80-C , 97-H ) :   1.0164
B( 81-C , 82-C ) :   1.3006 B( 81-C , 86-C ) :   1.1745 B( 82-C , 83-C ) :   1.3203
B( 82-C , 84-S ) :   1.1000 B( 83-C , 98-H ) :   0.9867 B( 84-S , 85-C ) :   1.1278
B( 85-C , 86-C ) :   1.6267 B( 85-C , 99-H ) :   0.9687 B( 86-C ,100-H ) :   0.9998

-----------------------------------------------------------------------------
         ABSORPTION SPECTRUM VIA TRANSITION ELECTRIC DIPOLE MOMENTS
-----------------------------------------------------------------------------
State   Energy  Wavelength   fosc         T2         TX        TY        TZ
        (cm-1)    (nm)                  (au**2)     (au)      (au)      (au)
-----------------------------------------------------------------------------
   0    7161.1   1396.4   0.764118564  35.12812  -5.44749   2.33505  -0.02261
   1   13638.4    733.2   0.008867283   0.21404  -0.29113   0.30108   0.19656
   2   14573.5    686.2   0.087849694   1.98451   1.34227  -0.35933   0.23176
   3   15806.9    632.6   0.002770945   0.05771  -0.08406   0.12243   0.18883
   4   20288.7    492.9   1.088180500  17.65723  -3.90130   1.52040  -0.35418
   5   20967.2    476.9   0.602943185   9.46698   2.96584  -0.63207   0.52086
   6   21393.7    467.4   0.044253674   0.68099   0.74264  -0.34556   0.10033
   7   22974.3    435.3   0.021846114   0.31305   0.41971  -0.13195  -0.34566
   8   23099.8    432.9   0.008819760   0.12570  -0.01205   0.26269   0.23779
   9   23332.3    428.6   0.001392358   0.01965   0.04268   0.02403  -0.13133
  10   23401.3    427.3   0.116815884   1.64338   1.08541   0.63180   0.25706
  11   23568.3    424.3   0.067521128   0.94316  -0.85855  -0.32076  -0.32120
  12   24474.3    408.6   0.021847296   0.29388  -0.15683  -0.39701  -0.33417
  13   24798.1    403.3   0.008161245   0.10835   0.11768   0.21465   0.22005
  14   24892.5    401.7   0.003920223   0.05185   0.05580   0.14080   0.17002
  15   25054.5    399.1   0.001489851   0.01958   0.03763  -0.01025   0.13437
  16   26471.9    377.8   0.003540931   0.04404  -0.04323   0.06579   0.19452
  17   26693.6    374.6   0.048508131   0.59825  -0.70307  -0.16227  -0.27859
  18   26980.2    370.6   0.033393199   0.40746   0.62831  -0.05334   0.09922
  19   27304.8    366.2   0.020314620   0.24493  -0.45281   0.03638  -0.19639
  20   27790.8    359.8   0.021464605   0.25427  -0.31440   0.36821  -0.14087
  21   28312.7    353.2   0.028924070   0.33632   0.53821   0.21302  -0.03564
  22   28536.7    350.4   0.087808988   1.01300   0.64426  -0.59781  -0.49047
  23   28675.0    348.7   0.008855188   0.10166   0.11373   0.19476   0.22539
  24   29015.3    344.6   0.247246144   2.80529   1.23790  -1.00931  -0.50418
  25   29067.4    344.0   0.132293293   1.49833  -1.19319  -0.21160   0.17275
  26   29207.9    342.4   0.131033136   1.47692  -0.44867   0.55369   0.98440
  27   29282.6    341.5   0.337353165   3.79272  -0.91190  -1.48536  -0.86882
  28   29872.0    334.8   0.149804882   1.65096   0.91393   0.71378   0.55336
  29   30047.2    332.8   0.140129973   1.53533  -1.13869   0.45723   0.17220
  30   30593.5    326.9   0.001146683   0.01234  -0.09799   0.04291  -0.02993
  31   30702.0    325.7   0.057776012   0.61952  -0.51136   0.58550   0.12339
  32   30885.3    323.8   0.338066253   3.60350  -1.73588  -0.34839  -0.68473
  33   31113.5    321.4   0.175853321   1.86070   0.81647  -0.81654  -0.72619
  34   31248.4    320.0   0.105172598   1.10803   0.22567   0.97918   0.31353
  35   31443.1    318.0   0.067118116   0.70273  -0.74690   0.23298  -0.30100
  36   31617.1    316.3   0.156817448   1.63286  -1.26251   0.11906  -0.15730
  37   32021.1    312.3   0.200549628   2.06187   0.77699   1.08940   0.52093
  38   32127.8    311.3   0.622175376   6.37539  -1.32862  -1.88495  -1.02816
  39   32311.9    309.5   0.235757471   2.40203  -0.32259  -1.34178  -0.70540
  40   32809.2    304.8   0.027658159   0.27753  -0.27653  -0.36856  -0.25539
  41   32988.7    303.1   0.027168062   0.27112  -0.24275  -0.39346  -0.23956
  42   33058.3    302.5   0.340856094   3.39443   1.46658  -0.82603  -0.74916
  43   33372.0    299.7   0.336544151   3.31998  -0.29660   1.63425   0.74915
  44   33485.2    298.6   0.076769917   0.75477  -0.45159  -0.45336  -0.58762
  45   33574.4    297.8   0.016125643   0.15812  -0.22143  -0.28304  -0.17023
  46   33622.8    297.4   0.067887995   0.66471   0.55438  -0.13487  -0.58240
  47   33852.3    295.4   0.169531077   1.64868   0.21204  -1.02271  -0.74685
  48   34153.0    292.8   0.238175515   2.29585  -1.13012  -0.65265  -0.76989
  49   34252.4    292.0   0.013005776   0.12500   0.21347   0.27186   0.07435
  50   34435.6    290.4   0.030695400   0.29346  -0.09983  -0.36739  -0.38538
  51   34551.0    289.4   0.245514636   2.33933  -0.81896   0.56863   1.15987
  52   34636.4    288.7   0.223875923   2.12790  -1.42790  -0.28331   0.09350
  53   35061.5    285.2   0.182428618   1.71292   0.44270   1.13179   0.48579
  54   35164.0    284.4   0.280079489   2.62216   0.67936   1.16897   0.89114
  55   35299.2    283.3   0.024079774   0.22458  -0.21242   0.36482   0.21532
  56   35677.9    280.3   0.018184822   0.16780  -0.29939   0.25979   0.10331
  57   35810.5    279.2   0.048927203   0.44980  -0.38568   0.54522   0.06154
  58   35937.4    278.3   0.035016387   0.32077   0.04439  -0.46998  -0.31293
  59   36280.4    275.6   0.039577849   0.35913  -0.21198   0.43070   0.35874
  60   36398.8    274.7   0.011142570   0.10078   0.29592   0.08579  -0.07651
  61   36963.4    270.5   0.017904711   0.15947  -0.15436   0.36793  -0.01633
  62   37062.3    269.8   0.032388258   0.28769   0.31840  -0.25648  -0.34718
  63   37261.6    268.4   0.085811670   0.75816   0.62725  -0.52730  -0.29441
  64   37333.1    267.9   0.121076820   1.06768   0.94118   0.33870   0.25912
  65   37646.9    265.6   0.020166789   0.17635   0.13755   0.39000   0.07304
  66   37847.7    264.2   0.031989055   0.27825  -0.47103   0.23038  -0.05751
  67   38063.8    262.7   0.029137757   0.25201   0.02171  -0.44628  -0.22885
  68   38364.2    260.7   0.030061899   0.25797   0.34227  -0.36985  -0.06351
  69   38527.2    259.6   0.035277452   0.30144   0.40400  -0.35474  -0.11130
  70   38582.5    259.2   0.040980234   0.34967  -0.41907   0.40685   0.09230
  71   38864.2    257.3   0.276102075   2.33882   1.44275   0.18009   0.47417
  72   39098.1    255.8   0.139361882   1.17345  -0.35104  -0.65284  -0.78995
  73   39386.2    253.9   0.057183210   0.47797   0.31146   0.59481   0.16481
  74   39555.0    252.8   0.005876988   0.04891  -0.18787   0.11584  -0.01404
  75   39605.1    252.5   0.098629295   0.81984   0.26557   0.64061   0.58218
  76   39645.8    252.2   0.130239738   1.08149  -0.32154  -0.93860  -0.31165
  77   39681.5    252.0   0.021775328   0.18066   0.04973  -0.35677  -0.22560
  78   40318.3    248.0   0.055953633   0.45688   0.57847  -0.27316  -0.21826

FINAL SINGLE POINT ENERGY     -6146.207240739925

DIPOLE MOMENT
-------------
                                X             Y             Z
Electronic contribution:      5.10350      -9.30209     -12.57329
Nuclear contribution   :     -6.44553      11.53061      15.83974
                        -----------------------------------------
Total Dipole Moment    :     -1.34203       2.22852       3.26645
                        -----------------------------------------
Magnitude (a.u.)       :      4.17576
Magnitude (Debye)      :     10.61395

Rotational constants in cm-1:     0.001651     0.000145     0.000135
Rotational constants in MHz :    49.497875     4.351417     4.042778

                             ****ORCA TERMINATED NORMALLY****
TOTAL RUN TIME: 0 days 0 hours 13 minutes 39 seconds 542 msec
