                         Program Version 4.2.0 -  RELEASE  -
|  1> # ORCA input file
|  2> # SCF done       -129.106625502176          0.000980045211
|  3> ! CAM-B3LYP def2-SVP def2/J RIJCOSX Grid4 TightSCF
|  4> %maxcore 5000
|  5> %tddft
|  6>     Mode sTDDFT
|  7>     Ethresh 5.0
|  8>     maxcore 5000
|  9> end
| 10>
| 11> %pal
| 12>   nprocs 6
| 13>   end
| 14> * xyz 0 1
| 15>    C        0.43596        -0.01955         0.89000
| 16>    C        0.77584         1.19117         0.45020
| 17>    C        1.95550         1.91128         0.84047
| 18>    C        2.95970         1.54456         1.71152
| 19>    C        3.94315         2.53079         1.82980
| 20>    C        3.68150         3.65879         1.03358
| 21>    S        2.23105         3.50087         0.14862
| 22>    C        4.72479         4.59704         1.21989
| 23>    C        5.65061         4.06618         2.13992
| 24>    C        5.20265         2.73434         2.52707
| 25>    C        5.85489         1.83951         3.32170
| 26>    C        7.14336         2.07288         3.85212
| 27>    N        8.20684         2.20797         4.25626
| 28>    C        5.30513         0.57492         3.62276
| 29>    N        4.85814        -0.45119         3.87268
| 30>    C        6.69769         4.93454         2.42559
| 31>    C        6.58954         6.12043         1.70913
| 32>    S        5.16438         6.15282         0.67512
| 33>    C        7.47668         7.21178         1.75016
| 34>    C        8.53908         7.40625         2.64364
| 35>    C        9.26398         8.62641         2.40204
| 36>    N       10.28449         8.98733         3.18341
| 37>    C       10.58560         8.18848         4.18299
| 38>    C       11.69652         8.61017         5.07419
| 39>    O       12.21110         9.70489         5.00619
| 40>    C       12.10965         7.59956         6.06519
| 41>    C       11.43297         6.46957         6.29295
| 42>    C       10.19536         6.10423         5.57960
| 43>    O        9.49503         5.17683         5.92214
| 44>    C        9.86291         6.97777         4.42520
| 45>    N        8.86371         6.60166         3.65834
| 46>    C        8.75450         9.36453         1.32473
| 47>    S        7.37783         8.55043         0.64853
| 48>    C        9.24149        10.58674         0.82604
| 49>    C       10.42646        11.21747         1.18587
| 50>    C       10.60494        12.40748         0.49025
| 51>    C        9.54296        12.70174        -0.38790
| 52>    S        8.33998        11.49205        -0.38602
| 53>    C        9.80080        13.94651        -1.01044
| 54>    C       11.02536        14.44354        -0.53265
| 55>    C       11.58717        13.48053         0.40055
| 56>    C       12.80677        13.53993         1.00600
| 57>    C       13.66756        14.64551         0.83570
| 58>    N       14.36592        15.54528         0.70272
| 59>    C       13.33161        12.48989         1.79167
| 60>    N       13.80776        11.63555         2.38884
| 61>    C       11.36663        15.67610        -1.09658
| 62>    C       10.41694        16.12071        -1.99216
| 63>    S        9.07865        14.99536        -2.14645
| 64>    C       10.39152        17.32509        -2.77401
| 65>    C       11.32571        18.27447        -2.74964
| 66>    H       -0.46427        -0.50055         0.55157
| 67>    H        1.03981        -0.56678         1.59233
| 68>    H        0.13992         1.70565        -0.25865
| 69>    H        2.97113         0.60702         2.23521
| 70>    H        7.50531         4.75843         3.11333
| 71>    H       12.99359         7.85262         6.63489
| 72>    H       11.74532         5.76854         7.05513
| 73>    H       11.08901        10.80227         1.92408
| 74>    H       12.26076        16.22460        -0.86632
| 75>    H        9.53005        17.43251        -3.42046
| 76>    H       12.19645        18.20823        -2.12119
| 77>    H       11.24178        19.15213        -3.36519
| 78> *
| 79>
| 80>                          ****END OF INPUT****

CARTESIAN COORDINATES (ANGSTROEM)
---------------------------------
  C      0.435960   -0.019550    0.890000
  C      0.775840    1.191170    0.450200
  C      1.955500    1.911280    0.840470
  C      2.959700    1.544560    1.711520
  C      3.943150    2.530790    1.829800
  C      3.681500    3.658790    1.033580
  S      2.231050    3.500870    0.148620
  C      4.724790    4.597040    1.219890
  C      5.650610    4.066180    2.139920
  C      5.202650    2.734340    2.527070
  C      5.854890    1.839510    3.321700
  C      7.143360    2.072880    3.852120
  N      8.206840    2.207970    4.256260
  C      5.305130    0.574920    3.622760
  N      4.858140   -0.451190    3.872680
  C      6.697690    4.934540    2.425590
  C      6.589540    6.120430    1.709130
  S      5.164380    6.152820    0.675120
  C      7.476680    7.211780    1.750160
  C      8.539080    7.406250    2.643640
  C      9.263980    8.626410    2.402040
  N     10.284490    8.987330    3.183410
  C     10.585600    8.188480    4.182990
  C     11.696520    8.610170    5.074190
  O     12.211100    9.704890    5.006190
  C     12.109650    7.599560    6.065190
  C     11.432970    6.469570    6.292950
  C     10.195360    6.104230    5.579600
  O      9.495030    5.176830    5.922140
  C      9.862910    6.977770    4.425200
  N      8.863710    6.601660    3.658340
  C      8.754500    9.364530    1.324730
  S      7.377830    8.550430    0.648530
  C      9.241490   10.586740    0.826040
  C     10.426460   11.217470    1.185870
  C     10.604940   12.407480    0.490250
  C      9.542960   12.701740   -0.387900
  S      8.339980   11.492050   -0.386020
  C      9.800800   13.946510   -1.010440
  C     11.025360   14.443540   -0.532650
  C     11.587170   13.480530    0.400550
  C     12.806770   13.539930    1.006000
  C     13.667560   14.645510    0.835700
  N     14.365920   15.545280    0.702720
  C     13.331610   12.489890    1.791670
  N     13.807760   11.635550    2.388840
  C     11.366630   15.676100   -1.096580
  C     10.416940   16.120710   -1.992160
  S      9.078650   14.995360   -2.146450
  C     10.391520   17.325090   -2.774010
  C     11.325710   18.274470   -2.749640
  H     -0.464270   -0.500550    0.551570
  H      1.039810   -0.566780    1.592330
  H      0.139920    1.705650   -0.258650
  H      2.971130    0.607020    2.235210
  H      7.505310    4.758430    3.113330
  H     12.993590    7.852620    6.634890
  H     11.745320    5.768540    7.055130
  H     11.089010   10.802270    1.924080
  H     12.260760   16.224600   -0.866320
  H      9.530050   17.432510   -3.420460
  H     12.196450   18.208230   -2.121190
  H     11.241780   19.152130   -3.365190

 Total Charge           Charge          ....    0
 Multiplicity           Mult            ....    1
 Number of Electrons    NEL             ....  378
 Basis Dimension        Dim             ....  794

ORBITAL ENERGIES
----------------

  NO   OCC          E(Eh)            E(eV)
   0   2.0000     -88.998408     -2421.7698
   1   2.0000     -88.990190     -2421.5462
   2   2.0000     -88.990075     -2421.5431
   3   2.0000     -88.984955     -2421.4037
   4   2.0000     -88.984821     -2421.4001
   5   2.0000     -19.221229      -523.0362
   6   2.0000     -19.221164      -523.0345
   7   2.0000     -14.446134      -393.0993
   8   2.0000     -14.445998      -393.0956
   9   2.0000     -14.426335      -392.5605
  10   2.0000     -14.426275      -392.5589
  11   2.0000     -14.421410      -392.4265
  12   2.0000     -14.421396      -392.4261
  13   2.0000     -10.370194      -282.1873
  14   2.0000     -10.370085      -282.1844
  15   2.0000     -10.360471      -281.9227
  16   2.0000     -10.360417      -281.9213
  17   2.0000     -10.346675      -281.5473
  18   2.0000     -10.346621      -281.5459
  19   2.0000     -10.337517      -281.2981
  20   2.0000     -10.337251      -281.2909
  21   2.0000     -10.335140      -281.2334
  22   2.0000     -10.335046      -281.2309
  23   2.0000     -10.332080      -281.1502
  24   2.0000     -10.331813      -281.1429
  25   2.0000     -10.331467      -281.1335
  26   2.0000     -10.331305      -281.1291
  27   2.0000     -10.327590      -281.0280
  28   2.0000     -10.327495      -281.0254
  29   2.0000     -10.326865      -281.0083
  30   2.0000     -10.326845      -281.0077
  31   2.0000     -10.326611      -281.0014
  32   2.0000     -10.326559      -280.9999
  33   2.0000     -10.320528      -280.8358
  34   2.0000     -10.320464      -280.8341
  35   2.0000     -10.317343      -280.7492
  36   2.0000     -10.317189      -280.7450
  37   2.0000     -10.303457      -280.3713
  38   2.0000     -10.302757      -280.3523
  39   2.0000     -10.299661      -280.2680
  40   2.0000     -10.299644      -280.2676
  41   2.0000     -10.299628      -280.2671
  42   2.0000     -10.299621      -280.2669
  43   2.0000     -10.295482      -280.1543
  44   2.0000     -10.295371      -280.1513
  45   2.0000     -10.293966      -280.1130
  46   2.0000     -10.293962      -280.1129
  47   2.0000     -10.291192      -280.0376
  48   2.0000     -10.291105      -280.0352
  49   2.0000     -10.275710      -279.6163
  50   2.0000     -10.275680      -279.6155
  51   2.0000      -8.093271      -220.2291
  52   2.0000      -8.084887      -220.0010
  53   2.0000      -8.084807      -219.9988
  54   2.0000      -8.079796      -219.8624
  55   2.0000      -8.079690      -219.8595
  56   2.0000      -6.062357      -164.9651
  57   2.0000      -6.058252      -164.8534
  58   2.0000      -6.055876      -164.7888
  59   2.0000      -6.054191      -164.7429
  60   2.0000      -6.054116      -164.7409
  61   2.0000      -6.050050      -164.6302
  62   2.0000      -6.049967      -164.6280
  63   2.0000      -6.048935      -164.5999
  64   2.0000      -6.048840      -164.5973
  65   2.0000      -6.047161      -164.5516
  66   2.0000      -6.047064      -164.5490
  67   2.0000      -6.044836      -164.4883
  68   2.0000      -6.044725      -164.4853
  69   2.0000      -6.042315      -164.4198
  70   2.0000      -6.042187      -164.4163
  71   2.0000      -1.138771       -30.9875
  72   2.0000      -1.134050       -30.8591
  73   2.0000      -1.097370       -29.8610
  74   2.0000      -1.040940       -28.3254
  75   2.0000      -1.040667       -28.3180
  76   2.0000      -1.024647       -27.8821
  77   2.0000      -1.017594       -27.6901
  78   2.0000      -1.016247       -27.6535
  79   2.0000      -1.010551       -27.4985
  80   2.0000      -1.000782       -27.2327
  81   2.0000      -1.000617       -27.2282
  82   2.0000      -0.994480       -27.0612
  83   2.0000      -0.985679       -26.8217
  84   2.0000      -0.956255       -26.0210
  85   2.0000      -0.952370       -25.9153
  86   2.0000      -0.934413       -25.4267
  87   2.0000      -0.917650       -24.9705
  88   2.0000      -0.911083       -24.7918
  89   2.0000      -0.885149       -24.0861
  90   2.0000      -0.878160       -23.8959
  91   2.0000      -0.873720       -23.7751
  92   2.0000      -0.870954       -23.6999
  93   2.0000      -0.859948       -23.4004
  94   2.0000      -0.851602       -23.1733
  95   2.0000      -0.849554       -23.1175
  96   2.0000      -0.843670       -22.9574
  97   2.0000      -0.802608       -21.8401
  98   2.0000      -0.797010       -21.6877
  99   2.0000      -0.789204       -21.4753
 100   2.0000      -0.776370       -21.1261
 101   2.0000      -0.773380       -21.0447
 102   2.0000      -0.767416       -20.8824
 103   2.0000      -0.742138       -20.1946
 104   2.0000      -0.740954       -20.1624
 105   2.0000      -0.711700       -19.3664
 106   2.0000      -0.703767       -19.1505
 107   2.0000      -0.691470       -18.8159
 108   2.0000      -0.686881       -18.6910
 109   2.0000      -0.676548       -18.4098
 110   2.0000      -0.675861       -18.3911
 111   2.0000      -0.671556       -18.2740
 112   2.0000      -0.663722       -18.0608
 113   2.0000      -0.660754       -17.9800
 114   2.0000      -0.632072       -17.1995
 115   2.0000      -0.629732       -17.1359
 116   2.0000      -0.627481       -17.0746
 117   2.0000      -0.618800       -16.8384
 118   2.0000      -0.611222       -16.6322
 119   2.0000      -0.610859       -16.6223
 120   2.0000      -0.608244       -16.5512
 121   2.0000      -0.600390       -16.3374
 122   2.0000      -0.594172       -16.1682
 123   2.0000      -0.576344       -15.6831
 124   2.0000      -0.571418       -15.5491
 125   2.0000      -0.564922       -15.3723
 126   2.0000      -0.561688       -15.2843
 127   2.0000      -0.555457       -15.1148
 128   2.0000      -0.549727       -14.9588
 129   2.0000      -0.543041       -14.7769
 130   2.0000      -0.542943       -14.7742
 131   2.0000      -0.538311       -14.6482
 132   2.0000      -0.538160       -14.6441
 133   2.0000      -0.526080       -14.3154
 134   2.0000      -0.519677       -14.1411
 135   2.0000      -0.519480       -14.1358
 136   2.0000      -0.507376       -13.8064
 137   2.0000      -0.504054       -13.7160
 138   2.0000      -0.502394       -13.6708
 139   2.0000      -0.501208       -13.6386
 140   2.0000      -0.499719       -13.5980
 141   2.0000      -0.497811       -13.5461
 142   2.0000      -0.493997       -13.4423
 143   2.0000      -0.491622       -13.3777
 144   2.0000      -0.488902       -13.3037
 145   2.0000      -0.488406       -13.2902
 146   2.0000      -0.485555       -13.2126
 147   2.0000      -0.481071       -13.0906
 148   2.0000      -0.480914       -13.0863
 149   2.0000      -0.474924       -12.9233
 150   2.0000      -0.464254       -12.6330
 151   2.0000      -0.463387       -12.6094
 152   2.0000      -0.456740       -12.4285
 153   2.0000      -0.456360       -12.4182
 154   2.0000      -0.453361       -12.3366
 155   2.0000      -0.449543       -12.2327
 156   2.0000      -0.449239       -12.2244
 157   2.0000      -0.448066       -12.1925
 158   2.0000      -0.447371       -12.1736
 159   2.0000      -0.446956       -12.1623
 160   2.0000      -0.442911       -12.0522
 161   2.0000      -0.440226       -11.9791
 162   2.0000      -0.437883       -11.9154
 163   2.0000      -0.433711       -11.8019
 164   2.0000      -0.433561       -11.7978
 165   2.0000      -0.433030       -11.7834
 166   2.0000      -0.432018       -11.7558
 167   2.0000      -0.431672       -11.7464
 168   2.0000      -0.419566       -11.4170
 169   2.0000      -0.419159       -11.4059
 170   2.0000      -0.417219       -11.3531
 171   2.0000      -0.412101       -11.2138
 172   2.0000      -0.403897       -10.9906
 173   2.0000      -0.391573       -10.6552
 174   2.0000      -0.390672       -10.6307
 175   2.0000      -0.367918       -10.0116
 176   2.0000      -0.367587       -10.0025
 177   2.0000      -0.358873        -9.7654
 178   2.0000      -0.351411        -9.5624
 179   2.0000      -0.345759        -9.4086
 180   2.0000      -0.344128        -9.3642
 181   2.0000      -0.340991        -9.2788
 182   2.0000      -0.340581        -9.2677
 183   2.0000      -0.332254        -9.0411
 184   2.0000      -0.319186        -8.6855
 185   2.0000      -0.317624        -8.6430
 186   2.0000      -0.302244        -8.2245
 187   2.0000      -0.269829        -7.3424
 188   2.0000      -0.230903        -6.2832
 189   0.0000      -0.110224        -2.9993
 190   0.0000      -0.098062        -2.6684
 191   0.0000      -0.086608        -2.3567
 192   0.0000      -0.080844        -2.1999
 193   0.0000      -0.031319        -0.8522

MULLIKEN ATOMIC CHARGES
-----------------------
   0 C :   -0.017233
   1 C :    0.034527
   2 C :   -0.090596
   3 C :   -0.012547
   4 C :   -0.009245
   5 C :   -0.107141
   6 S :    0.182138
   7 C :   -0.094500
   8 C :    0.024719
   9 C :    0.302516
  10 C :   -0.299426
  11 C :   -0.196544
  12 N :    0.199926
  13 C :   -0.186846
  14 N :    0.167570
  15 C :   -0.060250
  16 C :   -0.092148
  17 S :    0.171626
  18 C :   -0.114053
  19 C :    0.022245
  20 C :    0.019781
  21 N :    0.066016
  22 C :   -0.116854
  23 C :    0.139119
  24 O :   -0.098374
  25 C :   -0.013416
  26 C :   -0.015837
  27 C :    0.138556
  28 O :   -0.098561
  29 C :   -0.116999
  30 N :    0.065030
  31 C :   -0.110376
  32 S :    0.191961
  33 C :   -0.094209
  34 C :   -0.060224
  35 C :    0.025194
  36 C :   -0.092069
  37 S :    0.171392
  38 C :   -0.106701
  39 C :   -0.013035
  40 C :    0.303540
  41 C :   -0.296823
  42 C :   -0.187222
  43 N :    0.166352
  44 C :   -0.193606
  45 N :    0.196204
  46 C :   -0.011243
  47 C :   -0.093821
  48 S :    0.182006
  49 C :    0.035763
  50 C :   -0.017069
  51 H :    0.031693
  52 H :    0.030421
  53 H :   -0.008317
  54 H :    0.001401
  55 H :    0.028444
  56 H :    0.020627
  57 H :    0.021504
  58 H :    0.029331
  59 H :    0.001794
  60 H :   -0.008178
  61 H :    0.030028
  62 H :    0.032040
Sum of atomic charges:    0.0000000

LOEWDIN ATOMIC CHARGES
----------------------
   0 C :   -0.028588
   1 C :   -0.047399
   2 C :   -0.163441
   3 C :   -0.027835
   4 C :   -0.064949
   5 C :   -0.189556
   6 S :    0.472391
   7 C :   -0.175791
   8 C :   -0.068876
   9 C :    0.078667
  10 C :   -0.095483
  11 C :   -0.023952
  12 N :   -0.015243
  13 C :   -0.014083
  14 N :   -0.035193
  15 C :   -0.007475
  16 C :   -0.187413
  17 S :    0.456162
  18 C :   -0.192132
  19 C :   -0.045227
  20 C :   -0.045225
  21 N :    0.008230
  22 C :   -0.039816
  23 C :    0.054964
  24 O :   -0.092961
  25 C :   -0.012566
  26 C :   -0.012872
  27 C :    0.054999
  28 O :   -0.093073
  29 C :   -0.039707
  30 N :    0.008129
  31 C :   -0.191807
  32 S :    0.482552
  33 C :   -0.187653
  34 C :   -0.007448
  35 C :   -0.069004
  36 C :   -0.175589
  37 S :    0.456174
  38 C :   -0.189727
  39 C :   -0.064950
  40 C :    0.078733
  41 C :   -0.095448
  42 C :   -0.014119
  43 N :   -0.035305
  44 C :   -0.023760
  45 N :   -0.015333
  46 C :   -0.027810
  47 C :   -0.163496
  48 S :    0.472510
  49 C :   -0.047366
  50 C :   -0.028747
  51 H :    0.029940
  52 H :    0.027113
  53 H :    0.029224
  54 H :    0.039516
  55 H :    0.044338
  56 H :    0.046078
  57 H :    0.046235
  58 H :    0.044445
  59 H :    0.039521
  60 H :    0.029339
  61 H :    0.027120
  62 H :    0.030040

  Mayer bond orders larger than 0.100000
B(  0-C ,  1-C ) :   1.9471 B(  0-C , 51-H ) :   0.9495 B(  0-C , 52-H ) :   0.9555
B(  1-C ,  2-C ) :   1.0905 B(  1-C , 53-H ) :   0.9543 B(  2-C ,  3-C ) :   1.4884
B(  2-C ,  6-S ) :   1.1100 B(  3-C ,  4-C ) :   1.2996 B(  3-C , 54-H ) :   0.9901
B(  4-C ,  5-C ) :   1.4394 B(  4-C ,  9-C ) :   1.0029 B(  5-C ,  6-S ) :   1.1190
B(  5-C ,  7-C ) :   1.1987 B(  7-C ,  8-C ) :   1.4294 B(  7-C , 17-S ) :   1.1240
B(  8-C ,  9-C ) :   0.9866 B(  8-C , 15-C ) :   1.2699 B(  9-C , 10-C ) :   1.7142
B( 10-C , 11-C ) :   1.1344 B( 10-C , 13-C ) :   1.1352 B( 11-C , 12-N ) :   3.0053
B( 13-C , 14-N ) :   2.9895 B( 15-C , 16-C ) :   1.4600 B( 15-C , 55-H ) :   0.9890
B( 16-C , 17-S ) :   1.0762 B( 16-C , 18-C ) :   1.1851 B( 18-C , 19-C ) :   1.3735
B( 18-C , 31-C ) :   0.1518 B( 18-C , 32-S ) :   1.1484 B( 19-C , 20-C ) :   1.1822
B( 19-C , 30-N ) :   1.4390 B( 20-C , 21-N ) :   1.4411 B( 20-C , 31-C ) :   1.3745
B( 21-N , 22-C ) :   1.7161 B( 22-C , 23-C ) :   0.8918 B( 22-C , 29-C ) :   1.0873
B( 23-C , 24-O ) :   2.2414 B( 23-C , 25-C ) :   1.0232 B( 25-C , 26-C ) :   1.6929
B( 25-C , 56-H ) :   0.9950 B( 26-C , 27-C ) :   1.0223 B( 26-C , 57-H ) :   0.9945
B( 27-C , 28-O ) :   2.2420 B( 27-C , 29-C ) :   0.8914 B( 29-C , 30-N ) :   1.7178
B( 31-C , 32-S ) :   1.1473 B( 31-C , 33-C ) :   1.1847 B( 33-C , 34-C ) :   1.4589
B( 33-C , 37-S ) :   1.0757 B( 34-C , 35-C ) :   1.2695 B( 34-C , 58-H ) :   0.9890
B( 35-C , 36-C ) :   1.4299 B( 35-C , 40-C ) :   0.9877 B( 36-C , 37-S ) :   1.1248
B( 36-C , 38-C ) :   1.1978 B( 38-C , 39-C ) :   1.4398 B( 38-C , 48-S ) :   1.1185
B( 39-C , 40-C ) :   1.0021 B( 39-C , 46-C ) :   1.2997 B( 40-C , 41-C ) :   1.7160
B( 41-C , 42-C ) :   1.1338 B( 41-C , 44-C ) :   1.1312 B( 42-C , 43-N ) :   2.9899
B( 44-C , 45-N ) :   3.0046 B( 46-C , 47-C ) :   1.4875 B( 46-C , 59-H ) :   0.9903
B( 47-C , 48-S ) :   1.1108 B( 47-C , 49-C ) :   1.0912 B( 49-C , 50-C ) :   1.9489
B( 49-C , 60-H ) :   0.9537 B( 50-C , 61-H ) :   0.9549 B( 50-C , 62-H ) :   0.9489

-----------------------------------------------------------------------------
         ABSORPTION SPECTRUM VIA TRANSITION ELECTRIC DIPOLE MOMENTS
-----------------------------------------------------------------------------
State   Energy  Wavelength   fosc         T2         TX        TY        TZ
        (cm-1)    (nm)                  (au**2)     (au)      (au)      (au)
-----------------------------------------------------------------------------
   0   10487.9    953.5   0.525955592  16.50960   2.04744   3.44217  -0.68489
   1   12011.1    832.6   0.025318546   0.69396   0.51180  -0.19502   0.62768
   2   13926.5    718.1   0.169538100   4.00775  -1.00765  -1.69671   0.33701
   3   17486.2    571.9   0.128587517   2.42091   0.88207  -0.26868   1.25326
   4   20060.5    498.5   0.028092333   0.46102   0.40980  -0.14562   0.52142
   5   22104.5    452.4   0.057814827   0.86106   0.46954   0.78565  -0.15278
   6   24847.1    402.5   0.004473472   0.05927  -0.03854   0.07128   0.22957
   7   25027.2    399.6   0.083863786   1.10316  -0.62562   0.21184  -0.81663
   8   25933.0    385.6   0.002423680   0.03077   0.09095   0.14718  -0.02888
   9   26685.7    374.7   1.181696236  14.57818   1.89794   3.25161  -0.63483
  10   26706.1    374.4   0.052468580   0.64679   0.53006   0.58083  -0.16870
  11   28275.0    353.7   0.024083553   0.28041   0.26809   0.44824  -0.08726
  12   28772.2    347.6   0.158321871   1.81152  -0.67922  -1.13986   0.22562
  13   30050.1    332.8   0.242931414   2.66142  -1.24043   0.54037  -0.91145
  14   30306.2    330.0   0.062788168   0.68206   0.39587   0.70928  -0.14921
  15   30773.9    325.0   0.148006724   1.58334   0.87049  -0.34345   0.84121
  16   30795.2    324.7   0.001082710   0.01157  -0.06377   0.04505  -0.07402
  17   31093.6    321.6   0.048962644   0.51841  -0.57039   0.27095  -0.34590
  18   31993.6    312.6   0.008226056   0.08465   0.24001  -0.14056   0.08535
  19   32444.5    308.2   0.258835927   2.62639  -0.80932  -1.37577   0.28044
  20   33109.6    302.0   0.807172175   8.02578   1.99091  -0.81334   1.84406
  21   33187.9    301.3   0.014313112   0.14198  -0.21500  -0.30625   0.04437
  22   33753.2    296.3   0.075008729   0.73160  -0.73296   0.39732  -0.19108
  23   33841.3    295.5   0.000953981   0.00928   0.05318   0.07494  -0.02892
  24   33965.4    294.4   0.096021630   0.93070  -0.32283   0.62795  -0.65738
  25   33971.6    294.4   0.321125021   3.11196  -1.28237   0.25684  -1.18386
  26   34664.3    288.5   0.002788105   0.02648  -0.07519   0.01434  -0.14360
  27   35476.3    281.9   0.013751523   0.12761  -0.20551   0.06548  -0.28477
  28   35553.5    281.3   0.018929707   0.17528   0.33111  -0.15029   0.20751
  29   35943.3    278.2   0.012821198   0.11743   0.17422   0.28893  -0.05999
  30   36317.6    275.3   0.286233095   2.59465  -0.80860  -1.36497   0.27867
  31   36436.0    274.5   0.060884228   0.55011  -0.43594   0.12455  -0.58699
  32   37126.2    269.4   0.023667198   0.20987   0.23448   0.38694  -0.07183
  33   37710.5    265.2   0.011775891   0.10280   0.22281  -0.09489   0.21014
  34   37822.2    264.4   0.057286221   0.49863  -0.35565  -0.59796   0.12080
  35   38205.7    261.7   0.126787264   1.09250  -0.61808   0.20497  -0.81760
  36   38288.7    261.2   0.056743794   0.48789   0.46366  -0.18129   0.48994
  37   38330.5    260.9   0.002424684   0.02083  -0.06724  -0.12395   0.03067
  38   38583.5    259.2   0.031083641   0.26522   0.32617  -0.18983   0.35042
  39   38606.6    259.0   0.009140219   0.07794  -0.23651  -0.10912  -0.10050
  40   38671.2    258.6   0.022913915   0.19507  -0.28784   0.12643  -0.31021
  41   38890.0    257.1   0.048700996   0.41226   0.32516   0.54305  -0.10783
  42   39294.7    254.5   0.001728295   0.01448  -0.06387  -0.10066   0.01640
  43   39721.2    251.8   0.056427625   0.46768   0.40281  -0.13639   0.53555
  44   39836.9    251.0   0.003010486   0.02488   0.11783  -0.08112  -0.06645
  45   40233.3    248.6   0.006238274   0.05105   0.11149   0.19247  -0.03963

FINAL SINGLE POINT ENERGY     -3921.953315327597

DIPOLE MOMENT
-------------
                                X             Y             Z
Electronic contribution:      2.82947      -1.15573       2.64108
Nuclear contribution   :     -5.53083       2.30347      -4.95798
                        -----------------------------------------
Total Dipole Moment    :     -2.70136       1.14774      -2.31690
                        -----------------------------------------
Magnitude (a.u.)       :      3.73934
Magnitude (Debye)      :      9.50465

Rotational constants in cm-1:     0.002842     0.000672     0.000547
Rotational constants in MHz :    85.208945    20.142738    16.412827

                             ****ORCA TERMINATED NORMALLY****
TOTAL RUN TIME: 0 days 0 hours 4 minutes 51 seconds 48 msec
