                         Program Version 4.2.0 -  RELEASE  -
|  1> # ORCA input file
|  2> # SCF done       -181.827401930310          0.000850091541
|  3> ! CAM-B3LYP def2-SVP def2/J RIJCOSX Grid4 TightSCF
|  4> %maxcore 5000
|  5> %tddft
|  6>     Mode sTDDFT
|  7>     Ethresh 5.0
|  8>     maxcore 5000
|  9> end
| 10>
| 11> %pal
| 12>   nprocs 6
| 13>   end
| 14> * xyz 0 1
| 15>    C       -2.50197         1.99551        -2.47738
| 16>    C       -1.66956         2.77953        -3.23615
| 17>    C       -1.94018         3.16588        -4.56075
| 18>    N       -2.13469         3.55181        -5.62514
| 19>    C       -0.41274         3.22545        -2.77732
| 20>    N        0.64556         3.54199        -2.46392
| 21>    C       -3.61045         1.19597        -2.98702
| 22>    C       -3.87790         0.15430        -2.05055
| 23>    C       -4.84163        -0.78362        -2.28080
| 24>    C       -5.60281        -0.71296        -3.47029
| 25>    C       -5.34932         0.33444        -4.40222
| 26>    C       -4.33592         1.28643        -4.14310
| 27>    C       -6.12178         0.39701        -5.57951
| 28>    C       -7.09653        -0.53051        -5.82832
| 29>    C       -7.34446        -1.56228        -4.91107
| 30>    C       -6.61301        -1.65165        -3.75780
| 31>    C       -2.99080         0.30938        -0.87932
| 32>    O       -2.90264        -0.41219         0.08807
| 33>    C       -2.27905         1.59486        -1.10761
| 34>    C       -1.73129         2.26028        -0.04682
| 35>    C       -1.46512         3.63211         0.08879
| 36>    C       -0.82611         4.22195         1.19876
| 37>    O       -0.34171         3.43842         2.17051
| 38>    C        0.32019         4.06492         3.25073
| 39>    C       -0.77483         5.61367         1.12335
| 40>    C       -1.36893         6.12179        -0.02162
| 41>    S       -2.00490         4.85687        -1.02041
| 42>    C       -1.48997         7.47103        -0.45133
| 43>    C       -1.12036         8.59703         0.31958
| 44>    C       -1.27960         9.93813        -0.19008
| 45>    N       -0.89922        10.97189         0.56266
| 46>    C       -0.39077        10.78581         1.75643
| 47>    C       -0.25760         9.45692         2.26704
| 48>    N       -0.61831         8.42055         1.54971
| 49>    C        0.27259         9.22355         3.56120
| 50>    N        0.70249         9.03226         4.60533
| 51>    C        0.03386        11.89830         2.52272
| 52>    N        0.40180        12.76389         3.17621
| 53>    C       -1.82708        10.23928        -1.46904
| 54>    C       -2.09499         9.10434        -2.27465
| 55>    C       -1.95682         7.76415        -1.75212
| 56>    N       -2.26198         6.84279        -2.66431
| 57>    S       -2.63791         7.56998        -4.04521
| 58>    N       -2.45821         9.07994        -3.55613
| 59>    C       -2.04077        11.59360        -1.83140
| 60>    C       -2.76821        12.13259        -2.91961
| 61>    O       -3.45422        11.34444        -3.75084
| 62>    C       -4.11733        11.94950        -4.84133
| 63>    C       -2.73189        13.52800        -2.97026
| 64>    C       -2.00843        14.09541        -1.93948
| 65>    S       -1.39594        12.87235        -0.84943
| 66>    C       -1.76719        15.44283        -1.59789
| 67>    C       -1.88715        16.57942        -2.34773
| 68>    C       -1.63691        17.91435        -1.82636
| 69>    C       -1.70515        18.29230        -0.51146
| 70>    C       -1.48699        19.61212        -0.06387
| 71>    N       -1.31611        20.66735         0.35402
| 72>    C       -2.07975        17.44310         0.55246
| 73>    N       -2.41850        16.82266         1.45715
| 74>    C       -1.42532        18.80526        -2.95862
| 75>    C       -1.69115        18.07808        -4.15343
| 76>    C       -2.06250        16.69233        -3.81985
| 77>    O       -2.41589        15.84007        -4.60867
| 78>    C       -1.59072        18.65641        -5.38621
| 79>    C       -1.20367        20.01182        -5.48115
| 80>    C       -0.92661        20.74320        -4.28986
| 81>    C       -1.04508        20.11894        -3.02671
| 82>    C       -0.53631        22.09336        -4.39755
| 83>    C       -0.42541        22.69461        -5.62184
| 84>    C       -0.69859        21.97386        -6.79399
| 85>    C       -1.07995        20.66129        -6.72513
| 86>    H       -5.02410        -1.57123        -1.56488
| 87>    H       -4.16507         2.07446        -4.86030
| 88>    H       -5.92493         1.19177        -6.28417
| 89>    H       -7.68178        -0.47453        -6.73406
| 90>    H       -8.11773        -2.28565        -5.12252
| 91>    H       -6.79971        -2.44403        -3.04771
| 92>    H       -1.57735         1.67136         0.85225
| 93>    H        0.62604         3.25947         3.91537
| 94>    H       -0.34726         4.74730         3.78425
| 95>    H        1.20244         4.61256         2.90887
| 96>    H       -0.32320         6.25501         1.85551
| 97>    H       -4.53149        11.12690        -5.42106
| 98>    H       -3.42328        12.52352        -5.46042
| 99>    H       -4.92594        12.60338        -4.50116
|100>    H       -3.21732        14.11726        -3.72394
|101>    H       -1.38873        15.56338        -0.58851
|102>    H       -1.80140        18.08615        -6.27888
|103>    H       -0.82257        20.69539        -2.14276
|104>    H       -0.32842        22.64437        -3.49214
|105>    H       -0.12615        23.72946        -5.69370
|106>    H       -0.60517        22.46366        -7.75169
|107>    H       -1.29152        20.10136        -7.62441
|108> *
|109>
|110>                          ****END OF INPUT****

CARTESIAN COORDINATES (ANGSTROEM)
---------------------------------
  C     -2.501970    1.995510   -2.477380
  C     -1.669560    2.779530   -3.236150
  C     -1.940180    3.165880   -4.560750
  N     -2.134690    3.551810   -5.625140
  C     -0.412740    3.225450   -2.777320
  N      0.645560    3.541990   -2.463920
  C     -3.610450    1.195970   -2.987020
  C     -3.877900    0.154300   -2.050550
  C     -4.841630   -0.783620   -2.280800
  C     -5.602810   -0.712960   -3.470290
  C     -5.349320    0.334440   -4.402220
  C     -4.335920    1.286430   -4.143100
  C     -6.121780    0.397010   -5.579510
  C     -7.096530   -0.530510   -5.828320
  C     -7.344460   -1.562280   -4.911070
  C     -6.613010   -1.651650   -3.757800
  C     -2.990800    0.309380   -0.879320
  O     -2.902640   -0.412190    0.088070
  C     -2.279050    1.594860   -1.107610
  C     -1.731290    2.260280   -0.046820
  C     -1.465120    3.632110    0.088790
  C     -0.826110    4.221950    1.198760
  O     -0.341710    3.438420    2.170510
  C      0.320190    4.064920    3.250730
  C     -0.774830    5.613670    1.123350
  C     -1.368930    6.121790   -0.021620
  S     -2.004900    4.856870   -1.020410
  C     -1.489970    7.471030   -0.451330
  C     -1.120360    8.597030    0.319580
  C     -1.279600    9.938130   -0.190080
  N     -0.899220   10.971890    0.562660
  C     -0.390770   10.785810    1.756430
  C     -0.257600    9.456920    2.267040
  N     -0.618310    8.420550    1.549710
  C      0.272590    9.223550    3.561200
  N      0.702490    9.032260    4.605330
  C      0.033860   11.898300    2.522720
  N      0.401800   12.763890    3.176210
  C     -1.827080   10.239280   -1.469040
  C     -2.094990    9.104340   -2.274650
  C     -1.956820    7.764150   -1.752120
  N     -2.261980    6.842790   -2.664310
  S     -2.637910    7.569980   -4.045210
  N     -2.458210    9.079940   -3.556130
  C     -2.040770   11.593600   -1.831400
  C     -2.768210   12.132590   -2.919610
  O     -3.454220   11.344440   -3.750840
  C     -4.117330   11.949500   -4.841330
  C     -2.731890   13.528000   -2.970260
  C     -2.008430   14.095410   -1.939480
  S     -1.395940   12.872350   -0.849430
  C     -1.767190   15.442830   -1.597890
  C     -1.887150   16.579420   -2.347730
  C     -1.636910   17.914350   -1.826360
  C     -1.705150   18.292300   -0.511460
  C     -1.486990   19.612120   -0.063870
  N     -1.316110   20.667350    0.354020
  C     -2.079750   17.443100    0.552460
  N     -2.418500   16.822660    1.457150
  C     -1.425320   18.805260   -2.958620
  C     -1.691150   18.078080   -4.153430
  C     -2.062500   16.692330   -3.819850
  O     -2.415890   15.840070   -4.608670
  C     -1.590720   18.656410   -5.386210
  C     -1.203670   20.011820   -5.481150
  C     -0.926610   20.743200   -4.289860
  C     -1.045080   20.118940   -3.026710
  C     -0.536310   22.093360   -4.397550
  C     -0.425410   22.694610   -5.621840
  C     -0.698590   21.973860   -6.793990
  C     -1.079950   20.661290   -6.725130
  H     -5.024100   -1.571230   -1.564880
  H     -4.165070    2.074460   -4.860300
  H     -5.924930    1.191770   -6.284170
  H     -7.681780   -0.474530   -6.734060
  H     -8.117730   -2.285650   -5.122520
  H     -6.799710   -2.444030   -3.047710
  H     -1.577350    1.671360    0.852250
  H      0.626040    3.259470    3.915370
  H     -0.347260    4.747300    3.784250
  H      1.202440    4.612560    2.908870
  H     -0.323200    6.255010    1.855510
  H     -4.531490   11.126900   -5.421060
  H     -3.423280   12.523520   -5.460420
  H     -4.925940   12.603380   -4.501160
  H     -3.217320   14.117260   -3.723940
  H     -1.388730   15.563380   -0.588510
  H     -1.801400   18.086150   -6.278880
  H     -0.822570   20.695390   -2.142760
  H     -0.328420   22.644370   -3.492140
  H     -0.126150   23.729460   -5.693700
  H     -0.605170   22.463660   -7.751690
  H     -1.291520   20.101360   -7.624410

 Total Charge           Charge          ....    0
 Multiplicity           Mult            ....    1
 Number of Electrons    NEL             ....  496
 Basis Dimension        Dim             .... 1116

ORBITAL ENERGIES
----------------

  NO   OCC          E(Eh)            E(eV)
   0   2.0000     -89.051815     -2423.2231
   1   2.0000     -88.973420     -2421.0898
   2   2.0000     -88.961946     -2420.7776
   3   2.0000     -19.267908      -524.3064
   4   2.0000     -19.265068      -524.2291
   5   2.0000     -19.226018      -523.1666
   6   2.0000     -19.200383      -522.4690
   7   2.0000     -14.477025      -393.9399
   8   2.0000     -14.472516      -393.8172
   9   2.0000     -14.457995      -393.4221
  10   2.0000     -14.456390      -393.3784
  11   2.0000     -14.440029      -392.9332
  12   2.0000     -14.437122      -392.8541
  13   2.0000     -14.417797      -392.3282
  14   2.0000     -14.416914      -392.3042
  15   2.0000     -14.408876      -392.0854
  16   2.0000     -14.400990      -391.8708
  17   2.0000     -10.394181      -282.8401
  18   2.0000     -10.393408      -282.8190
  19   2.0000     -10.377588      -282.3885
  20   2.0000     -10.365020      -282.0465
  21   2.0000     -10.361943      -281.9628
  22   2.0000     -10.360207      -281.9156
  23   2.0000     -10.353759      -281.7401
  24   2.0000     -10.353236      -281.7259
  25   2.0000     -10.352829      -281.7148
  26   2.0000     -10.350844      -281.6608
  27   2.0000     -10.346747      -281.5493
  28   2.0000     -10.343781      -281.4686
  29   2.0000     -10.339875      -281.3623
  30   2.0000     -10.337467      -281.2968
  31   2.0000     -10.333180      -281.1801
  32   2.0000     -10.331062      -281.1225
  33   2.0000     -10.330184      -281.0986
  34   2.0000     -10.330025      -281.0943
  35   2.0000     -10.329422      -281.0779
  36   2.0000     -10.329364      -281.0763
  37   2.0000     -10.328584      -281.0551
  38   2.0000     -10.328248      -281.0459
  39   2.0000     -10.325890      -280.9818
  40   2.0000     -10.320120      -280.8247
  41   2.0000     -10.319931      -280.8196
  42   2.0000     -10.319149      -280.7983
  43   2.0000     -10.312713      -280.6232
  44   2.0000     -10.309864      -280.5457
  45   2.0000     -10.308303      -280.5032
  46   2.0000     -10.307092      -280.4702
  47   2.0000     -10.304216      -280.3920
  48   2.0000     -10.302174      -280.3364
  49   2.0000     -10.301960      -280.3306
  50   2.0000     -10.301757      -280.3251
  51   2.0000     -10.300762      -280.2980
  52   2.0000     -10.300079      -280.2794
  53   2.0000     -10.294468      -280.1267
  54   2.0000     -10.294075      -280.1160
  55   2.0000     -10.290640      -280.0226
  56   2.0000     -10.290468      -280.0179
  57   2.0000     -10.290153      -280.0093
  58   2.0000     -10.289925      -280.0031
  59   2.0000     -10.289891      -280.0022
  60   2.0000     -10.289710      -279.9973
  61   2.0000     -10.289135      -279.9816
  62   2.0000     -10.288392      -279.9614
  63   2.0000     -10.287995      -279.9506
  64   2.0000     -10.281740      -279.7804
  65   2.0000     -10.281676      -279.7786
  66   2.0000     -10.280213      -279.7388
  67   2.0000     -10.280059      -279.7346
  68   2.0000     -10.279977      -279.7324
  69   2.0000     -10.279614      -279.7225
  70   2.0000     -10.279352      -279.7154
  71   2.0000      -8.142750      -221.5755
  72   2.0000      -8.066712      -219.5064
  73   2.0000      -8.055771      -219.2087
  74   2.0000      -6.113725      -166.3629
  75   2.0000      -6.105894      -166.1498
  76   2.0000      -6.105810      -166.1475
  77   2.0000      -6.036334      -164.2570
  78   2.0000      -6.031741      -164.1320
  79   2.0000      -6.028626      -164.0472
  80   2.0000      -6.025240      -163.9551
  81   2.0000      -6.020860      -163.8359
  82   2.0000      -6.017653      -163.7487
  83   2.0000      -1.178933       -32.0804
  84   2.0000      -1.171263       -31.8717
  85   2.0000      -1.149756       -31.2865
  86   2.0000      -1.140359       -31.0308
  87   2.0000      -1.135111       -30.8879
  88   2.0000      -1.115694       -30.3596
  89   2.0000      -1.062501       -28.9121
  90   2.0000      -1.024002       -27.8645
  91   2.0000      -1.021845       -27.8058
  92   2.0000      -1.014618       -27.6092
  93   2.0000      -1.010955       -27.5095
  94   2.0000      -1.007164       -27.4063
  95   2.0000      -1.004892       -27.3445
  96   2.0000      -1.002005       -27.2659
  97   2.0000      -0.995751       -27.0958
  98   2.0000      -0.990929       -26.9645
  99   2.0000      -0.989038       -26.9131
 100   2.0000      -0.983354       -26.7584
 101   2.0000      -0.977612       -26.6022
 102   2.0000      -0.974562       -26.5192
 103   2.0000      -0.962117       -26.1805
 104   2.0000      -0.930624       -25.3236
 105   2.0000      -0.920437       -25.0464
 106   2.0000      -0.919254       -25.0142
 107   2.0000      -0.914279       -24.8788
 108   2.0000      -0.903917       -24.5968
 109   2.0000      -0.892691       -24.2914
 110   2.0000      -0.885681       -24.1006
 111   2.0000      -0.881573       -23.9888
 112   2.0000      -0.874048       -23.7840
 113   2.0000      -0.869672       -23.6650
 114   2.0000      -0.855533       -23.2802
 115   2.0000      -0.851127       -23.1603
 116   2.0000      -0.846746       -23.0411
 117   2.0000      -0.836732       -22.7686
 118   2.0000      -0.832403       -22.6508
 119   2.0000      -0.824052       -22.4236
 120   2.0000      -0.820515       -22.3273
 121   2.0000      -0.814093       -22.1526
 122   2.0000      -0.810464       -22.0538
 123   2.0000      -0.792866       -21.5750
 124   2.0000      -0.786244       -21.3948
 125   2.0000      -0.766157       -20.8482
 126   2.0000      -0.762078       -20.7372
 127   2.0000      -0.751526       -20.4501
 128   2.0000      -0.746959       -20.3258
 129   2.0000      -0.732316       -19.9273
 130   2.0000      -0.721323       -19.6282
 131   2.0000      -0.716127       -19.4868
 132   2.0000      -0.708322       -19.2744
 133   2.0000      -0.705845       -19.2070
 134   2.0000      -0.701938       -19.1007
 135   2.0000      -0.696775       -18.9602
 136   2.0000      -0.694983       -18.9115
 137   2.0000      -0.688278       -18.7290
 138   2.0000      -0.679770       -18.4975
 139   2.0000      -0.670865       -18.2552
 140   2.0000      -0.668839       -18.2000
 141   2.0000      -0.665093       -18.0981
 142   2.0000      -0.658631       -17.9223
 143   2.0000      -0.653873       -17.7928
 144   2.0000      -0.645604       -17.5678
 145   2.0000      -0.638183       -17.3658
 146   2.0000      -0.633757       -17.2454
 147   2.0000      -0.632053       -17.1990
 148   2.0000      -0.622770       -16.9464
 149   2.0000      -0.620175       -16.8758
 150   2.0000      -0.618509       -16.8305
 151   2.0000      -0.610929       -16.6242
 152   2.0000      -0.602511       -16.3952
 153   2.0000      -0.599324       -16.3084
 154   2.0000      -0.592920       -16.1342
 155   2.0000      -0.591094       -16.0845
 156   2.0000      -0.589086       -16.0299
 157   2.0000      -0.574918       -15.6443
 158   2.0000      -0.573318       -15.6008
 159   2.0000      -0.568939       -15.4816
 160   2.0000      -0.567677       -15.4473
 161   2.0000      -0.565452       -15.3867
 162   2.0000      -0.563464       -15.3326
 163   2.0000      -0.557220       -15.1627
 164   2.0000      -0.552701       -15.0398
 165   2.0000      -0.549615       -14.9558
 166   2.0000      -0.547035       -14.8856
 167   2.0000      -0.542121       -14.7519
 168   2.0000      -0.540692       -14.7130
 169   2.0000      -0.539320       -14.6757
 170   2.0000      -0.538717       -14.6592
 171   2.0000      -0.535284       -14.5658
 172   2.0000      -0.529900       -14.4193
 173   2.0000      -0.526202       -14.3187
 174   2.0000      -0.522229       -14.2106
 175   2.0000      -0.520281       -14.1576
 176   2.0000      -0.516854       -14.0643
 177   2.0000      -0.515883       -14.0379
 178   2.0000      -0.512485       -13.9454
 179   2.0000      -0.509129       -13.8541
 180   2.0000      -0.507168       -13.8007
 181   2.0000      -0.504427       -13.7262
 182   2.0000      -0.503103       -13.6901
 183   2.0000      -0.501144       -13.6368
 184   2.0000      -0.498499       -13.5649
 185   2.0000      -0.498193       -13.5565
 186   2.0000      -0.494555       -13.4575
 187   2.0000      -0.491416       -13.3721
 188   2.0000      -0.491103       -13.3636
 189   2.0000      -0.488030       -13.2800
 190   2.0000      -0.485971       -13.2239
 191   2.0000      -0.481959       -13.1148
 192   2.0000      -0.478887       -13.0312
 193   2.0000      -0.474345       -12.9076
 194   2.0000      -0.473952       -12.8969
 195   2.0000      -0.469452       -12.7744
 196   2.0000      -0.465316       -12.6619
 197   2.0000      -0.462213       -12.5775
 198   2.0000      -0.460127       -12.5207
 199   2.0000      -0.455575       -12.3968
 200   2.0000      -0.453286       -12.3345
 201   2.0000      -0.452380       -12.3099
 202   2.0000      -0.450496       -12.2586
 203   2.0000      -0.449185       -12.2229
 204   2.0000      -0.446286       -12.1441
 205   2.0000      -0.443832       -12.0773
 206   2.0000      -0.443154       -12.0588
 207   2.0000      -0.441553       -12.0153
 208   2.0000      -0.439601       -11.9621
 209   2.0000      -0.436597       -11.8804
 210   2.0000      -0.436349       -11.8737
 211   2.0000      -0.435844       -11.8599
 212   2.0000      -0.434405       -11.8208
 213   2.0000      -0.433499       -11.7961
 214   2.0000      -0.431690       -11.7469
 215   2.0000      -0.427919       -11.6443
 216   2.0000      -0.427137       -11.6230
 217   2.0000      -0.426791       -11.6136
 218   2.0000      -0.424473       -11.5505
 219   2.0000      -0.422452       -11.4955
 220   2.0000      -0.420846       -11.4518
 221   2.0000      -0.419428       -11.4132
 222   2.0000      -0.414401       -11.2764
 223   2.0000      -0.411690       -11.2027
 224   2.0000      -0.408043       -11.1034
 225   2.0000      -0.405069       -11.0225
 226   2.0000      -0.400856       -10.9079
 227   2.0000      -0.399090       -10.8598
 228   2.0000      -0.393974       -10.7206
 229   2.0000      -0.391801       -10.6615
 230   2.0000      -0.382477       -10.4077
 231   2.0000      -0.372436       -10.1345
 232   2.0000      -0.368131       -10.0174
 233   2.0000      -0.364496        -9.9184
 234   2.0000      -0.358262        -9.7488
 235   2.0000      -0.357188        -9.7196
 236   2.0000      -0.353834        -9.6283
 237   2.0000      -0.348103        -9.4724
 238   2.0000      -0.330686        -8.9984
 239   2.0000      -0.323809        -8.8113
 240   2.0000      -0.320287        -8.7155
 241   2.0000      -0.318652        -8.6710
 242   2.0000      -0.310074        -8.4375
 243   2.0000      -0.306049        -8.3280
 244   2.0000      -0.298335        -8.1181
 245   2.0000      -0.289105        -7.8669
 246   2.0000      -0.282264        -7.6808
 247   2.0000      -0.247138        -6.7250
 248   0.0000      -0.141029        -3.8376
 249   0.0000      -0.091958        -2.5023
 250   0.0000      -0.081600        -2.2205
 251   0.0000      -0.064096        -1.7441
 252   0.0000      -0.057900        -1.5755

MULLIKEN ATOMIC CHARGES
-----------------------
   0 C :    0.252085
   1 C :   -0.328182
   2 C :   -0.172674
   3 N :    0.133657
   4 C :   -0.215379
   5 N :    0.167094
   6 C :    0.045119
   7 C :    0.006588
   8 C :   -0.085573
   9 C :    0.095151
  10 C :    0.097859
  11 C :   -0.089828
  12 C :   -0.020693
  13 C :    0.035746
  14 C :    0.032349
  15 C :   -0.016752
  16 C :    0.141247
  17 O :   -0.146680
  18 C :   -0.141321
  19 C :    0.055808
  20 C :   -0.142668
  21 C :    0.292046
  22 O :   -0.287377
  23 C :    0.173625
  24 C :   -0.108502
  25 C :   -0.131174
  26 S :    0.171683
  27 C :    0.212922
  28 C :   -0.068749
  29 C :   -0.043694
  30 N :   -0.013306
  31 C :   -0.078122
  32 C :   -0.127264
  33 N :    0.043603
  34 C :   -0.232718
  35 N :    0.254457
  36 C :   -0.246641
  37 N :    0.257520
  38 C :    0.186445
  39 C :   -0.013111
  40 C :   -0.018904
  41 N :   -0.332582
  42 S :    0.576205
  43 N :   -0.248782
  44 C :   -0.240294
  45 C :    0.251082
  46 O :   -0.268623
  47 C :    0.173488
  48 C :   -0.093611
  49 C :   -0.047604
  50 S :    0.187965
  51 C :    0.041558
  52 C :   -0.085469
  53 C :    0.286209
  54 C :   -0.333981
  55 C :   -0.177235
  56 N :    0.150315
  57 C :   -0.209456
  58 N :    0.172644
  59 C :    0.051477
  60 C :   -0.001220
  61 C :    0.160487
  62 O :   -0.159026
  63 C :   -0.080844
  64 C :    0.097067
  65 C :    0.096545
  66 C :   -0.080241
  67 C :   -0.019127
  68 C :    0.038531
  69 C :    0.035486
  70 C :   -0.015033
  71 H :   -0.013691
  72 H :   -0.012415
  73 H :   -0.014892
  74 H :   -0.008841
  75 H :   -0.007886
  76 H :   -0.019109
  77 H :    0.027549
  78 H :    0.048269
  79 H :    0.034782
  80 H :    0.035933
  81 H :   -0.009642
  82 H :    0.038799
  83 H :    0.043463
  84 H :    0.032105
  85 H :    0.002204
  86 H :    0.026074
  87 H :   -0.014680
  88 H :   -0.005966
  89 H :   -0.008728
  90 H :   -0.002844
  91 H :   -0.004245
  92 H :   -0.017861
Sum of atomic charges:   -0.0000000

LOEWDIN ATOMIC CHARGES
----------------------
   0 C :    0.063005
   1 C :   -0.156653
   2 C :   -0.017121
   3 N :   -0.072502
   4 C :   -0.040245
   5 N :   -0.056766
   6 C :   -0.020063
   7 C :   -0.053918
   8 C :    0.028320
   9 C :   -0.010244
  10 C :   -0.006849
  11 C :    0.009322
  12 C :   -0.009370
  13 C :   -0.016530
  14 C :   -0.016743
  15 C :   -0.010079
  16 C :    0.080827
  17 O :   -0.150208
  18 C :   -0.108396
  19 C :    0.061870
  20 C :   -0.218074
  21 C :    0.054535
  22 O :   -0.077933
  23 C :    0.084890
  24 C :   -0.090813
  25 C :   -0.130259
  26 S :    0.525588
  27 C :   -0.049822
  28 C :    0.002523
  29 C :   -0.012092
  30 N :   -0.015036
  31 C :   -0.023948
  32 C :   -0.020008
  33 N :    0.006804
  34 C :   -0.037865
  35 N :   -0.001274
  36 C :   -0.041527
  37 N :    0.006423
  38 C :   -0.018180
  39 C :   -0.044806
  40 C :   -0.039557
  41 N :   -0.304019
  42 S :    0.699413
  43 N :   -0.254215
  44 C :   -0.189945
  45 C :    0.043010
  46 O :   -0.060244
  47 C :    0.083334
  48 C :   -0.063549
  49 C :   -0.165366
  50 S :    0.498172
  51 C :    0.045326
  52 C :   -0.079391
  53 C :    0.072220
  54 C :   -0.133056
  55 C :   -0.016985
  56 N :   -0.049107
  57 C :   -0.028746
  58 N :   -0.042006
  59 C :   -0.025260
  60 C :   -0.056174
  61 C :    0.088537
  62 O :   -0.144735
  63 C :    0.032439
  64 C :   -0.008612
  65 C :   -0.005111
  66 C :    0.019692
  67 C :   -0.004965
  68 C :   -0.011635
  69 C :   -0.011618
  70 C :   -0.009450
  71 H :    0.038329
  72 H :    0.036343
  73 H :    0.032322
  74 H :    0.031426
  75 H :    0.031444
  76 H :    0.031110
  77 H :    0.052074
  78 H :    0.033835
  79 H :    0.021369
  80 H :    0.022728
  81 H :    0.028079
  82 H :    0.029989
  83 H :    0.025587
  84 H :    0.020879
  85 H :    0.031529
  86 H :    0.045944
  87 H :    0.038214
  88 H :    0.039520
  89 H :    0.035199
  90 H :    0.033966
  91 H :    0.033225
  92 H :    0.031715

  Mayer bond orders larger than 0.100000
B(  0-C ,  1-C ) :   1.6249 B(  0-C ,  6-C ) :   1.0090 B(  0-C , 18-C ) :   1.0576
B(  1-C ,  2-C ) :   1.1471 B(  1-C ,  4-C ) :   1.1458 B(  2-C ,  3-N ) :   2.9797
B(  4-C ,  5-N ) :   3.0337 B(  6-C ,  7-C ) :   1.2152 B(  6-C , 11-C ) :   1.4634
B(  7-C ,  8-C ) :   1.4845 B(  7-C , 16-C ) :   0.9162 B(  8-C ,  9-C ) :   1.1796
B(  8-C , 71-H ) :   1.0153 B(  9-C , 10-C ) :   1.2608 B(  9-C , 15-C ) :   1.2475
B( 10-C , 11-C ) :   1.1977 B( 10-C , 12-C ) :   1.2424 B( 11-C , 72-H ) :   0.9946
B( 12-C , 13-C ) :   1.4876 B( 12-C , 73-H ) :   0.9971 B( 13-C , 14-C ) :   1.2624
B( 13-C , 74-H ) :   0.9883 B( 14-C , 15-C ) :   1.4875 B( 14-C , 75-H ) :   0.9890
B( 15-C , 76-H ) :   0.9974 B( 16-C , 17-O ) :   2.2690 B( 16-C , 18-C ) :   0.9526
B( 18-C , 19-C ) :   1.5544 B( 19-C , 20-C ) :   1.2140 B( 19-C , 77-H ) :   0.9510
B( 20-C , 21-C ) :   1.3540 B( 20-C , 26-S ) :   1.0587 B( 21-C , 22-O ) :   1.2264
B( 21-C , 24-C ) :   1.2170 B( 22-O , 23-C ) :   0.9397 B( 23-C , 78-H ) :   0.9789
B( 23-C , 79-H ) :   0.9710 B( 23-C , 80-H ) :   0.9712 B( 24-C , 25-C ) :   1.3902
B( 24-C , 81-H ) :   0.9898 B( 25-C , 26-S ) :   1.1692 B( 25-C , 27-C ) :   1.1821
B( 27-C , 28-C ) :   1.2580 B( 27-C , 38-C ) :   0.1141 B( 27-C , 40-C ) :   1.1840
B( 28-C , 29-C ) :   1.1127 B( 28-C , 33-N ) :   1.4534 B( 29-C , 30-N ) :   1.4006
B( 29-C , 38-C ) :   1.2272 B( 30-N , 31-C ) :   1.6717 B( 31-C , 32-C ) :   1.2240
B( 31-C , 36-C ) :   1.1664 B( 32-C , 33-N ) :   1.7196 B( 32-C , 34-C ) :   1.1622
B( 34-C , 35-N ) :   3.0525 B( 36-C , 37-N ) :   3.0330 B( 38-C , 39-C ) :   1.1906
B( 38-C , 44-C ) :   1.2076 B( 39-C , 40-C ) :   1.1045 B( 39-C , 43-N ) :   1.5259
B( 40-C , 41-N ) :   1.4836 B( 41-N , 42-S ) :   1.2614 B( 41-N , 43-N ) :   0.1482
B( 42-S , 43-N ) :   1.3136 B( 44-C , 45-C ) :   1.3402 B( 44-C , 50-S ) :   1.1362
B( 45-C , 46-O ) :   1.2335 B( 45-C , 48-C ) :   1.2263 B( 46-O , 47-C ) :   0.9413
B( 47-C , 82-H ) :   0.9766 B( 47-C , 83-H ) :   0.9702 B( 47-C , 84-H ) :   0.9711
B( 48-C , 49-C ) :   1.4132 B( 48-C , 85-H ) :   0.9851 B( 49-C , 50-S ) :   1.0640
B( 49-C , 51-C ) :   1.1947 B( 51-C , 52-C ) :   1.6081 B( 51-C , 86-H ) :   0.9283
B( 52-C , 53-C ) :   1.0567 B( 52-C , 61-C ) :   0.9368 B( 53-C , 54-C ) :   1.6507
B( 53-C , 59-C ) :   0.9900 B( 54-C , 55-C ) :   1.1420 B( 54-C , 57-C ) :   1.1352
B( 55-C , 56-N ) :   2.9716 B( 57-C , 58-N ) :   3.0073 B( 59-C , 60-C ) :   1.2141
B( 59-C , 66-C ) :   1.4509 B( 60-C , 61-C ) :   0.9536 B( 60-C , 63-C ) :   1.4692
B( 61-C , 62-O ) :   2.1761 B( 63-C , 64-C ) :   1.1803 B( 63-C , 87-H ) :   1.0162
B( 64-C , 65-C ) :   1.2570 B( 64-C , 70-C ) :   1.2444 B( 65-C , 66-C ) :   1.2050
B( 65-C , 67-C ) :   1.2389 B( 66-C , 88-H ) :   0.9916 B( 67-C , 68-C ) :   1.4891
B( 67-C , 89-H ) :   0.9979 B( 68-C , 69-C ) :   1.2606 B( 68-C , 90-H ) :   0.9882
B( 69-C , 70-C ) :   1.4877 B( 69-C , 91-H ) :   0.9893 B( 70-C , 92-H ) :   0.9981

-----------------------------------------------------------------------------
         ABSORPTION SPECTRUM VIA TRANSITION ELECTRIC DIPOLE MOMENTS
-----------------------------------------------------------------------------
State   Energy  Wavelength   fosc         T2         TX        TY        TZ
        (cm-1)    (nm)                  (au**2)     (au)      (au)      (au)
-----------------------------------------------------------------------------
   0    7943.2   1258.9   0.562512158  23.31382   0.00589   4.80571  -0.46788
   1   15756.6    634.7   0.103785643   2.16846  -0.42666   0.91425  -1.07264
   2   19113.5    523.2   0.002815481   0.04849   0.20350  -0.01021  -0.08354
   3   19433.4    514.6   0.613322793  10.38999   0.70297   2.76426   1.50156
   4   19920.2    502.0   0.194578189   3.21570   0.36754  -1.57691   0.77069
   5   20067.9    498.3   0.130015646   2.13289   0.10123   1.37186  -0.49056
   6   20992.0    476.4   0.030885696   0.48437  -0.06065   0.64535   0.25341
   7   22419.4    446.0   0.016005157   0.23502   0.01606  -0.03587  -0.48320
   8   23877.9    418.8   0.014254841   0.19654  -0.14365   0.39960  -0.12737
   9   23993.5    416.8   0.009254225   0.12698  -0.02443  -0.33135  -0.12880
  10   24740.5    404.2   0.060481670   0.80481  -0.21600  -0.85667   0.15578
  11   25334.2    394.7   0.081329147   1.05685  -0.35163  -0.96570   0.02519
  12   25946.4    385.4   0.047297163   0.60011   0.09993  -0.21638   0.73709
  13   26332.3    379.8   0.000359561   0.00450  -0.05761   0.03361   0.00684
  14   26595.3    376.0   0.018176552   0.22500   0.32448   0.14593   0.31371
  15   26808.6    373.0   0.009739201   0.11960  -0.04205   0.12861   0.31826
  16   27073.0    369.4   0.034736349   0.42240  -0.00341  -0.02954  -0.64924
  17   27944.4    357.9   0.188610048   2.22201  -0.21628  -1.23266   0.80981
  18   28060.5    356.4   0.103218489   1.21098   0.10663   1.09277   0.07396
  19   28573.2    350.0   0.131223410   1.51192   0.53093   1.05516  -0.34157
  20   29117.7    343.4   0.196506587   2.22175  -0.55340  -1.25276  -0.58828
  21   29362.2    340.6   0.247243916   2.77213  -1.20331  -0.83632  -0.79042
  22   30176.6    331.4   0.006047338   0.06597   0.04122  -0.21217   0.13877
  23   30301.3    330.0   0.191985104   2.08584   0.33814   1.12203  -0.84412
  24   30912.3    323.5   0.473129282   5.03877  -0.65833  -0.81054  -1.98706
  25   31162.5    320.9   0.093876647   0.99175  -0.68034  -0.52681  -0.50135
  26   31387.1    318.6   0.052050536   0.54595   0.28233   0.67698   0.08909
  27   32188.8    310.7   0.060342104   0.61715   0.00390  -0.59512   0.51280
  28   32533.5    307.4   0.005696146   0.05764  -0.12992  -0.01528  -0.20132
  29   33025.2    302.8   0.100025128   0.99710  -0.06088   0.49085  -0.86745
  30   33304.3    300.3   0.114486155   1.13169  -0.70694  -0.74253   0.28385
  31   33572.6    297.9   0.177044278   1.73609  -0.38612   0.20339  -1.24324
  32   33829.6    295.6   0.036372874   0.35396  -0.49195  -0.28620  -0.17332
  33   33970.9    294.4   0.056874320   0.55117  -0.05869   0.73339   0.09929
  34   34039.1    293.8   0.127371550   1.23188  -0.07012  -0.68513   0.87038
  35   34326.2    291.3   0.065699214   0.63010  -0.25540  -0.71230  -0.23981
  36   34580.8    289.2   0.004037635   0.03844  -0.08086  -0.10414   0.14510
  37   34661.5    288.5   0.037125822   0.35262   0.02049   0.35043   0.47895
  38   35167.2    284.4   0.119499780   1.11868   0.41710   0.43463   0.86937
  39   35417.1    282.3   0.434595803   4.03969   1.54780   0.97865   0.82841
  40   35472.1    281.9   0.368433855   3.41939   1.16537   1.11530  -0.90410
  41   35761.6    279.6   0.255789036   2.35473   0.25091   0.68184  -1.35161
  42   36172.5    276.5   0.023998348   0.21841  -0.04258   0.11947   0.44981
  43   36548.2    273.6   0.114205627   1.02872   0.42809   0.17702   0.90229
  44   36739.5    272.2   0.041230431   0.36945  -0.33676   0.30468   0.40401
  45   36921.1    270.8   0.006198846   0.05527   0.15581   0.14994  -0.09228
  46   37661.7    265.5   0.038836827   0.33948  -0.18580  -0.53592   0.13323
  47   37839.5    264.3   0.008128027   0.07072   0.03584   0.16425   0.20604
  48   38014.9    263.1   0.007329351   0.06347   0.02343   0.16137  -0.19205
  49   38245.3    261.5   0.003187450   0.02744  -0.12655   0.09265   0.05329
  50   38504.0    259.7   0.016494299   0.14103   0.02633   0.37052   0.05522
  51   38707.1    258.4   0.034080830   0.28986  -0.21192  -0.19661   0.45420
  52   38888.1    257.1   0.021634636   0.18315   0.32700  -0.21174   0.17716
  53   38940.7    256.8   0.026401676   0.22320  -0.13402  -0.43246  -0.13498
  54   39096.2    255.8   0.077363278   0.65144   0.51854   0.37688   0.49043
  55   39237.5    254.9   0.068379486   0.57372  -0.13097  -0.72365  -0.18137
  56   39497.2    253.2   0.163149190   1.35986   0.26557   1.12805  -0.12973
  57   39778.9    251.4   0.006874561   0.05689   0.14296  -0.04494   0.18558
  58   40032.3    249.8   0.087890669   0.72278  -0.33516  -0.77136  -0.12433
  59   40166.0    249.0   0.008512896   0.06977   0.08145  -0.05531  -0.24511

FINAL SINGLE POINT ENERGY     -4109.782275212394

DIPOLE MOMENT
-------------
                                X             Y             Z
Electronic contribution:     12.68416      -1.40895      20.80197
Nuclear contribution   :    -14.71409       2.43605     -24.39888
                        -----------------------------------------
Total Dipole Moment    :     -2.02993       1.02710      -3.59691
                        -----------------------------------------
Magnitude (a.u.)       :      4.25598
Magnitude (Debye)      :     10.81784

Rotational constants in cm-1:     0.001879     0.000341     0.000299
Rotational constants in MHz :    56.328310    10.212818     8.976735

                             ****ORCA TERMINATED NORMALLY****
TOTAL RUN TIME: 0 days 0 hours 9 minutes 54 seconds 461 msec
