                         Program Version 4.2.0 -  RELEASE  -
|  1> # ORCA input file
|  2> # SCF done       -208.919067555572          0.000937734008
|  3> ! CAM-B3LYP def2-SVP def2/J RIJCOSX Grid4 TightSCF
|  4> %maxcore 5000
|  5> %tddft
|  6>     Mode sTDDFT
|  7>     Ethresh 5.0
|  8>     maxcore 5000
|  9> end
| 10>
| 11> %pal
| 12>   nprocs 6
| 13>   end
| 14> * xyz 0 1
| 15>    C        1.76126         1.35696         0.83889
| 16>    C        2.44517         2.38587         1.43347
| 17>    C        3.12083         2.26855         2.66640
| 18>    N        3.69269         2.22429         3.66013
| 19>    C        2.63283         3.64778         0.83866
| 20>    N        2.82227         4.68152         0.37568
| 21>    C        1.74640        -0.02194         1.31756
| 22>    C        1.39819        -0.87668         0.23083
| 23>    C        1.33711        -2.23272         0.37577
| 24>    C        1.61191        -2.80305         1.63913
| 25>    C        1.93959        -1.95206         2.73442
| 26>    C        2.00470        -0.55109         2.55292
| 27>    C        2.19902        -2.53377         3.99184
| 28>    C        2.14174        -3.89053         4.16078
| 29>    C        1.82118        -4.72757         3.08161
| 30>    C        1.56238        -4.19546         1.84758
| 31>    C        1.11663        -0.05793        -0.95931
| 32>    O        0.84675        -0.42606        -2.07926
| 33>    C        1.16892         1.35735        -0.48223
| 34>    C        0.60594         2.31961        -1.26293
| 35>    C        0.17924         3.61982        -0.91411
| 36>    C       -0.07257         4.15602         0.34085
| 37>    C       -0.52019         5.46855         0.27084
| 38>    C       -0.62615         5.94367        -1.05210
| 39>    S       -0.18352         4.76796        -2.19830
| 40>    C       -1.07996         7.28603        -1.01083
| 41>    C       -1.24632         7.66123         0.33655
| 42>    C       -0.89553         6.53421         1.18477
| 43>    C       -0.89765         6.48070         2.54759
| 44>    C       -1.27790         7.58021         3.34589
| 45>    N       -1.59642         8.47044         3.99419
| 46>    C       -0.52284         5.30734         3.23609
| 47>    N       -0.22887         4.34276         3.78232
| 48>    C       -1.69839         8.96872         0.48193
| 49>    C       -1.89191         9.59085        -0.74103
| 50>    S       -1.49413         8.53528        -2.08941
| 51>    C       -2.37545        10.92099        -0.95154
| 52>    C       -2.68055        11.43856        -2.20485
| 53>    F       -2.49851        10.67874        -3.30046
| 54>    C       -3.19371        12.72210        -2.41269
| 55>    F       -3.45690        13.06586        -3.68671
| 56>    C       -3.43915        13.63216        -1.39133
| 57>    C       -3.11376        13.15325        -0.08970
| 58>    C       -2.60109        11.82520         0.12594
| 59>    N       -2.37795        11.59146         1.41713
| 60>    S       -2.76747        12.89002         2.27313
| 61>    N       -3.24164        13.81925         1.05555
| 62>    C       -3.98732        14.93619        -1.60803
| 63>    C       -4.16631        15.92377        -0.65252
| 64>    C       -4.75222        17.06704        -1.18618
| 65>    C       -5.03013        16.94699        -2.56132
| 66>    S       -4.55249        15.43982        -3.19413
| 67>    C       -5.64410        18.14438        -3.00174
| 68>    C       -5.74164        19.03076        -1.90613
| 69>    C       -5.19420        18.37555        -0.72861
| 70>    C       -5.12929        18.86481         0.54201
| 71>    C       -5.63303        20.13386         0.90281
| 72>    N       -6.04821        21.15041         1.23122
| 73>    C       -4.57252        18.11768         1.60286
| 74>    N       -4.12037        17.51840         2.46946
| 75>    C       -6.32392        20.24709        -2.23831
| 76>    C       -6.68745        20.30372        -3.57757
| 77>    S       -6.30006        18.80038        -4.42475
| 78>    C       -7.36284        21.29055        -4.32585
| 79>    C       -7.56252        22.61250        -4.04324
| 80>    C       -8.39347        23.50096        -4.83732
| 81>    C       -9.36067        23.12320        -5.73289
| 82>    C      -10.16241        24.03089        -6.45601
| 83>    N      -10.83953        24.71690        -7.07962
| 84>    C       -9.72255        21.79122        -6.02410
| 85>    N      -10.08855        20.73504        -6.28860
| 86>    C       -8.09452        24.86964        -4.43854
| 87>    C       -7.16594        24.83122        -3.36011
| 88>    C       -6.82919        23.43306        -3.04332
| 89>    O       -6.06144        23.05668        -2.18393
| 90>    C       -6.70055        25.96906        -2.76673
| 91>    C       -7.15148        27.22313        -3.23598
| 92>    C       -8.07683        27.27072        -4.31866
| 93>    C       -8.54110        26.07467        -4.91264
| 94>    C       -8.51669        28.52769        -4.78103
| 95>    C       -8.06589        29.68315        -4.20291
| 96>    C       -7.15463        29.63515        -3.13740
| 97>    C       -6.70776        28.43136        -2.66367
| 98>    H        1.07936        -2.86338        -0.46205
| 99>    H        2.24270         0.07190         3.40094
|100>    H        2.44826        -1.88553         4.81894
|101>    H        2.34358        -4.32660         5.12762
|102>    H        1.77959        -5.79584         3.23284
|103>    H        1.31443        -4.83479         1.01294
|104>    H        0.39328         2.00712        -2.28130
|105>    H        0.02360         3.59190         1.25030
|106>    H       -1.88904         9.46760         1.41377
|107>    H       -3.87713        15.78476         0.37236
|108>    H       -6.48426        21.06137        -1.55661
|109>    H       -7.75717        20.92710        -5.26825
|110>    H       -5.99840        25.91189        -1.94829
|111>    H       -9.23497        26.14365        -5.73538
|112>    H       -9.21943        28.55942        -5.60071
|113>    H       -8.40948        30.64101        -4.56371
|114>    H       -6.80843        30.55670        -2.69389
|115>    H       -6.00644        28.38798        -1.84331
|116> *
|117>
|118>                          ****END OF INPUT****

CARTESIAN COORDINATES (ANGSTROEM)
---------------------------------
  C      1.761260    1.356960    0.838890
  C      2.445170    2.385870    1.433470
  C      3.120830    2.268550    2.666400
  N      3.692690    2.224290    3.660130
  C      2.632830    3.647780    0.838660
  N      2.822270    4.681520    0.375680
  C      1.746400   -0.021940    1.317560
  C      1.398190   -0.876680    0.230830
  C      1.337110   -2.232720    0.375770
  C      1.611910   -2.803050    1.639130
  C      1.939590   -1.952060    2.734420
  C      2.004700   -0.551090    2.552920
  C      2.199020   -2.533770    3.991840
  C      2.141740   -3.890530    4.160780
  C      1.821180   -4.727570    3.081610
  C      1.562380   -4.195460    1.847580
  C      1.116630   -0.057930   -0.959310
  O      0.846750   -0.426060   -2.079260
  C      1.168920    1.357350   -0.482230
  C      0.605940    2.319610   -1.262930
  C      0.179240    3.619820   -0.914110
  C     -0.072570    4.156020    0.340850
  C     -0.520190    5.468550    0.270840
  C     -0.626150    5.943670   -1.052100
  S     -0.183520    4.767960   -2.198300
  C     -1.079960    7.286030   -1.010830
  C     -1.246320    7.661230    0.336550
  C     -0.895530    6.534210    1.184770
  C     -0.897650    6.480700    2.547590
  C     -1.277900    7.580210    3.345890
  N     -1.596420    8.470440    3.994190
  C     -0.522840    5.307340    3.236090
  N     -0.228870    4.342760    3.782320
  C     -1.698390    8.968720    0.481930
  C     -1.891910    9.590850   -0.741030
  S     -1.494130    8.535280   -2.089410
  C     -2.375450   10.920990   -0.951540
  C     -2.680550   11.438560   -2.204850
  F     -2.498510   10.678740   -3.300460
  C     -3.193710   12.722100   -2.412690
  F     -3.456900   13.065860   -3.686710
  C     -3.439150   13.632160   -1.391330
  C     -3.113760   13.153250   -0.089700
  C     -2.601090   11.825200    0.125940
  N     -2.377950   11.591460    1.417130
  S     -2.767470   12.890020    2.273130
  N     -3.241640   13.819250    1.055550
  C     -3.987320   14.936190   -1.608030
  C     -4.166310   15.923770   -0.652520
  C     -4.752220   17.067040   -1.186180
  C     -5.030130   16.946990   -2.561320
  S     -4.552490   15.439820   -3.194130
  C     -5.644100   18.144380   -3.001740
  C     -5.741640   19.030760   -1.906130
  C     -5.194200   18.375550   -0.728610
  C     -5.129290   18.864810    0.542010
  C     -5.633030   20.133860    0.902810
  N     -6.048210   21.150410    1.231220
  C     -4.572520   18.117680    1.602860
  N     -4.120370   17.518400    2.469460
  C     -6.323920   20.247090   -2.238310
  C     -6.687450   20.303720   -3.577570
  S     -6.300060   18.800380   -4.424750
  C     -7.362840   21.290550   -4.325850
  C     -7.562520   22.612500   -4.043240
  C     -8.393470   23.500960   -4.837320
  C     -9.360670   23.123200   -5.732890
  C    -10.162410   24.030890   -6.456010
  N    -10.839530   24.716900   -7.079620
  C     -9.722550   21.791220   -6.024100
  N    -10.088550   20.735040   -6.288600
  C     -8.094520   24.869640   -4.438540
  C     -7.165940   24.831220   -3.360110
  C     -6.829190   23.433060   -3.043320
  O     -6.061440   23.056680   -2.183930
  C     -6.700550   25.969060   -2.766730
  C     -7.151480   27.223130   -3.235980
  C     -8.076830   27.270720   -4.318660
  C     -8.541100   26.074670   -4.912640
  C     -8.516690   28.527690   -4.781030
  C     -8.065890   29.683150   -4.202910
  C     -7.154630   29.635150   -3.137400
  C     -6.707760   28.431360   -2.663670
  H      1.079360   -2.863380   -0.462050
  H      2.242700    0.071900    3.400940
  H      2.448260   -1.885530    4.818940
  H      2.343580   -4.326600    5.127620
  H      1.779590   -5.795840    3.232840
  H      1.314430   -4.834790    1.012940
  H      0.393280    2.007120   -2.281300
  H      0.023600    3.591900    1.250300
  H     -1.889040    9.467600    1.413770
  H     -3.877130   15.784760    0.372360
  H     -6.484260   21.061370   -1.556610
  H     -7.757170   20.927100   -5.268250
  H     -5.998400   25.911890   -1.948290
  H     -9.234970   26.143650   -5.735380
  H     -9.219430   28.559420   -5.600710
  H     -8.409480   30.641010   -4.563710
  H     -6.808430   30.556700   -2.693890
  H     -6.006440   28.387980   -1.843310

 Total Charge           Charge          ....    0
 Multiplicity           Mult            ....    1
 Number of Electrons    NEL             ....  586
 Basis Dimension        Dim             .... 1272

ORBITAL ENERGIES
----------------

  NO   OCC          E(Eh)            E(eV)
   0   2.0000     -89.046073     -2423.0668
   1   2.0000     -88.998066     -2421.7605
   2   2.0000     -88.998025     -2421.7594
   3   2.0000     -88.997827     -2421.7540
   4   2.0000     -88.996839     -2421.7271
   5   2.0000     -24.827463      -675.5896
   6   2.0000     -24.827111      -675.5800
   7   2.0000     -19.217426      -522.9327
   8   2.0000     -19.215404      -522.8777
   9   2.0000     -14.460553      -393.4917
  10   2.0000     -14.460294      -393.4846
  11   2.0000     -14.434409      -392.7802
  12   2.0000     -14.432986      -392.7415
  13   2.0000     -14.432982      -392.7414
  14   2.0000     -14.430520      -392.6744
  15   2.0000     -14.418456      -392.3461
  16   2.0000     -14.416020      -392.2799
  17   2.0000     -14.413774      -392.2187
  18   2.0000     -14.413328      -392.2066
  19   2.0000     -10.403497      -283.0936
  20   2.0000     -10.402716      -283.0723
  21   2.0000     -10.369398      -282.1657
  22   2.0000     -10.369171      -282.1595
  23   2.0000     -10.369051      -282.1562
  24   2.0000     -10.366679      -282.0917
  25   2.0000     -10.356293      -281.8091
  26   2.0000     -10.355901      -281.7984
  27   2.0000     -10.354443      -281.7587
  28   2.0000     -10.354185      -281.7517
  29   2.0000     -10.347769      -281.5771
  30   2.0000     -10.345226      -281.5079
  31   2.0000     -10.344039      -281.4756
  32   2.0000     -10.342828      -281.4426
  33   2.0000     -10.341361      -281.4027
  34   2.0000     -10.340408      -281.3768
  35   2.0000     -10.339340      -281.3477
  36   2.0000     -10.338058      -281.3129
  37   2.0000     -10.337934      -281.3095
  38   2.0000     -10.337842      -281.3070
  39   2.0000     -10.337578      -281.2998
  40   2.0000     -10.337290      -281.2920
  41   2.0000     -10.334575      -281.2181
  42   2.0000     -10.333014      -281.1756
  43   2.0000     -10.332915      -281.1729
  44   2.0000     -10.330317      -281.1022
  45   2.0000     -10.330184      -281.0986
  46   2.0000     -10.329811      -281.0885
  47   2.0000     -10.328903      -281.0637
  48   2.0000     -10.326036      -280.9857
  49   2.0000     -10.319550      -280.8092
  50   2.0000     -10.319110      -280.7973
  51   2.0000     -10.316794      -280.7342
  52   2.0000     -10.315731      -280.7053
  53   2.0000     -10.314560      -280.6734
  54   2.0000     -10.311756      -280.5971
  55   2.0000     -10.310817      -280.5716
  56   2.0000     -10.310560      -280.5646
  57   2.0000     -10.310062      -280.5511
  58   2.0000     -10.309784      -280.5435
  59   2.0000     -10.303631      -280.3761
  60   2.0000     -10.303514      -280.3729
  61   2.0000     -10.303214      -280.3647
  62   2.0000     -10.302135      -280.3353
  63   2.0000     -10.302066      -280.3335
  64   2.0000     -10.301638      -280.3218
  65   2.0000     -10.297449      -280.2078
  66   2.0000     -10.297284      -280.2033
  67   2.0000     -10.297153      -280.1998
  68   2.0000     -10.297004      -280.1957
  69   2.0000     -10.296921      -280.1935
  70   2.0000     -10.296383      -280.1788
  71   2.0000     -10.296179      -280.1733
  72   2.0000     -10.295919      -280.1662
  73   2.0000     -10.289471      -279.9907
  74   2.0000     -10.288111      -279.9537
  75   2.0000     -10.286105      -279.8991
  76   2.0000     -10.285999      -279.8963
  77   2.0000     -10.285637      -279.8864
  78   2.0000     -10.285494      -279.8825
  79   2.0000     -10.285311      -279.8775
  80   2.0000     -10.285306      -279.8774
  81   2.0000     -10.284864      -279.8654
  82   2.0000     -10.284612      -279.8585
  83   2.0000      -8.137540      -221.4337
  84   2.0000      -8.092865      -220.2181
  85   2.0000      -8.092809      -220.2165
  86   2.0000      -8.091866      -220.1909
  87   2.0000      -8.091080      -220.1695
  88   2.0000      -6.108818      -166.2294
  89   2.0000      -6.100870      -166.0131
  90   2.0000      -6.099944      -165.9879
  91   2.0000      -6.062003      -164.9555
  92   2.0000      -6.061902      -164.9527
  93   2.0000      -6.061207      -164.9338
  94   2.0000      -6.060385      -164.9115
  95   2.0000      -6.057856      -164.8426
  96   2.0000      -6.057800      -164.8411
  97   2.0000      -6.056749      -164.8125
  98   2.0000      -6.055972      -164.7914
  99   2.0000      -6.055365      -164.7749
 100   2.0000      -6.055343      -164.7743
 101   2.0000      -6.054326      -164.7466
 102   2.0000      -6.053484      -164.7237
 103   2.0000      -1.350354       -36.7450
 104   2.0000      -1.332539       -36.2602
 105   2.0000      -1.149394       -31.2766
 106   2.0000      -1.133083       -30.8327
 107   2.0000      -1.130880       -30.7728
 108   2.0000      -1.052238       -28.6329
 109   2.0000      -1.052172       -28.6310
 110   2.0000      -1.025927       -27.9169
 111   2.0000      -1.024517       -27.8785
 112   2.0000      -1.020027       -27.7563
 113   2.0000      -1.018508       -27.7150
 114   2.0000      -1.013105       -27.5680
 115   2.0000      -1.012530       -27.5523
 116   2.0000      -1.010569       -27.4990
 117   2.0000      -1.008368       -27.4391
 118   2.0000      -0.999284       -27.1919
 119   2.0000      -0.999128       -27.1877
 120   2.0000      -0.998129       -27.1605
 121   2.0000      -0.994087       -27.0505
 122   2.0000      -0.993218       -27.0268
 123   2.0000      -0.991662       -26.9845
 124   2.0000      -0.972327       -26.4584
 125   2.0000      -0.971692       -26.4411
 126   2.0000      -0.965016       -26.2594
 127   2.0000      -0.961994       -26.1772
 128   2.0000      -0.931055       -25.3353
 129   2.0000      -0.928304       -25.2604
 130   2.0000      -0.922884       -25.1129
 131   2.0000      -0.918862       -25.0035
 132   2.0000      -0.906545       -24.6683
 133   2.0000      -0.899043       -24.4642
 134   2.0000      -0.892084       -24.2748
 135   2.0000      -0.886690       -24.1281
 136   2.0000      -0.881384       -23.9837
 137   2.0000      -0.881165       -23.9777
 138   2.0000      -0.878648       -23.9092
 139   2.0000      -0.877802       -23.8862
 140   2.0000      -0.869572       -23.6623
 141   2.0000      -0.862757       -23.4768
 142   2.0000      -0.861817       -23.4512
 143   2.0000      -0.860517       -23.4159
 144   2.0000      -0.830911       -22.6102
 145   2.0000      -0.828126       -22.5344
 146   2.0000      -0.827737       -22.5239
 147   2.0000      -0.815264       -22.1845
 148   2.0000      -0.806839       -21.9552
 149   2.0000      -0.783809       -21.3285
 150   2.0000      -0.781932       -21.2775
 151   2.0000      -0.776926       -21.1412
 152   2.0000      -0.769447       -20.9377
 153   2.0000      -0.761586       -20.7238
 154   2.0000      -0.760417       -20.6920
 155   2.0000      -0.743282       -20.2257
 156   2.0000      -0.742680       -20.2093
 157   2.0000      -0.729982       -19.8638
 158   2.0000      -0.720593       -19.6083
 159   2.0000      -0.709359       -19.3026
 160   2.0000      -0.707713       -19.2579
 161   2.0000      -0.704233       -19.1632
 162   2.0000      -0.701377       -19.0854
 163   2.0000      -0.699731       -19.0406
 164   2.0000      -0.695407       -18.9230
 165   2.0000      -0.693530       -18.8719
 166   2.0000      -0.686361       -18.6768
 167   2.0000      -0.685429       -18.6515
 168   2.0000      -0.677548       -18.4370
 169   2.0000      -0.675029       -18.3685
 170   2.0000      -0.672048       -18.2874
 171   2.0000      -0.663087       -18.0435
 172   2.0000      -0.661000       -17.9867
 173   2.0000      -0.652738       -17.7619
 174   2.0000      -0.648634       -17.6502
 175   2.0000      -0.642457       -17.4821
 176   2.0000      -0.638325       -17.3697
 177   2.0000      -0.634408       -17.2631
 178   2.0000      -0.631384       -17.1808
 179   2.0000      -0.629034       -17.1169
 180   2.0000      -0.622576       -16.9412
 181   2.0000      -0.619217       -16.8498
 182   2.0000      -0.615348       -16.7445
 183   2.0000      -0.608513       -16.5585
 184   2.0000      -0.607380       -16.5277
 185   2.0000      -0.605618       -16.4797
 186   2.0000      -0.602294       -16.3892
 187   2.0000      -0.600831       -16.3495
 188   2.0000      -0.590503       -16.0684
 189   2.0000      -0.580385       -15.7931
 190   2.0000      -0.578466       -15.7409
 191   2.0000      -0.575620       -15.6634
 192   2.0000      -0.574902       -15.6439
 193   2.0000      -0.568441       -15.4681
 194   2.0000      -0.558163       -15.1884
 195   2.0000      -0.555992       -15.1293
 196   2.0000      -0.555266       -15.1095
 197   2.0000      -0.553588       -15.0639
 198   2.0000      -0.552859       -15.0441
 199   2.0000      -0.549669       -14.9573
 200   2.0000      -0.546456       -14.8698
 201   2.0000      -0.545901       -14.8547
 202   2.0000      -0.540165       -14.6986
 203   2.0000      -0.538319       -14.6484
 204   2.0000      -0.536990       -14.6122
 205   2.0000      -0.532401       -14.4874
 206   2.0000      -0.529892       -14.4191
 207   2.0000      -0.528308       -14.3760
 208   2.0000      -0.523463       -14.2441
 209   2.0000      -0.520658       -14.1678
 210   2.0000      -0.519342       -14.1320
 211   2.0000      -0.518118       -14.0987
 212   2.0000      -0.515691       -14.0327
 213   2.0000      -0.511801       -13.9268
 214   2.0000      -0.510109       -13.8808
 215   2.0000      -0.509371       -13.8607
 216   2.0000      -0.509099       -13.8533
 217   2.0000      -0.508548       -13.8383
 218   2.0000      -0.505573       -13.7573
 219   2.0000      -0.504527       -13.7289
 220   2.0000      -0.504055       -13.7160
 221   2.0000      -0.501994       -13.6599
 222   2.0000      -0.498454       -13.5636
 223   2.0000      -0.497167       -13.5286
 224   2.0000      -0.493223       -13.4213
 225   2.0000      -0.491918       -13.3858
 226   2.0000      -0.491322       -13.3696
 227   2.0000      -0.489058       -13.3080
 228   2.0000      -0.485776       -13.2186
 229   2.0000      -0.484198       -13.1757
 230   2.0000      -0.481585       -13.1046
 231   2.0000      -0.477017       -12.9803
 232   2.0000      -0.476520       -12.9668
 233   2.0000      -0.465092       -12.6558
 234   2.0000      -0.464861       -12.6495
 235   2.0000      -0.464536       -12.6407
 236   2.0000      -0.463128       -12.6024
 237   2.0000      -0.461638       -12.5618
 238   2.0000      -0.460796       -12.5389
 239   2.0000      -0.457902       -12.4602
 240   2.0000      -0.455802       -12.4030
 241   2.0000      -0.454485       -12.3672
 242   2.0000      -0.451953       -12.2983
 243   2.0000      -0.450807       -12.2671
 244   2.0000      -0.448844       -12.2137
 245   2.0000      -0.444224       -12.0879
 246   2.0000      -0.444102       -12.0846
 247   2.0000      -0.443854       -12.0779
 248   2.0000      -0.443255       -12.0616
 249   2.0000      -0.442852       -12.0506
 250   2.0000      -0.441883       -12.0242
 251   2.0000      -0.441270       -12.0076
 252   2.0000      -0.440907       -11.9977
 253   2.0000      -0.439321       -11.9545
 254   2.0000      -0.438853       -11.9418
 255   2.0000      -0.433782       -11.8038
 256   2.0000      -0.433585       -11.7985
 257   2.0000      -0.432443       -11.7674
 258   2.0000      -0.431930       -11.7534
 259   2.0000      -0.430017       -11.7014
 260   2.0000      -0.427492       -11.6326
 261   2.0000      -0.426858       -11.6154
 262   2.0000      -0.426187       -11.5971
 263   2.0000      -0.424682       -11.5562
 264   2.0000      -0.421733       -11.4759
 265   2.0000      -0.419135       -11.4052
 266   2.0000      -0.418859       -11.3977
 267   2.0000      -0.418078       -11.3765
 268   2.0000      -0.410391       -11.1673
 269   2.0000      -0.408724       -11.1219
 270   2.0000      -0.404299       -11.0015
 271   2.0000      -0.403314       -10.9747
 272   2.0000      -0.387571       -10.5463
 273   2.0000      -0.386203       -10.5091
 274   2.0000      -0.382679       -10.4132
 275   2.0000      -0.376117       -10.2347
 276   2.0000      -0.371898       -10.1199
 277   2.0000      -0.360904        -9.8207
 278   2.0000      -0.355958        -9.6861
 279   2.0000      -0.353235        -9.6120
 280   2.0000      -0.351879        -9.5751
 281   2.0000      -0.345009        -9.3882
 282   2.0000      -0.339057        -9.2262
 283   2.0000      -0.335194        -9.1211
 284   2.0000      -0.327459        -8.9106
 285   2.0000      -0.326206        -8.8765
 286   2.0000      -0.319040        -8.6815
 287   2.0000      -0.316549        -8.6137
 288   2.0000      -0.311799        -8.4845
 289   2.0000      -0.295485        -8.0406
 290   2.0000      -0.293851        -7.9961
 291   2.0000      -0.278558        -7.5799
 292   2.0000      -0.256259        -6.9732
 293   0.0000      -0.121370        -3.3026
 294   0.0000      -0.111432        -3.0322
 295   0.0000      -0.093212        -2.5364
 296   0.0000      -0.089645        -2.4394
 297   0.0000      -0.083579        -2.2743

MULLIKEN ATOMIC CHARGES
-----------------------
   0 C :    0.270098
   1 C :   -0.328258
   2 C :   -0.170522
   3 N :    0.159426
   4 C :   -0.204475
   5 N :    0.168158
   6 C :    0.027627
   7 C :    0.016071
   8 C :   -0.080033
   9 C :    0.093063
  10 C :    0.091432
  11 C :   -0.074366
  12 C :   -0.016093
  13 C :    0.038024
  14 C :    0.032805
  15 C :   -0.014187
  16 C :    0.135749
  17 O :   -0.144211
  18 C :   -0.140202
  19 C :    0.081643
  20 C :   -0.106576
  21 C :   -0.000715
  22 C :   -0.005181
  23 C :   -0.077226
  24 S :    0.215517
  25 C :   -0.094078
  26 C :    0.036618
  27 C :    0.309419
  28 C :   -0.291144
  29 C :   -0.185906
  30 N :    0.175375
  31 C :   -0.184178
  32 N :    0.171094
  33 C :   -0.057466
  34 C :   -0.136938
  35 S :    0.211497
  36 C :    0.120792
  37 C :    0.119337
  38 F :   -0.173184
  39 C :    0.121225
  40 F :   -0.173155
  41 C :    0.114696
  42 C :    0.005643
  43 C :   -0.005616
  44 N :   -0.284185
  45 S :    0.566755
  46 N :   -0.288143
  47 C :   -0.134374
  48 C :   -0.059607
  49 C :    0.036026
  50 C :   -0.091980
  51 S :    0.211510
  52 C :   -0.087044
  53 C :   -0.015117
  54 C :    0.311725
  55 C :   -0.300553
  56 C :   -0.190223
  57 N :    0.192845
  58 C :   -0.188696
  59 N :    0.174127
  60 C :    0.021587
  61 C :   -0.110338
  62 S :    0.209008
  63 C :    0.026143
  64 C :   -0.095172
  65 C :    0.301982
  66 C :   -0.346095
  67 C :   -0.183063
  68 N :    0.149166
  69 C :   -0.206025
  70 N :    0.157025
  71 C :    0.050537
  72 C :   -0.006967
  73 C :    0.157107
  74 O :   -0.152313
  75 C :   -0.078445
  76 C :    0.097797
  77 C :    0.097206
  78 C :   -0.084497
  79 C :   -0.021007
  80 C :    0.037051
  81 C :    0.036612
  82 C :   -0.018095
  83 H :   -0.012229
  84 H :   -0.000773
  85 H :   -0.008398
  86 H :   -0.005038
  87 H :   -0.004147
  88 H :   -0.017892
  89 H :    0.020684
  90 H :    0.025447
  91 H :    0.024343
  92 H :    0.026506
  93 H :    0.035871
  94 H :    0.021688
  95 H :   -0.009275
  96 H :   -0.007415
  97 H :   -0.007982
  98 H :   -0.005100
  99 H :   -0.004969
 100 H :   -0.015187
Sum of atomic charges:   -0.0000000

LOEWDIN ATOMIC CHARGES
----------------------
   0 C :    0.065767
   1 C :   -0.136858
   2 C :   -0.018487
   3 N :   -0.046095
   4 C :   -0.016010
   5 N :   -0.047081
   6 C :   -0.022868
   7 C :   -0.057962
   8 C :    0.032869
   9 C :   -0.009185
  10 C :   -0.005001
  11 C :    0.019023
  12 C :   -0.005321
  13 C :   -0.012297
  14 C :   -0.013043
  15 C :   -0.009406
  16 C :    0.083654
  17 O :   -0.144719
  18 C :   -0.088651
  19 C :    0.040349
  20 C :   -0.178604
  21 C :    0.009578
  22 C :   -0.063450
  23 C :   -0.161539
  24 S :    0.500749
  25 C :   -0.183676
  26 C :   -0.062305
  27 C :    0.081804
  28 C :   -0.096584
  29 C :   -0.016729
  30 N :   -0.028217
  31 C :   -0.013317
  32 N :   -0.031603
  33 C :   -0.012648
  34 C :   -0.164521
  35 S :    0.496607
  36 C :   -0.062830
  37 C :    0.060536
  38 F :   -0.047964
  39 C :    0.062739
  40 F :   -0.047394
  41 C :   -0.066046
  42 C :   -0.038237
  43 C :   -0.038922
  44 N :   -0.270331
  45 S :    0.682072
  46 N :   -0.271244
  47 C :   -0.160873
  48 C :   -0.015687
  49 C :   -0.058837
  50 C :   -0.189326
  51 S :    0.495539
  52 C :   -0.160380
  53 C :   -0.072188
  54 C :    0.076146
  55 C :   -0.093476
  56 C :   -0.020976
  57 N :   -0.018301
  58 C :   -0.015811
  59 N :   -0.029297
  60 C :    0.022425
  61 C :   -0.176098
  62 S :    0.496174
  63 C :    0.042789
  64 C :   -0.093313
  65 C :    0.075972
  66 C :   -0.142556
  67 C :   -0.017699
  68 N :   -0.054309
  69 C :   -0.025438
  70 N :   -0.054965
  71 C :   -0.026418
  72 C :   -0.055187
  73 C :    0.084998
  74 O :   -0.139152
  75 C :    0.033629
  76 C :   -0.008188
  77 C :   -0.006219
  78 C :    0.019295
  79 C :   -0.005763
  80 C :   -0.013058
  81 C :   -0.012033
  82 C :   -0.009097
  83 H :    0.039261
  84 H :    0.040457
  85 H :    0.035220
  86 H :    0.033194
  87 H :    0.032915
  88 H :    0.031719
  89 H :    0.045563
  90 H :    0.042900
  91 H :    0.039241
  92 H :    0.039258
  93 H :    0.045411
  94 H :    0.043705
  95 H :    0.040128
  96 H :    0.038947
  97 H :    0.034789
  98 H :    0.033086
  99 H :    0.032854
 100 H :    0.032427

  Mayer bond orders larger than 0.100000
B(  0-C ,  1-C ) :   1.6483 B(  0-C ,  6-C ) :   0.9977 B(  0-C , 18-C ) :   1.0333
B(  1-C ,  2-C ) :   1.1292 B(  1-C ,  4-C ) :   1.1725 B(  2-C ,  3-N ) :   2.9922
B(  4-C ,  5-N ) :   2.9948 B(  6-C ,  7-C ) :   1.2143 B(  6-C , 11-C ) :   1.4601
B(  7-C ,  8-C ) :   1.4755 B(  7-C , 16-C ) :   0.9228 B(  8-C ,  9-C ) :   1.1838
B(  8-C , 83-H ) :   1.0153 B(  9-C , 10-C ) :   1.2569 B(  9-C , 15-C ) :   1.2463
B( 10-C , 11-C ) :   1.2057 B( 10-C , 12-C ) :   1.2411 B( 11-C , 84-H ) :   0.9934
B( 12-C , 13-C ) :   1.4902 B( 12-C , 85-H ) :   0.9971 B( 13-C , 14-C ) :   1.2611
B( 13-C , 86-H ) :   0.9883 B( 14-C , 15-C ) :   1.4883 B( 14-C , 87-H ) :   0.9893
B( 15-C , 88-H ) :   0.9970 B( 16-C , 17-O ) :   2.2645 B( 16-C , 18-C ) :   0.9398
B( 18-C , 19-C ) :   1.6751 B( 19-C , 20-C ) :   1.1361 B( 19-C , 89-H ) :   0.9256
B( 20-C , 21-C ) :   1.3962 B( 20-C , 24-S ) :   1.0919 B( 21-C , 22-C ) :   1.3560
B( 21-C , 90-H ) :   0.9788 B( 22-C , 23-C ) :   1.4157 B( 22-C , 27-C ) :   0.9951
B( 23-C , 24-S ) :   1.1535 B( 23-C , 25-C ) :   1.1915 B( 25-C , 26-C ) :   1.4239
B( 25-C , 35-S ) :   1.1122 B( 26-C , 27-C ) :   0.9955 B( 26-C , 33-C ) :   1.2643
B( 27-C , 28-C ) :   1.7177 B( 28-C , 29-C ) :   1.1374 B( 28-C , 31-C ) :   1.1327
B( 29-C , 30-N ) :   2.9856 B( 31-C , 32-N ) :   2.9825 B( 33-C , 34-C ) :   1.4608
B( 33-C , 91-H ) :   0.9815 B( 34-C , 35-S ) :   1.0976 B( 34-C , 36-C ) :   1.1477
B( 36-C , 37-C ) :   1.3703 B( 36-C , 41-C ) :   0.1275 B( 36-C , 43-C ) :   1.1742
B( 37-C , 38-F ) :   1.1328 B( 37-C , 39-C ) :   1.1841 B( 39-C , 40-F ) :   1.1339
B( 39-C , 41-C ) :   1.3721 B( 41-C , 42-C ) :   1.1724 B( 41-C , 47-C ) :   1.1481
B( 42-C , 43-C ) :   1.1378 B( 42-C , 46-N ) :   1.5387 B( 43-C , 44-N ) :   1.5427
B( 44-N , 45-S ) :   1.2662 B( 44-N , 46-N ) :   0.1404 B( 45-S , 46-N ) :   1.2657
B( 47-C , 48-C ) :   1.4597 B( 47-C , 51-S ) :   1.1017 B( 48-C , 49-C ) :   1.2650
B( 48-C , 92-H ) :   0.9806 B( 49-C , 50-C ) :   1.4227 B( 49-C , 54-C ) :   0.9956
B( 50-C , 51-S ) :   1.1060 B( 50-C , 52-C ) :   1.2004 B( 52-C , 53-C ) :   1.3877
B( 52-C , 62-S ) :   1.1658 B( 53-C , 54-C ) :   0.9912 B( 53-C , 60-C ) :   1.3309
B( 54-C , 55-C ) :   1.7185 B( 55-C , 56-C ) :   1.1351 B( 55-C , 58-C ) :   1.1395
B( 56-C , 57-N ) :   2.9966 B( 58-C , 59-N ) :   2.9841 B( 60-C , 61-C ) :   1.4055
B( 60-C , 93-H ) :   0.9745 B( 61-C , 62-S ) :   1.0774 B( 61-C , 63-C ) :   1.1955
B( 63-C , 64-C ) :   1.6001 B( 63-C , 94-H ) :   0.9257 B( 64-C , 65-C ) :   1.0729
B( 64-C , 73-C ) :   0.9414 B( 65-C , 66-C ) :   1.6315 B( 65-C , 71-C ) :   0.9911
B( 66-C , 67-C ) :   1.1467 B( 66-C , 69-C ) :   1.1399 B( 67-C , 68-N ) :   2.9684
B( 69-C , 70-N ) :   2.9946 B( 71-C , 72-C ) :   1.2141 B( 71-C , 78-C ) :   1.4504
B( 72-C , 73-C ) :   0.9470 B( 72-C , 75-C ) :   1.4738 B( 73-C , 74-O ) :   2.1919
B( 75-C , 76-C ) :   1.1783 B( 75-C , 95-H ) :   1.0166 B( 76-C , 77-C ) :   1.2567
B( 76-C , 82-C ) :   1.2450 B( 77-C , 78-C ) :   1.2057 B( 77-C , 79-C ) :   1.2400
B( 78-C , 96-H ) :   0.9910 B( 79-C , 80-C ) :   1.4880 B( 79-C , 97-H ) :   0.9979
B( 80-C , 81-C ) :   1.2605 B( 80-C , 98-H ) :   0.9891 B( 81-C , 82-C ) :   1.4877
B( 81-C , 99-H ) :   0.9891 B( 82-C ,100-H ) :   0.9982

-----------------------------------------------------------------------------
         ABSORPTION SPECTRUM VIA TRANSITION ELECTRIC DIPOLE MOMENTS
-----------------------------------------------------------------------------
State   Energy  Wavelength   fosc         T2         TX        TY        TZ
        (cm-1)    (nm)                  (au**2)     (au)      (au)      (au)
-----------------------------------------------------------------------------
   0   13510.4    740.2   1.080316642  26.32431   1.98363  -4.62625   0.99363
   1   14659.2    682.2   0.045106791   1.01300   0.40898  -0.77488   0.49526
   2   18733.8    533.8   1.623978102  28.53836   2.11521  -4.77873   1.10815
   3   21338.5    468.6   0.033498554   0.51682  -0.06333   0.42473  -0.57655
   4   22024.7    454.0   0.013586660   0.20309   0.31865  -0.28124   0.14983
   5   22900.7    436.7   0.243244600   3.49679  -1.02951   1.18021  -1.02176
   6   23915.3    418.1   0.024508942   0.33738   0.44826  -0.03576   0.36766
   7   25229.2    396.4   0.008229229   0.10738  -0.12918  -0.25256   0.16404
   8   25408.5    393.6   0.062932269   0.81540   0.02979  -0.88788   0.16179
   9   27062.0    369.5   0.003928872   0.04780  -0.06869   0.12530   0.16546
  10   27532.0    363.2   0.001091547   0.01305  -0.00257   0.09690   0.06047
  11   27787.7    359.9   0.022385141   0.26521   0.26035  -0.24649   0.36968
  12   28482.7    351.1   0.029851577   0.34503  -0.19492   0.54795  -0.08239
  13   28707.9    348.3   0.014727211   0.16889  -0.05366  -0.26539  -0.30915
  14   29010.6    344.7   0.038204366   0.43354   0.37605   0.53172  -0.09694
  15   29422.9    339.9   0.005214608   0.05835  -0.22182  -0.01212  -0.09485
  16   29575.6    338.1   0.124576330   1.38668  -0.15275  -1.16658   0.04934
  17   29664.4    337.1   0.302438815   3.35643   0.22076  -0.65370  -1.69716
  18   30132.6    331.9   0.085993816   0.93952   0.24392   0.90367   0.25179
  19   30337.3    329.6   0.235704159   2.55779  -0.03068   1.44999  -0.67409
  20   30455.7    328.3   0.321828260   3.47881  -0.20897  -1.54584  -1.02251
  21   30960.4    323.0   0.231170717   2.45811  -0.22276   0.62033  -1.42256
  22   31084.4    321.7   0.399741620   4.23363  -0.29752   2.00952   0.32704
  23   31417.1    318.3   0.012149705   0.12731   0.24067   0.12428  -0.23226
  24   31948.1    313.0   0.020522849   0.21148   0.37672   0.18722  -0.18578
  25   32248.5    310.1   0.475819721   4.85745   0.63508  -1.92117   0.87363
  26   32669.0    306.1   0.342472968   3.45117  -0.07216   1.85630   0.00982
  27   32716.1    305.7   0.056493172   0.56847  -0.00391   0.10499   0.74662
  28   33318.8    300.1   0.014647996   0.14473   0.11415  -0.03163   0.36153
  29   33543.7    298.1   0.087040625   0.85425  -0.16556   0.83004  -0.37131
  30   33709.8    296.6   0.387732389   3.78662   0.30778  -1.89589   0.31222
  31   33888.9    295.1   0.019172826   0.18625  -0.01855   0.43088   0.01597
  32   34289.7    291.6   0.092821129   0.89117   0.44252   0.23103  -0.80123
  33   34398.1    290.7   0.112135238   1.07321   0.34698   0.95742   0.19015
  34   34412.1    290.6   0.097286794   0.93072  -0.21558  -0.87315   0.34907
  35   34478.8    290.0   0.467035425   4.45937   0.02335  -1.20515  -1.73391
  36   34649.3    288.6   0.129598436   1.23135  -0.36838   0.63484  -0.83224
  37   34881.6    286.7   0.373449600   3.52461   1.01506   1.16535   1.06594
  38   35045.6    285.3   0.074623837   0.70100   0.14560   0.70952  -0.41999
  39   35201.7    284.1   0.086410755   0.80813   0.11946  -0.55691  -0.69549
  40   35818.1    279.2   0.044872725   0.41243   0.26327   0.51724  -0.27493
  41   35850.0    278.9   0.066745146   0.61292   0.01119  -0.35507  -0.69766
  42   36032.9    277.5   0.097167035   0.88776   0.32792   0.78367   0.40754
  43   36588.6    273.3   0.159266383   1.43303  -0.03845   1.07647  -0.52226
  44   37163.3    269.1   0.009364662   0.08296  -0.13898   0.25197   0.01236
  45   37259.6    268.4   0.052311303   0.46220   0.08395  -0.63776  -0.22005
  46   37471.8    266.9   0.034200556   0.30047   0.15668  -0.50111  -0.15751
  47   37700.9    265.2   0.015398289   0.13446  -0.13631  -0.34017  -0.01286
  48   37888.7    263.9   0.052266544   0.45414  -0.11306  -0.10216  -0.65645
  49   37995.3    263.2   0.067999237   0.58918   0.22498   0.27563   0.68014
  50   38145.2    262.2   0.058995008   0.50916  -0.26155  -0.28634  -0.59896
  51   38257.3    261.4   0.014968262   0.12881  -0.28496  -0.14124  -0.16630
  52   38414.6    260.3   0.038095440   0.32648  -0.14129  -0.35281  -0.42666
  53   38595.4    259.1   0.018072995   0.15416  -0.05408  -0.38881  -0.00804
  54   38729.2    258.2   0.016658386   0.14160   0.23032  -0.22023   0.20013
  55   38792.3    257.8   0.067755348   0.57501   0.43665  -0.50467   0.36007
  56   38886.2    257.2   0.026025746   0.22034   0.05682  -0.45164   0.11457
  57   39494.4    253.2   0.037886049   0.31581   0.20342   0.42915   0.30043
  58   39576.6    252.7   0.064799338   0.53902  -0.01357   0.72904  -0.08567
  59   39634.3    252.3   0.096300584   0.79990   0.37295   0.22688   0.78060
  60   39716.2    251.8   0.229976130   1.90630   0.97853  -0.22275   0.94824
  61   39899.5    250.6   0.066957652   0.55247  -0.18658   0.43357   0.57417
  62   40016.8    249.9   0.028090047   0.23109   0.27164  -0.22800   0.32453
  63   40277.7    248.3   0.002602348   0.02127  -0.00118   0.11550   0.08904

FINAL SINGLE POINT ENERGY     -5333.263063848232

DIPOLE MOMENT
-------------
                                X             Y             Z
Electronic contribution:     -0.42054      -2.71679     -12.40079
Nuclear contribution   :      0.81568       1.83946      11.41497
                        -----------------------------------------
Total Dipole Moment    :      0.39514      -0.87734      -0.98581
                        -----------------------------------------
Magnitude (a.u.)       :      1.37756
Magnitude (Debye)      :      3.50149

Rotational constants in cm-1:     0.002892     0.000137     0.000133
Rotational constants in MHz :    86.687087     4.121272     3.994992

                             ****ORCA TERMINATED NORMALLY****
TOTAL RUN TIME: 0 days 0 hours 11 minutes 57 seconds 976 msec
