                         Program Version 4.2.0 -  RELEASE  -
|  1> # ORCA input file
|  2> # SCF done       -140.010593639884          0.000735995913
|  3> ! CAM-B3LYP def2-SVP def2/J RIJCOSX Grid4 TightSCF
|  4> %maxcore 5000
|  5> %tddft
|  6>     Mode sTDDFT
|  7>     Ethresh 5.0
|  8>     maxcore 5000
|  9> end
| 10>
| 11> %pal
| 12>   nprocs 6
| 13>   end
| 14> * xyz 0 1
| 15>    C        4.84544        -8.45645        -4.32244
| 16>    C        5.55619        -9.41030        -4.99923
| 17>    C        5.21251        -9.98811        -6.29813
| 18>    O        4.22476        -9.63048        -6.90260
| 19>    C        6.15986       -11.03966        -6.81729
| 20>    S        6.97376        -9.87191        -4.10333
| 21>    C        6.58496        -8.77945        -2.85158
| 22>    C        5.42065        -8.08117        -3.08188
| 23>    C        4.82730        -7.08596        -2.22493
| 24>    C        5.30011        -6.72568        -1.01602
| 25>    C        4.74436        -5.72565        -0.16274
| 26>    S        5.05889        -5.84258         1.54436
| 27>    C        4.08183        -4.46398         1.84886
| 28>    C        3.53655        -3.92854         0.72605
| 29>    C        2.70052        -2.69209         0.76038
| 30>    C        3.91916        -4.64310        -0.45602
| 31>    C        3.63456        -4.24595        -1.80563
| 32>    C        2.53370        -3.59297        -2.25186
| 33>    C        2.37528        -3.19059        -3.59865
| 34>    C        1.28866        -2.50970        -4.06818
| 35>    C        1.16434        -2.07596        -5.39510
| 36>    C        0.12475        -1.32925        -5.89361
| 37>    C        0.00110        -0.83828        -7.21469
| 38>    C       -1.10931        -0.08006        -7.43127
| 39>    C       -1.93602         0.06562        -6.29581
| 40>    S       -1.25498        -0.80409        -4.93770
| 41>    C       -3.10965         0.79141        -6.20735
| 42>    C       -3.70501         1.57422        -7.22018
| 43>    C       -4.84639         2.21419        -6.84119
| 44>    C       -5.23718         1.96556        -5.50482
| 45>    S       -4.07494         0.87266        -4.75172
| 46>    C       -6.31476         2.40320        -4.77197
| 47>    C       -7.29635         3.34351        -5.12361
| 48>    S       -7.20208         4.28796        -6.58881
| 49>    C       -8.64192         5.12994        -6.18572
| 50>    C       -9.20492         4.71912        -5.01955
| 51>    C      -10.43448         5.37779        -4.48496
| 52>    C       -8.45184         3.67912        -4.38782
| 53>    C       -8.78347         3.02007        -3.16292
| 54>    C       -9.99816         2.94050        -2.57067
| 55>    C      -10.21540         2.23816        -1.35128
| 56>    C      -11.44081         2.12662        -0.79134
| 57>    C      -11.74410         1.41463         0.41562
| 58>    C      -12.99331         0.84855         0.66089
| 59>    C      -14.18290         0.88878        -0.17400
| 60>    O      -14.20621         1.42619        -1.26525
| 61>    C      -15.40785         0.22047         0.40719
| 62>    S      -13.01726         0.00522         2.18227
| 63>    C      -11.38912         0.42254         2.48355
| 64>    C      -10.82634         1.17316         1.49068
| 65>    C       -9.48787         1.73830         1.58898
| 66>    C       -8.46131         1.13606         2.17360
| 67>    H        3.93300        -8.04112        -4.71185
| 68>    H        6.21297       -11.86864        -6.11424
| 69>    H        7.15842       -10.61935        -6.91999
| 70>    H        5.81419       -11.40035        -7.78202
| 71>    H        7.24147        -8.70989        -2.00711
| 72>    H        3.92093        -6.63684        -2.60398
| 73>    H        6.14976        -7.25303        -0.60168
| 74>    H        3.97007        -4.11694         2.85758
| 75>    H        2.84747        -2.17075         1.70358
| 76>    H        1.64247        -2.93763         0.67219
| 77>    H        2.96962        -2.02802        -0.05867
| 78>    H        4.40178        -4.50134        -2.52792
| 79>    H        1.71349        -3.38224        -1.58242
| 80>    H        3.18061        -3.42189        -4.28525
| 81>    H        0.48198        -2.26534        -3.38784
| 82>    H        1.95919        -2.32617        -6.08665
| 83>    H        0.74384        -1.05622        -7.96199
| 84>    H       -1.35479         0.37424        -8.37420
| 85>    H       -3.27496         1.65264        -8.20249
| 86>    H       -5.41893         2.84022        -7.49942
| 87>    H       -6.40370         1.97509        -3.78267
| 88>    H       -8.99439         5.89906        -6.84487
| 89>    H      -10.59080         6.32729        -4.99292
| 90>    H      -10.33834         5.56157        -3.41697
| 91>    H      -11.31409         4.75809        -4.65670
| 92>    H       -7.97009         2.49744        -2.67486
| 93>    H      -10.87235         3.37582        -3.02529
| 94>    H       -9.35939         1.75401        -0.89945
| 95>    H      -12.29313         2.53978        -1.31273
| 96>    H      -15.66823         0.67610         1.36023
| 97>    H      -15.20865        -0.83577         0.57749
| 98>    H      -16.23855         0.32537        -0.28580
| 99>    H      -10.93304         0.12285         3.40694
|100>    H       -9.37221         2.72552         1.16005
|101>    H       -8.54311         0.14444         2.58633
|102>    H       -7.49595         1.60654         2.24444
|103> *
|104>
|105>                          ****END OF INPUT****

CARTESIAN COORDINATES (ANGSTROEM)
---------------------------------
  C      4.845440   -8.456450   -4.322440
  C      5.556190   -9.410300   -4.999230
  C      5.212510   -9.988110   -6.298130
  O      4.224760   -9.630480   -6.902600
  C      6.159860  -11.039660   -6.817290
  S      6.973760   -9.871910   -4.103330
  C      6.584960   -8.779450   -2.851580
  C      5.420650   -8.081170   -3.081880
  C      4.827300   -7.085960   -2.224930
  C      5.300110   -6.725680   -1.016020
  C      4.744360   -5.725650   -0.162740
  S      5.058890   -5.842580    1.544360
  C      4.081830   -4.463980    1.848860
  C      3.536550   -3.928540    0.726050
  C      2.700520   -2.692090    0.760380
  C      3.919160   -4.643100   -0.456020
  C      3.634560   -4.245950   -1.805630
  C      2.533700   -3.592970   -2.251860
  C      2.375280   -3.190590   -3.598650
  C      1.288660   -2.509700   -4.068180
  C      1.164340   -2.075960   -5.395100
  C      0.124750   -1.329250   -5.893610
  C      0.001100   -0.838280   -7.214690
  C     -1.109310   -0.080060   -7.431270
  C     -1.936020    0.065620   -6.295810
  S     -1.254980   -0.804090   -4.937700
  C     -3.109650    0.791410   -6.207350
  C     -3.705010    1.574220   -7.220180
  C     -4.846390    2.214190   -6.841190
  C     -5.237180    1.965560   -5.504820
  S     -4.074940    0.872660   -4.751720
  C     -6.314760    2.403200   -4.771970
  C     -7.296350    3.343510   -5.123610
  S     -7.202080    4.287960   -6.588810
  C     -8.641920    5.129940   -6.185720
  C     -9.204920    4.719120   -5.019550
  C    -10.434480    5.377790   -4.484960
  C     -8.451840    3.679120   -4.387820
  C     -8.783470    3.020070   -3.162920
  C     -9.998160    2.940500   -2.570670
  C    -10.215400    2.238160   -1.351280
  C    -11.440810    2.126620   -0.791340
  C    -11.744100    1.414630    0.415620
  C    -12.993310    0.848550    0.660890
  C    -14.182900    0.888780   -0.174000
  O    -14.206210    1.426190   -1.265250
  C    -15.407850    0.220470    0.407190
  S    -13.017260    0.005220    2.182270
  C    -11.389120    0.422540    2.483550
  C    -10.826340    1.173160    1.490680
  C     -9.487870    1.738300    1.588980
  C     -8.461310    1.136060    2.173600
  H      3.933000   -8.041120   -4.711850
  H      6.212970  -11.868640   -6.114240
  H      7.158420  -10.619350   -6.919990
  H      5.814190  -11.400350   -7.782020
  H      7.241470   -8.709890   -2.007110
  H      3.920930   -6.636840   -2.603980
  H      6.149760   -7.253030   -0.601680
  H      3.970070   -4.116940    2.857580
  H      2.847470   -2.170750    1.703580
  H      1.642470   -2.937630    0.672190
  H      2.969620   -2.028020   -0.058670
  H      4.401780   -4.501340   -2.527920
  H      1.713490   -3.382240   -1.582420
  H      3.180610   -3.421890   -4.285250
  H      0.481980   -2.265340   -3.387840
  H      1.959190   -2.326170   -6.086650
  H      0.743840   -1.056220   -7.961990
  H     -1.354790    0.374240   -8.374200
  H     -3.274960    1.652640   -8.202490
  H     -5.418930    2.840220   -7.499420
  H     -6.403700    1.975090   -3.782670
  H     -8.994390    5.899060   -6.844870
  H    -10.590800    6.327290   -4.992920
  H    -10.338340    5.561570   -3.416970
  H    -11.314090    4.758090   -4.656700
  H     -7.970090    2.497440   -2.674860
  H    -10.872350    3.375820   -3.025290
  H     -9.359390    1.754010   -0.899450
  H    -12.293130    2.539780   -1.312730
  H    -15.668230    0.676100    1.360230
  H    -15.208650   -0.835770    0.577490
  H    -16.238550    0.325370   -0.285800
  H    -10.933040    0.122850    3.406940
  H     -9.372210    2.725520    1.160050
  H     -8.543110    0.144440    2.586330
  H     -7.495950    1.606540    2.244440

 Total Charge           Charge          ....    0
 Multiplicity           Mult            ....    1
 Number of Electrons    NEL             ....  412
 Basis Dimension        Dim             ....  932

ORBITAL ENERGIES
----------------

  NO   OCC          E(Eh)            E(eV)
   0   2.0000     -88.962941     -2420.8047
   1   2.0000     -88.957013     -2420.6434
   2   2.0000     -88.944925     -2420.3145
   3   2.0000     -88.942861     -2420.2583
   4   2.0000     -88.936879     -2420.0955
   5   2.0000     -88.934341     -2420.0265
   6   2.0000     -19.195461      -522.3351
   7   2.0000     -19.191005      -522.2138
   8   2.0000     -10.354834      -281.7694
   9   2.0000     -10.350858      -281.6612
  10   2.0000     -10.303386      -280.3694
  11   2.0000     -10.301708      -280.3237
  12   2.0000     -10.300079      -280.2794
  13   2.0000     -10.299369      -280.2601
  14   2.0000     -10.298162      -280.2272
  15   2.0000     -10.296951      -280.1943
  16   2.0000     -10.294997      -280.1411
  17   2.0000     -10.292700      -280.0786
  18   2.0000     -10.291393      -280.0430
  19   2.0000     -10.287017      -279.9240
  20   2.0000     -10.285245      -279.8758
  21   2.0000     -10.282112      -279.7905
  22   2.0000     -10.281601      -279.7766
  23   2.0000     -10.280585      -279.7489
  24   2.0000     -10.279648      -279.7234
  25   2.0000     -10.279595      -279.7220
  26   2.0000     -10.278647      -279.6962
  27   2.0000     -10.278020      -279.6791
  28   2.0000     -10.277751      -279.6718
  29   2.0000     -10.276752      -279.6446
  30   2.0000     -10.276402      -279.6351
  31   2.0000     -10.274962      -279.5959
  32   2.0000     -10.274510      -279.5836
  33   2.0000     -10.273243      -279.5492
  34   2.0000     -10.272145      -279.5193
  35   2.0000     -10.271938      -279.5137
  36   2.0000     -10.271215      -279.4940
  37   2.0000     -10.270964      -279.4871
  38   2.0000     -10.269905      -279.4583
  39   2.0000     -10.269869      -279.4574
  40   2.0000     -10.269024      -279.4344
  41   2.0000     -10.268315      -279.4151
  42   2.0000     -10.267784      -279.4006
  43   2.0000     -10.266150      -279.3561
  44   2.0000     -10.265449      -279.3371
  45   2.0000     -10.265181      -279.3298
  46   2.0000     -10.262034      -279.2441
  47   2.0000     -10.261653      -279.2338
  48   2.0000     -10.261208      -279.2217
  49   2.0000     -10.260824      -279.2112
  50   2.0000     -10.259340      -279.1708
  51   2.0000     -10.259263      -279.1687
  52   2.0000      -8.058621      -219.2862
  53   2.0000      -8.052809      -219.1281
  54   2.0000      -8.041190      -218.8119
  55   2.0000      -8.038645      -218.7427
  56   2.0000      -8.033145      -218.5930
  57   2.0000      -8.030820      -218.5297
  58   2.0000      -6.027772      -164.0240
  59   2.0000      -6.023398      -163.9050
  60   2.0000      -6.022010      -163.8672
  61   2.0000      -6.021287      -163.8476
  62   2.0000      -6.017676      -163.7493
  63   2.0000      -6.015305      -163.6848
  64   2.0000      -6.010379      -163.5507
  65   2.0000      -6.007936      -163.4842
  66   2.0000      -6.006267      -163.4388
  67   2.0000      -6.003723      -163.3696
  68   2.0000      -6.003440      -163.3619
  69   2.0000      -6.002849      -163.3458
  70   2.0000      -6.000842      -163.2912
  71   2.0000      -6.000605      -163.2848
  72   2.0000      -5.998937      -163.2394
  73   2.0000      -5.996643      -163.1770
  74   2.0000      -5.994019      -163.1056
  75   2.0000      -5.991548      -163.0383
  76   2.0000      -1.112912       -30.2839
  77   2.0000      -1.108006       -30.1504
  78   2.0000      -0.986946       -26.8562
  79   2.0000      -0.985313       -26.8117
  80   2.0000      -0.983402       -26.7597
  81   2.0000      -0.976521       -26.5725
  82   2.0000      -0.974724       -26.5236
  83   2.0000      -0.962292       -26.1853
  84   2.0000      -0.908959       -24.7340
  85   2.0000      -0.903044       -24.5731
  86   2.0000      -0.897559       -24.4238
  87   2.0000      -0.887522       -24.1507
  88   2.0000      -0.884215       -24.0607
  89   2.0000      -0.874351       -23.7923
  90   2.0000      -0.865624       -23.5548
  91   2.0000      -0.858791       -23.3689
  92   2.0000      -0.850142       -23.1335
  93   2.0000      -0.840012       -22.8579
  94   2.0000      -0.838589       -22.8192
  95   2.0000      -0.836935       -22.7741
  96   2.0000      -0.833889       -22.6913
  97   2.0000      -0.825502       -22.4630
  98   2.0000      -0.821506       -22.3543
  99   2.0000      -0.812188       -22.1008
 100   2.0000      -0.803766       -21.8716
 101   2.0000      -0.792192       -21.5567
 102   2.0000      -0.788800       -21.4643
 103   2.0000      -0.776754       -21.1365
 104   2.0000      -0.763248       -20.7690
 105   2.0000      -0.753211       -20.4959
 106   2.0000      -0.740148       -20.1405
 107   2.0000      -0.721994       -19.6465
 108   2.0000      -0.703017       -19.1301
 109   2.0000      -0.698668       -19.0117
 110   2.0000      -0.694003       -18.8848
 111   2.0000      -0.688570       -18.7369
 112   2.0000      -0.686633       -18.6842
 113   2.0000      -0.678205       -18.4549
 114   2.0000      -0.666214       -18.1286
 115   2.0000      -0.655973       -17.8499
 116   2.0000      -0.645257       -17.5583
 117   2.0000      -0.636304       -17.3147
 118   2.0000      -0.631076       -17.1725
 119   2.0000      -0.629620       -17.1328
 120   2.0000      -0.621301       -16.9065
 121   2.0000      -0.615710       -16.7543
 122   2.0000      -0.613736       -16.7006
 123   2.0000      -0.607410       -16.5285
 124   2.0000      -0.599622       -16.3165
 125   2.0000      -0.595160       -16.1951
 126   2.0000      -0.586907       -15.9705
 127   2.0000      -0.582580       -15.8528
 128   2.0000      -0.579691       -15.7742
 129   2.0000      -0.570290       -15.5184
 130   2.0000      -0.562028       -15.2936
 131   2.0000      -0.557311       -15.1652
 132   2.0000      -0.555260       -15.1094
 133   2.0000      -0.547587       -14.9006
 134   2.0000      -0.537598       -14.6288
 135   2.0000      -0.528819       -14.3899
 136   2.0000      -0.526948       -14.3390
 137   2.0000      -0.525786       -14.3074
 138   2.0000      -0.523232       -14.2379
 139   2.0000      -0.521797       -14.1988
 140   2.0000      -0.519925       -14.1479
 141   2.0000      -0.514446       -13.9988
 142   2.0000      -0.513809       -13.9814
 143   2.0000      -0.509092       -13.8531
 144   2.0000      -0.505226       -13.7479
 145   2.0000      -0.501961       -13.6591
 146   2.0000      -0.500597       -13.6219
 147   2.0000      -0.498911       -13.5761
 148   2.0000      -0.493398       -13.4260
 149   2.0000      -0.492648       -13.4056
 150   2.0000      -0.489758       -13.3270
 151   2.0000      -0.488645       -13.2967
 152   2.0000      -0.484455       -13.1827
 153   2.0000      -0.479970       -13.0607
 154   2.0000      -0.475917       -12.9504
 155   2.0000      -0.475180       -12.9303
 156   2.0000      -0.474115       -12.9013
 157   2.0000      -0.473871       -12.8947
 158   2.0000      -0.470884       -12.8134
 159   2.0000      -0.466755       -12.7011
 160   2.0000      -0.466066       -12.6823
 161   2.0000      -0.464444       -12.6382
 162   2.0000      -0.461607       -12.5610
 163   2.0000      -0.456621       -12.4253
 164   2.0000      -0.456056       -12.4099
 165   2.0000      -0.453211       -12.3325
 166   2.0000      -0.449216       -12.2238
 167   2.0000      -0.447104       -12.1663
 168   2.0000      -0.446242       -12.1428
 169   2.0000      -0.441841       -12.0231
 170   2.0000      -0.436560       -11.8794
 171   2.0000      -0.435387       -11.8475
 172   2.0000      -0.434684       -11.8284
 173   2.0000      -0.430856       -11.7242
 174   2.0000      -0.429644       -11.6912
 175   2.0000      -0.425290       -11.5727
 176   2.0000      -0.421804       -11.4779
 177   2.0000      -0.421342       -11.4653
 178   2.0000      -0.415437       -11.3046
 179   2.0000      -0.413091       -11.2408
 180   2.0000      -0.412485       -11.2243
 181   2.0000      -0.411611       -11.2005
 182   2.0000      -0.408630       -11.1194
 183   2.0000      -0.407315       -11.0836
 184   2.0000      -0.401833       -10.9344
 185   2.0000      -0.398479       -10.8432
 186   2.0000      -0.391201       -10.6451
 187   2.0000      -0.384065       -10.4509
 188   2.0000      -0.382566       -10.4102
 189   2.0000      -0.364492        -9.9183
 190   2.0000      -0.355810        -9.6821
 191   2.0000      -0.350422        -9.5355
 192   2.0000      -0.330053        -8.9812
 193   2.0000      -0.326617        -8.8877
 194   2.0000      -0.322005        -8.7622
 195   2.0000      -0.320201        -8.7131
 196   2.0000      -0.315998        -8.5987
 197   2.0000      -0.314336        -8.5535
 198   2.0000      -0.311019        -8.4633
 199   2.0000      -0.305337        -8.3086
 200   2.0000      -0.291994        -7.9456
 201   2.0000      -0.291420        -7.9299
 202   2.0000      -0.269430        -7.3316
 203   2.0000      -0.254958        -6.9378
 204   2.0000      -0.240149        -6.5348
 205   2.0000      -0.193342        -5.2611
 206   0.0000      -0.077652        -2.1130
 207   0.0000      -0.040379        -1.0988
 208   0.0000      -0.031416        -0.8549
 209   0.0000      -0.018307        -0.4982
 210   0.0000      -0.003119        -0.0849

MULLIKEN ATOMIC CHARGES
-----------------------
   0 C :    0.005739
   1 C :   -0.130424
   2 C :    0.021880
   3 O :   -0.178335
   4 C :    0.018489
   5 S :    0.127922
   6 C :   -0.118753
   7 C :    0.099702
   8 C :   -0.012292
   9 C :    0.052727
  10 C :   -0.150415
  11 S :    0.108419
  12 C :   -0.127878
  13 C :   -0.080152
  14 C :    0.108713
  15 C :    0.129945
  16 C :   -0.069224
  17 C :    0.008917
  18 C :    0.011570
  19 C :    0.011020
  20 C :   -0.016938
  21 C :   -0.019500
  22 C :    0.035886
  23 C :    0.022952
  24 C :   -0.047541
  25 S :    0.074965
  26 C :   -0.045763
  27 C :    0.013979
  28 C :    0.018437
  29 C :   -0.082508
  30 S :    0.080251
  31 C :    0.042498
  32 C :   -0.119276
  33 S :    0.081051
  34 C :   -0.108513
  35 C :   -0.097482
  36 C :    0.116595
  37 C :    0.147329
  38 C :   -0.039727
  39 C :    0.002697
  40 C :    0.000351
  41 C :   -0.037964
  42 C :    0.124228
  43 C :   -0.176949
  44 C :    0.017236
  45 O :   -0.195000
  46 C :    0.019448
  47 S :    0.117115
  48 C :   -0.107954
  49 C :    0.053720
  50 C :   -0.025714
  51 C :   -0.024151
  52 H :    0.003434
  53 H :    0.042212
  54 H :    0.040735
  55 H :    0.034775
  56 H :    0.027458
  57 H :   -0.000249
  58 H :   -0.020901
  59 H :    0.011949
  60 H :    0.005681
  61 H :    0.034910
  62 H :    0.032801
  63 H :    0.002989
  64 H :   -0.017753
  65 H :   -0.016834
  66 H :   -0.006596
  67 H :   -0.017551
  68 H :   -0.014447
  69 H :   -0.016183
  70 H :   -0.016931
  71 H :   -0.001258
  72 H :   -0.024762
  73 H :    0.011028
  74 H :    0.003474
  75 H :    0.029957
  76 H :    0.042206
  77 H :   -0.018240
  78 H :   -0.020740
  79 H :   -0.000718
  80 H :    0.011384
  81 H :    0.040446
  82 H :    0.042300
  83 H :    0.033766
  84 H :    0.022572
  85 H :    0.019176
  86 H :    0.014909
  87 H :    0.023671
Sum of atomic charges:   -0.0000000

LOEWDIN ATOMIC CHARGES
----------------------
   0 C :   -0.005032
   1 C :   -0.228526
   2 C :    0.061811
   3 O :   -0.152296
   4 C :   -0.086395
   5 S :    0.456566
   6 C :   -0.173459
   7 C :   -0.068677
   8 C :   -0.021863
   9 C :   -0.037680
  10 C :   -0.169496
  11 S :    0.425547
  12 C :   -0.195741
  13 C :   -0.053171
  14 C :   -0.045316
  15 C :   -0.061175
  16 C :   -0.021197
  17 C :   -0.033083
  18 C :   -0.019738
  19 C :   -0.035713
  20 C :   -0.055104
  21 C :   -0.147611
  22 C :   -0.034942
  23 C :   -0.035218
  24 C :   -0.177086
  25 S :    0.365866
  26 C :   -0.183560
  27 C :   -0.023983
  28 C :   -0.053397
  29 C :   -0.147521
  30 S :    0.365705
  31 C :   -0.076633
  32 C :   -0.159383
  33 S :    0.429982
  34 C :   -0.194239
  35 C :   -0.052548
  36 C :   -0.044881
  37 C :   -0.060659
  38 C :   -0.017025
  39 C :   -0.026687
  40 C :   -0.012615
  41 C :   -0.026779
  42 C :   -0.012844
  43 C :   -0.230419
  44 C :    0.061516
  45 O :   -0.159341
  46 C :   -0.087348
  47 S :    0.452200
  48 C :   -0.163194
  49 C :   -0.061823
  50 C :   -0.019367
  51 C :   -0.046838
  52 H :    0.038117
  53 H :    0.040040
  54 H :    0.039410
  55 H :    0.040117
  56 H :    0.022261
  57 H :    0.033753
  58 H :    0.024528
  59 H :    0.020022
  60 H :    0.031386
  61 H :    0.033998
  62 H :    0.036331
  63 H :    0.030203
  64 H :    0.027053
  65 H :    0.026510
  66 H :    0.022506
  67 H :    0.032389
  68 H :    0.032791
  69 H :    0.030617
  70 H :    0.031170
  71 H :    0.018293
  72 H :    0.030552
  73 H :    0.020311
  74 H :    0.031410
  75 H :    0.035257
  76 H :    0.035896
  77 H :    0.026119
  78 H :    0.028763
  79 H :    0.027646
  80 H :    0.032360
  81 H :    0.037514
  82 H :    0.038506
  83 H :    0.039327
  84 H :    0.024845
  85 H :    0.034480
  86 H :    0.020798
  87 H :    0.025130

  Mayer bond orders larger than 0.100000
B(  0-C ,  1-C ) :   1.5223 B(  0-C ,  7-C ) :   1.2166 B(  0-C , 52-H ) :   1.0121
B(  1-C ,  2-C ) :   0.9656 B(  1-C ,  5-S ) :   1.1259 B(  2-C ,  3-O ) :   2.2144
B(  2-C ,  4-C ) :   1.0557 B(  4-C , 53-H ) :   0.9499 B(  4-C , 54-H ) :   0.9494
B(  4-C , 55-H ) :   0.9493 B(  5-S ,  6-C ) :   1.1888 B(  6-C ,  7-C ) :   1.5015
B(  6-C , 56-H ) :   0.9619 B(  7-C ,  8-C ) :   1.0819 B(  8-C ,  9-C ) :   1.7200
B(  8-C , 57-H ) :   0.9788 B(  9-C , 10-C ) :   1.1146 B(  9-C , 58-H ) :   0.9488
B( 10-C , 11-S ) :   1.1379 B( 10-C , 15-C ) :   1.4437 B( 11-S , 12-C ) :   1.1364
B( 12-C , 13-C ) :   1.5982 B( 12-C , 59-H ) :   0.9677 B( 13-C , 14-C ) :   1.0930
B( 13-C , 15-C ) :   1.2355 B( 14-C , 60-H ) :   0.9475 B( 14-C , 61-H ) :   0.9427
B( 14-C , 62-H ) :   0.9448 B( 15-C , 16-C ) :   1.0842 B( 16-C , 17-C ) :   1.6512
B( 16-C , 63-H ) :   0.9614 B( 17-C , 18-C ) :   1.1370 B( 17-C , 64-H ) :   0.9845
B( 18-C , 19-C ) :   1.6071 B( 18-C , 65-H ) :   0.9906 B( 19-C , 20-C ) :   1.1572
B( 19-C , 66-H ) :   0.9758 B( 20-C , 21-C ) :   1.5586 B( 20-C , 67-H ) :   0.9794
B( 21-C , 22-C ) :   1.1500 B( 21-C , 25-S ) :   1.0273 B( 22-C , 23-C ) :   1.5801
B( 22-C , 68-H ) :   0.9990 B( 23-C , 24-C ) :   1.1986 B( 23-C , 69-H ) :   0.9930
B( 24-C , 25-S ) :   1.0468 B( 24-C , 26-C ) :   1.4894 B( 26-C , 27-C ) :   1.2020
B( 26-C , 30-S ) :   1.0487 B( 27-C , 28-C ) :   1.6014 B( 27-C , 70-H ) :   0.9922
B( 28-C , 29-C ) :   1.1556 B( 28-C , 71-H ) :   0.9769 B( 29-C , 30-S ) :   1.0379
B( 29-C , 31-C ) :   1.5692 B( 31-C , 32-C ) :   1.2438 B( 31-C , 72-H ) :   0.9354
B( 32-C , 33-S ) :   1.1169 B( 32-C , 37-C ) :   1.3801 B( 33-S , 34-C ) :   1.1227
B( 34-C , 35-C ) :   1.6090 B( 34-C , 73-H ) :   0.9653 B( 35-C , 36-C ) :   1.0932
B( 35-C , 37-C ) :   1.2281 B( 36-C , 74-H ) :   0.9447 B( 36-C , 75-H ) :   0.9459
B( 36-C , 76-H ) :   0.9388 B( 37-C , 38-C ) :   1.1007 B( 38-C , 39-C ) :   1.6592
B( 38-C , 77-H ) :   0.9613 B( 39-C , 40-C ) :   1.1136 B( 39-C , 78-H ) :   0.9908
B( 40-C , 41-C ) :   1.6481 B( 40-C , 79-H ) :   0.9857 B( 41-C , 42-C ) :   1.1072
B( 41-C , 80-H ) :   0.9551 B( 42-C , 43-C ) :   1.4530 B( 42-C , 49-C ) :   1.2250
B( 43-C , 44-C ) :   1.0027 B( 43-C , 47-S ) :   1.1140 B( 44-C , 45-O ) :   2.1254
B( 44-C , 46-C ) :   1.0630 B( 46-C , 81-H ) :   0.9509 B( 46-C , 82-H ) :   0.9474
B( 46-C , 83-H ) :   0.9483 B( 47-S , 48-C ) :   1.1798 B( 48-C , 49-C ) :   1.5441
B( 48-C , 84-H ) :   0.9667 B( 49-C , 50-C ) :   1.0392 B( 50-C , 51-C ) :   1.9697
B( 50-C , 85-H ) :   0.9538 B( 51-C , 86-H ) :   0.9591 B( 51-C , 87-H ) :   0.9520

-----------------------------------------------------------------------------
         ABSORPTION SPECTRUM VIA TRANSITION ELECTRIC DIPOLE MOMENTS
-----------------------------------------------------------------------------
State   Energy  Wavelength   fosc         T2         TX        TY        TZ
        (cm-1)    (nm)                  (au**2)     (au)      (au)      (au)
-----------------------------------------------------------------------------
   0   12797.3    781.4   1.917349066  49.32392  -6.08304   3.50866  -0.09931
   1   20489.5    488.1   0.049319062   0.79243  -0.12433  -0.55160   0.68754
   2   22746.9    439.6   0.762666933  11.03796  -0.31420  -1.88213   2.71971
   3   23744.0    421.2   0.008979203   0.12450  -0.10797   0.21006  -0.26213
   4   25934.4    385.6   0.190375138   2.41663   0.89898   0.21884  -1.24923
   5   26335.6    379.7   0.014261422   0.17828   0.33400  -0.16329   0.20014
   6   28221.4    354.3   0.026655866   0.31095   0.18465   0.22391   0.47615
   7   29754.6    336.1   0.159403759   1.76368   0.09330   0.66525   1.14561
   8   30789.2    324.8   0.188067406   2.01090   1.06717   0.24920  -0.89998
   9   31509.0    317.4   0.182489417   1.90668  -0.71645  -0.34513   1.12883
  10   32289.6    309.7   0.096428127   0.98314  -0.63850   0.57976   0.48922
  11   32490.8    307.8   0.116042544   1.17580  -0.37280   1.01822  -0.00656
  12   32690.3    305.9   0.072827551   0.73342   0.35393   0.74189   0.24033
  13   32948.5    303.5   0.006326728   0.06321   0.15509  -0.09849   0.17164
  14   33436.7    299.1   0.009619215   0.09471   0.15736   0.19796   0.17538
  15   34448.9    290.3   0.015540261   0.14851  -0.35121  -0.01419   0.15798
  16   35180.6    284.2   0.066205215   0.61953  -0.73625  -0.09359  -0.26213
  17   35542.0    281.4   0.201545014   1.86683  -0.67579   1.12024  -0.39395
  18   36349.4    275.1   0.024917893   0.22568  -0.38633  -0.27117  -0.05378
  19   36630.6    273.0   0.108836743   0.97815   0.17827   0.29160   0.92808
  20   36952.7    270.6   0.367679052   3.27566   0.23273  -0.51712  -1.71875
  21   37296.9    268.1   0.016680605   0.14724  -0.04991  -0.35708  -0.13130
  22   38014.9    263.1   0.027814849   0.24088  -0.16533  -0.00351  -0.46210
  23   38458.8    260.0   0.155836272   1.33398  -0.35469  -0.28405   1.06183
  24   39318.0    254.3   0.017981377   0.15056  -0.01744  -0.07587  -0.38013
  25   39832.5    251.1   0.008890080   0.07348  -0.16166   0.21747   0.00694
  26   39928.4    250.4   0.064999571   0.53593  -0.52510  -0.07725   0.50421
  27   40300.2    248.1   0.050771388   0.41475   0.36365  -0.53068   0.02985

FINAL SINGLE POINT ENERGY     -4234.715673114923

DIPOLE MOMENT
-------------
                                X             Y             Z
Electronic contribution:     13.56935      -8.28892      -6.95123
Nuclear contribution   :    -12.33436       8.40144       7.94310
                        -----------------------------------------
Total Dipole Moment    :      1.23499       0.11252       0.99188
                        -----------------------------------------
Magnitude (a.u.)       :      1.58798
Magnitude (Debye)      :      4.03631

Rotational constants in cm-1:     0.001525     0.000313     0.000281
Rotational constants in MHz :    45.713928     9.374327     8.431616

                             ****ORCA TERMINATED NORMALLY****
TOTAL RUN TIME: 0 days 0 hours 5 minutes 46 seconds 915 msec
