                         Program Version 4.2.0 -  RELEASE  -
|  1> # ORCA input file
|  2> # SCF done       -153.653528666140          0.000662189299
|  3> ! CAM-B3LYP def2-SVP def2/J RIJCOSX Grid4 TightSCF
|  4> %maxcore 5000
|  5> %tddft
|  6>     Mode sTDDFT
|  7>     Ethresh 5.0
|  8>     maxcore 5000
|  9> end
| 10>
| 11> %pal
| 12>   nprocs 6
| 13>   end
| 14> * xyz 0 1
| 15>    C        8.78779        -5.11794         6.07783
| 16>    O        9.39660        -4.58141         7.12964
| 17>    C        9.82687        -3.34488         6.76932
| 18>    C        9.50514        -3.10447         5.45786
| 19>    C        8.81366        -4.26202         5.00257
| 20>    C        8.19331        -4.53585         3.69994
| 21>    O        7.50063        -5.51320         3.52493
| 22>    C        8.46542        -3.52339         2.61804
| 23>    C       10.48852        -2.56935         7.78448
| 24>    O       10.88232        -3.24599         8.89928
| 25>    C       11.39129        -2.39792         9.76128
| 26>    C       11.38029        -1.12234         9.23610
| 27>    N       11.76485         0.05079         9.89002
| 28>    O       12.06148        -0.01589        11.06678
| 29>    O       11.76942         1.09339         9.24207
| 30>    C       10.78133        -1.21983         7.93234
| 31>    N       10.62113        -0.15003         7.10424
| 32>    C        9.53166         0.09880         6.29730
| 33>    C        9.45183         1.19164         5.52667
| 34>    C       10.60293         2.15054         5.43676
| 35>    C        8.14608         1.54285         4.84667
| 36>    N        7.09285         1.76078         5.82935
| 37>    C        7.27910         2.57209         6.89306
| 38>    C        8.10617         3.65801         6.91901
| 39>    C        8.55855         4.30087         8.08669
| 40>    C        8.67254         3.72402         9.32898
| 41>    C        9.33078         4.26379        10.46027
| 42>    C        9.52406         3.37761        11.47996
| 43>    C        8.99642         2.09548        11.22336
| 44>    S        8.22695         2.05438         9.66385
| 45>    C        9.05517         0.93210        11.97543
| 46>    C        9.84621         0.61188        13.09242
| 47>    C        9.80726        -0.71782        13.40171
| 48>    C        8.99889        -1.50517        12.54420
| 49>    S        8.22875        -0.49150        11.37873
| 50>    C        8.82829        -2.88140        12.71220
| 51>    C        8.13974        -3.85493        12.01162
| 52>    C        7.53564        -3.87461        10.75095
| 53>    C        6.68104        -4.93405        10.26940
| 54>    C        6.22192        -6.02892        10.96404
| 55>    C        5.39709        -7.02401        10.40433
| 56>    N        4.72915        -7.87073        10.00768
| 57>    C        6.47044        -6.32040        12.31993
| 58>    N        6.60100        -6.64301        13.41562
| 59>    C        6.31578        -4.62394         8.88385
| 60>    C        6.87575        -3.36700         8.55810
| 61>    C        7.73364        -2.93407         9.67506
| 62>    O        8.55569        -2.01759         9.60567
| 63>    C        6.68248        -2.75953         7.34552
| 64>    C        5.93913        -3.44721         6.37949
| 65>    C        5.42517        -4.72445         6.69287
| 66>    C        5.58587        -5.32018         7.94166
| 67>    S        4.60210        -5.43049         5.33389
| 68>    C        4.94807        -4.01886         4.38438
| 69>    C        5.64094        -3.06082         5.04572
| 70>   Br        4.38774        -3.92381         2.60198
| 71>    H        8.37822        -6.10391         6.17515
| 72>    H        9.74136        -2.22623         4.89483
| 73>    H        9.53426        -3.48521         2.41832
| 74>    H        8.14419        -2.53596         2.94088
| 75>    H        7.93376        -3.80173         1.71207
| 76>    H       11.74473        -2.75969        10.70684
| 77>    H       11.11069         0.67950         7.43644
| 78>    H        8.73642        -0.62848         6.35433
| 79>    H       11.52591         1.61407         5.22147
| 80>    H       10.74007         2.68691         6.37757
| 81>    H       10.44311         2.88093         4.64863
| 82>    H        7.81106         0.74330         4.18203
| 83>    H        8.26990         2.44813         4.24709
| 84>    H        6.45316         0.99503         5.96804
| 85>    H        6.66783         2.34602         7.75595
| 86>    H        8.49168         4.03947         5.98462
| 87>    H        8.99764         5.28381         7.97401
| 88>    H        9.68029         5.28152        10.47040
| 89>    H       10.04940         3.60091        12.39074
| 90>    H       10.46177         1.33618        13.59339
| 91>    H       10.36874        -1.16415        14.20323
| 92>    H        9.30893        -3.24554        13.61475
| 93>    H        8.07054        -4.79365        12.54780
| 94>    H        7.10135        -1.78558         7.14381
| 95>    H        5.16095        -6.29120         8.13297
| 96>    H        5.93491        -2.12525         4.60473
| 97> *
| 98>
| 99>                          ****END OF INPUT****

CARTESIAN COORDINATES (ANGSTROEM)
---------------------------------
  C      8.787790   -5.117940    6.077830
  O      9.396600   -4.581410    7.129640
  C      9.826870   -3.344880    6.769320
  C      9.505140   -3.104470    5.457860
  C      8.813660   -4.262020    5.002570
  C      8.193310   -4.535850    3.699940
  O      7.500630   -5.513200    3.524930
  C      8.465420   -3.523390    2.618040
  C     10.488520   -2.569350    7.784480
  O     10.882320   -3.245990    8.899280
  C     11.391290   -2.397920    9.761280
  C     11.380290   -1.122340    9.236100
  N     11.764850    0.050790    9.890020
  O     12.061480   -0.015890   11.066780
  O     11.769420    1.093390    9.242070
  C     10.781330   -1.219830    7.932340
  N     10.621130   -0.150030    7.104240
  C      9.531660    0.098800    6.297300
  C      9.451830    1.191640    5.526670
  C     10.602930    2.150540    5.436760
  C      8.146080    1.542850    4.846670
  N      7.092850    1.760780    5.829350
  C      7.279100    2.572090    6.893060
  C      8.106170    3.658010    6.919010
  C      8.558550    4.300870    8.086690
  C      8.672540    3.724020    9.328980
  C      9.330780    4.263790   10.460270
  C      9.524060    3.377610   11.479960
  C      8.996420    2.095480   11.223360
  S      8.226950    2.054380    9.663850
  C      9.055170    0.932100   11.975430
  C      9.846210    0.611880   13.092420
  C      9.807260   -0.717820   13.401710
  C      8.998890   -1.505170   12.544200
  S      8.228750   -0.491500   11.378730
  C      8.828290   -2.881400   12.712200
  C      8.139740   -3.854930   12.011620
  C      7.535640   -3.874610   10.750950
  C      6.681040   -4.934050   10.269400
  C      6.221920   -6.028920   10.964040
  C      5.397090   -7.024010   10.404330
  N      4.729150   -7.870730   10.007680
  C      6.470440   -6.320400   12.319930
  N      6.601000   -6.643010   13.415620
  C      6.315780   -4.623940    8.883850
  C      6.875750   -3.367000    8.558100
  C      7.733640   -2.934070    9.675060
  O      8.555690   -2.017590    9.605670
  C      6.682480   -2.759530    7.345520
  C      5.939130   -3.447210    6.379490
  C      5.425170   -4.724450    6.692870
  C      5.585870   -5.320180    7.941660
  S      4.602100   -5.430490    5.333890
  C      4.948070   -4.018860    4.384380
  C      5.640940   -3.060820    5.045720
  Br     4.387740   -3.923810    2.601980
  H      8.378220   -6.103910    6.175150
  H      9.741360   -2.226230    4.894830
  H      9.534260   -3.485210    2.418320
  H      8.144190   -2.535960    2.940880
  H      7.933760   -3.801730    1.712070
  H     11.744730   -2.759690   10.706840
  H     11.110690    0.679500    7.436440
  H      8.736420   -0.628480    6.354330
  H     11.525910    1.614070    5.221470
  H     10.740070    2.686910    6.377570
  H     10.443110    2.880930    4.648630
  H      7.811060    0.743300    4.182030
  H      8.269900    2.448130    4.247090
  H      6.453160    0.995030    5.968040
  H      6.667830    2.346020    7.755950
  H      8.491680    4.039470    5.984620
  H      8.997640    5.283810    7.974010
  H      9.680290    5.281520   10.470400
  H     10.049400    3.600910   12.390740
  H     10.461770    1.336180   13.593390
  H     10.368740   -1.164150   14.203230
  H      9.308930   -3.245540   13.614750
  H      8.070540   -4.793650   12.547800
  H      7.101350   -1.785580    7.143810
  H      5.160950   -6.291200    8.132970
  H      5.934910   -2.125250    4.604730

 Total Charge           Charge          ....    0
 Multiplicity           Mult            ....    1
 Number of Electrons    NEL             ....  438
 Basis Dimension        Dim             ....  944

ORBITAL ENERGIES
----------------

  NO   OCC          E(Eh)            E(eV)
   0   2.0000    -482.876636    -13139.7413
   1   2.0000     -88.964186     -2420.8386
   2   2.0000     -88.961600     -2420.7682
   3   2.0000     -88.956172     -2420.6205
   4   2.0000     -62.554265     -1702.1881
   5   2.0000     -56.388178     -1534.4003
   6   2.0000     -56.385558     -1534.3290
   7   2.0000     -56.385457     -1534.3263
   8   2.0000     -19.311838      -525.5018
   9   2.0000     -19.301440      -525.2189
  10   2.0000     -19.249141      -523.7957
  11   2.0000     -19.247656      -523.7553
  12   2.0000     -19.196932      -522.3751
  13   2.0000     -19.196130      -522.3533
  14   2.0000     -14.657625      -398.8543
  15   2.0000     -14.463928      -393.5835
  16   2.0000     -14.446121      -393.0989
  17   2.0000     -14.391983      -391.6258
  18   2.0000     -14.391696      -391.6180
  19   2.0000     -10.357722      -281.8479
  20   2.0000     -10.355929      -281.7991
  21   2.0000     -10.347383      -281.5666
  22   2.0000     -10.345572      -281.5173
  23   2.0000     -10.342897      -281.4445
  24   2.0000     -10.338781      -281.3325
  25   2.0000     -10.338022      -281.3119
  26   2.0000     -10.336224      -281.2630
  27   2.0000     -10.334966      -281.2287
  28   2.0000     -10.332028      -281.1488
  29   2.0000     -10.331726      -281.1405
  30   2.0000     -10.322647      -280.8935
  31   2.0000     -10.316831      -280.7352
  32   2.0000     -10.315434      -280.6972
  33   2.0000     -10.314944      -280.6839
  34   2.0000     -10.314502      -280.6719
  35   2.0000     -10.314305      -280.6665
  36   2.0000     -10.313923      -280.6561
  37   2.0000     -10.308296      -280.5030
  38   2.0000     -10.308188      -280.5000
  39   2.0000     -10.303292      -280.3668
  40   2.0000     -10.296570      -280.1839
  41   2.0000     -10.296129      -280.1719
  42   2.0000     -10.294518      -280.1281
  43   2.0000     -10.292989      -280.0865
  44   2.0000     -10.288173      -279.9554
  45   2.0000     -10.287606      -279.9400
  46   2.0000     -10.287331      -279.9325
  47   2.0000     -10.286842      -279.9192
  48   2.0000     -10.286013      -279.8966
  49   2.0000     -10.283869      -279.8383
  50   2.0000     -10.282110      -279.7904
  51   2.0000     -10.279001      -279.7058
  52   2.0000     -10.276684      -279.6428
  53   2.0000     -10.275181      -279.6019
  54   2.0000     -10.275114      -279.6001
  55   2.0000     -10.274361      -279.5796
  56   2.0000     -10.272923      -279.5405
  57   2.0000     -10.270074      -279.4629
  58   2.0000     -10.269406      -279.4447
  59   2.0000     -10.264216      -279.3035
  60   2.0000      -8.783693      -239.0164
  61   2.0000      -8.059965      -219.3228
  62   2.0000      -8.057460      -219.2546
  63   2.0000      -8.050571      -219.0672
  64   2.0000      -6.619885      -180.1362
  65   2.0000      -6.605474      -179.7441
  66   2.0000      -6.605309      -179.7396
  67   2.0000      -6.029621      -164.0743
  68   2.0000      -6.027155      -164.0072
  69   2.0000      -6.025392      -163.9593
  70   2.0000      -6.022857      -163.8903
  71   2.0000      -6.021256      -163.8467
  72   2.0000      -6.019925      -163.8105
  73   2.0000      -6.018701      -163.7772
  74   2.0000      -6.015460      -163.6890
  75   2.0000      -6.012760      -163.6155
  76   2.0000      -2.735770       -74.4441
  77   2.0000      -2.731712       -74.3337
  78   2.0000      -2.731652       -74.3320
  79   2.0000      -2.720162       -74.0194
  80   2.0000      -2.720145       -74.0189
  81   2.0000      -1.325769       -36.0760
  82   2.0000      -1.237431       -33.6722
  83   2.0000      -1.218848       -33.1665
  84   2.0000      -1.143713       -31.1220
  85   2.0000      -1.115265       -30.3479
  86   2.0000      -1.108723       -30.1699
  87   2.0000      -1.062779       -28.9197
  88   2.0000      -1.053007       -28.6538
  89   2.0000      -1.007867       -27.4255
  90   2.0000      -1.006587       -27.3906
  91   2.0000      -0.992690       -27.0125
  92   2.0000      -0.979964       -26.6662
  93   2.0000      -0.971037       -26.4233
  94   2.0000      -0.969631       -26.3850
  95   2.0000      -0.945580       -25.7305
  96   2.0000      -0.926626       -25.2148
  97   2.0000      -0.920448       -25.0467
  98   2.0000      -0.911397       -24.8004
  99   2.0000      -0.905875       -24.6501
 100   2.0000      -0.894065       -24.3288
 101   2.0000      -0.891424       -24.2569
 102   2.0000      -0.887954       -24.1625
 103   2.0000      -0.871331       -23.7101
 104   2.0000      -0.868862       -23.6429
 105   2.0000      -0.856733       -23.3129
 106   2.0000      -0.845775       -23.0147
 107   2.0000      -0.838331       -22.8121
 108   2.0000      -0.831156       -22.6169
 109   2.0000      -0.828878       -22.5549
 110   2.0000      -0.822287       -22.3756
 111   2.0000      -0.814550       -22.1650
 112   2.0000      -0.808743       -22.0070
 113   2.0000      -0.801616       -21.8131
 114   2.0000      -0.786824       -21.4106
 115   2.0000      -0.781082       -21.2543
 116   2.0000      -0.755931       -20.5699
 117   2.0000      -0.739792       -20.1308
 118   2.0000      -0.725715       -19.7477
 119   2.0000      -0.724747       -19.7214
 120   2.0000      -0.707784       -19.2598
 121   2.0000      -0.699729       -19.0406
 122   2.0000      -0.694748       -18.9050
 123   2.0000      -0.685170       -18.6444
 124   2.0000      -0.678639       -18.4667
 125   2.0000      -0.671476       -18.2718
 126   2.0000      -0.669627       -18.2215
 127   2.0000      -0.665105       -18.0984
 128   2.0000      -0.655860       -17.8468
 129   2.0000      -0.655054       -17.8249
 130   2.0000      -0.642103       -17.4725
 131   2.0000      -0.640309       -17.4237
 132   2.0000      -0.637852       -17.3568
 133   2.0000      -0.635763       -17.3000
 134   2.0000      -0.625566       -17.0225
 135   2.0000      -0.620864       -16.8946
 136   2.0000      -0.614304       -16.7161
 137   2.0000      -0.613012       -16.6809
 138   2.0000      -0.609434       -16.5835
 139   2.0000      -0.603479       -16.4215
 140   2.0000      -0.594171       -16.1682
 141   2.0000      -0.587988       -16.0000
 142   2.0000      -0.583769       -15.8852
 143   2.0000      -0.582017       -15.8375
 144   2.0000      -0.576862       -15.6972
 145   2.0000      -0.569962       -15.5095
 146   2.0000      -0.563103       -15.3228
 147   2.0000      -0.561629       -15.2827
 148   2.0000      -0.558597       -15.2002
 149   2.0000      -0.553949       -15.0737
 150   2.0000      -0.546094       -14.8600
 151   2.0000      -0.538484       -14.6529
 152   2.0000      -0.537390       -14.6231
 153   2.0000      -0.535888       -14.5823
 154   2.0000      -0.534487       -14.5441
 155   2.0000      -0.528064       -14.3694
 156   2.0000      -0.526597       -14.3294
 157   2.0000      -0.525985       -14.3128
 158   2.0000      -0.524216       -14.2646
 159   2.0000      -0.516817       -14.0633
 160   2.0000      -0.514843       -14.0096
 161   2.0000      -0.513651       -13.9771
 162   2.0000      -0.512811       -13.9543
 163   2.0000      -0.508516       -13.8374
 164   2.0000      -0.505282       -13.7494
 165   2.0000      -0.500626       -13.6227
 166   2.0000      -0.495823       -13.4920
 167   2.0000      -0.492008       -13.3882
 168   2.0000      -0.491376       -13.3710
 169   2.0000      -0.489279       -13.3139
 170   2.0000      -0.482574       -13.1315
 171   2.0000      -0.480022       -13.0621
 172   2.0000      -0.476942       -12.9782
 173   2.0000      -0.472742       -12.8640
 174   2.0000      -0.470571       -12.8049
 175   2.0000      -0.468511       -12.7488
 176   2.0000      -0.467574       -12.7233
 177   2.0000      -0.465864       -12.6768
 178   2.0000      -0.459795       -12.5117
 179   2.0000      -0.454554       -12.3690
 180   2.0000      -0.452645       -12.3171
 181   2.0000      -0.449988       -12.2448
 182   2.0000      -0.447987       -12.1903
 183   2.0000      -0.444276       -12.0894
 184   2.0000      -0.442145       -12.0314
 185   2.0000      -0.440247       -11.9797
 186   2.0000      -0.433410       -11.7937
 187   2.0000      -0.428866       -11.6700
 188   2.0000      -0.426432       -11.6038
 189   2.0000      -0.424643       -11.5551
 190   2.0000      -0.423729       -11.5303
 191   2.0000      -0.421033       -11.4569
 192   2.0000      -0.411951       -11.2098
 193   2.0000      -0.404600       -11.0097
 194   2.0000      -0.401261       -10.9189
 195   2.0000      -0.399642       -10.8748
 196   2.0000      -0.394754       -10.7418
 197   2.0000      -0.389829       -10.6078
 198   2.0000      -0.385741       -10.4965
 199   2.0000      -0.384790       -10.4707
 200   2.0000      -0.378574       -10.3015
 201   2.0000      -0.376543       -10.2463
 202   2.0000      -0.372838       -10.1454
 203   2.0000      -0.368342       -10.0231
 204   2.0000      -0.366443        -9.9714
 205   2.0000      -0.363606        -9.8942
 206   2.0000      -0.351144        -9.5551
 207   2.0000      -0.347877        -9.4662
 208   2.0000      -0.342372        -9.3164
 209   2.0000      -0.334988        -9.1155
 210   2.0000      -0.323110        -8.7923
 211   2.0000      -0.317445        -8.6381
 212   2.0000      -0.306571        -8.3422
 213   2.0000      -0.295653        -8.0451
 214   2.0000      -0.290864        -7.9148
 215   2.0000      -0.281407        -7.6575
 216   2.0000      -0.272339        -7.4107
 217   2.0000      -0.248846        -6.7714
 218   2.0000      -0.224104        -6.0982
 219   0.0000      -0.097954        -2.6655
 220   0.0000      -0.053965        -1.4685
 221   0.0000      -0.047189        -1.2841
 222   0.0000      -0.028188        -0.7670
 223   0.0000      -0.010859        -0.2955

MULLIKEN ATOMIC CHARGES
-----------------------
   0 C :    0.124140
   1 O :   -0.170010
   2 C :    0.082170
   3 C :   -0.120743
   4 C :    0.014777
   5 C :    0.000781
   6 O :   -0.183619
   7 C :    0.052576
   8 C :    0.069265
   9 O :   -0.148776
  10 C :    0.102432
  11 C :    0.099115
  12 N :    0.288102
  13 O :   -0.239575
  14 O :   -0.279046
  15 C :    0.075783
  16 N :   -0.037444
  17 C :    0.092128
  18 C :   -0.266739
  19 C :    0.075352
  20 C :    0.202940
  21 N :   -0.135226
  22 C :    0.067841
  23 C :   -0.075096
  24 C :    0.061117
  25 C :   -0.071577
  26 C :    0.069976
  27 C :    0.027615
  28 C :   -0.000378
  29 S :    0.062467
  30 C :   -0.107807
  31 C :    0.079615
  32 C :    0.012451
  33 C :   -0.018594
  34 S :    0.169588
  35 C :   -0.038308
  36 C :   -0.010624
  37 C :   -0.061754
  38 C :    0.323082
  39 C :   -0.378683
  40 C :   -0.188646
  41 N :    0.131385
  42 C :   -0.198639
  43 N :    0.147814
  44 C :    0.001097
  45 C :    0.025893
  46 C :    0.119605
  47 O :   -0.249465
  48 C :   -0.083036
  49 C :    0.153029
  50 C :   -0.099828
  51 C :   -0.040671
  52 S :    0.197874
  53 C :   -0.115581
  54 C :    0.019297
  55 Br:    0.012856
  56 H :    0.024840
  57 H :   -0.017774
  58 H :    0.038514
  59 H :    0.014962
  60 H :    0.032300
  61 H :    0.022464
  62 H :    0.135559
  63 H :   -0.018604
  64 H :    0.027568
  65 H :    0.044779
  66 H :    0.003204
  67 H :    0.024664
  68 H :    0.016202
  69 H :    0.132882
  70 H :    0.041981
  71 H :    0.000177
  72 H :    0.001100
  73 H :   -0.002341
  74 H :   -0.006204
  75 H :   -0.011754
  76 H :   -0.013637
  77 H :   -0.010980
  78 H :    0.008701
  79 H :   -0.080344
  80 H :   -0.012694
  81 H :   -0.037864
Sum of atomic charges:   -0.0000000

LOEWDIN ATOMIC CHARGES
----------------------
   0 C :    0.085668
   1 O :    0.046724
   2 C :    0.019322
   3 C :   -0.075769
   4 C :   -0.121354
   5 C :    0.078601
   6 O :   -0.153870
   7 C :   -0.076495
   8 C :   -0.025343
   9 O :    0.069508
  10 C :    0.098520
  11 C :   -0.103409
  12 N :    0.299461
  13 O :   -0.201416
  14 O :   -0.231131
  15 C :    0.006331
  16 N :    0.020151
  17 C :    0.022326
  18 C :   -0.112077
  19 C :   -0.055925
  20 C :    0.045287
  21 N :    0.015396
  22 C :    0.064221
  23 C :   -0.127803
  24 C :    0.011327
  25 C :   -0.184916
  26 C :    0.009602
  27 C :   -0.054494
  28 C :   -0.122150
  29 S :    0.403876
  30 C :   -0.223572
  31 C :   -0.012568
  32 C :   -0.053446
  33 C :   -0.123115
  34 S :    0.506212
  35 C :   -0.098108
  36 C :    0.028363
  37 C :   -0.130176
  38 C :    0.079837
  39 C :   -0.159757
  40 C :   -0.018019
  41 N :   -0.073365
  42 C :   -0.024393
  43 N :   -0.067013
  44 C :   -0.019993
  45 C :   -0.040352
  46 C :    0.053069
  47 O :   -0.211186
  48 C :   -0.008315
  49 C :   -0.037194
  50 C :   -0.152488
  51 C :   -0.015691
  52 S :    0.445230
  53 C :   -0.267751
  54 C :   -0.090925
  55 Br:    0.134267
  56 H :    0.032348
  57 H :    0.027049
  58 H :    0.043885
  59 H :    0.032228
  60 H :    0.038135
  61 H :    0.037437
  62 H :    0.072621
  63 H :    0.016336
  64 H :    0.032018
  65 H :    0.033572
  66 H :    0.026353
  67 H :    0.032502
  68 H :    0.026875
  69 H :    0.080504
  70 H :    0.022608
  71 H :    0.031173
  72 H :    0.040325
  73 H :    0.037846
  74 H :    0.035677
  75 H :    0.033238
  76 H :    0.031991
  77 H :    0.037812
  78 H :    0.045073
  79 H :    0.020180
  80 H :    0.039358
  81 H :    0.023133

  Mayer bond orders larger than 0.100000
B(  0-C ,  1-O ) :   1.1760 B(  0-C ,  4-C ) :   1.4993 B(  0-C , 56-H ) :   1.0030
B(  1-O ,  2-C ) :   1.1736 B(  2-C ,  3-C ) :   1.5583 B(  2-C ,  8-C ) :   0.9946
B(  3-C ,  4-C ) :   1.1814 B(  3-C , 57-H ) :   1.0041 B(  4-C ,  5-C ) :   0.9257
B(  5-C ,  6-O ) :   2.2028 B(  5-C ,  7-C ) :   1.0656 B(  7-C , 58-H ) :   0.9460
B(  7-C , 59-H ) :   0.9424 B(  7-C , 60-H ) :   0.9467 B(  8-C ,  9-O ) :   1.1113
B(  8-C , 10-C ) :   0.1042 B(  8-C , 15-C ) :   1.4924 B(  9-O , 10-C ) :   1.2387
B( 10-C , 11-C ) :   1.4022 B( 10-C , 61-H ) :   1.0155 B( 11-C , 12-N ) :   0.9664
B( 11-C , 15-C ) :   1.2450 B( 12-N , 13-O ) :   1.5414 B( 12-N , 14-O ) :   1.4589
B( 13-O , 14-O ) :   0.2436 B( 14-O , 62-H ) :   0.1027 B( 15-C , 16-N ) :   1.2191
B( 16-N , 17-C ) :   1.1295 B( 16-N , 62-H ) :   0.8595 B( 17-C , 18-C ) :   1.7742
B( 17-C , 63-H ) :   0.9662 B( 18-C , 19-C ) :   1.0971 B( 18-C , 20-C ) :   1.0421
B( 19-C , 64-H ) :   0.9481 B( 19-C , 65-H ) :   0.9436 B( 19-C , 66-H ) :   0.9457
B( 20-C , 21-N ) :   1.0213 B( 20-C , 67-H ) :   0.9436 B( 20-C , 68-H ) :   0.9303
B( 21-N , 22-C ) :   1.2944 B( 21-N , 69-H ) :   0.9381 B( 22-C , 23-C ) :   1.5504
B( 22-C , 70-H ) :   0.9511 B( 23-C , 24-C ) :   1.2494 B( 23-C , 71-H ) :   0.9468
B( 24-C , 25-C ) :   1.5395 B( 24-C , 72-H ) :   0.9626 B( 25-C , 26-C ) :   1.1846
B( 25-C , 29-S ) :   1.0149 B( 26-C , 27-C ) :   1.5417 B( 26-C , 73-H ) :   0.9956
B( 27-C , 28-C ) :   1.2307 B( 27-C , 74-H ) :   0.9954 B( 28-C , 29-S ) :   1.1040
B( 28-C , 30-C ) :   1.4000 B( 30-C , 31-C ) :   1.2356 B( 30-C , 34-S ) :   1.0678
B( 31-C , 32-C ) :   1.5123 B( 31-C , 75-H ) :   0.9913 B( 32-C , 33-C ) :   1.2209
B( 32-C , 76-H ) :   0.9988 B( 33-C , 34-S ) :   1.1628 B( 33-C , 35-C ) :   1.3368
B( 35-C , 36-C ) :   1.4815 B( 35-C , 77-H ) :   0.9482 B( 36-C , 37-C ) :   1.3020
B( 36-C , 78-H ) :   0.9312 B( 37-C , 38-C ) :   1.1347 B( 37-C , 46-C ) :   1.0787
B( 38-C , 39-C ) :   1.5787 B( 38-C , 44-C ) :   0.9733 B( 39-C , 40-C ) :   1.1542
B( 39-C , 42-C ) :   1.1492 B( 40-C , 41-N ) :   2.9620 B( 42-C , 43-N ) :   2.9792
B( 44-C , 45-C ) :   1.2817 B( 44-C , 51-C ) :   1.4230 B( 45-C , 46-C ) :   0.9396
B( 45-C , 48-C ) :   1.4376 B( 46-C , 47-O ) :   1.9553 B( 48-C , 49-C ) :   1.2309
B( 48-C , 79-H ) :   1.0072 B( 49-C , 50-C ) :   1.3372 B( 49-C , 54-C ) :   1.1628
B( 50-C , 51-C ) :   1.3015 B( 50-C , 52-S ) :   1.0837 B( 51-C , 80-H ) :   0.9837
B( 52-S , 53-C ) :   1.1063 B( 53-C , 54-C ) :   1.6016 B( 53-C , 55-Br) :   1.0148
B( 54-C , 81-H ) :   1.0002

-----------------------------------------------------------------------------
         ABSORPTION SPECTRUM VIA TRANSITION ELECTRIC DIPOLE MOMENTS
-----------------------------------------------------------------------------
State   Energy  Wavelength   fosc         T2         TX        TY        TZ
        (cm-1)    (nm)                  (au**2)     (au)      (au)      (au)
-----------------------------------------------------------------------------
   0   12252.5    816.2   0.597688965  16.05933   0.49574   3.77733  -1.24314
   1   16126.3    620.1   0.000062990   0.00129  -0.02160   0.02707  -0.00931
   2   19261.6    519.2   0.007197313   0.12301   0.27110   0.21931   0.03773
   3   20707.0    482.9   0.044349747   0.70510   0.57342   0.39914   0.46581
   4   22564.5    443.2   0.071127500   1.03774  -0.40619  -0.72029  -0.59492
   5   23021.8    434.4   0.111613906   1.59608   0.64723   0.13044   1.07711
   6   23701.1    421.9   0.017611323   0.24462  -0.06482  -0.34678   0.34665
   7   24968.6    400.5   0.016502538   0.21759  -0.21254  -0.40086   0.10829
   8   25531.3    391.7   0.053851171   0.69438   0.45328   0.62344   0.31660
   9   26102.3    383.1   0.002674887   0.03374   0.08788  -0.16128  -0.00128
  10   26474.7    377.7   0.772285927   9.60336   1.14332   0.84319   2.75412
  11   28747.6    347.9   0.028281070   0.32387   0.24766   0.38196   0.34153
  12   29672.4    337.0   0.010647239   0.11813  -0.13499  -0.03211  -0.31444
  13   29916.0    334.3   0.006642296   0.07310  -0.11494  -0.14316   0.19846
  14   30352.9    329.5   0.040248531   0.43654  -0.08274   0.46017  -0.46684
  15   30652.3    326.2   0.031526153   0.33860  -0.18039  -0.38717   0.39517
  16   31295.6    319.5   0.027642698   0.29079  -0.19720  -0.49917   0.05221
  17   31406.0    318.4   0.141101161   1.47908   0.06807  -0.07928   1.21168
  18   32219.2    310.4   0.050668581   0.51772  -0.09930   0.12600  -0.70142
  19   32471.3    308.0   0.021431203   0.21728   0.14569  -0.38749  -0.21427
  20   32813.0    304.8   0.394930610   3.96233  -0.19664   1.33999  -1.45879
  21   33358.3    299.8   0.146307753   1.44391   0.30617   1.10709  -0.35288
  22   33486.0    298.6   0.166963970   1.64148  -0.21823  -1.04029  -0.71530
  23   33835.1    295.6   0.189848284   1.84721  -0.36006  -1.05743  -0.77422
  24   34016.5    294.0   0.071252345   0.68958  -0.42806  -0.61298  -0.36139
  25   34616.7    288.9   0.054659231   0.51982  -0.01802  -0.45130   0.56198
  26   34850.7    286.9   0.089303710   0.84359   0.51654   0.61176   0.45004
  27   35502.2    281.7   0.017585134   0.16307  -0.15727   0.12466   0.35042
  28   35998.5    277.8   0.026766006   0.24478   0.17362   0.12662   0.44565
  29   36349.0    275.1   0.072240453   0.65428   0.21509   0.74167  -0.24071
  30   36539.4    273.7   0.246181222   2.21804  -0.28945  -1.39529   0.43293
  31   37021.8    270.1   0.127474580   1.13355   0.20026   0.95492  -0.42613
  32   37100.8    269.5   0.002785825   0.02472   0.04515   0.09449  -0.11727
  33   37270.9    268.3   0.029004330   0.25619  -0.17602   0.26997  -0.39029
  34   37861.8    264.1   0.079472929   0.69102   0.10676   0.73108  -0.38099
  35   38136.4    262.2   0.023703478   0.20462  -0.24048  -0.17632  -0.34015
  36   38263.5    261.3   0.128994412   1.10985   0.46653   0.08104   0.94108
  37   38446.5    260.1   0.113703797   0.97363  -0.44552  -0.65504  -0.58828
  38   39225.2    254.9   0.000542499   0.00455   0.02265  -0.05671  -0.02870
  39   39513.9    253.1   0.098446524   0.82021  -0.64658  -0.61619  -0.14985
  40   39568.8    252.7   0.018496871   0.15389   0.37659  -0.08059  -0.07469
  41   39615.8    252.4   0.059788526   0.49685   0.03381  -0.44956   0.54185
  42   39893.6    250.7   0.008839044   0.07294   0.08525   0.23715  -0.09713
  43   40032.0    249.8   0.004379071   0.03601   0.18098   0.04756   0.03157
  44   40249.6    248.4   0.017080308   0.13970   0.14118   0.10145   0.33088
  45   40320.2    248.0   0.008210518   0.06704  -0.09577   0.18937   0.14835

FINAL SINGLE POINT ENERGY     -6068.173442982908

DIPOLE MOMENT
-------------
                                X             Y             Z
Electronic contribution:    -54.08460     -54.41369     -37.81814
Nuclear contribution   :     55.85957      59.91064      35.55529
                        -----------------------------------------
Total Dipole Moment    :      1.77497       5.49695      -2.26285
                        -----------------------------------------
Magnitude (a.u.)       :      6.20383
Magnitude (Debye)      :     15.76888

Rotational constants in cm-1:     0.001901     0.001192     0.000895
Rotational constants in MHz :    56.995757    35.738668    26.835360

                             ****ORCA TERMINATED NORMALLY****
TOTAL RUN TIME: 0 days 0 hours 12 minutes 9 seconds 328 msec
