                         Program Version 4.2.0 -  RELEASE  -
|  1> # ORCA input file
|  2> # SCF done       -183.697523174236          0.000935877858
|  3> ! CAM-B3LYP def2-SVP def2/J RIJCOSX Grid4 TightSCF
|  4> %maxcore 5000
|  5> %tddft
|  6>     Mode sTDDFT
|  7>     Ethresh 5.0
|  8>     maxcore 5000
|  9> end
| 10>
| 11> %pal
| 12>   nprocs 6
| 13>   end
| 14> * xyz 0 1
| 15>    C       -9.55439         4.46588         1.55025
| 16>    C      -10.50407         4.70968         0.59814
| 17>    C      -11.78137         5.24302         0.87806
| 18>    N      -12.83134         5.67655         1.04147
| 19>    C      -10.37413         4.46248        -0.78660
| 20>    N      -10.35959         4.31446        -1.92492
| 21>    C       -9.71200         4.68547         2.98186
| 22>    C       -8.55566         4.21118         3.64998
| 23>    C       -8.41119         4.26701         5.01619
| 24>    C       -9.45610         4.82186         5.76077
| 25>    C      -10.60505         5.30129         5.08499
| 26>    C      -10.75196         5.24141         3.70498
| 27>    S      -11.77045         5.95698         6.19299
| 28>    C      -10.71576         5.58320         7.53075
| 29>    C       -9.54997         4.99626         7.16850
| 30>   Br      -11.25342         6.00152         9.27703
| 31>    C       -7.60166         3.67881         2.66430
| 32>    O       -6.50183         3.22049         2.89842
| 33>    C       -8.24515         3.85974         1.34044
| 34>    C       -7.69103         3.58698         0.13190
| 35>    C       -6.47283         2.92031        -0.17995
| 36>    C       -5.77510         1.87230         0.39870
| 37>    C       -4.53355         1.60748        -0.28269
| 38>    C       -3.55380         0.65405        -0.00522
| 39>    C       -2.42551         0.58119        -0.80873
| 40>    C       -2.24981         1.44246        -1.90510
| 41>    C       -3.21290         2.37712        -2.20250
| 42>    C       -4.34425         2.45062        -1.39758
| 43>    S       -5.67189         3.53652        -1.61274
| 44>    C       -1.43330        -0.38362        -0.51382
| 45>    N       -0.63415        -1.16773        -0.26917
| 46>    C       -6.24039         1.05586         1.48528
| 47>    O       -5.31554         0.39497         2.22561
| 48>    C       -7.49320         0.70557         1.95430
| 49>    C       -8.93725         0.89186         1.79527
| 50>    O       -9.58078         1.55774         1.02111
| 51>    N       -9.49426         0.10998         2.80195
| 52>    C       -8.57771        -0.57068         3.59830
| 53>    O       -8.86531        -1.28780         4.52583
| 54>    C       -7.28641        -0.18764         3.04092
| 55>    C       -5.92198        -0.35165         3.17903
| 56>    C       -5.13710        -1.12833         4.07532
| 57>    C       -5.69940        -1.89379         5.03676
| 58>    C       -4.94409        -2.69719         5.94469
| 59>    C       -5.45467        -3.46086         6.92733
| 60>    C       -6.90985        -3.59468         7.23842
| 61>    C       -4.52728        -4.24003         7.82913
| 62>    N       -4.99337        -5.58200         8.07090
| 63>    C       -4.22180        -6.66815         8.04889
| 64>    C       -4.66232        -7.91430         8.40172
| 65>    C       -3.91206        -9.09643         8.38073
| 66>    C       -2.56128        -9.34320         8.28437
| 67>    C       -1.36857        -8.56450         8.47480
| 68>    C       -1.21210        -7.42681         9.23732
| 69>    C        0.01396        -6.76313         9.43218
| 70>    N        0.97264        -6.15631         9.61383
| 71>    C       -2.24341        -6.81129         9.96197
| 72>    N       -3.05931        -6.25884        10.55530
| 73>    C       -0.24857        -9.32807         7.91980
| 74>    C       -0.70581       -10.62564         7.58685
| 75>    C       -2.15507       -10.70562         7.86461
| 76>    O       -2.87363       -11.67498         7.74415
| 77>    C        0.12195       -11.59473         7.07784
| 78>    C        1.46643       -11.26283         6.87466
| 79>    C        1.91011        -9.95892         7.19335
| 80>    C        1.07261        -8.98080         7.71797
| 81>    S        3.60276        -9.75845         6.85208
| 82>    C        3.69007       -11.40959         6.29885
| 83>    C        2.51425       -12.07723         6.36308
| 84>   Br        5.32616       -12.09544         5.68774
| 85>    H       -7.51819         3.89501         5.49383
| 86>    H      -11.64522         5.62192         3.23895
| 87>    H       -8.78609         4.69989         7.86387
| 88>    H       -8.19767         3.97652        -0.74315
| 89>    H       -3.65717        -0.02019         0.82842
| 90>    H       -1.35890         1.35828        -2.50817
| 91>    H       -3.10391         3.04293        -3.04364
| 92>    H      -10.49314         0.03183         2.93125
| 93>    H       -4.06521        -1.07541         3.94714
| 94>    H       -6.77586        -1.90613         5.11321
| 95>    H       -3.86920        -2.67170         5.81374
| 96>    H       -7.49863        -2.80208         6.78940
| 97>    H       -7.06838        -3.57464         8.31596
| 98>    H       -7.28707        -4.54418         6.85598
| 99>    H       -4.44718        -3.71014         8.79135
|100>    H       -3.52619        -4.29095         7.39668
|101>    H       -5.89800        -5.66869         8.51250
|102>    H       -3.23145        -6.53037         7.63688
|103>    H       -5.70364        -8.01447         8.67893
|104>    H       -4.49819       -10.01196         8.38397
|105>    H       -0.25335       -12.57851         6.84364
|106>    H        1.45890        -8.00010         7.94069
|107>    H        2.38809       -13.10144         6.06289
|108> *
|109>
|110>                          ****END OF INPUT****

CARTESIAN COORDINATES (ANGSTROEM)
---------------------------------
  C     -9.554390    4.465880    1.550250
  C    -10.504070    4.709680    0.598140
  C    -11.781370    5.243020    0.878060
  N    -12.831340    5.676550    1.041470
  C    -10.374130    4.462480   -0.786600
  N    -10.359590    4.314460   -1.924920
  C     -9.712000    4.685470    2.981860
  C     -8.555660    4.211180    3.649980
  C     -8.411190    4.267010    5.016190
  C     -9.456100    4.821860    5.760770
  C    -10.605050    5.301290    5.084990
  C    -10.751960    5.241410    3.704980
  S    -11.770450    5.956980    6.192990
  C    -10.715760    5.583200    7.530750
  C     -9.549970    4.996260    7.168500
  Br   -11.253420    6.001520    9.277030
  C     -7.601660    3.678810    2.664300
  O     -6.501830    3.220490    2.898420
  C     -8.245150    3.859740    1.340440
  C     -7.691030    3.586980    0.131900
  C     -6.472830    2.920310   -0.179950
  C     -5.775100    1.872300    0.398700
  C     -4.533550    1.607480   -0.282690
  C     -3.553800    0.654050   -0.005220
  C     -2.425510    0.581190   -0.808730
  C     -2.249810    1.442460   -1.905100
  C     -3.212900    2.377120   -2.202500
  C     -4.344250    2.450620   -1.397580
  S     -5.671890    3.536520   -1.612740
  C     -1.433300   -0.383620   -0.513820
  N     -0.634150   -1.167730   -0.269170
  C     -6.240390    1.055860    1.485280
  O     -5.315540    0.394970    2.225610
  C     -7.493200    0.705570    1.954300
  C     -8.937250    0.891860    1.795270
  O     -9.580780    1.557740    1.021110
  N     -9.494260    0.109980    2.801950
  C     -8.577710   -0.570680    3.598300
  O     -8.865310   -1.287800    4.525830
  C     -7.286410   -0.187640    3.040920
  C     -5.921980   -0.351650    3.179030
  C     -5.137100   -1.128330    4.075320
  C     -5.699400   -1.893790    5.036760
  C     -4.944090   -2.697190    5.944690
  C     -5.454670   -3.460860    6.927330
  C     -6.909850   -3.594680    7.238420
  C     -4.527280   -4.240030    7.829130
  N     -4.993370   -5.582000    8.070900
  C     -4.221800   -6.668150    8.048890
  C     -4.662320   -7.914300    8.401720
  C     -3.912060   -9.096430    8.380730
  C     -2.561280   -9.343200    8.284370
  C     -1.368570   -8.564500    8.474800
  C     -1.212100   -7.426810    9.237320
  C      0.013960   -6.763130    9.432180
  N      0.972640   -6.156310    9.613830
  C     -2.243410   -6.811290    9.961970
  N     -3.059310   -6.258840   10.555300
  C     -0.248570   -9.328070    7.919800
  C     -0.705810  -10.625640    7.586850
  C     -2.155070  -10.705620    7.864610
  O     -2.873630  -11.674980    7.744150
  C      0.121950  -11.594730    7.077840
  C      1.466430  -11.262830    6.874660
  C      1.910110   -9.958920    7.193350
  C      1.072610   -8.980800    7.717970
  S      3.602760   -9.758450    6.852080
  C      3.690070  -11.409590    6.298850
  C      2.514250  -12.077230    6.363080
  Br     5.326160  -12.095440    5.687740
  H     -7.518190    3.895010    5.493830
  H    -11.645220    5.621920    3.238950
  H     -8.786090    4.699890    7.863870
  H     -8.197670    3.976520   -0.743150
  H     -3.657170   -0.020190    0.828420
  H     -1.358900    1.358280   -2.508170
  H     -3.103910    3.042930   -3.043640
  H    -10.493140    0.031830    2.931250
  H     -4.065210   -1.075410    3.947140
  H     -6.775860   -1.906130    5.113210
  H     -3.869200   -2.671700    5.813740
  H     -7.498630   -2.802080    6.789400
  H     -7.068380   -3.574640    8.315960
  H     -7.287070   -4.544180    6.855980
  H     -4.447180   -3.710140    8.791350
  H     -3.526190   -4.290950    7.396680
  H     -5.898000   -5.668690    8.512500
  H     -3.231450   -6.530370    7.636880
  H     -5.703640   -8.014470    8.678930
  H     -4.498190  -10.011960    8.383970
  H     -0.253350  -12.578510    6.843640
  H      1.458900   -8.000100    7.940690
  H      2.388090  -13.101440    6.062890

 Total Charge           Charge          ....    0
 Multiplicity           Mult            ....    1
 Number of Electrons    NEL             ....  548
 Basis Dimension        Dim             .... 1143

ORBITAL ENERGIES
----------------

  NO   OCC          E(Eh)            E(eV)
   0   2.0000    -482.892638    -13140.1767
   1   2.0000    -482.878464    -13139.7910
   2   2.0000     -88.983480     -2421.3636
   3   2.0000     -88.979045     -2421.2429
   4   2.0000     -88.966713     -2420.9073
   5   2.0000     -62.570333     -1702.6253
   6   2.0000     -62.556171     -1702.2399
   7   2.0000     -56.404291     -1534.8388
   8   2.0000     -56.401561     -1534.7645
   9   2.0000     -56.401534     -1534.7638
  10   2.0000     -56.390110     -1534.4529
  11   2.0000     -56.387416     -1534.3796
  12   2.0000     -56.387376     -1534.3785
  13   2.0000     -19.325969      -525.8864
  14   2.0000     -19.230256      -523.2819
  15   2.0000     -19.227068      -523.1951
  16   2.0000     -19.226398      -523.1769
  17   2.0000     -19.197565      -522.3923
  18   2.0000     -14.472358      -393.8129
  19   2.0000     -14.468717      -393.7138
  20   2.0000     -14.422224      -392.4487
  21   2.0000     -14.421449      -392.4276
  22   2.0000     -14.410776      -392.1371
  23   2.0000     -14.409089      -392.0913
  24   2.0000     -14.403668      -391.9437
  25   2.0000     -10.414810      -283.4014
  26   2.0000     -10.413314      -283.3607
  27   2.0000     -10.379175      -282.4317
  28   2.0000     -10.378752      -282.4202
  29   2.0000     -10.373960      -282.2898
  30   2.0000     -10.366965      -282.0995
  31   2.0000     -10.353659      -281.7374
  32   2.0000     -10.350485      -281.6510
  33   2.0000     -10.350076      -281.6399
  34   2.0000     -10.348633      -281.6006
  35   2.0000     -10.347634      -281.5734
  36   2.0000     -10.341193      -281.3982
  37   2.0000     -10.335191      -281.2348
  38   2.0000     -10.334629      -281.2196
  39   2.0000     -10.332864      -281.1715
  40   2.0000     -10.331722      -281.1404
  41   2.0000     -10.329216      -281.0723
  42   2.0000     -10.326985      -281.0115
  43   2.0000     -10.325778      -280.9787
  44   2.0000     -10.324557      -280.9455
  45   2.0000     -10.324252      -280.9372
  46   2.0000     -10.323682      -280.9217
  47   2.0000     -10.317378      -280.7501
  48   2.0000     -10.316688      -280.7313
  49   2.0000     -10.315348      -280.6949
  50   2.0000     -10.314977      -280.6848
  51   2.0000     -10.314085      -280.6605
  52   2.0000     -10.314010      -280.6585
  53   2.0000     -10.312755      -280.6243
  54   2.0000     -10.311091      -280.5790
  55   2.0000     -10.309335      -280.5313
  56   2.0000     -10.308782      -280.5162
  57   2.0000     -10.308542      -280.5097
  58   2.0000     -10.308502      -280.5086
  59   2.0000     -10.308340      -280.5042
  60   2.0000     -10.307090      -280.4702
  61   2.0000     -10.305341      -280.4226
  62   2.0000     -10.304567      -280.4015
  63   2.0000     -10.304143      -280.3900
  64   2.0000     -10.302389      -280.3422
  65   2.0000     -10.300385      -280.2877
  66   2.0000     -10.299445      -280.2622
  67   2.0000     -10.298145      -280.2268
  68   2.0000     -10.296956      -280.1944
  69   2.0000     -10.296591      -280.1845
  70   2.0000     -10.295151      -280.1453
  71   2.0000     -10.290186      -280.0102
  72   2.0000     -10.289399      -279.9888
  73   2.0000     -10.288338      -279.9599
  74   2.0000     -10.287919      -279.9485
  75   2.0000     -10.279812      -279.7279
  76   2.0000     -10.273205      -279.5481
  77   2.0000     -10.273112      -279.5456
  78   2.0000      -8.799761      -239.4537
  79   2.0000      -8.785597      -239.0682
  80   2.0000      -8.079567      -219.8562
  81   2.0000      -8.075289      -219.7398
  82   2.0000      -8.062723      -219.3979
  83   2.0000      -6.636072      -180.5767
  84   2.0000      -6.621830      -180.1892
  85   2.0000      -6.621498      -180.1801
  86   2.0000      -6.621270      -180.1739
  87   2.0000      -6.607350      -179.7951
  88   2.0000      -6.607186      -179.7907
  89   2.0000      -6.049252      -164.6085
  90   2.0000      -6.044970      -164.4920
  91   2.0000      -6.044739      -164.4857
  92   2.0000      -6.040762      -164.3775
  93   2.0000      -6.040686      -164.3754
  94   2.0000      -6.036744      -164.2681
  95   2.0000      -6.032422      -164.1505
  96   2.0000      -6.028153      -164.0344
  97   2.0000      -6.023926      -163.9194
  98   2.0000      -2.751973       -74.8850
  99   2.0000      -2.747828       -74.7722
 100   2.0000      -2.747689       -74.7684
 101   2.0000      -2.737753       -74.4980
 102   2.0000      -2.736085       -74.4527
 103   2.0000      -2.736076       -74.4524
 104   2.0000      -2.733612       -74.3854
 105   2.0000      -2.733511       -74.3826
 106   2.0000      -2.722001       -74.0694
 107   2.0000      -2.721981       -74.0689
 108   2.0000      -1.244228       -33.8572
 109   2.0000      -1.170814       -31.8595
 110   2.0000      -1.150206       -31.2987
 111   2.0000      -1.144439       -31.1418
 112   2.0000      -1.112583       -30.2749
 113   2.0000      -1.072515       -29.1846
 114   2.0000      -1.056908       -28.7599
 115   2.0000      -1.031407       -28.0660
 116   2.0000      -1.026562       -27.9342
 117   2.0000      -1.020354       -27.7652
 118   2.0000      -1.012806       -27.5599
 119   2.0000      -1.005246       -27.3541
 120   2.0000      -1.000264       -27.2186
 121   2.0000      -0.998475       -27.1699
 122   2.0000      -0.996225       -27.1086
 123   2.0000      -0.986759       -26.8511
 124   2.0000      -0.977649       -26.6032
 125   2.0000      -0.964977       -26.2584
 126   2.0000      -0.950065       -25.8526
 127   2.0000      -0.948489       -25.8097
 128   2.0000      -0.934906       -25.4401
 129   2.0000      -0.932465       -25.3737
 130   2.0000      -0.928661       -25.2701
 131   2.0000      -0.916428       -24.9373
 132   2.0000      -0.909815       -24.7573
 133   2.0000      -0.906304       -24.6618
 134   2.0000      -0.898425       -24.4474
 135   2.0000      -0.895154       -24.3584
 136   2.0000      -0.894457       -24.3394
 137   2.0000      -0.879055       -23.9203
 138   2.0000      -0.875824       -23.8324
 139   2.0000      -0.871658       -23.7190
 140   2.0000      -0.862561       -23.4715
 141   2.0000      -0.846105       -23.0237
 142   2.0000      -0.837733       -22.7959
 143   2.0000      -0.834918       -22.7193
 144   2.0000      -0.823890       -22.4192
 145   2.0000      -0.818932       -22.2843
 146   2.0000      -0.802492       -21.8369
 147   2.0000      -0.792013       -21.5518
 148   2.0000      -0.788441       -21.4546
 149   2.0000      -0.779602       -21.2141
 150   2.0000      -0.776489       -21.1293
 151   2.0000      -0.769134       -20.9292
 152   2.0000      -0.759481       -20.6665
 153   2.0000      -0.745570       -20.2880
 154   2.0000      -0.741517       -20.1777
 155   2.0000      -0.730464       -19.8769
 156   2.0000      -0.722274       -19.6541
 157   2.0000      -0.718117       -19.5409
 158   2.0000      -0.713892       -19.4260
 159   2.0000      -0.704998       -19.1840
 160   2.0000      -0.698184       -18.9985
 161   2.0000      -0.692526       -18.8446
 162   2.0000      -0.688168       -18.7260
 163   2.0000      -0.676833       -18.4176
 164   2.0000      -0.668748       -18.1976
 165   2.0000      -0.664042       -18.0695
 166   2.0000      -0.660375       -17.9697
 167   2.0000      -0.652375       -17.7520
 168   2.0000      -0.645509       -17.5652
 169   2.0000      -0.638843       -17.3838
 170   2.0000      -0.634749       -17.2724
 171   2.0000      -0.625351       -17.0167
 172   2.0000      -0.621031       -16.8991
 173   2.0000      -0.612394       -16.6641
 174   2.0000      -0.612329       -16.6623
 175   2.0000      -0.608868       -16.5681
 176   2.0000      -0.608190       -16.5497
 177   2.0000      -0.607517       -16.5314
 178   2.0000      -0.603397       -16.4193
 179   2.0000      -0.596084       -16.2203
 180   2.0000      -0.594417       -16.1749
 181   2.0000      -0.585199       -15.9241
 182   2.0000      -0.582095       -15.8396
 183   2.0000      -0.580574       -15.7982
 184   2.0000      -0.570457       -15.5229
 185   2.0000      -0.568655       -15.4739
 186   2.0000      -0.566703       -15.4208
 187   2.0000      -0.563895       -15.3444
 188   2.0000      -0.563492       -15.3334
 189   2.0000      -0.558990       -15.2109
 190   2.0000      -0.552609       -15.0373
 191   2.0000      -0.551122       -14.9968
 192   2.0000      -0.544159       -14.8073
 193   2.0000      -0.541540       -14.7360
 194   2.0000      -0.538885       -14.6638
 195   2.0000      -0.536570       -14.6008
 196   2.0000      -0.535230       -14.5643
 197   2.0000      -0.532608       -14.4930
 198   2.0000      -0.529024       -14.3955
 199   2.0000      -0.526465       -14.3258
 200   2.0000      -0.523987       -14.2584
 201   2.0000      -0.522520       -14.2185
 202   2.0000      -0.522152       -14.2085
 203   2.0000      -0.517781       -14.0895
 204   2.0000      -0.516180       -14.0460
 205   2.0000      -0.514505       -14.0004
 206   2.0000      -0.511744       -13.9253
 207   2.0000      -0.509781       -13.8718
 208   2.0000      -0.505736       -13.7618
 209   2.0000      -0.503834       -13.7100
 210   2.0000      -0.501420       -13.6443
 211   2.0000      -0.498421       -13.5627
 212   2.0000      -0.495601       -13.4860
 213   2.0000      -0.492343       -13.3973
 214   2.0000      -0.489276       -13.3139
 215   2.0000      -0.487818       -13.2742
 216   2.0000      -0.486495       -13.2382
 217   2.0000      -0.481103       -13.0915
 218   2.0000      -0.477803       -13.0017
 219   2.0000      -0.475686       -12.9441
 220   2.0000      -0.472653       -12.8615
 221   2.0000      -0.472554       -12.8588
 222   2.0000      -0.472180       -12.8487
 223   2.0000      -0.466471       -12.6933
 224   2.0000      -0.461927       -12.5697
 225   2.0000      -0.459858       -12.5134
 226   2.0000      -0.457402       -12.4465
 227   2.0000      -0.454494       -12.3674
 228   2.0000      -0.454103       -12.3568
 229   2.0000      -0.449961       -12.2441
 230   2.0000      -0.447891       -12.1877
 231   2.0000      -0.446888       -12.1604
 232   2.0000      -0.445658       -12.1270
 233   2.0000      -0.443450       -12.0669
 234   2.0000      -0.439398       -11.9566
 235   2.0000      -0.437619       -11.9082
 236   2.0000      -0.436338       -11.8733
 237   2.0000      -0.436280       -11.8718
 238   2.0000      -0.433745       -11.8028
 239   2.0000      -0.432695       -11.7742
 240   2.0000      -0.430048       -11.7022
 241   2.0000      -0.429374       -11.6838
 242   2.0000      -0.428600       -11.6628
 243   2.0000      -0.419713       -11.4210
 244   2.0000      -0.416751       -11.3404
 245   2.0000      -0.414687       -11.2842
 246   2.0000      -0.413293       -11.2463
 247   2.0000      -0.411942       -11.2095
 248   2.0000      -0.401096       -10.9144
 249   2.0000      -0.399791       -10.8789
 250   2.0000      -0.398642       -10.8476
 251   2.0000      -0.393632       -10.7113
 252   2.0000      -0.390206       -10.6180
 253   2.0000      -0.385953       -10.5023
 254   2.0000      -0.381770       -10.3885
 255   2.0000      -0.379724       -10.3328
 256   2.0000      -0.378717       -10.3054
 257   2.0000      -0.373319       -10.1585
 258   2.0000      -0.368836       -10.0365
 259   2.0000      -0.367967       -10.0129
 260   2.0000      -0.361645        -9.8409
 261   2.0000      -0.360019        -9.7966
 262   2.0000      -0.349628        -9.5139
 263   2.0000      -0.347631        -9.4595
 264   2.0000      -0.342442        -9.3183
 265   2.0000      -0.324165        -8.8210
 266   2.0000      -0.320815        -8.7298
 267   2.0000      -0.315856        -8.5949
 268   2.0000      -0.307402        -8.3648
 269   2.0000      -0.305505        -8.3132
 270   2.0000      -0.299792        -8.1578
 271   2.0000      -0.285981        -7.7820
 272   2.0000      -0.272049        -7.4028
 273   2.0000      -0.263216        -7.1625
 274   0.0000      -0.105285        -2.8649
 275   0.0000      -0.077185        -2.1003
 276   0.0000      -0.071727        -1.9518
 277   0.0000      -0.062886        -1.7112
 278   0.0000      -0.040812        -1.1105

MULLIKEN ATOMIC CHARGES
-----------------------
   0 C :    0.330068
   1 C :   -0.331711
   2 C :   -0.192764
   3 N :    0.155910
   4 C :   -0.185673
   5 N :    0.163005
   6 C :    0.013482
   7 C :   -0.020992
   8 C :   -0.077376
   9 C :    0.118275
  10 C :   -0.089125
  11 C :   -0.023764
  12 S :    0.191636
  13 C :   -0.123463
  14 C :    0.039088
  15 Br:    0.030001
  16 C :    0.141325
  17 O :   -0.142886
  18 C :   -0.064413
  19 C :    0.007175
  20 C :   -0.167972
  21 C :    0.217922
  22 C :    0.072014
  23 C :   -0.033891
  24 C :   -0.087524
  25 C :    0.043871
  26 C :    0.015173
  27 C :   -0.065925
  28 S :    0.166722
  29 C :   -0.146629
  30 N :    0.104444
  31 C :    0.055136
  32 O :   -0.206428
  33 C :   -0.054024
  34 C :    0.162190
  35 O :   -0.148809
  36 N :   -0.148215
  37 C :    0.186240
  38 O :   -0.164344
  39 C :   -0.093446
  40 C :    0.151015
  41 C :   -0.016035
  42 C :   -0.000970
  43 C :    0.010202
  44 C :   -0.165712
  45 C :    0.061328
  46 C :    0.200265
  47 N :   -0.125233
  48 C :    0.087419
  49 C :   -0.034915
  50 C :    0.046068
  51 C :   -0.160376
  52 C :    0.294109
  53 C :   -0.381104
  54 C :   -0.174546
  55 N :    0.136808
  56 C :   -0.201442
  57 N :    0.138364
  58 C :   -0.005422
  59 C :    0.011319
  60 C :    0.129683
  61 O :   -0.159773
  62 C :   -0.078563
  63 C :    0.114395
  64 C :   -0.092040
  65 C :   -0.027652
  66 S :    0.178840
  67 C :   -0.126312
  68 C :    0.042235
  69 Br:    0.015904
  70 H :   -0.010457
  71 H :   -0.004460
  72 H :   -0.002205
  73 H :    0.024877
  74 H :    0.001358
  75 H :    0.005404
  76 H :   -0.005823
  77 H :    0.140668
  78 H :   -0.009519
  79 H :    0.018852
  80 H :   -0.017680
  81 H :    0.046280
  82 H :    0.023606
  83 H :    0.044615
  84 H :    0.054798
  85 H :    0.022131
  86 H :    0.135278
  87 H :    0.039711
  88 H :   -0.015490
  89 H :    0.023834
  90 H :   -0.014216
  91 H :   -0.007418
  92 H :   -0.006311
Sum of atomic charges:   -0.0000000

LOEWDIN ATOMIC CHARGES
----------------------
   0 C :    0.076378
   1 C :   -0.122393
   2 C :   -0.015976
   3 N :   -0.048577
   4 C :   -0.018092
   5 N :   -0.043067
   6 C :   -0.018493
   7 C :   -0.054313
   8 C :    0.022052
   9 C :   -0.032469
  10 C :   -0.142381
  11 C :   -0.009258
  12 S :    0.436562
  13 C :   -0.270175
  14 C :   -0.070476
  15 Br:    0.141611
  16 C :    0.077943
  17 O :   -0.135512
  18 C :   -0.067896
  19 C :    0.040773
  20 C :   -0.140419
  21 C :   -0.041190
  22 C :   -0.035714
  23 C :    0.022524
  24 C :   -0.071549
  25 C :    0.014859
  26 C :   -0.029843
  27 C :   -0.139407
  28 S :    0.449118
  29 C :   -0.030113
  30 N :   -0.055993
  31 C :    0.081504
  32 O :    0.036798
  33 C :   -0.096440
  34 C :    0.086061
  35 O :   -0.154503
  36 N :    0.003177
  37 C :    0.089441
  38 O :   -0.169065
  39 C :   -0.107004
  40 C :    0.078317
  41 C :   -0.051746
  42 C :    0.019984
  43 C :   -0.049540
  44 C :   -0.011361
  45 C :   -0.053074
  46 C :    0.050394
  47 N :    0.046973
  48 C :    0.114720
  49 C :   -0.132734
  50 C :    0.078848
  51 C :   -0.140704
  52 C :    0.071690
  53 C :   -0.177496
  54 C :   -0.023885
  55 N :   -0.071190
  56 C :   -0.011850
  57 N :   -0.073585
  58 C :   -0.019258
  59 C :   -0.050232
  60 C :    0.080486
  61 O :   -0.159424
  62 C :    0.019015
  63 C :   -0.036256
  64 C :   -0.146099
  65 C :   -0.016108
  66 S :    0.426696
  67 C :   -0.274720
  68 C :   -0.070391
  69 Br:    0.130641
  70 H :    0.041051
  71 H :    0.041770
  72 H :    0.039428
  73 H :    0.045673
  74 H :    0.036582
  75 H :    0.042895
  76 H :    0.038003
  77 H :    0.096755
  78 H :    0.037754
  79 H :    0.031801
  80 H :    0.028721
  81 H :    0.043163
  82 H :    0.032949
  83 H :    0.042296
  84 H :    0.040332
  85 H :    0.036544
  86 H :    0.087794
  87 H :    0.038595
  88 H :    0.028524
  89 H :    0.046189
  90 H :    0.039567
  91 H :    0.039285
  92 H :    0.037739

  Mayer bond orders larger than 0.100000
B(  0-C ,  1-C ) :   1.6598 B(  0-C ,  6-C ) :   1.0044 B(  0-C , 18-C ) :   1.0395
B(  1-C ,  2-C ) :   1.1420 B(  1-C ,  4-C ) :   1.1423 B(  2-C ,  3-N ) :   2.9697
B(  4-C ,  5-N ) :   2.9707 B(  6-C ,  7-C ) :   1.2673 B(  6-C , 11-C ) :   1.4060
B(  7-C ,  8-C ) :   1.4132 B(  7-C , 16-C ) :   0.9486 B(  8-C ,  9-C ) :   1.2481
B(  8-C , 70-H ) :   1.0184 B(  9-C , 10-C ) :   1.2984 B(  9-C , 14-C ) :   1.1619
B( 10-C , 11-C ) :   1.3321 B( 10-C , 12-S ) :   1.0897 B( 11-C , 71-H ) :   0.9789
B( 12-S , 13-C ) :   1.0856 B( 13-C , 14-C ) :   1.6186 B( 13-C , 15-Br) :   1.0231
B( 14-C , 72-H ) :   1.0003 B( 16-C , 17-O ) :   2.2027 B( 16-C , 18-C ) :   0.9427
B( 18-C , 19-C ) :   1.6816 B( 19-C , 20-C ) :   1.1296 B( 19-C , 73-H ) :   0.9056
B( 20-C , 21-C ) :   1.5236 B( 20-C , 28-S ) :   1.0927 B( 21-C , 22-C ) :   1.1250
B( 21-C , 31-C ) :   1.0435 B( 22-C , 23-C ) :   1.3032 B( 22-C , 27-C ) :   1.3073
B( 23-C , 24-C ) :   1.4188 B( 23-C , 74-H ) :   0.9877 B( 24-C , 25-C ) :   1.3124
B( 24-C , 29-C ) :   1.0599 B( 25-C , 26-C ) :   1.4417 B( 25-C , 75-H ) :   0.9933
B( 26-C , 27-C ) :   1.3255 B( 26-C , 76-H ) :   0.9948 B( 27-C , 28-S ) :   1.0776
B( 29-C , 30-N ) :   3.0536 B( 31-C , 32-O ) :   1.1539 B( 31-C , 33-C ) :   1.4882
B( 32-O , 40-C ) :   1.1267 B( 33-C , 34-C ) :   0.8826 B( 33-C , 39-C ) :   1.2532
B( 34-C , 35-O ) :   2.1781 B( 34-C , 36-N ) :   1.1031 B( 36-N , 37-C ) :   1.0953
B( 36-N , 77-H ) :   0.9143 B( 37-C , 38-O ) :   2.1594 B( 37-C , 39-C ) :   0.8973
B( 39-C , 40-C ) :   1.4247 B( 40-C , 41-C ) :   1.1272 B( 41-C , 42-C ) :   1.6597
B( 41-C , 78-H ) :   0.9784 B( 42-C , 43-C ) :   1.1129 B( 42-C , 79-H ) :   0.9544
B( 43-C , 44-C ) :   1.7869 B( 43-C , 80-H ) :   0.9750 B( 44-C , 45-C ) :   1.0704
B( 44-C , 46-C ) :   1.0240 B( 45-C , 81-H ) :   0.9457 B( 45-C , 82-H ) :   0.9493
B( 45-C , 83-H ) :   0.9430 B( 46-C , 47-N ) :   0.9785 B( 46-C , 84-H ) :   0.9236
B( 46-C , 85-H ) :   0.9415 B( 47-N , 48-C ) :   1.3699 B( 47-N , 86-H ) :   0.9239
B( 48-C , 49-C ) :   1.4324 B( 48-C , 87-H ) :   0.9532 B( 49-C , 50-C ) :   1.3380
B( 49-C , 88-H ) :   0.9544 B( 50-C , 51-C ) :   1.4957 B( 50-C , 89-H ) :   0.9288
B( 51-C , 52-C ) :   1.1074 B( 51-C , 60-C ) :   0.9753 B( 52-C , 53-C ) :   1.5624
B( 52-C , 58-C ) :   1.0008 B( 53-C , 54-C ) :   1.1294 B( 53-C , 56-C ) :   1.1920
B( 54-C , 55-N ) :   2.9791 B( 56-C , 57-N ) :   2.9499 B( 58-C , 59-C ) :   1.2823
B( 58-C , 65-C ) :   1.4204 B( 59-C , 60-C ) :   0.9151 B( 59-C , 62-C ) :   1.4354
B( 60-C , 61-O ) :   2.2419 B( 62-C , 63-C ) :   1.2404 B( 62-C , 90-H ) :   1.0163
B( 63-C , 64-C ) :   1.3199 B( 63-C , 68-C ) :   1.1617 B( 64-C , 65-C ) :   1.3209
B( 64-C , 66-S ) :   1.0812 B( 65-C , 91-H ) :   0.9813 B( 66-S , 67-C ) :   1.0869
B( 67-C , 68-C ) :   1.6206 B( 67-C , 69-Br) :   1.0149 B( 68-C , 92-H ) :   0.9993

-----------------------------------------------------------------------------
         ABSORPTION SPECTRUM VIA TRANSITION ELECTRIC DIPOLE MOMENTS
-----------------------------------------------------------------------------
State   Energy  Wavelength   fosc         T2         TX        TY        TZ
        (cm-1)    (nm)                  (au**2)     (au)      (au)      (au)
-----------------------------------------------------------------------------
   0   19146.6    522.3   0.370498809   6.37047  -1.01235   2.22053  -0.64411
   1   22411.1    446.2   0.344930129   5.06691   2.07887  -0.56350   0.65397
   2   24498.1    408.2   0.167251834   2.24758   1.27166  -0.46086  -0.64659
   3   25076.7    398.8   0.102878577   1.35061   1.04837  -0.10728  -0.48992
   4   26346.9    379.6   0.005497719   0.06870   0.02127  -0.16478  -0.20271
   5   26375.6    379.1   0.135071399   1.68592  -0.03150  -0.37163  -1.24371
   6   28032.2    356.7   0.265261534   3.11525  -0.87479   0.04336   1.53236
   7   28485.7    351.1   0.471743700   5.45198  -1.51651   1.60876  -0.75104
   8   28906.5    345.9   0.290371815   3.30701  -1.36034   1.20662   0.02342
   9   29137.3    343.2   0.020920008   0.23637  -0.38396   0.21610  -0.20553
  10   29940.5    334.0   0.010766932   0.11839  -0.14091   0.28095   0.14000
  11   30375.3    329.2   0.368567181   3.99458   1.50619  -1.22013  -0.48709
  12   30651.0    326.3   0.053227684   0.57170   0.64432  -0.38358  -0.09707
  13   31016.0    322.4   0.204040880   2.16574  -0.08091   0.35535   1.42580
  14   31431.7    318.2   0.003364608   0.03524  -0.11654   0.12780   0.07298
  15   31930.7    313.2   0.271541840   2.79965   0.67383  -1.15487   1.00592
  16   31995.1    312.5   0.556909832   5.73029  -0.14630   0.91530   2.20706
  17   32470.9    308.0   0.118644873   1.20290  -0.46612   0.89400   0.43173
  18   32702.0    305.8   0.027389080   0.27573  -0.39075  -0.06810   0.34410
  19   32735.8    305.5   0.127329546   1.28051  -0.91505   0.13990   0.65086
  20   32980.8    303.2   0.000329764   0.00329   0.05079  -0.01038  -0.02457
  21   33071.0    302.4   0.001335417   0.01329   0.07245  -0.07625  -0.04723
  22   33861.5    295.3   0.562681596   5.47057  -1.05672  -0.57174   2.00675
  23   34252.8    291.9   0.100493390   0.96587  -0.38262  -0.36097   0.83016
  24   35212.0    284.0   0.371682534   3.47502   0.81640  -1.48480  -0.77709
  25   35354.0    282.9   0.071949495   0.66998   0.71335  -0.39267  -0.08326
  26   35798.4    279.3   0.208797886   1.92017   0.45190  -0.50054   1.21054
  27   36792.5    271.8   0.114721649   1.02651  -0.86116   0.51749   0.13082
  28   37110.1    269.5   0.061295483   0.54377  -0.67711   0.28897  -0.04222
  29   37364.4    267.6   0.037109454   0.32697  -0.49205   0.28300  -0.06903
  30   37390.6    267.4   0.007805414   0.06872  -0.22450   0.13506  -0.00895
  31   37952.8    263.5   0.001534920   0.01331   0.04582   0.04237   0.09706
  32   38217.7    261.7   0.010347636   0.08914   0.09825  -0.27955  -0.03654
  33   38574.1    259.2   0.219429247   1.87272   1.10117  -0.01930  -0.81226
  34   38913.6    257.0   0.083825695   0.70917   0.66637  -0.00467  -0.51488
  35   39525.5    253.0   0.000002474   0.00002  -0.00082  -0.00414   0.00168
  36   39622.7    252.4   0.000415763   0.00345   0.04968   0.00142  -0.03138
  37   39888.9    250.7   0.027685794   0.22850   0.37091   0.16961  -0.24931
  38   40101.7    249.4   0.046580470   0.38240  -0.27382   0.32732  -0.44753

FINAL SINGLE POINT ENERGY     -9131.420914016569

DIPOLE MOMENT
-------------
                                X             Y             Z
Electronic contribution:     37.60827       1.32649      39.61169
Nuclear contribution   :    -38.39598      -0.07766     -39.41926
                        -----------------------------------------
Total Dipole Moment    :     -0.78771       1.24883       0.19243
                        -----------------------------------------
Magnitude (a.u.)       :      1.48899
Magnitude (Debye)      :      3.78471

Rotational constants in cm-1:     0.001066     0.000228     0.000199
Rotational constants in MHz :    31.946127     6.827057     5.955041

                             ****ORCA TERMINATED NORMALLY****
TOTAL RUN TIME: 0 days 0 hours 8 minutes 44 seconds 698 msec
