                         Program Version 4.2.0 -  RELEASE  -
|  1> # ORCA input file
|  2> # SCF done       -174.764979853164          0.000981373858
|  3> ! CAM-B3LYP def2-SVP def2/J RIJCOSX Grid4 TightSCF
|  4> %maxcore 5000
|  5> %tddft
|  6>     Mode sTDDFT
|  7>     Ethresh 5.0
|  8>     maxcore 5000
|  9> end
| 10>
| 11> %pal
| 12>   nprocs 6
| 13>   end
| 14> * xyz 0 1
| 15>    C      -10.76735        -4.32142         0.46504
| 16>    C      -10.72158        -3.75695         1.71650
| 17>    C      -11.84877        -3.57267         2.54423
| 18>    N      -12.71653        -3.38930         3.27459
| 19>    C       -9.58222        -3.25130         2.37111
| 20>    N       -8.72446        -2.79459         2.98618
| 21>    C      -11.99024        -4.79298        -0.18013
| 22>    C      -11.65828        -5.31006        -1.45477
| 23>    C      -12.59232        -5.83825        -2.31166
| 24>    C      -13.91829        -5.90344        -1.87271
| 25>    C      -14.24321        -5.37540        -0.60091
| 26>    C      -13.30372        -4.80433         0.24887
| 27>    S      -15.93266        -5.56546        -0.24763
| 28>    C      -16.16576        -6.37641        -1.77720
| 29>    C      -15.04271        -6.47893        -2.52575
| 30>   Br      -17.86981        -7.01362        -2.22385
| 31>    C      -10.20146        -5.21598        -1.64955
| 32>    O       -9.58848        -5.61123        -2.62631
| 33>    C       -9.66584        -4.57774        -0.44198
| 34>    C       -8.34363        -4.28157        -0.19805
| 35>    C       -7.20626        -4.45159        -0.99913
| 36>    S       -7.22435        -4.87560        -2.69615
| 37>    C       -5.56357        -4.49376        -2.83463
| 38>    C       -4.97651        -4.09256        -1.66928
| 39>    C       -3.53482        -3.73447        -1.53091
| 40>    C       -5.89628        -4.09976        -0.59094
| 41>    C       -5.50757        -3.78691         0.75001
| 42>    C       -6.05476        -4.33355         1.86134
| 43>    C       -5.81555        -3.87075         3.18087
| 44>    C       -6.61632        -4.27823         4.19538
| 45>    C       -6.67629        -3.68321         5.47877
| 46>    O       -7.76711        -3.97757         6.22876
| 47>    C       -5.92325        -2.75116         6.16890
| 48>    C       -4.71483        -1.92730         6.11303
| 49>    O       -3.85953        -1.83121         5.26890
| 50>    N       -4.74920        -1.21444         7.30715
| 51>    C       -5.85207        -1.47148         8.12646
| 52>    O       -6.05484        -0.94657         9.19086
| 53>    C       -6.61089        -2.47239         7.37760
| 54>    C       -7.77474        -3.22808         7.36684
| 55>    C       -8.93950        -3.25538         8.16954
| 56>    C      -10.02715        -3.93382         7.69518
| 57>    C      -11.33986        -3.97094         8.17628
| 58>    C      -12.32673        -4.57408         7.42559
| 59>    C      -13.72100        -4.63588         7.65978
| 60>    C      -14.43033        -5.24680         6.66716
| 61>    C      -13.63083        -5.71148         5.59927
| 62>    S      -11.95243        -5.35738         5.89904
| 63>    C      -13.99965        -6.35439         4.43287
| 64>    C      -15.28225        -6.71592         3.96896
| 65>    C      -15.27458        -7.33819         2.75745
| 66>    C      -13.98244        -7.49555         2.19221
| 67>    S      -12.77529        -6.83583         3.27479
| 68>    C      -13.68410        -8.03045         0.96675
| 69>    C      -12.41325        -8.11627         0.37311
| 70>    S      -10.89272        -7.67492         1.13728
| 71>    C       -9.94759        -8.00035        -0.26419
| 72>    C      -10.74475        -8.44237        -1.29342
| 73>    C      -12.12172        -8.50283        -0.92356
| 74>    O      -12.88747        -8.87770        -1.96837
| 75>    C      -12.01498        -9.05240        -3.00227
| 76>    N      -12.57376        -9.35984        -4.26468
| 77>    O      -11.80011        -9.66596        -5.14966
| 78>    O      -13.77976        -9.27274        -4.37814
| 79>    C      -10.70931        -8.81706        -2.66521
| 80>    H      -12.30551        -6.19905        -3.28731
| 81>    H      -13.60978        -4.41076         1.20309
| 82>    H      -15.00186        -6.96916        -3.48207
| 83>    H       -8.13466        -3.80779         0.75363
| 84>    H       -5.07997        -4.59733        -3.78747
| 85>    H       -3.02755        -3.83358        -2.48655
| 86>    H       -3.04846        -4.38415        -0.80492
| 87>    H       -3.43019        -2.70621        -1.18641
| 88>    H       -4.70418        -3.07096         0.86365
| 89>    H       -6.77123        -5.13907         1.75893
| 90>    H       -5.07528        -3.10135         3.34724
| 91>    H       -7.37286        -5.03106         4.01757
| 92>    H       -4.03510        -0.54682         7.56076
| 93>    H       -8.94763        -2.67087         9.07519
| 94>    H       -9.87132        -4.46865         6.76539
| 95>    H      -11.60431        -3.48226         9.10280
| 96>    H      -14.15940        -4.21374         8.54697
| 97>    H      -15.49864        -5.36968         6.67283
| 98>    H      -16.17109        -6.50280         4.53493
| 99>    H      -16.15399        -7.68211         2.24275
|100>    H      -14.50013        -8.40488         0.36276
|101>    H       -8.88786        -7.85509        -0.24380
|102>    H       -9.86440        -8.87397        -3.31917
|103> *
|104>
|105>                          ****END OF INPUT****

CARTESIAN COORDINATES (ANGSTROEM)
---------------------------------
  C    -10.767350   -4.321420    0.465040
  C    -10.721580   -3.756950    1.716500
  C    -11.848770   -3.572670    2.544230
  N    -12.716530   -3.389300    3.274590
  C     -9.582220   -3.251300    2.371110
  N     -8.724460   -2.794590    2.986180
  C    -11.990240   -4.792980   -0.180130
  C    -11.658280   -5.310060   -1.454770
  C    -12.592320   -5.838250   -2.311660
  C    -13.918290   -5.903440   -1.872710
  C    -14.243210   -5.375400   -0.600910
  C    -13.303720   -4.804330    0.248870
  S    -15.932660   -5.565460   -0.247630
  C    -16.165760   -6.376410   -1.777200
  C    -15.042710   -6.478930   -2.525750
  Br   -17.869810   -7.013620   -2.223850
  C    -10.201460   -5.215980   -1.649550
  O     -9.588480   -5.611230   -2.626310
  C     -9.665840   -4.577740   -0.441980
  C     -8.343630   -4.281570   -0.198050
  C     -7.206260   -4.451590   -0.999130
  S     -7.224350   -4.875600   -2.696150
  C     -5.563570   -4.493760   -2.834630
  C     -4.976510   -4.092560   -1.669280
  C     -3.534820   -3.734470   -1.530910
  C     -5.896280   -4.099760   -0.590940
  C     -5.507570   -3.786910    0.750010
  C     -6.054760   -4.333550    1.861340
  C     -5.815550   -3.870750    3.180870
  C     -6.616320   -4.278230    4.195380
  C     -6.676290   -3.683210    5.478770
  O     -7.767110   -3.977570    6.228760
  C     -5.923250   -2.751160    6.168900
  C     -4.714830   -1.927300    6.113030
  O     -3.859530   -1.831210    5.268900
  N     -4.749200   -1.214440    7.307150
  C     -5.852070   -1.471480    8.126460
  O     -6.054840   -0.946570    9.190860
  C     -6.610890   -2.472390    7.377600
  C     -7.774740   -3.228080    7.366840
  C     -8.939500   -3.255380    8.169540
  C    -10.027150   -3.933820    7.695180
  C    -11.339860   -3.970940    8.176280
  C    -12.326730   -4.574080    7.425590
  C    -13.721000   -4.635880    7.659780
  C    -14.430330   -5.246800    6.667160
  C    -13.630830   -5.711480    5.599270
  S    -11.952430   -5.357380    5.899040
  C    -13.999650   -6.354390    4.432870
  C    -15.282250   -6.715920    3.968960
  C    -15.274580   -7.338190    2.757450
  C    -13.982440   -7.495550    2.192210
  S    -12.775290   -6.835830    3.274790
  C    -13.684100   -8.030450    0.966750
  C    -12.413250   -8.116270    0.373110
  S    -10.892720   -7.674920    1.137280
  C     -9.947590   -8.000350   -0.264190
  C    -10.744750   -8.442370   -1.293420
  C    -12.121720   -8.502830   -0.923560
  O    -12.887470   -8.877700   -1.968370
  C    -12.014980   -9.052400   -3.002270
  N    -12.573760   -9.359840   -4.264680
  O    -11.800110   -9.665960   -5.149660
  O    -13.779760   -9.272740   -4.378140
  C    -10.709310   -8.817060   -2.665210
  H    -12.305510   -6.199050   -3.287310
  H    -13.609780   -4.410760    1.203090
  H    -15.001860   -6.969160   -3.482070
  H     -8.134660   -3.807790    0.753630
  H     -5.079970   -4.597330   -3.787470
  H     -3.027550   -3.833580   -2.486550
  H     -3.048460   -4.384150   -0.804920
  H     -3.430190   -2.706210   -1.186410
  H     -4.704180   -3.070960    0.863650
  H     -6.771230   -5.139070    1.758930
  H     -5.075280   -3.101350    3.347240
  H     -7.372860   -5.031060    4.017570
  H     -4.035100   -0.546820    7.560760
  H     -8.947630   -2.670870    9.075190
  H     -9.871320   -4.468650    6.765390
  H    -11.604310   -3.482260    9.102800
  H    -14.159400   -4.213740    8.546970
  H    -15.498640   -5.369680    6.672830
  H    -16.171090   -6.502800    4.534930
  H    -16.153990   -7.682110    2.242750
  H    -14.500130   -8.404880    0.362760
  H     -8.887860   -7.855090   -0.243800
  H     -9.864400   -8.873970   -3.319170

 Total Charge           Charge          ....    0
 Multiplicity           Mult            ....    1
 Number of Electrons    NEL             ....  510
 Basis Dimension        Dim             .... 1063

ORBITAL ENERGIES
----------------

  NO   OCC          E(Eh)            E(eV)
   0   2.0000    -482.881458    -13139.8725
   1   2.0000     -88.981387     -2421.3066
   2   2.0000     -88.972133     -2421.0548
   3   2.0000     -88.959002     -2420.6975
   4   2.0000     -88.953845     -2420.5572
   5   2.0000     -88.946543     -2420.3585
   6   2.0000     -62.559141     -1702.3208
   7   2.0000     -56.393080     -1534.5337
   8   2.0000     -56.390375     -1534.4601
   9   2.0000     -56.390357     -1534.4596
  10   2.0000     -19.312944      -525.5319
  11   2.0000     -19.296472      -525.0837
  12   2.0000     -19.250548      -523.8340
  13   2.0000     -19.249466      -523.8046
  14   2.0000     -19.216309      -522.9023
  15   2.0000     -19.202438      -522.5249
  16   2.0000     -19.198413      -522.4154
  17   2.0000     -14.662026      -398.9740
  18   2.0000     -14.443906      -393.0387
  19   2.0000     -14.416899      -392.3038
  20   2.0000     -14.410356      -392.1257
  21   2.0000     -10.390357      -282.7360
  22   2.0000     -10.390311      -282.7347
  23   2.0000     -10.388183      -282.6768
  24   2.0000     -10.365647      -282.0636
  25   2.0000     -10.353588      -281.7354
  26   2.0000     -10.351065      -281.6668
  27   2.0000     -10.350107      -281.6407
  28   2.0000     -10.349385      -281.6211
  29   2.0000     -10.338825      -281.3337
  30   2.0000     -10.337051      -281.2855
  31   2.0000     -10.321307      -280.8570
  32   2.0000     -10.321245      -280.8554
  33   2.0000     -10.320364      -280.8314
  34   2.0000     -10.319466      -280.8070
  35   2.0000     -10.316307      -280.7210
  36   2.0000     -10.315624      -280.7024
  37   2.0000     -10.314974      -280.6847
  38   2.0000     -10.314904      -280.6828
  39   2.0000     -10.314530      -280.6726
  40   2.0000     -10.314364      -280.6681
  41   2.0000     -10.313956      -280.6570
  42   2.0000     -10.313567      -280.6464
  43   2.0000     -10.303711      -280.3782
  44   2.0000     -10.302597      -280.3479
  45   2.0000     -10.300757      -280.2979
  46   2.0000     -10.300403      -280.2882
  47   2.0000     -10.299857      -280.2734
  48   2.0000     -10.298724      -280.2425
  49   2.0000     -10.297187      -280.2007
  50   2.0000     -10.295389      -280.1518
  51   2.0000     -10.294580      -280.1298
  52   2.0000     -10.293365      -280.0967
  53   2.0000     -10.292655      -280.0774
  54   2.0000     -10.290536      -280.0197
  55   2.0000     -10.290280      -280.0128
  56   2.0000     -10.290233      -280.0115
  57   2.0000     -10.289838      -280.0007
  58   2.0000     -10.288059      -279.9523
  59   2.0000     -10.288041      -279.9518
  60   2.0000     -10.286961      -279.9224
  61   2.0000     -10.285556      -279.8842
  62   2.0000     -10.283194      -279.8199
  63   2.0000     -10.282686      -279.8061
  64   2.0000     -10.282267      -279.7947
  65   2.0000     -10.281367      -279.7702
  66   2.0000     -10.280215      -279.7389
  67   2.0000     -10.279247      -279.7125
  68   2.0000     -10.274553      -279.5848
  69   2.0000      -8.788571      -239.1492
  70   2.0000      -8.074846      -219.7277
  71   2.0000      -8.067671      -219.5325
  72   2.0000      -8.053174      -219.1380
  73   2.0000      -8.049564      -219.0398
  74   2.0000      -8.042787      -218.8554
  75   2.0000      -6.624807      -180.2702
  76   2.0000      -6.610359      -179.8770
  77   2.0000      -6.610120      -179.8705
  78   2.0000      -6.044258      -164.4726
  79   2.0000      -6.039812      -164.3516
  80   2.0000      -6.037397      -164.2859
  81   2.0000      -6.037331      -164.2841
  82   2.0000      -6.033110      -164.1693
  83   2.0000      -6.028927      -164.0554
  84   2.0000      -6.022580      -163.8827
  85   2.0000      -6.019321      -163.7940
  86   2.0000      -6.017905      -163.7555
  87   2.0000      -6.015479      -163.6895
  88   2.0000      -6.015222      -163.6825
  89   2.0000      -6.012488      -163.6081
  90   2.0000      -6.010534      -163.5549
  91   2.0000      -6.008476      -163.4989
  92   2.0000      -6.003698      -163.3689
  93   2.0000      -2.740720       -74.5788
  94   2.0000      -2.736635       -74.4676
  95   2.0000      -2.736460       -74.4629
  96   2.0000      -2.724959       -74.1499
  97   2.0000      -2.724956       -74.1498
  98   2.0000      -1.333592       -36.2889
  99   2.0000      -1.232517       -33.5385
 100   2.0000      -1.216031       -33.0899
 101   2.0000      -1.150026       -31.2938
 102   2.0000      -1.144469       -31.1426
 103   2.0000      -1.131743       -30.7963
 104   2.0000      -1.123770       -30.5793
 105   2.0000      -1.031515       -28.0690
 106   2.0000      -1.020386       -27.7661
 107   2.0000      -1.011471       -27.5235
 108   2.0000      -1.004691       -27.3390
 109   2.0000      -0.997511       -27.1436
 110   2.0000      -0.995002       -27.0754
 111   2.0000      -0.992719       -27.0133
 112   2.0000      -0.985218       -26.8091
 113   2.0000      -0.978324       -26.6215
 114   2.0000      -0.939865       -25.5750
 115   2.0000      -0.939007       -25.5517
 116   2.0000      -0.931930       -25.3591
 117   2.0000      -0.918172       -24.9847
 118   2.0000      -0.909565       -24.7505
 119   2.0000      -0.906482       -24.6666
 120   2.0000      -0.903988       -24.5988
 121   2.0000      -0.902280       -24.5523
 122   2.0000      -0.893050       -24.3011
 123   2.0000      -0.882033       -24.0013
 124   2.0000      -0.881722       -23.9929
 125   2.0000      -0.873135       -23.7592
 126   2.0000      -0.866837       -23.5878
 127   2.0000      -0.856081       -23.2951
 128   2.0000      -0.844351       -22.9760
 129   2.0000      -0.836767       -22.7696
 130   2.0000      -0.827316       -22.5124
 131   2.0000      -0.825114       -22.4525
 132   2.0000      -0.817913       -22.2565
 133   2.0000      -0.800962       -21.7953
 134   2.0000      -0.789374       -21.4800
 135   2.0000      -0.781837       -21.2749
 136   2.0000      -0.774075       -21.0637
 137   2.0000      -0.759345       -20.6628
 138   2.0000      -0.757454       -20.6114
 139   2.0000      -0.756294       -20.5798
 140   2.0000      -0.750183       -20.4135
 141   2.0000      -0.742104       -20.1937
 142   2.0000      -0.717399       -19.5214
 143   2.0000      -0.710694       -19.3390
 144   2.0000      -0.707788       -19.2599
 145   2.0000      -0.696174       -18.9439
 146   2.0000      -0.691203       -18.8086
 147   2.0000      -0.688233       -18.7278
 148   2.0000      -0.683352       -18.5949
 149   2.0000      -0.677972       -18.4486
 150   2.0000      -0.665231       -18.1018
 151   2.0000      -0.658465       -17.9178
 152   2.0000      -0.651258       -17.7216
 153   2.0000      -0.649745       -17.6805
 154   2.0000      -0.645303       -17.5596
 155   2.0000      -0.639783       -17.4094
 156   2.0000      -0.637207       -17.3393
 157   2.0000      -0.633488       -17.2381
 158   2.0000      -0.630018       -17.1437
 159   2.0000      -0.622246       -16.9322
 160   2.0000      -0.618703       -16.8358
 161   2.0000      -0.616139       -16.7660
 162   2.0000      -0.604362       -16.4455
 163   2.0000      -0.603320       -16.4172
 164   2.0000      -0.595094       -16.1933
 165   2.0000      -0.591757       -16.1025
 166   2.0000      -0.590616       -16.0715
 167   2.0000      -0.586673       -15.9642
 168   2.0000      -0.584037       -15.8925
 169   2.0000      -0.583065       -15.8660
 170   2.0000      -0.577066       -15.7028
 171   2.0000      -0.575321       -15.6553
 172   2.0000      -0.573270       -15.5995
 173   2.0000      -0.561396       -15.2764
 174   2.0000      -0.557189       -15.1619
 175   2.0000      -0.555832       -15.1250
 176   2.0000      -0.549843       -14.9620
 177   2.0000      -0.542849       -14.7717
 178   2.0000      -0.541223       -14.7274
 179   2.0000      -0.539000       -14.6669
 180   2.0000      -0.535230       -14.5644
 181   2.0000      -0.533278       -14.5112
 182   2.0000      -0.530077       -14.4241
 183   2.0000      -0.526214       -14.3190
 184   2.0000      -0.523909       -14.2563
 185   2.0000      -0.521361       -14.1870
 186   2.0000      -0.515342       -14.0232
 187   2.0000      -0.513554       -13.9745
 188   2.0000      -0.510884       -13.9019
 189   2.0000      -0.508190       -13.8286
 190   2.0000      -0.507388       -13.8067
 191   2.0000      -0.505275       -13.7492
 192   2.0000      -0.503843       -13.7103
 193   2.0000      -0.501227       -13.6391
 194   2.0000      -0.496762       -13.5176
 195   2.0000      -0.495715       -13.4891
 196   2.0000      -0.494225       -13.4485
 197   2.0000      -0.491699       -13.3798
 198   2.0000      -0.489237       -13.3128
 199   2.0000      -0.486894       -13.2491
 200   2.0000      -0.482068       -13.1177
 201   2.0000      -0.479708       -13.0535
 202   2.0000      -0.475261       -12.9325
 203   2.0000      -0.472939       -12.8693
 204   2.0000      -0.470833       -12.8120
 205   2.0000      -0.469317       -12.7708
 206   2.0000      -0.464971       -12.6525
 207   2.0000      -0.461424       -12.5560
 208   2.0000      -0.459797       -12.5117
 209   2.0000      -0.458615       -12.4796
 210   2.0000      -0.457056       -12.4371
 211   2.0000      -0.454253       -12.3608
 212   2.0000      -0.452486       -12.3128
 213   2.0000      -0.448999       -12.2179
 214   2.0000      -0.447634       -12.1807
 215   2.0000      -0.444696       -12.1008
 216   2.0000      -0.444146       -12.0858
 217   2.0000      -0.440413       -11.9842
 218   2.0000      -0.436193       -11.8694
 219   2.0000      -0.434332       -11.8188
 220   2.0000      -0.429852       -11.6969
 221   2.0000      -0.427381       -11.6296
 222   2.0000      -0.422180       -11.4881
 223   2.0000      -0.418238       -11.3808
 224   2.0000      -0.415144       -11.2967
 225   2.0000      -0.410250       -11.1635
 226   2.0000      -0.406742       -11.0680
 227   2.0000      -0.403245       -10.9729
 228   2.0000      -0.401222       -10.9178
 229   2.0000      -0.396901       -10.8002
 230   2.0000      -0.392964       -10.6931
 231   2.0000      -0.389602       -10.6016
 232   2.0000      -0.386550       -10.5186
 233   2.0000      -0.380938       -10.3659
 234   2.0000      -0.378541       -10.3006
 235   2.0000      -0.374797       -10.1987
 236   2.0000      -0.370523       -10.0825
 237   2.0000      -0.367879       -10.0105
 238   2.0000      -0.358879        -9.7656
 239   2.0000      -0.358121        -9.7450
 240   2.0000      -0.352653        -9.5962
 241   2.0000      -0.350481        -9.5371
 242   2.0000      -0.342361        -9.3161
 243   2.0000      -0.335607        -9.1323
 244   2.0000      -0.333695        -9.0803
 245   2.0000      -0.330964        -9.0060
 246   2.0000      -0.330392        -8.9904
 247   2.0000      -0.317533        -8.6405
 248   2.0000      -0.314261        -8.5515
 249   2.0000      -0.306426        -8.3383
 250   2.0000      -0.291693        -7.9374
 251   2.0000      -0.285894        -7.7796
 252   2.0000      -0.281939        -7.6719
 253   2.0000      -0.251452        -6.8424
 254   2.0000      -0.212929        -5.7941
 255   0.0000      -0.094978        -2.5845
 256   0.0000      -0.089513        -2.4358
 257   0.0000      -0.070116        -1.9079
 258   0.0000      -0.058880        -1.6022
 259   0.0000      -0.041079        -1.1178

MULLIKEN ATOMIC CHARGES
-----------------------
   0 C :    0.349993
   1 C :   -0.383316
   2 C :   -0.183452
   3 N :    0.152683
   4 C :   -0.195637
   5 N :    0.150130
   6 C :    0.019941
   7 C :   -0.021734
   8 C :   -0.070288
   9 C :    0.110388
  10 C :   -0.091752
  11 C :   -0.020882
  12 S :    0.167714
  13 C :   -0.137829
  14 C :    0.055502
  15 Br:    0.021380
  16 C :    0.172098
  17 O :   -0.189721
  18 C :   -0.116286
  19 C :   -0.051248
  20 C :   -0.123925
  21 S :    0.183312
  22 C :   -0.095084
  23 C :   -0.082876
  24 C :    0.120861
  25 C :    0.123117
  26 C :   -0.047078
  27 C :    0.021013
  28 C :    0.013133
  29 C :    0.035375
  30 C :    0.124701
  31 O :   -0.215424
  32 C :   -0.065697
  33 C :    0.172297
  34 O :   -0.158060
  35 N :   -0.167138
  36 C :    0.154725
  37 O :   -0.145444
  38 C :   -0.033348
  39 C :    0.093021
  40 C :   -0.029956
  41 C :    0.016807
  42 C :    0.011386
  43 C :   -0.017729
  44 C :    0.035826
  45 C :    0.036798
  46 C :   -0.020617
  47 S :    0.067807
  48 C :   -0.019018
  49 C :    0.028877
  50 C :    0.045533
  51 C :   -0.066197
  52 S :    0.050531
  53 C :    0.044861
  54 C :   -0.225272
  55 S :    0.129823
  56 C :   -0.122554
  57 C :    0.129622
  58 C :    0.214173
  59 O :   -0.194449
  60 C :    0.215632
  61 N :    0.270055
  62 O :   -0.239687
  63 O :   -0.234156
  64 C :   -0.051167
  65 H :   -0.012507
  66 H :   -0.012726
  67 H :   -0.000745
  68 H :    0.015718
  69 H :    0.021945
  70 H :    0.010893
  71 H :    0.034236
  72 H :    0.033669
  73 H :    0.007207
  74 H :    0.000957
  75 H :    0.017597
  76 H :   -0.009724
  77 H :    0.134707
  78 H :    0.005640
  79 H :    0.027917
  80 H :   -0.011921
  81 H :   -0.008183
  82 H :   -0.009016
  83 H :   -0.012083
  84 H :   -0.010096
  85 H :    0.003850
  86 H :    0.034123
  87 H :    0.016451
Sum of atomic charges:   -0.0000000

LOEWDIN ATOMIC CHARGES
----------------------
   0 C :    0.075381
   1 C :   -0.151756
   2 C :   -0.020618
   3 N :   -0.065974
   4 C :   -0.019547
   5 N :   -0.053423
   6 C :   -0.025133
   7 C :   -0.051771
   8 C :    0.017355
   9 C :   -0.035247
  10 C :   -0.142908
  11 C :   -0.009835
  12 S :    0.428922
  13 C :   -0.277515
  14 C :   -0.061962
  15 Br:    0.134734
  16 C :    0.079743
  17 O :   -0.175625
  18 C :   -0.118876
  19 C :    0.048259
  20 C :   -0.188613
  21 S :    0.498390
  22 C :   -0.168623
  23 C :   -0.067196
  24 C :   -0.044428
  25 C :   -0.018716
  26 C :   -0.025547
  27 C :    0.000951
  28 C :    0.005786
  29 C :   -0.018998
  30 C :    0.070334
  31 O :    0.019236
  32 C :   -0.095019
  33 C :    0.085415
  34 O :   -0.169694
  35 N :   -0.007746
  36 C :    0.083645
  37 O :   -0.164662
  38 C :   -0.103164
  39 C :    0.076560
  40 C :   -0.046381
  41 C :   -0.007861
  42 C :   -0.056965
  43 C :   -0.124598
  44 C :   -0.031764
  45 C :   -0.020283
  46 C :   -0.166556
  47 S :    0.395168
  48 C :   -0.169983
  49 C :   -0.031933
  50 C :   -0.034832
  51 C :   -0.156326
  52 S :    0.376243
  53 C :   -0.068542
  54 C :   -0.201414
  55 S :    0.478716
  56 C :   -0.187126
  57 C :   -0.081222
  58 C :    0.018712
  59 O :    0.002697
  60 C :    0.017552
  61 N :    0.272802
  62 O :   -0.201180
  63 O :   -0.200790
  64 C :    0.004756
  65 H :    0.036880
  66 H :    0.038002
  67 H :    0.039249
  68 H :    0.047966
  69 H :    0.024865
  70 H :    0.033928
  71 H :    0.038339
  72 H :    0.037448
  73 H :    0.036052
  74 H :    0.028319
  75 H :    0.036141
  76 H :    0.034536
  77 H :    0.092560
  78 H :    0.042406
  79 H :    0.019748
  80 H :    0.033617
  81 H :    0.035425
  82 H :    0.033792
  83 H :    0.033969
  84 H :    0.031790
  85 H :    0.044509
  86 H :    0.029434
  87 H :    0.050023

  Mayer bond orders larger than 0.100000
B(  0-C ,  1-C ) :   1.5963 B(  0-C ,  6-C ) :   0.9843 B(  0-C , 18-C ) :   1.0925
B(  1-C ,  2-C ) :   1.1634 B(  1-C ,  4-C ) :   1.1565 B(  2-C ,  3-N ) :   2.9314
B(  4-C ,  5-N ) :   2.9268 B(  6-C ,  7-C ) :   1.2795 B(  6-C , 11-C ) :   1.4112
B(  7-C ,  8-C ) :   1.4199 B(  7-C , 16-C ) :   0.9537 B(  8-C ,  9-C ) :   1.2328
B(  8-C , 65-H ) :   1.0147 B(  9-C , 10-C ) :   1.3149 B(  9-C , 14-C ) :   1.1610
B( 10-C , 11-C ) :   1.3152 B( 10-C , 12-S ) :   1.0839 B( 11-C , 66-H ) :   0.9787
B( 12-S , 13-C ) :   1.0738 B( 13-C , 14-C ) :   1.6205 B( 13-C , 15-Br) :   1.0183
B( 14-C , 67-H ) :   0.9937 B( 16-C , 17-O ) :   2.1175 B( 16-C , 18-C ) :   0.9755
B( 18-C , 19-C ) :   1.5020 B( 19-C , 20-C ) :   1.2823 B( 19-C , 68-H ) :   0.9292
B( 20-C , 21-S ) :   1.1084 B( 20-C , 25-C ) :   1.3136 B( 21-S , 22-C ) :   1.1656
B( 22-C , 23-C ) :   1.5286 B( 22-C , 69-H ) :   0.9635 B( 23-C , 24-C ) :   1.0949
B( 23-C , 25-C ) :   1.2845 B( 24-C , 70-H ) :   0.9506 B( 24-C , 71-H ) :   0.9444
B( 24-C , 72-H ) :   0.9415 B( 25-C , 26-C ) :   1.1130 B( 26-C , 27-C ) :   1.6397
B( 26-C , 73-H ) :   0.9569 B( 27-C , 28-C ) :   1.1438 B( 27-C , 74-H ) :   0.9851
B( 28-C , 29-C ) :   1.6205 B( 28-C , 75-H ) :   0.9784 B( 29-C , 30-C ) :   1.1622
B( 29-C , 76-H ) :   0.9458 B( 30-C , 31-O ) :   1.1359 B( 30-C , 32-C ) :   1.4197
B( 31-O , 39-C ) :   1.1295 B( 32-C , 33-C ) :   0.8854 B( 32-C , 38-C ) :   1.2789
B( 33-C , 34-O ) :   2.2073 B( 33-C , 35-N ) :   1.0950 B( 35-N , 36-C ) :   1.0660
B( 35-N , 77-H ) :   0.9159 B( 36-C , 37-O ) :   2.2732 B( 36-C , 38-C ) :   0.8894
B( 38-C , 39-C ) :   1.3582 B( 39-C , 40-C ) :   1.2029 B( 40-C , 41-C ) :   1.5772
B( 40-C , 78-H ) :   0.9775 B( 41-C , 42-C ) :   1.1673 B( 41-C , 79-H ) :   0.9562
B( 42-C , 43-C ) :   1.5359 B( 42-C , 80-H ) :   0.9870 B( 43-C , 44-C ) :   1.1542
B( 43-C , 47-S ) :   1.0532 B( 44-C , 45-C ) :   1.5795 B( 44-C , 81-H ) :   0.9977
B( 45-C , 46-C ) :   1.1957 B( 45-C , 82-H ) :   0.9944 B( 46-C , 47-S ) :   1.0538
B( 46-C , 48-C ) :   1.5003 B( 48-C , 49-C ) :   1.1913 B( 48-C , 52-S ) :   1.0380
B( 49-C , 50-C ) :   1.5815 B( 49-C , 83-H ) :   0.9942 B( 50-C , 51-C ) :   1.1412
B( 50-C , 84-H ) :   0.9997 B( 51-C , 52-S ) :   1.0433 B( 51-C , 53-C ) :   1.5586
B( 53-C , 54-C ) :   1.1739 B( 53-C , 85-H ) :   0.9736 B( 54-C , 55-S ) :   1.1075
B( 54-C , 56-C ) :   0.1035 B( 54-C , 58-C ) :   1.4336 B( 55-S , 56-C ) :   1.1809
B( 56-C , 57-C ) :   1.4104 B( 56-C , 86-H ) :   0.9696 B( 57-C , 58-C ) :   1.2416
B( 57-C , 64-C ) :   1.0551 B( 58-C , 59-O ) :   1.1051 B( 59-O , 60-C ) :   1.1067
B( 60-C , 61-N ) :   0.9154 B( 60-C , 64-C ) :   1.5691 B( 61-N , 62-O ) :   1.5390
B( 61-N , 63-O ) :   1.5054 B( 62-O , 63-O ) :   0.2737 B( 64-C , 87-H ) :   1.0305

-----------------------------------------------------------------------------
         ABSORPTION SPECTRUM VIA TRANSITION ELECTRIC DIPOLE MOMENTS
-----------------------------------------------------------------------------
State   Energy  Wavelength   fosc         T2         TX        TY        TZ
        (cm-1)    (nm)                  (au**2)     (au)      (au)      (au)
-----------------------------------------------------------------------------
   0   10531.6    949.5   0.076742650   2.39894  -0.89792  -1.12214  -0.57747
   1   13085.9    764.2   0.511903739  12.87834   1.27828   1.78623   2.83791
   2   16196.9    617.4   0.100547505   2.04369  -0.77268  -0.46636   1.10868
   3   18594.9    537.8   0.514136792   9.10250  -1.68210  -0.88620  -2.34258
   4   19224.2    520.2   0.032482541   0.55626  -0.58896  -0.14034  -0.43554
   5   20347.3    491.5   0.318270635   5.14950   2.14309   0.67366  -0.32070
   6   23163.6    431.7   0.229211540   3.25766   0.23205  -0.90274  -1.54560
   7   24182.0    413.5   0.147176873   2.00365  -1.08334  -0.25773  -0.87385
   8   24355.9    410.6   0.023962586   0.32390   0.07579  -0.07124   0.55953
   9   25623.5    390.3   0.067175360   0.86307  -0.11506  -0.39313  -0.83384
  10   25861.6    386.7   1.172652420  14.92759  -2.77990   0.40246   2.65288
  11   25914.3    385.9   0.030676045   0.38970   0.36859   0.13794   0.48458
  12   27207.8    367.5   0.064782471   0.78386  -0.73373  -0.23151  -0.43806
  13   27386.9    365.1   0.454442338   5.46275  -2.27935  -0.44687   0.26006
  14   27677.2    361.3   0.002605986   0.03100  -0.08175  -0.10163  -0.11826
  15   28397.6    352.1   0.056376274   0.65357  -0.52972  -0.35192  -0.49911
  16   28685.0    348.6   0.039490261   0.45322  -0.08254  -0.19431  -0.63926
  17   29152.7    343.0   0.008455232   0.09548   0.12540   0.03431   0.28032
  18   29227.0    342.1   0.186142918   2.09670  -1.43323  -0.20553   0.01748
  19   30235.3    330.7   0.259753788   2.82828  -0.71345  -0.72099  -1.34144
  20   30441.5    328.5   0.026100335   0.28226  -0.37335  -0.22408   0.30441
  21   30651.9    326.2   0.256422734   2.75407  -1.10199   0.05875   1.23945
  22   30820.2    324.5   0.002984289   0.03188  -0.02167   0.12917  -0.12134
  23   30939.1    323.2   0.003001987   0.03194   0.07530   0.02429  -0.16026
  24   31099.5    321.5   0.010035359   0.10623   0.14027   0.10375  -0.27530
  25   31218.6    320.3   0.017365315   0.18312  -0.42059  -0.01382  -0.07771
  26   31493.2    317.5   0.068372717   0.71473  -0.12062  -0.14446  -0.82420
  27   32212.3    310.4   0.041933822   0.42857   0.44544   0.15683   0.45338
  28   32331.9    309.3   0.012560507   0.12789   0.32210   0.14974   0.04148
  29   32701.3    305.8   0.049887777   0.50223   0.61278   0.34577   0.08473
  30   32887.8    304.1   0.017558536   0.17576  -0.38594  -0.15235  -0.06006
  31   33200.6    301.2   0.401734307   3.98354   1.06562   0.55459   1.59387
  32   33532.3    298.2   0.059828082   0.58738  -0.20969  -0.47748  -0.56162
  33   33764.2    296.2   0.019708192   0.19216  -0.19927  -0.37551  -0.10699
  34   34532.0    289.6   0.124053108   1.18266   0.28487  -0.13518  -1.04079
  35   34566.5    289.3   0.029981667   0.28555   0.08134  -0.35145  -0.39422
  36   35114.2    284.8   0.118483853   1.11084  -0.45873  -0.40037  -0.86030
  37   35569.2    281.1   0.125692349   1.16335  -0.24928  -0.57027  -0.88091
  38   35652.1    280.5   0.123932596   1.14439   0.27978   0.28264   0.99309
  39   35881.4    278.7   0.091133289   0.83615  -0.35830  -0.36474  -0.75811
  40   36186.9    276.3   0.044909071   0.40856   0.16013  -0.16836  -0.59546
  41   36501.3    274.0   0.024434344   0.22038  -0.45895   0.09076  -0.03876
  42   36661.7    272.8   0.021011048   0.18867   0.35770  -0.01200  -0.24613
  43   36848.1    271.4   0.013020409   0.11633   0.32288   0.08710   0.06701
  44   37130.2    269.3   0.005550113   0.04921  -0.21293  -0.06159   0.00876
  45   37216.6    268.7   0.025684755   0.22720  -0.37410  -0.24977  -0.15768
  46   37266.6    268.3   0.007132352   0.06301   0.18604   0.07001  -0.15328
  47   37473.1    266.9   0.054601576   0.47969   0.66013  -0.15556  -0.14044
  48   37680.8    265.4   0.001709838   0.01494   0.02807   0.08359  -0.08464
  49   37960.4    263.4   0.061711690   0.53520   0.06532  -0.36527  -0.63048
  50   38323.7    260.9   0.030848021   0.26499   0.31543   0.31794   0.25379
  51   38399.7    260.4   0.015993484   0.13712   0.27237   0.16814   0.18618
  52   38515.2    259.6   0.008803370   0.07525  -0.23215   0.08405  -0.11954
  53   38973.2    256.6   0.065009564   0.54914  -0.30080  -0.08600  -0.67177
  54   39368.2    254.0   0.176900550   1.47931   0.00252   0.26495   1.18706
  55   39580.4    252.7   0.025037178   0.20825   0.24023  -0.13959  -0.36201
  56   39908.5    250.6   0.044870413   0.37014   0.55060   0.06535  -0.25043
  57   40178.7    248.9   0.083167620   0.68145   0.17392  -0.10824  -0.79968

FINAL SINGLE POINT ENERGY     -7149.408038693109

DIPOLE MOMENT
-------------
                                X             Y             Z
Electronic contribution:    -97.47594     -26.14331     -47.69194
Nuclear contribution   :     97.19180      25.52571      47.71018
                        -----------------------------------------
Total Dipole Moment    :     -0.28414      -0.61760       0.01824
                        -----------------------------------------
Magnitude (a.u.)       :      0.68007
Magnitude (Debye)      :      1.72861

Rotational constants in cm-1:     0.001446     0.000699     0.000513
Rotational constants in MHz :    43.350076    20.949751    15.390464

                             ****ORCA TERMINATED NORMALLY****
TOTAL RUN TIME: 0 days 0 hours 10 minutes 47 seconds 84 msec
