                         Program Version 4.2.0 -  RELEASE  -
|  1> # ORCA input file
|  2> # SCF done       -184.837709639731          0.000345967235
|  3> ! CAM-B3LYP def2-SVP def2/J RIJCOSX Grid4 TightSCF
|  4> %maxcore 5000
|  5> %tddft
|  6>     Mode sTDDFT
|  7>     Ethresh 5.0
|  8>     maxcore 5000
|  9> end
| 10>
| 11> %pal
| 12>   nprocs 6
| 13>   end
| 14> * xyz 0 1
| 15>    C       -9.84191         2.00655         5.94405
| 16>    C      -11.02391         1.34249         6.15548
| 17>    C      -11.37885         0.74116         7.37994
| 18>    N      -11.71720         0.22700         8.34939
| 19>    C      -12.06785         1.21937         5.21500
| 20>    N      -12.97648         1.10953         4.52095
| 21>    C       -8.82633         2.26978         6.95966
| 22>    C       -7.85486         3.13981         6.40669
| 23>    C       -6.76858         3.58698         7.11731
| 24>    C       -6.62827         3.14616         8.43789
| 25>    C       -7.59892         2.27176         8.97987
| 26>    C       -8.70287         1.82579         8.26165
| 27>    S       -7.22731         1.84388        10.62240
| 28>    C       -5.79304         2.83322        10.55954
| 29>    C       -5.60052         3.45315         9.37128
| 30>   Br       -4.68397         2.95447        12.06765
| 31>    C       -8.21651         3.44035         5.00899
| 32>    O       -7.61716         4.19586         4.26016
| 33>    C       -9.40882         2.64426         4.71897
| 34>    C       -9.93528         2.38291         3.47238
| 35>    C       -9.61767         2.92787         2.22872
| 36>    S       -8.66884         4.37418         2.03849
| 37>    C       -8.96630         4.45252         0.34994
| 38>    C       -9.74037         3.35758        -0.09489
| 39>    C      -10.09746         2.47633         0.96768
| 40>    C      -10.81356         1.29916         0.64725
| 41>    S      -11.15565         0.04689         1.84456
| 42>    C      -11.21256         1.09144        -0.65819
| 43>    C      -10.90276         1.99421        -1.67609
| 44>    C      -10.15610         3.11134        -1.41193
| 45>    C       -8.42679         5.48671        -0.45407
| 46>    C       -7.72469         6.53853         0.03276
| 47>    C       -7.16425         7.54698        -0.80589
| 48>    C       -6.51796         8.66227        -0.41748
| 49>    C       -6.28766         9.09265         0.99126
| 50>    C       -6.01181         9.61497        -1.47915
| 51>    N       -7.11622        10.27783        -2.13155
| 52>    C       -7.17965        11.58207        -2.43423
| 53>    C       -8.20320        12.14396        -3.13910
| 54>    C       -8.26472        13.50173        -3.48023
| 55>    C       -9.25925        14.05572        -4.24874
| 56>    C       -9.38617        15.39910        -4.66652
| 57>    C      -10.47043        15.64064        -5.45839
| 58>    C      -11.26286        14.49929        -5.70579
| 59>    S      -10.59549        13.10801        -4.89863
| 60>    C      -12.41454        14.40630        -6.47290
| 61>    C      -13.05247        15.41491        -7.21633
| 62>    C      -14.17029        14.98639        -7.87795
| 63>    C      -14.46756        13.62273        -7.68478
| 64>    S      -13.28448        12.89343        -6.63077
| 65>    C      -15.54178        12.92512        -8.21644
| 66>    C      -15.76357        11.57938        -7.98096
| 67>    C      -16.80172        10.77805        -8.42424
| 68>    C      -18.06928        11.08032        -9.01967
| 69>    C      -18.79662        12.24670        -8.90915
| 70>    C      -20.04594        12.45589        -9.52092
| 71>    N      -21.05508        12.69652       -10.01620
| 72>    C      -18.45225        13.33367        -8.08480
| 73>    N      -18.26389        14.23327        -7.39447
| 74>    C      -18.58479         9.84030        -9.60716
| 75>    C      -17.74295         8.77166        -9.21360
| 76>    C      -16.61957         9.31574        -8.41802
| 77>    O      -15.71733         8.68812        -7.89912
| 78>    C      -17.98658         7.46899        -9.56848
| 79>    C      -19.11017         7.20731       -10.36170
| 80>    C      -19.93425         8.28207       -10.76291
| 81>    C      -19.69230         9.60169       -10.39546
| 82>    S      -21.26037         7.73803       -11.74755
| 83>    C      -20.69755         6.09428       -11.60135
| 84>    C      -19.57499         5.95769       -10.85830
| 85>   Br      -21.64506         4.71188       -12.44677
| 86>    H       -6.04732         4.25276         6.66987
| 87>    H       -9.41334         1.15741         8.71844
| 88>    H       -4.76831         4.09939         9.15954
| 89>    H      -10.70914         1.62910         3.45148
| 90>    H      -11.77277        -0.77528         0.99534
| 91>    H      -11.77013         0.20003        -0.90693
| 92>    H      -11.24304         1.78760        -2.67881
| 93>    H       -9.89065         3.79401        -2.20245
| 94>    H       -8.59622         5.41558        -1.52032
| 95>    H       -7.57566         6.60749         1.10026
| 96>    H       -7.27339         7.36962        -1.87067
| 97>    H       -5.21861         9.20117         1.17665
| 98>    H       -6.69333         8.38920         1.70966
| 99>    H       -6.75043        10.06600         1.15813
|100>    H       -5.42787         9.05731        -2.22613
|101>    H       -5.36504        10.37491        -1.03739
|102>    H       -7.87223         9.68600        -2.44467
|103>    H       -6.35195        12.18731        -2.08941
|104>    H       -9.01107        11.50988        -3.47972
|105>    H       -7.47532        14.15746        -3.13674
|106>    H       -8.67069        16.14725        -4.37301
|107>    H      -10.71951        16.60326        -5.86679
|108>    H      -12.67847        16.42243        -7.25325
|109>    H      -14.79333        15.61319        -8.49044
|110>    H      -16.20669        13.48545        -8.85621
|111>    H      -14.98682        11.03845        -7.44660
|112>    H      -17.33302         6.67392        -9.24520
|113>    H      -20.35023        10.38662       -10.72930
|114>    H      -19.09242         5.01672       -10.66617
|115> *
|116>
|117>                          ****END OF INPUT****

CARTESIAN COORDINATES (ANGSTROEM)
---------------------------------
  C     -9.841910    2.006550    5.944050
  C    -11.023910    1.342490    6.155480
  C    -11.378850    0.741160    7.379940
  N    -11.717200    0.227000    8.349390
  C    -12.067850    1.219370    5.215000
  N    -12.976480    1.109530    4.520950
  C     -8.826330    2.269780    6.959660
  C     -7.854860    3.139810    6.406690
  C     -6.768580    3.586980    7.117310
  C     -6.628270    3.146160    8.437890
  C     -7.598920    2.271760    8.979870
  C     -8.702870    1.825790    8.261650
  S     -7.227310    1.843880   10.622400
  C     -5.793040    2.833220   10.559540
  C     -5.600520    3.453150    9.371280
  Br    -4.683970    2.954470   12.067650
  C     -8.216510    3.440350    5.008990
  O     -7.617160    4.195860    4.260160
  C     -9.408820    2.644260    4.718970
  C     -9.935280    2.382910    3.472380
  C     -9.617670    2.927870    2.228720
  S     -8.668840    4.374180    2.038490
  C     -8.966300    4.452520    0.349940
  C     -9.740370    3.357580   -0.094890
  C    -10.097460    2.476330    0.967680
  C    -10.813560    1.299160    0.647250
  S    -11.155650    0.046890    1.844560
  C    -11.212560    1.091440   -0.658190
  C    -10.902760    1.994210   -1.676090
  C    -10.156100    3.111340   -1.411930
  C     -8.426790    5.486710   -0.454070
  C     -7.724690    6.538530    0.032760
  C     -7.164250    7.546980   -0.805890
  C     -6.517960    8.662270   -0.417480
  C     -6.287660    9.092650    0.991260
  C     -6.011810    9.614970   -1.479150
  N     -7.116220   10.277830   -2.131550
  C     -7.179650   11.582070   -2.434230
  C     -8.203200   12.143960   -3.139100
  C     -8.264720   13.501730   -3.480230
  C     -9.259250   14.055720   -4.248740
  C     -9.386170   15.399100   -4.666520
  C    -10.470430   15.640640   -5.458390
  C    -11.262860   14.499290   -5.705790
  S    -10.595490   13.108010   -4.898630
  C    -12.414540   14.406300   -6.472900
  C    -13.052470   15.414910   -7.216330
  C    -14.170290   14.986390   -7.877950
  C    -14.467560   13.622730   -7.684780
  S    -13.284480   12.893430   -6.630770
  C    -15.541780   12.925120   -8.216440
  C    -15.763570   11.579380   -7.980960
  C    -16.801720   10.778050   -8.424240
  C    -18.069280   11.080320   -9.019670
  C    -18.796620   12.246700   -8.909150
  C    -20.045940   12.455890   -9.520920
  N    -21.055080   12.696520  -10.016200
  C    -18.452250   13.333670   -8.084800
  N    -18.263890   14.233270   -7.394470
  C    -18.584790    9.840300   -9.607160
  C    -17.742950    8.771660   -9.213600
  C    -16.619570    9.315740   -8.418020
  O    -15.717330    8.688120   -7.899120
  C    -17.986580    7.468990   -9.568480
  C    -19.110170    7.207310  -10.361700
  C    -19.934250    8.282070  -10.762910
  C    -19.692300    9.601690  -10.395460
  S    -21.260370    7.738030  -11.747550
  C    -20.697550    6.094280  -11.601350
  C    -19.574990    5.957690  -10.858300
  Br   -21.645060    4.711880  -12.446770
  H     -6.047320    4.252760    6.669870
  H     -9.413340    1.157410    8.718440
  H     -4.768310    4.099390    9.159540
  H    -10.709140    1.629100    3.451480
  H    -11.772770   -0.775280    0.995340
  H    -11.770130    0.200030   -0.906930
  H    -11.243040    1.787600   -2.678810
  H     -9.890650    3.794010   -2.202450
  H     -8.596220    5.415580   -1.520320
  H     -7.575660    6.607490    1.100260
  H     -7.273390    7.369620   -1.870670
  H     -5.218610    9.201170    1.176650
  H     -6.693330    8.389200    1.709660
  H     -6.750430   10.066000    1.158130
  H     -5.427870    9.057310   -2.226130
  H     -5.365040   10.374910   -1.037390
  H     -7.872230    9.686000   -2.444670
  H     -6.351950   12.187310   -2.089410
  H     -9.011070   11.509880   -3.479720
  H     -7.475320   14.157460   -3.136740
  H     -8.670690   16.147250   -4.373010
  H    -10.719510   16.603260   -5.866790
  H    -12.678470   16.422430   -7.253250
  H    -14.793330   15.613190   -8.490440
  H    -16.206690   13.485450   -8.856210
  H    -14.986820   11.038450   -7.446600
  H    -17.333020    6.673920   -9.245200
  H    -20.350230   10.386620  -10.729300
  H    -19.092420    5.016720  -10.666170

 Total Charge           Charge          ....    0
 Multiplicity           Mult            ....    1
 Number of Electrons    NEL             ....  582
 Basis Dimension        Dim             .... 1199

ORBITAL ENERGIES
----------------

  NO   OCC          E(Eh)            E(eV)
   0   2.0000    -482.885077    -13139.9710
   1   2.0000    -482.869500    -13139.5471
   2   2.0000     -88.980790     -2421.2904
   3   2.0000     -88.974117     -2421.1088
   4   2.0000     -88.958168     -2420.6748
   5   2.0000     -88.955077     -2420.5907
   6   2.0000     -88.948790     -2420.4196
   7   2.0000     -88.941348     -2420.2171
   8   2.0000     -62.562803     -1702.4204
   9   2.0000     -62.547185     -1701.9954
  10   2.0000     -56.396746     -1534.6335
  11   2.0000     -56.394044     -1534.5599
  12   2.0000     -56.394004     -1534.5589
  13   2.0000     -56.381114     -1534.2081
  14   2.0000     -56.378443     -1534.1354
  15   2.0000     -56.378401     -1534.1343
  16   2.0000     -19.218065      -522.9501
  17   2.0000     -19.182271      -521.9761
  18   2.0000     -14.475129      -393.8883
  19   2.0000     -14.408530      -392.0760
  20   2.0000     -14.407280      -392.0420
  21   2.0000     -14.385801      -391.4575
  22   2.0000     -14.383083      -391.3836
  23   2.0000     -10.366729      -282.0930
  24   2.0000     -10.357494      -281.8417
  25   2.0000     -10.355328      -281.7828
  26   2.0000     -10.345336      -281.5109
  27   2.0000     -10.338833      -281.3339
  28   2.0000     -10.334719      -281.2220
  29   2.0000     -10.334007      -281.2026
  30   2.0000     -10.333035      -281.1762
  31   2.0000     -10.330507      -281.1074
  32   2.0000     -10.327469      -281.0247
  33   2.0000     -10.323264      -280.9103
  34   2.0000     -10.323201      -280.9086
  35   2.0000     -10.320681      -280.8400
  36   2.0000     -10.317822      -280.7622
  37   2.0000     -10.315174      -280.6902
  38   2.0000     -10.314922      -280.6833
  39   2.0000     -10.311987      -280.6034
  40   2.0000     -10.311931      -280.6019
  41   2.0000     -10.310550      -280.5643
  42   2.0000     -10.309726      -280.5419
  43   2.0000     -10.309449      -280.5344
  44   2.0000     -10.308726      -280.5147
  45   2.0000     -10.307090      -280.4702
  46   2.0000     -10.306997      -280.4676
  47   2.0000     -10.306419      -280.4519
  48   2.0000     -10.306231      -280.4468
  49   2.0000     -10.305287      -280.4211
  50   2.0000     -10.304561      -280.4014
  51   2.0000     -10.302347      -280.3411
  52   2.0000     -10.302301      -280.3399
  53   2.0000     -10.302239      -280.3382
  54   2.0000     -10.301070      -280.3064
  55   2.0000     -10.300399      -280.2881
  56   2.0000     -10.299606      -280.2665
  57   2.0000     -10.295878      -280.1651
  58   2.0000     -10.295381      -280.1516
  59   2.0000     -10.293313      -280.0953
  60   2.0000     -10.291850      -280.0555
  61   2.0000     -10.291265      -280.0396
  62   2.0000     -10.290746      -280.0254
  63   2.0000     -10.290558      -280.0203
  64   2.0000     -10.289975      -280.0045
  65   2.0000     -10.289497      -279.9915
  66   2.0000     -10.288027      -279.9514
  67   2.0000     -10.287444      -279.9356
  68   2.0000     -10.284848      -279.8649
  69   2.0000     -10.283786      -279.8360
  70   2.0000     -10.282801      -279.8092
  71   2.0000     -10.281884      -279.7843
  72   2.0000     -10.279686      -279.7245
  73   2.0000     -10.277742      -279.6716
  74   2.0000     -10.276649      -279.6418
  75   2.0000     -10.276325      -279.6330
  76   2.0000     -10.265525      -279.3391
  77   2.0000     -10.261983      -279.2428
  78   2.0000     -10.256782      -279.1012
  79   2.0000      -8.792240      -239.2490
  80   2.0000      -8.776575      -238.8227
  81   2.0000      -8.074181      -219.7096
  82   2.0000      -8.070071      -219.5978
  83   2.0000      -8.054422      -219.1720
  84   2.0000      -8.051105      -219.0817
  85   2.0000      -8.045003      -218.9157
  86   2.0000      -8.036541      -218.6854
  87   2.0000      -6.628513      -180.3710
  88   2.0000      -6.613973      -179.9753
  89   2.0000      -6.613808      -179.9709
  90   2.0000      -6.612773      -179.9427
  91   2.0000      -6.598345      -179.5501
  92   2.0000      -6.598191      -179.5459
  93   2.0000      -6.043162      -164.4428
  94   2.0000      -6.039769      -164.3505
  95   2.0000      -6.038740      -164.3225
  96   2.0000      -6.037177      -164.2800
  97   2.0000      -6.035481      -164.2338
  98   2.0000      -6.031306      -164.1202
  99   2.0000      -6.024015      -163.9218
 100   2.0000      -6.020811      -163.8346
 101   2.0000      -6.020058      -163.8141
 102   2.0000      -6.016551      -163.7187
 103   2.0000      -6.015544      -163.6913
 104   2.0000      -6.014532      -163.6637
 105   2.0000      -6.012293      -163.6028
 106   2.0000      -6.010585      -163.5563
 107   2.0000      -6.006996      -163.4587
 108   2.0000      -6.006251      -163.4384
 109   2.0000      -6.002472      -163.3356
 110   2.0000      -5.996686      -163.1781
 111   2.0000      -2.744408       -74.6791
 112   2.0000      -2.740306       -74.5675
 113   2.0000      -2.740161       -74.5636
 114   2.0000      -2.728676       -74.2511
 115   2.0000      -2.728619       -74.2495
 116   2.0000      -2.728605       -74.2491
 117   2.0000      -2.724564       -74.1391
 118   2.0000      -2.724525       -74.1381
 119   2.0000      -2.713028       -73.8253
 120   2.0000      -2.713016       -73.8249
 121   2.0000      -1.132902       -30.8278
 122   2.0000      -1.095811       -29.8185
 123   2.0000      -1.074438       -29.2370
 124   2.0000      -1.020035       -27.7566
 125   2.0000      -1.015992       -27.6466
 126   2.0000      -1.007789       -27.4233
 127   2.0000      -1.003441       -27.3050
 128   2.0000      -0.998289       -27.1648
 129   2.0000      -0.986807       -26.8524
 130   2.0000      -0.985780       -26.8244
 131   2.0000      -0.985133       -26.8068
 132   2.0000      -0.979067       -26.6418
 133   2.0000      -0.963643       -26.2221
 134   2.0000      -0.961244       -26.1568
 135   2.0000      -0.959169       -26.1003
 136   2.0000      -0.949766       -25.8444
 137   2.0000      -0.941047       -25.6072
 138   2.0000      -0.925515       -25.1846
 139   2.0000      -0.919073       -25.0092
 140   2.0000      -0.915705       -24.9176
 141   2.0000      -0.905267       -24.6336
 142   2.0000      -0.898459       -24.4483
 143   2.0000      -0.890918       -24.2431
 144   2.0000      -0.888215       -24.1696
 145   2.0000      -0.883144       -24.0316
 146   2.0000      -0.882913       -24.0253
 147   2.0000      -0.867947       -23.6180
 148   2.0000      -0.862036       -23.4572
 149   2.0000      -0.861128       -23.4325
 150   2.0000      -0.852264       -23.1913
 151   2.0000      -0.851221       -23.1629
 152   2.0000      -0.846495       -23.0343
 153   2.0000      -0.833398       -22.6779
 154   2.0000      -0.826865       -22.5002
 155   2.0000      -0.826670       -22.4948
 156   2.0000      -0.823598       -22.4112
 157   2.0000      -0.806551       -21.9474
 158   2.0000      -0.805252       -21.9120
 159   2.0000      -0.800772       -21.7901
 160   2.0000      -0.792741       -21.5716
 161   2.0000      -0.775499       -21.1024
 162   2.0000      -0.760532       -20.6951
 163   2.0000      -0.755181       -20.5495
 164   2.0000      -0.751228       -20.4420
 165   2.0000      -0.735218       -20.0063
 166   2.0000      -0.729265       -19.8443
 167   2.0000      -0.724225       -19.7072
 168   2.0000      -0.713267       -19.4090
 169   2.0000      -0.705869       -19.2077
 170   2.0000      -0.700925       -19.0731
 171   2.0000      -0.690929       -18.8011
 172   2.0000      -0.687026       -18.6949
 173   2.0000      -0.679934       -18.5019
 174   2.0000      -0.674761       -18.3612
 175   2.0000      -0.668902       -18.2018
 176   2.0000      -0.662197       -18.0193
 177   2.0000      -0.655410       -17.8346
 178   2.0000      -0.654067       -17.7981
 179   2.0000      -0.646157       -17.5828
 180   2.0000      -0.641997       -17.4696
 181   2.0000      -0.638316       -17.3695
 182   2.0000      -0.636340       -17.3157
 183   2.0000      -0.630652       -17.1609
 184   2.0000      -0.622148       -16.9295
 185   2.0000      -0.619560       -16.8591
 186   2.0000      -0.611480       -16.6392
 187   2.0000      -0.607152       -16.5214
 188   2.0000      -0.605287       -16.4707
 189   2.0000      -0.600832       -16.3495
 190   2.0000      -0.597798       -16.2669
 191   2.0000      -0.596951       -16.2439
 192   2.0000      -0.592780       -16.1304
 193   2.0000      -0.588326       -16.0092
 194   2.0000      -0.578102       -15.7310
 195   2.0000      -0.574241       -15.6259
 196   2.0000      -0.571876       -15.5615
 197   2.0000      -0.569671       -15.5015
 198   2.0000      -0.559451       -15.2234
 199   2.0000      -0.556469       -15.1423
 200   2.0000      -0.554663       -15.0931
 201   2.0000      -0.544163       -14.8074
 202   2.0000      -0.543051       -14.7772
 203   2.0000      -0.540927       -14.7194
 204   2.0000      -0.539564       -14.6823
 205   2.0000      -0.533908       -14.5284
 206   2.0000      -0.532736       -14.4965
 207   2.0000      -0.524035       -14.2597
 208   2.0000      -0.522287       -14.2121
 209   2.0000      -0.520491       -14.1633
 210   2.0000      -0.519187       -14.1278
 211   2.0000      -0.518814       -14.1177
 212   2.0000      -0.516055       -14.0426
 213   2.0000      -0.515337       -14.0230
 214   2.0000      -0.511787       -13.9264
 215   2.0000      -0.508577       -13.8391
 216   2.0000      -0.508318       -13.8320
 217   2.0000      -0.505336       -13.7509
 218   2.0000      -0.505072       -13.7437
 219   2.0000      -0.503795       -13.7090
 220   2.0000      -0.501668       -13.6511
 221   2.0000      -0.498892       -13.5756
 222   2.0000      -0.494488       -13.4557
 223   2.0000      -0.491995       -13.3879
 224   2.0000      -0.489746       -13.3267
 225   2.0000      -0.488048       -13.2805
 226   2.0000      -0.485068       -13.1994
 227   2.0000      -0.484089       -13.1727
 228   2.0000      -0.478569       -13.0225
 229   2.0000      -0.476766       -12.9735
 230   2.0000      -0.475933       -12.9508
 231   2.0000      -0.473022       -12.8716
 232   2.0000      -0.470866       -12.8129
 233   2.0000      -0.469062       -12.7638
 234   2.0000      -0.467020       -12.7082
 235   2.0000      -0.464156       -12.6303
 236   2.0000      -0.463771       -12.6198
 237   2.0000      -0.458581       -12.4786
 238   2.0000      -0.457578       -12.4513
 239   2.0000      -0.456185       -12.4134
 240   2.0000      -0.453737       -12.3468
 241   2.0000      -0.447667       -12.1816
 242   2.0000      -0.445410       -12.1202
 243   2.0000      -0.442591       -12.0435
 244   2.0000      -0.442455       -12.0398
 245   2.0000      -0.438858       -11.9419
 246   2.0000      -0.438497       -11.9321
 247   2.0000      -0.436178       -11.8690
 248   2.0000      -0.435529       -11.8513
 249   2.0000      -0.434475       -11.8227
 250   2.0000      -0.427560       -11.6345
 251   2.0000      -0.426207       -11.5977
 252   2.0000      -0.423072       -11.5124
 253   2.0000      -0.421000       -11.4560
 254   2.0000      -0.420690       -11.4476
 255   2.0000      -0.417549       -11.3621
 256   2.0000      -0.414686       -11.2842
 257   2.0000      -0.413479       -11.2513
 258   2.0000      -0.411846       -11.2069
 259   2.0000      -0.410308       -11.1651
 260   2.0000      -0.406374       -11.0580
 261   2.0000      -0.402808       -10.9610
 262   2.0000      -0.401490       -10.9251
 263   2.0000      -0.398668       -10.8483
 264   2.0000      -0.396972       -10.8022
 265   2.0000      -0.392580       -10.6827
 266   2.0000      -0.387231       -10.5371
 267   2.0000      -0.385890       -10.5006
 268   2.0000      -0.380946       -10.3661
 269   2.0000      -0.374549       -10.1920
 270   2.0000      -0.374013       -10.1774
 271   2.0000      -0.369432       -10.0528
 272   2.0000      -0.362020        -9.8511
 273   2.0000      -0.359270        -9.7762
 274   2.0000      -0.355757        -9.6807
 275   2.0000      -0.346775        -9.4362
 276   2.0000      -0.339470        -9.2375
 277   2.0000      -0.339076        -9.2267
 278   2.0000      -0.328665        -8.9434
 279   2.0000      -0.326506        -8.8847
 280   2.0000      -0.321166        -8.7394
 281   2.0000      -0.315700        -8.5906
 282   2.0000      -0.313962        -8.5433
 283   2.0000      -0.305634        -8.3167
 284   2.0000      -0.299716        -8.1557
 285   2.0000      -0.292347        -7.9552
 286   2.0000      -0.289954        -7.8901
 287   2.0000      -0.274772        -7.4769
 288   2.0000      -0.268241        -7.2992
 289   2.0000      -0.249820        -6.7979
 290   2.0000      -0.211589        -5.7576
 291   0.0000      -0.103675        -2.8211
 292   0.0000      -0.093611        -2.5473
 293   0.0000      -0.063246        -1.7210
 294   0.0000      -0.044522        -1.2115
 295   0.0000      -0.039248        -1.0680

MULLIKEN ATOMIC CHARGES
-----------------------
   0 C :    0.298429
   1 C :   -0.351311
   2 C :   -0.186191
   3 N :    0.143775
   4 C :   -0.208538
   5 N :    0.165124
   6 C :    0.014743
   7 C :   -0.005543
   8 C :   -0.080015
   9 C :    0.119157
  10 C :   -0.091103
  11 C :   -0.025328
  12 S :    0.185890
  13 C :   -0.123706
  14 C :    0.035598
  15 Br:    0.019732
  16 C :    0.152877
  17 O :   -0.194401
  18 C :   -0.112791
  19 C :   -0.036995
  20 C :   -0.114992
  21 S :    0.207301
  22 C :   -0.061592
  23 C :    0.108071
  24 C :    0.120436
  25 C :   -0.075361
  26 S :    0.044999
  27 C :    0.001149
  28 C :    0.036741
  29 C :   -0.035126
  30 C :   -0.016186
  31 C :    0.018095
  32 C :   -0.002878
  33 C :   -0.193432
  34 C :    0.097299
  35 C :    0.219409
  36 N :   -0.142662
  37 C :    0.075202
  38 C :   -0.043922
  39 C :    0.023258
  40 C :   -0.057130
  41 C :    0.057815
  42 C :    0.007946
  43 C :   -0.020781
  44 S :    0.086173
  45 C :   -0.067438
  46 C :    0.040567
  47 C :    0.024043
  48 C :   -0.012541
  49 S :    0.098207
  50 C :   -0.008087
  51 C :    0.015864
  52 C :   -0.131324
  53 C :    0.295879
  54 C :   -0.361972
  55 C :   -0.178575
  56 N :    0.124310
  57 C :   -0.220777
  58 N :    0.149092
  59 C :    0.005522
  60 C :   -0.000000
  61 C :    0.130913
  62 O :   -0.172133
  63 C :   -0.080517
  64 C :    0.114474
  65 C :   -0.090732
  66 C :   -0.028251
  67 S :    0.172724
  68 C :   -0.123813
  69 C :    0.036020
  70 Br:    0.005374
  71 H :   -0.016555
  72 H :   -0.005813
  73 H :   -0.006063
  74 H :    0.031226
  75 H :    0.068596
  76 H :   -0.019737
  77 H :   -0.008038
  78 H :   -0.026097
  79 H :   -0.011833
  80 H :    0.014559
  81 H :   -0.019804
  82 H :    0.034748
  83 H :    0.021901
  84 H :    0.034522
  85 H :    0.035613
  86 H :    0.011117
  87 H :    0.129618
  88 H :    0.012624
  89 H :   -0.001697
  90 H :   -0.010221
  91 H :   -0.009211
  92 H :   -0.011411
  93 H :   -0.009836
  94 H :   -0.002027
  95 H :    0.002572
  96 H :    0.007094
  97 H :   -0.020593
  98 H :   -0.010633
  99 H :   -0.010685
Sum of atomic charges:   -0.0000000

LOEWDIN ATOMIC CHARGES
----------------------
   0 C :    0.073899
   1 C :   -0.147090
   2 C :   -0.018250
   3 N :   -0.060657
   4 C :   -0.031087
   5 N :   -0.051921
   6 C :   -0.017889
   7 C :   -0.049784
   8 C :    0.017579
   9 C :   -0.035622
  10 C :   -0.144914
  11 C :   -0.011267
  12 S :    0.432158
  13 C :   -0.273627
  14 C :   -0.071731
  15 Br:    0.133536
  16 C :    0.080285
  17 O :   -0.183554
  18 C :   -0.117603
  19 C :    0.036610
  20 C :   -0.193800
  21 S :    0.564704
  22 C :   -0.150428
  23 C :   -0.043728
  24 C :   -0.037190
  25 C :   -0.137581
  26 S :    0.271526
  27 C :   -0.041091
  28 C :   -0.017509
  29 C :   -0.022082
  30 C :   -0.041979
  31 C :   -0.002029
  32 C :   -0.051077
  33 C :   -0.023815
  34 C :   -0.045065
  35 C :    0.050564
  36 N :    0.023686
  37 C :    0.070460
  38 C :   -0.128568
  39 C :    0.000562
  40 C :   -0.187472
  41 C :   -0.006435
  42 C :   -0.057275
  43 C :   -0.136911
  44 S :    0.387333
  45 C :   -0.211608
  46 C :   -0.006216
  47 C :   -0.051900
  48 C :   -0.097078
  49 S :    0.399619
  50 C :   -0.083029
  51 C :    0.049171
  52 C :   -0.123913
  53 C :    0.068351
  54 C :   -0.165158
  55 C :   -0.019803
  56 N :   -0.077142
  57 C :   -0.023698
  58 N :   -0.072320
  59 C :   -0.013368
  60 C :   -0.049399
  61 C :    0.076037
  62 O :   -0.171604
  63 C :    0.013677
  64 C :   -0.039948
  65 C :   -0.146347
  66 C :   -0.018995
  67 S :    0.422087
  68 C :   -0.277929
  69 C :   -0.071743
  70 Br:    0.122935
  71 H :    0.038285
  72 H :    0.041015
  73 H :    0.037488
  74 H :    0.030071
  75 H :   -0.020816
  76 H :    0.027786
  77 H :    0.033906
  78 H :    0.027775
  79 H :    0.032113
  80 H :    0.025241
  81 H :    0.024836
  82 H :    0.039859
  83 H :    0.033543
  84 H :    0.040951
  85 H :    0.031146
  86 H :    0.030854
  87 H :    0.083967
  88 H :    0.032697
  89 H :    0.021159
  90 H :    0.035529
  91 H :    0.035381
  92 H :    0.032619
  93 H :    0.033722
  94 H :    0.038042
  95 H :    0.036114
  96 H :    0.030570
  97 H :    0.036806
  98 H :    0.038984
  99 H :    0.035801

  Mayer bond orders larger than 0.100000
B(  0-C ,  1-C ) :   1.6207 B(  0-C ,  6-C ) :   0.9967 B(  0-C , 18-C ) :   1.0888
B(  1-C ,  2-C ) :   1.1463 B(  1-C ,  4-C ) :   1.1445 B(  2-C ,  3-N ) :   2.9697
B(  4-C ,  5-N ) :   2.9923 B(  6-C ,  7-C ) :   1.2755 B(  6-C , 11-C ) :   1.4209
B(  7-C ,  8-C ) :   1.4257 B(  7-C , 16-C ) :   0.9573 B(  8-C ,  9-C ) :   1.2390
B(  8-C , 71-H ) :   1.0176 B(  9-C , 10-C ) :   1.3140 B(  9-C , 14-C ) :   1.1615
B( 10-C , 11-C ) :   1.3182 B( 10-C , 12-S ) :   1.0862 B( 11-C , 72-H ) :   0.9814
B( 12-S , 13-C ) :   1.0869 B( 13-C , 14-C ) :   1.6202 B( 13-C , 15-Br) :   1.0166
B( 14-C , 73-H ) :   0.9998 B( 16-C , 17-O ) :   2.1214 B( 16-C , 18-C ) :   0.9851
B( 18-C , 19-C ) :   1.4934 B( 19-C , 20-C ) :   1.3084 B( 19-C , 74-H ) :   0.9243
B( 20-C , 21-S ) :   1.1084 B( 20-C , 24-C ) :   1.2431 B( 21-S , 22-C ) :   1.1972
B( 22-C , 23-C ) :   1.2419 B( 22-C , 30-C ) :   1.1562 B( 23-C , 24-C ) :   1.2580
B( 23-C , 29-C ) :   1.2411 B( 24-C , 25-C ) :   1.2735 B( 25-C , 26-S ) :   1.0544
B( 25-C , 27-C ) :   1.4876 B( 26-S , 75-H ) :   0.9500 B( 27-C , 28-C ) :   1.2903
B( 27-C , 76-H ) :   0.9761 B( 28-C , 29-C ) :   1.4936 B( 28-C , 77-H ) :   0.9815
B( 29-C , 78-H ) :   0.9919 B( 30-C , 31-C ) :   1.6652 B( 30-C , 79-H ) :   0.9803
B( 31-C , 32-C ) :   1.1202 B( 31-C , 80-H ) :   0.9729 B( 32-C , 33-C ) :   1.7531
B( 32-C , 81-H ) :   0.9733 B( 33-C , 34-C ) :   1.1005 B( 33-C , 35-C ) :   1.0085
B( 34-C , 82-H ) :   0.9430 B( 34-C , 83-H ) :   0.9563 B( 34-C , 84-H ) :   0.9441
B( 35-C , 36-N ) :   0.9930 B( 35-C , 85-H ) :   0.9365 B( 35-C , 86-H ) :   0.9367
B( 36-N , 37-C ) :   1.2886 B( 36-N , 87-H ) :   0.9328 B( 37-C , 38-C ) :   1.5348
B( 37-C , 88-H ) :   0.9674 B( 38-C , 39-C ) :   1.2207 B( 38-C , 89-H ) :   0.9644
B( 39-C , 40-C ) :   1.5377 B( 39-C , 90-H ) :   0.9780 B( 40-C , 41-C ) :   1.1771
B( 40-C , 44-S ) :   1.0125 B( 41-C , 42-C ) :   1.5497 B( 41-C , 91-H ) :   0.9977
B( 42-C , 43-C ) :   1.2232 B( 42-C , 92-H ) :   0.9950 B( 43-C , 44-S ) :   1.0998
B( 43-C , 45-C ) :   1.4253 B( 45-C , 46-C ) :   1.2529 B( 45-C , 49-S ) :   1.0364
B( 46-C , 47-C ) :   1.5038 B( 46-C , 93-H ) :   0.9945 B( 47-C , 48-C ) :   1.2164
B( 47-C , 94-H ) :   1.0013 B( 48-C , 49-S ) :   1.1002 B( 48-C , 50-C ) :   1.4391
B( 50-C , 51-C ) :   1.2789 B( 50-C , 95-H ) :   0.9640 B( 51-C , 52-C ) :   1.4652
B( 51-C , 96-H ) :   0.9378 B( 52-C , 53-C ) :   1.1157 B( 52-C , 61-C ) :   0.9844
B( 53-C , 54-C ) :   1.5692 B( 53-C , 59-C ) :   0.9965 B( 54-C , 55-C ) :   1.1373
B( 54-C , 57-C ) :   1.1748 B( 55-C , 56-N ) :   2.9683 B( 57-C , 58-N ) :   3.0057
B( 59-C , 60-C ) :   1.2798 B( 59-C , 66-C ) :   1.4279 B( 60-C , 61-C ) :   0.9164
B( 60-C , 63-C ) :   1.4378 B( 61-C , 62-O ) :   2.2266 B( 63-C , 64-C ) :   1.2398
B( 63-C , 97-H ) :   1.0152 B( 64-C , 65-C ) :   1.3260 B( 64-C , 69-C ) :   1.1566
B( 65-C , 66-C ) :   1.3126 B( 65-C , 67-S ) :   1.0788 B( 66-C , 98-H ) :   0.9809
B( 67-S , 68-C ) :   1.0846 B( 68-C , 69-C ) :   1.6237 B( 68-C , 70-Br) :   1.0078
B( 69-C , 99-H ) :   1.0003

-----------------------------------------------------------------------------
         ABSORPTION SPECTRUM VIA TRANSITION ELECTRIC DIPOLE MOMENTS
-----------------------------------------------------------------------------
State   Energy  Wavelength   fosc         T2         TX        TY        TZ
        (cm-1)    (nm)                  (au**2)     (au)      (au)      (au)
-----------------------------------------------------------------------------
   0   11916.7    839.2   1.417593428  39.16253   5.14191   0.44204   3.53947
   1   14879.3    672.1   0.079278994   1.75409   0.68434   0.94482  -0.62697
   2   16127.8    620.0   0.758178599  15.47647   0.90771   1.94876  -3.29467
   3   21442.9    466.4   0.012467084   0.19141   0.03077  -0.19568   0.39009
   4   23473.3    426.0   0.016134570   0.22629   0.06964  -0.45058   0.13571
   5   23623.0    423.3   0.043707732   0.60912  -0.20406  -0.58133   0.47909
   6   24198.4    413.2   0.187338360   2.54868   0.84620   1.17333  -0.67523
   7   25270.5    395.7   0.069923687   0.91093   0.21977  -0.78312   0.49935
   8   25372.9    394.1   0.027749960   0.36005  -0.30160  -0.17136  -0.48962
   9   25612.8    390.4   0.016899765   0.21722   0.19094   0.25198   0.34244
  10   26369.5    379.2   0.148415723   1.85291   0.42852  -0.95013   0.87552
  11   26742.3    373.9   0.097218759   1.19681   0.58125  -0.58868   0.71584
  12   27028.0    370.0   0.475799099   5.79542   0.36937   2.35156   0.35939
  13   27363.4    365.5   0.136240541   1.63913   0.06240  -1.22436   0.36901
  14   28388.0    352.3   0.041521901   0.48152  -0.26372  -0.62133  -0.16103
  15   28414.2    351.9   0.025485217   0.29528  -0.34771  -0.17432  -0.37946
  16   29570.2    338.2   0.056676739   0.63100  -0.44535  -0.33784  -0.56438
  17   29661.9    337.1   0.004274515   0.04744  -0.04553  -0.15523  -0.14585
  18   29768.0    335.9   0.026051955   0.28812  -0.30676  -0.30136  -0.32124
  19   30379.4    329.2   0.001167998   0.01266  -0.05143   0.08388  -0.05456
  20   31341.2    319.1   0.006005900   0.06309   0.15028   0.19986  -0.02365
  21   31544.4    317.0   0.100605952   1.04997  -0.00427   0.88489   0.51665
  22   32072.6    311.8   0.249324424   2.55921   0.14903   1.54438   0.38972
  23   32240.4    310.2   0.996159461  10.17194  -2.28911  -1.38266  -1.73786
  24   32290.8    309.7   0.121421961   1.23792  -0.00868   1.11258  -0.00464
  25   32533.9    307.4   0.082571126   0.83554  -0.67358  -0.34112  -0.51524
  26   33070.6    302.4   0.130148952   1.29561  -0.02330   1.10988   0.25144
  27   33295.4    300.3   0.118017112   1.16691  -0.20311  -0.99996  -0.35459
  28   33617.3    297.5   0.113349433   1.11002  -0.66659  -0.55139  -0.60137
  29   34067.1    293.5   0.097392694   0.94117   0.12594   0.88288   0.38187
  30   34396.3    290.7   0.156778280   1.50055  -0.30813  -1.11786  -0.39496
  31   34641.1    288.7   0.029141673   0.27695  -0.06080  -0.51342  -0.09827
  32   34813.6    287.2   0.097233317   0.91948  -0.58397  -0.69228  -0.31498
  33   35176.3    284.3   0.130752985   1.22370   0.32588   1.05281   0.09533
  34   35490.3    281.8   0.150752479   1.39840   0.93098   0.18956   0.70408
  35   35940.9    278.2   0.002512011   0.02301  -0.09855   0.01699  -0.11406
  36   36111.0    276.9   0.003917638   0.03572  -0.08890   0.14451   0.08323
  37   36447.2    274.4   0.074912251   0.67665  -0.25429  -0.36004   0.69452
  38   36463.2    274.2   0.077853394   0.70291   0.69429  -0.39921  -0.24798
  39   37034.5    270.0   0.002635560   0.02343  -0.01968  -0.10797   0.10669
  40   37376.0    267.6   0.037763672   0.33263   0.37279   0.43957  -0.02068
  41   37585.9    266.1   0.000103038   0.00090  -0.00873  -0.00459  -0.02838
  42   37611.9    265.9   0.012040493   0.10539   0.00228  -0.24002  -0.21858
  43   38069.0    262.7   0.144560015   1.25012  -0.00696   1.11678   0.05362
  44   38299.8    261.1   0.018750316   0.16117   0.32196  -0.22577  -0.08085
  45   38353.2    260.7   0.056943863   0.48879  -0.18539  -0.02290   0.67372
  46   38586.4    259.2   0.039676799   0.33852  -0.33331   0.47142   0.07200
  47   38731.1    258.2   0.077740617   0.66079   0.36687  -0.42981   0.58434
  48   39630.8    252.3   0.244685192   2.03259   0.87047   1.12906  -0.01040
  49   39848.4    251.0   0.041370940   0.34179  -0.35213  -0.26057  -0.38717
  50   39929.3    250.4   0.004665284   0.03846  -0.02430  -0.02636   0.19282
  51   40157.7    249.0   0.236122316   1.93573  -1.17673   0.38218  -0.63637

FINAL SINGLE POINT ENERGY    -10108.541738584296

DIPOLE MOMENT
-------------
                                X             Y             Z
Electronic contribution:    -64.75574     -95.95953      42.64579
Nuclear contribution   :     73.63930      96.58239     -41.48056
                        -----------------------------------------
Total Dipole Moment    :      8.88356       0.62286       1.16523
                        -----------------------------------------
Magnitude (a.u.)       :      8.98128
Magnitude (Debye)      :     22.82860

Rotational constants in cm-1:     0.000737     0.000158     0.000136
Rotational constants in MHz :    22.094485     4.737519     4.078155

                             ****ORCA TERMINATED NORMALLY****
TOTAL RUN TIME: 0 days 0 hours 9 minutes 41 seconds 170 msec
