                         Program Version 4.2.0 -  RELEASE  -
|  1> # ORCA input file
|  2> # SCF done       -179.680070716102          0.000673609815
|  3> ! CAM-B3LYP def2-SVP def2/J RIJCOSX Grid4 TightSCF
|  4> %maxcore 5000
|  5> %tddft
|  6>     Mode sTDDFT
|  7>     Ethresh 5.0
|  8>     maxcore 5000
|  9> end
| 10>
| 11> %pal
| 12>   nprocs 6
| 13>   end
| 14> * xyz 0 1
| 15>    C       -6.07160         0.84134         6.97535
| 16>    C       -5.79731        -0.40686         6.45594
| 17>    C       -4.67059        -1.17556         6.80171
| 18>    N       -3.77287        -1.85632         7.03218
| 19>    C       -6.58219        -1.10909         5.52223
| 20>    N       -7.15298        -1.76797         4.77122
| 21>    C       -5.25008         1.52894         7.97252
| 22>    C       -5.85583         2.77158         8.27633
| 23>    C       -5.32549         3.65249         9.18439
| 24>    C       -4.13541         3.29053         9.82719
| 25>    C       -3.53837         2.04848         9.51780
| 26>    C       -4.07672         1.15568         8.59748
| 27>    S       -2.07515         1.79899        10.42440
| 28>    C       -2.28644         3.34810        11.19583
| 29>    C       -3.39219         4.01872        10.79738
| 30>   Br       -1.02430         3.93463        12.45555
| 31>    C       -7.09134         2.91735         7.47198
| 32>    O       -7.85053         3.86887         7.49350
| 33>    C       -7.18519         1.69174         6.66646
| 34>    C       -8.19062         1.42604         5.75031
| 35>    C       -9.26694         2.24949         5.46580
| 36>    C      -10.23214         1.90249         4.53044
| 37>    C      -11.38123         2.63007         4.16520
| 38>    C      -12.15522         2.01670         3.21514
| 39>    C      -11.64449         0.78038         2.78839
| 40>    S      -10.15194         0.41263         3.62346
| 41>    C      -12.14867        -0.11414         1.85280
| 42>    C      -13.34194        -0.06198         1.10683
| 43>    C      -13.51559        -1.13590         0.28136
| 44>    C      -12.47681        -2.09691         0.33689
| 45>    S      -11.25757        -1.56093         1.47642
| 46>    C      -12.39257        -3.21017        -0.46945
| 47>    C      -11.43921        -4.23884        -0.52056
| 48>    S      -11.28616        -5.06405        -2.06056
| 49>    C       -9.98761        -6.06262        -1.47581
| 50>    C       -9.73089        -5.79089        -0.12731
| 51>    C      -10.55083        -4.79303         0.40862
| 52>    C      -10.54346        -4.49036         1.87116
| 53>    C       -9.98066        -5.66884         2.65954
| 54>    C       -8.58882        -5.99624         2.12968
| 55>    C       -7.87506        -7.02891         2.99731
| 56>    C       -8.70263        -6.51008         0.69120
| 57>    C       -9.40541        -6.95973        -2.40325
| 58>    C       -8.37270        -7.81277        -2.17474
| 59>    C       -7.78863        -8.67352        -3.12998
| 60>    S       -8.34193        -8.74187        -4.77969
| 61>    C       -7.11037        -9.87200        -5.16995
| 62>    C       -6.29850       -10.18476        -4.12384
| 63>    C       -5.18720       -11.17405        -4.24457
| 64>    C       -6.67812        -9.50428        -2.92734
| 65>    C       -6.06842        -9.62050        -1.63410
| 66>    C       -4.79240        -9.93850        -1.32311
| 67>    C       -4.34562        -9.92626         0.03029
| 68>    C       -3.07141       -10.16694         0.40464
| 69>    C       -2.57695       -10.10207         1.75437
| 70>    C       -1.26833       -10.51328         2.03189
| 71>    O       -0.58443       -10.99853         0.96092
| 72>    C        0.82608       -10.98152         0.90057
| 73>    C       -0.73639       -10.47370         3.36349
| 74>    O        0.52601       -10.96581         3.52507
| 75>    C        1.09593       -10.95284         4.81196
| 76>    C       -1.48253        -9.98458         4.40653
| 77>    C       -2.78731        -9.54020         4.15719
| 78>    C       -3.35182        -9.60583         2.83738
| 79>    N       -4.59708        -9.13398         2.81549
| 80>    S       -5.00667        -8.66180         4.30480
| 81>    N       -3.63317        -9.03447         5.05188
| 82>    H       -5.81158         4.59230         9.39482
| 83>    H       -3.58125         0.22049         8.39772
| 84>    H       -3.67475         4.98647        11.16992
| 85>    H       -8.13747         0.49159         5.20426
| 86>    H       -9.37053         3.19031         5.98564
| 87>    H      -11.60854         3.58104         4.61311
| 88>    H      -13.06738         2.42722         2.81983
| 89>    H      -14.03711         0.75311         1.19694
| 90>    H      -14.36524        -1.26991        -0.36511
| 91>    H      -13.14312        -3.25525        -1.25161
| 92>    H      -11.55558        -4.25052         2.20252
| 93>    H       -9.91220        -3.61984         2.06708
| 94>    H      -10.63192        -6.53978         2.55449
| 95>    H       -9.92907        -5.40471         3.71598
| 96>    H       -7.99949        -5.07371         2.13221
| 97>    H       -8.46981        -7.93686         3.07903
| 98>    H       -7.71206        -6.63469         3.99700
| 99>    H       -6.90908        -7.28828         2.56958
|100>    H       -8.96564        -7.57345         0.71712
|101>    H       -7.72594        -6.41413         0.20973
|102>    H       -9.83687        -6.93743        -3.39713
|103>    H       -7.92250        -7.84909        -1.19980
|104>    H       -7.05717       -10.25570        -6.17034
|105>    H       -5.32100       -11.77747        -5.13959
|106>    H       -5.16388       -11.82725        -3.37472
|107>    H       -4.22671       -10.66487        -4.32118
|108>    H       -6.71334        -9.37864        -0.79856
|109>    H       -4.05955       -10.15320        -2.08541
|110>    H       -5.07620        -9.68481         0.78854
|111>    H       -2.33685       -10.43392        -0.34233
|112>    H        1.26602       -11.80632         1.46396
|113>    H        1.23611       -10.03613         1.26080
|114>    H        1.06414       -11.09891        -0.15747
|115>    H        1.18621        -9.93411         5.20063
|116>    H        2.08887       -11.38372         4.69276
|117>    H        0.51727       -11.56166         5.51295
|118>    H       -1.11072        -9.93806         5.41488
|119> *
|120>
|121>                          ****END OF INPUT****

CARTESIAN COORDINATES (ANGSTROEM)
---------------------------------
  C     -6.071600    0.841340    6.975350
  C     -5.797310   -0.406860    6.455940
  C     -4.670590   -1.175560    6.801710
  N     -3.772870   -1.856320    7.032180
  C     -6.582190   -1.109090    5.522230
  N     -7.152980   -1.767970    4.771220
  C     -5.250080    1.528940    7.972520
  C     -5.855830    2.771580    8.276330
  C     -5.325490    3.652490    9.184390
  C     -4.135410    3.290530    9.827190
  C     -3.538370    2.048480    9.517800
  C     -4.076720    1.155680    8.597480
  S     -2.075150    1.798990   10.424400
  C     -2.286440    3.348100   11.195830
  C     -3.392190    4.018720   10.797380
  Br    -1.024300    3.934630   12.455550
  C     -7.091340    2.917350    7.471980
  O     -7.850530    3.868870    7.493500
  C     -7.185190    1.691740    6.666460
  C     -8.190620    1.426040    5.750310
  C     -9.266940    2.249490    5.465800
  C    -10.232140    1.902490    4.530440
  C    -11.381230    2.630070    4.165200
  C    -12.155220    2.016700    3.215140
  C    -11.644490    0.780380    2.788390
  S    -10.151940    0.412630    3.623460
  C    -12.148670   -0.114140    1.852800
  C    -13.341940   -0.061980    1.106830
  C    -13.515590   -1.135900    0.281360
  C    -12.476810   -2.096910    0.336890
  S    -11.257570   -1.560930    1.476420
  C    -12.392570   -3.210170   -0.469450
  C    -11.439210   -4.238840   -0.520560
  S    -11.286160   -5.064050   -2.060560
  C     -9.987610   -6.062620   -1.475810
  C     -9.730890   -5.790890   -0.127310
  C    -10.550830   -4.793030    0.408620
  C    -10.543460   -4.490360    1.871160
  C     -9.980660   -5.668840    2.659540
  C     -8.588820   -5.996240    2.129680
  C     -7.875060   -7.028910    2.997310
  C     -8.702630   -6.510080    0.691200
  C     -9.405410   -6.959730   -2.403250
  C     -8.372700   -7.812770   -2.174740
  C     -7.788630   -8.673520   -3.129980
  S     -8.341930   -8.741870   -4.779690
  C     -7.110370   -9.872000   -5.169950
  C     -6.298500  -10.184760   -4.123840
  C     -5.187200  -11.174050   -4.244570
  C     -6.678120   -9.504280   -2.927340
  C     -6.068420   -9.620500   -1.634100
  C     -4.792400   -9.938500   -1.323110
  C     -4.345620   -9.926260    0.030290
  C     -3.071410  -10.166940    0.404640
  C     -2.576950  -10.102070    1.754370
  C     -1.268330  -10.513280    2.031890
  O     -0.584430  -10.998530    0.960920
  C      0.826080  -10.981520    0.900570
  C     -0.736390  -10.473700    3.363490
  O      0.526010  -10.965810    3.525070
  C      1.095930  -10.952840    4.811960
  C     -1.482530   -9.984580    4.406530
  C     -2.787310   -9.540200    4.157190
  C     -3.351820   -9.605830    2.837380
  N     -4.597080   -9.133980    2.815490
  S     -5.006670   -8.661800    4.304800
  N     -3.633170   -9.034470    5.051880
  H     -5.811580    4.592300    9.394820
  H     -3.581250    0.220490    8.397720
  H     -3.674750    4.986470   11.169920
  H     -8.137470    0.491590    5.204260
  H     -9.370530    3.190310    5.985640
  H    -11.608540    3.581040    4.613110
  H    -13.067380    2.427220    2.819830
  H    -14.037110    0.753110    1.196940
  H    -14.365240   -1.269910   -0.365110
  H    -13.143120   -3.255250   -1.251610
  H    -11.555580   -4.250520    2.202520
  H     -9.912200   -3.619840    2.067080
  H    -10.631920   -6.539780    2.554490
  H     -9.929070   -5.404710    3.715980
  H     -7.999490   -5.073710    2.132210
  H     -8.469810   -7.936860    3.079030
  H     -7.712060   -6.634690    3.997000
  H     -6.909080   -7.288280    2.569580
  H     -8.965640   -7.573450    0.717120
  H     -7.725940   -6.414130    0.209730
  H     -9.836870   -6.937430   -3.397130
  H     -7.922500   -7.849090   -1.199800
  H     -7.057170  -10.255700   -6.170340
  H     -5.321000  -11.777470   -5.139590
  H     -5.163880  -11.827250   -3.374720
  H     -4.226710  -10.664870   -4.321180
  H     -6.713340   -9.378640   -0.798560
  H     -4.059550  -10.153200   -2.085410
  H     -5.076200   -9.684810    0.788540
  H     -2.336850  -10.433920   -0.342330
  H      1.266020  -11.806320    1.463960
  H      1.236110  -10.036130    1.260800
  H      1.064140  -11.098910   -0.157470
  H      1.186210   -9.934110    5.200630
  H      2.088870  -11.383720    4.692760
  H      0.517270  -11.561660    5.512950
  H     -1.110720   -9.938060    5.414880

 Total Charge           Charge          ....    0
 Multiplicity           Mult            ....    1
 Number of Electrons    NEL             ....  538
 Basis Dimension        Dim             .... 1165

ORBITAL ENERGIES
----------------

  NO   OCC          E(Eh)            E(eV)
   0   2.0000    -482.870917    -13139.5857
   1   2.0000     -89.002939     -2421.8931
   2   2.0000     -88.957495     -2420.6565
   3   2.0000     -88.957067     -2420.6448
   4   2.0000     -88.953086     -2420.5365
   5   2.0000     -88.948752     -2420.4186
   6   2.0000     -88.948068     -2420.4000
   7   2.0000     -62.548640     -1702.0350
   8   2.0000     -56.382570     -1534.2477
   9   2.0000     -56.379893     -1534.1749
  10   2.0000     -56.379851     -1534.1737
  11   2.0000     -19.257545      -524.0245
  12   2.0000     -19.244817      -523.6781
  13   2.0000     -19.187468      -522.1176
  14   2.0000     -14.420698      -392.4071
  15   2.0000     -14.419123      -392.3643
  16   2.0000     -14.391305      -391.6073
  17   2.0000     -14.387526      -391.5045
  18   2.0000     -10.347765      -281.5770
  19   2.0000     -10.342721      -281.4397
  20   2.0000     -10.340785      -281.3871
  21   2.0000     -10.337644      -281.3016
  22   2.0000     -10.330514      -281.1076
  23   2.0000     -10.329488      -281.0797
  24   2.0000     -10.315965      -280.7117
  25   2.0000     -10.315832      -280.7080
  26   2.0000     -10.314778      -280.6794
  27   2.0000     -10.312180      -280.6087
  28   2.0000     -10.309768      -280.5431
  29   2.0000     -10.309252      -280.5290
  30   2.0000     -10.308562      -280.5102
  31   2.0000     -10.308323      -280.5037
  32   2.0000     -10.307509      -280.4816
  33   2.0000     -10.306698      -280.4595
  34   2.0000     -10.304206      -280.3917
  35   2.0000     -10.303772      -280.3799
  36   2.0000     -10.301779      -280.3256
  37   2.0000     -10.296392      -280.1791
  38   2.0000     -10.296116      -280.1715
  39   2.0000     -10.294494      -280.1274
  40   2.0000     -10.293899      -280.1112
  41   2.0000     -10.292833      -280.0822
  42   2.0000     -10.286783      -279.9176
  43   2.0000     -10.286419      -279.9077
  44   2.0000     -10.286070      -279.8982
  45   2.0000     -10.284532      -279.8564
  46   2.0000     -10.284112      -279.8449
  47   2.0000     -10.283673      -279.8330
  48   2.0000     -10.282523      -279.8017
  49   2.0000     -10.282142      -279.7913
  50   2.0000     -10.280352      -279.7426
  51   2.0000     -10.279503      -279.7195
  52   2.0000     -10.278550      -279.6936
  53   2.0000     -10.278409      -279.6897
  54   2.0000     -10.278298      -279.6867
  55   2.0000     -10.277932      -279.6768
  56   2.0000     -10.275162      -279.6014
  57   2.0000     -10.272784      -279.5367
  58   2.0000     -10.268185      -279.4115
  59   2.0000     -10.267399      -279.3901
  60   2.0000     -10.267325      -279.3881
  61   2.0000     -10.265801      -279.3466
  62   2.0000     -10.265015      -279.3252
  63   2.0000     -10.264192      -279.3029
  64   2.0000     -10.261522      -279.2302
  65   2.0000     -10.261077      -279.2181
  66   2.0000     -10.260075      -279.1908
  67   2.0000     -10.259206      -279.1672
  68   2.0000     -10.255586      -279.0687
  69   2.0000     -10.252682      -278.9897
  70   2.0000     -10.246597      -278.8241
  71   2.0000      -8.778062      -238.8632
  72   2.0000      -8.094469      -220.2617
  73   2.0000      -8.053456      -219.1457
  74   2.0000      -8.053061      -219.1349
  75   2.0000      -8.049167      -219.0290
  76   2.0000      -8.044764      -218.9092
  77   2.0000      -8.044062      -218.8901
  78   2.0000      -6.614287      -179.9839
  79   2.0000      -6.599821      -179.5903
  80   2.0000      -6.599670      -179.5862
  81   2.0000      -6.065793      -165.0586
  82   2.0000      -6.058088      -164.8489
  83   2.0000      -6.056637      -164.8095
  84   2.0000      -6.023155      -163.8984
  85   2.0000      -6.022745      -163.8872
  86   2.0000      -6.018889      -163.7823
  87   2.0000      -6.018512      -163.7720
  88   2.0000      -6.018352      -163.7677
  89   2.0000      -6.014580      -163.6650
  90   2.0000      -6.014528      -163.6636
  91   2.0000      -6.014299      -163.6574
  92   2.0000      -6.014276      -163.6568
  93   2.0000      -6.013274      -163.6295
  94   2.0000      -6.011074      -163.5696
  95   2.0000      -6.010295      -163.5484
  96   2.0000      -6.009162      -163.5176
  97   2.0000      -6.006286      -163.4394
  98   2.0000      -6.006049      -163.4329
  99   2.0000      -2.730128       -74.2906
 100   2.0000      -2.726100       -74.1810
 101   2.0000      -2.726028       -74.1790
 102   2.0000      -2.714517       -73.8658
 103   2.0000      -2.714481       -73.8648
 104   2.0000      -1.166794       -31.7501
 105   2.0000      -1.141175       -31.0529
 106   2.0000      -1.104451       -30.0536
 107   2.0000      -1.100228       -29.9387
 108   2.0000      -1.005815       -27.3696
 109   2.0000      -1.000472       -27.2242
 110   2.0000      -0.991574       -26.9821
 111   2.0000      -0.989200       -26.9175
 112   2.0000      -0.980495       -26.6806
 113   2.0000      -0.978637       -26.6301
 114   2.0000      -0.968624       -26.3576
 115   2.0000      -0.964148       -26.2358
 116   2.0000      -0.960843       -26.1459
 117   2.0000      -0.945251       -25.7216
 118   2.0000      -0.921486       -25.0749
 119   2.0000      -0.920094       -25.0370
 120   2.0000      -0.912426       -24.8284
 121   2.0000      -0.898612       -24.4525
 122   2.0000      -0.897135       -24.4123
 123   2.0000      -0.886447       -24.1214
 124   2.0000      -0.882143       -24.0043
 125   2.0000      -0.869084       -23.6490
 126   2.0000      -0.865785       -23.5592
 127   2.0000      -0.863698       -23.5024
 128   2.0000      -0.855239       -23.2722
 129   2.0000      -0.853953       -23.2373
 130   2.0000      -0.851787       -23.1783
 131   2.0000      -0.844141       -22.9703
 132   2.0000      -0.838805       -22.8250
 133   2.0000      -0.829665       -22.5763
 134   2.0000      -0.826906       -22.5013
 135   2.0000      -0.823507       -22.4088
 136   2.0000      -0.808144       -21.9907
 137   2.0000      -0.805015       -21.9056
 138   2.0000      -0.800557       -21.7843
 139   2.0000      -0.790565       -21.5124
 140   2.0000      -0.778475       -21.1834
 141   2.0000      -0.768945       -20.9241
 142   2.0000      -0.760957       -20.7067
 143   2.0000      -0.757441       -20.6110
 144   2.0000      -0.738923       -20.1071
 145   2.0000      -0.733047       -19.9472
 146   2.0000      -0.721546       -19.6343
 147   2.0000      -0.715110       -19.4591
 148   2.0000      -0.710845       -19.3431
 149   2.0000      -0.696696       -18.9581
 150   2.0000      -0.691232       -18.8094
 151   2.0000      -0.688298       -18.7295
 152   2.0000      -0.681866       -18.5545
 153   2.0000      -0.673968       -18.3396
 154   2.0000      -0.668088       -18.1796
 155   2.0000      -0.663849       -18.0642
 156   2.0000      -0.659496       -17.9458
 157   2.0000      -0.647940       -17.6314
 158   2.0000      -0.644229       -17.5304
 159   2.0000      -0.636388       -17.3170
 160   2.0000      -0.635830       -17.3018
 161   2.0000      -0.633297       -17.2329
 162   2.0000      -0.623313       -16.9612
 163   2.0000      -0.621131       -16.9018
 164   2.0000      -0.619114       -16.8470
 165   2.0000      -0.612104       -16.6562
 166   2.0000      -0.608156       -16.5488
 167   2.0000      -0.604877       -16.4595
 168   2.0000      -0.603129       -16.4120
 169   2.0000      -0.600056       -16.3283
 170   2.0000      -0.596982       -16.2447
 171   2.0000      -0.581237       -15.8163
 172   2.0000      -0.576526       -15.6881
 173   2.0000      -0.575894       -15.6709
 174   2.0000      -0.571278       -15.5453
 175   2.0000      -0.569462       -15.4959
 176   2.0000      -0.565914       -15.3993
 177   2.0000      -0.549930       -14.9644
 178   2.0000      -0.545802       -14.8520
 179   2.0000      -0.544263       -14.8101
 180   2.0000      -0.543348       -14.7852
 181   2.0000      -0.535675       -14.5765
 182   2.0000      -0.533564       -14.5190
 183   2.0000      -0.528700       -14.3867
 184   2.0000      -0.527446       -14.3525
 185   2.0000      -0.523469       -14.2443
 186   2.0000      -0.522858       -14.2277
 187   2.0000      -0.520655       -14.1677
 188   2.0000      -0.514970       -14.0130
 189   2.0000      -0.514694       -14.0055
 190   2.0000      -0.513020       -13.9600
 191   2.0000      -0.511585       -13.9209
 192   2.0000      -0.510494       -13.8913
 193   2.0000      -0.508411       -13.8346
 194   2.0000      -0.506712       -13.7883
 195   2.0000      -0.502286       -13.6679
 196   2.0000      -0.502032       -13.6610
 197   2.0000      -0.500789       -13.6272
 198   2.0000      -0.495350       -13.4792
 199   2.0000      -0.493142       -13.4191
 200   2.0000      -0.490068       -13.3354
 201   2.0000      -0.487701       -13.2710
 202   2.0000      -0.484906       -13.1950
 203   2.0000      -0.483924       -13.1682
 204   2.0000      -0.479116       -13.0374
 205   2.0000      -0.476032       -12.9535
 206   2.0000      -0.474572       -12.9137
 207   2.0000      -0.473018       -12.8715
 208   2.0000      -0.472596       -12.8600
 209   2.0000      -0.469508       -12.7760
 210   2.0000      -0.467263       -12.7149
 211   2.0000      -0.462889       -12.5959
 212   2.0000      -0.461234       -12.5508
 213   2.0000      -0.460205       -12.5228
 214   2.0000      -0.459399       -12.5009
 215   2.0000      -0.453993       -12.3538
 216   2.0000      -0.451924       -12.2975
 217   2.0000      -0.449684       -12.2365
 218   2.0000      -0.449086       -12.2203
 219   2.0000      -0.448155       -12.1949
 220   2.0000      -0.441851       -12.0234
 221   2.0000      -0.439945       -11.9715
 222   2.0000      -0.437628       -11.9085
 223   2.0000      -0.436766       -11.8850
 224   2.0000      -0.436129       -11.8677
 225   2.0000      -0.431877       -11.7520
 226   2.0000      -0.428088       -11.6489
 227   2.0000      -0.426801       -11.6138
 228   2.0000      -0.426434       -11.6039
 229   2.0000      -0.421312       -11.4645
 230   2.0000      -0.419868       -11.4252
 231   2.0000      -0.418270       -11.3817
 232   2.0000      -0.416358       -11.3297
 233   2.0000      -0.412873       -11.2348
 234   2.0000      -0.407155       -11.0792
 235   2.0000      -0.406137       -11.0516
 236   2.0000      -0.405520       -11.0348
 237   2.0000      -0.402552       -10.9540
 238   2.0000      -0.399854       -10.8806
 239   2.0000      -0.398703       -10.8493
 240   2.0000      -0.398000       -10.8301
 241   2.0000      -0.391492       -10.6531
 242   2.0000      -0.390242       -10.6190
 243   2.0000      -0.387899       -10.5553
 244   2.0000      -0.384712       -10.4686
 245   2.0000      -0.382949       -10.4206
 246   2.0000      -0.382521       -10.4089
 247   2.0000      -0.377376       -10.2689
 248   2.0000      -0.376227       -10.2377
 249   2.0000      -0.370689       -10.0870
 250   2.0000      -0.369284       -10.0487
 251   2.0000      -0.361311        -9.8318
 252   2.0000      -0.360755        -9.8166
 253   2.0000      -0.347204        -9.4479
 254   2.0000      -0.344927        -9.3860
 255   2.0000      -0.341276        -9.2866
 256   2.0000      -0.336738        -9.1631
 257   2.0000      -0.325909        -8.8684
 258   2.0000      -0.316780        -8.6200
 259   2.0000      -0.310714        -8.4550
 260   2.0000      -0.308549        -8.3961
 261   2.0000      -0.297940        -8.1074
 262   2.0000      -0.294844        -8.0231
 263   2.0000      -0.288889        -7.8611
 264   2.0000      -0.286635        -7.7997
 265   2.0000      -0.273305        -7.4370
 266   2.0000      -0.257908        -7.0180
 267   2.0000      -0.235513        -6.4086
 268   2.0000      -0.210094        -5.7170
 269   0.0000      -0.102493        -2.7890
 270   0.0000      -0.057489        -1.5643
 271   0.0000      -0.047182        -1.2839
 272   0.0000      -0.036517        -0.9937
 273   0.0000      -0.020035        -0.5452

MULLIKEN ATOMIC CHARGES
-----------------------
   0 C :    0.333568
   1 C :   -0.376213
   2 C :   -0.193766
   3 N :    0.127020
   4 C :   -0.188397
   5 N :    0.118036
   6 C :    0.009130
   7 C :   -0.008593
   8 C :   -0.080087
   9 C :    0.118990
  10 C :   -0.093156
  11 C :   -0.027086
  12 S :    0.173468
  13 C :   -0.124408
  14 C :    0.037167
  15 Br:    0.007330
  16 C :    0.131714
  17 O :   -0.170071
  18 C :   -0.092368
  19 C :   -0.043125
  20 C :   -0.024019
  21 C :    0.007622
  22 C :    0.017128
  23 C :    0.046352
  24 C :   -0.055545
  25 S :    0.093885
  26 C :   -0.020375
  27 C :    0.019045
  28 C :    0.046808
  29 C :   -0.044332
  30 S :    0.097991
  31 C :    0.027830
  32 C :   -0.160180
  33 S :    0.115752
  34 C :   -0.103664
  35 C :   -0.077199
  36 C :   -0.068101
  37 C :    0.118245
  38 C :    0.056779
  39 C :   -0.142195
  40 C :    0.076542
  41 C :    0.115450
  42 C :    0.034436
  43 C :    0.009255
  44 C :   -0.117725
  45 S :    0.104546
  46 C :   -0.113668
  47 C :   -0.084732
  48 C :    0.111360
  49 C :    0.146283
  50 C :   -0.073273
  51 C :    0.023950
  52 C :    0.032150
  53 C :   -0.046203
  54 C :    0.018708
  55 C :    0.124602
  56 O :   -0.318450
  57 C :    0.209342
  58 C :    0.229750
  59 O :   -0.329402
  60 C :    0.181323
  61 C :   -0.200078
  62 C :    0.061695
  63 C :    0.030008
  64 N :   -0.302756
  65 S :    0.478346
  66 N :   -0.256916
  67 H :   -0.019317
  68 H :   -0.012943
  69 H :   -0.009492
  70 H :    0.012701
  71 H :    0.010154
  72 H :   -0.006371
  73 H :   -0.009739
  74 H :   -0.009087
  75 H :   -0.002464
  76 H :    0.001697
  77 H :    0.016440
  78 H :    0.048295
  79 H :   -0.001904
  80 H :    0.006597
  81 H :    0.011708
  82 H :   -0.001365
  83 H :    0.014669
  84 H :    0.011591
  85 H :    0.015621
  86 H :    0.041903
  87 H :   -0.019568
  88 H :   -0.037420
  89 H :    0.013274
  90 H :    0.006737
  91 H :    0.031859
  92 H :    0.037117
  93 H :   -0.000769
  94 H :   -0.024681
  95 H :    0.006379
  96 H :   -0.020967
  97 H :    0.028430
  98 H :    0.014982
  99 H :    0.025384
 100 H :    0.031610
 101 H :    0.037947
 102 H :    0.030077
 103 H :   -0.034606
Sum of atomic charges:   -0.0000000

LOEWDIN ATOMIC CHARGES
----------------------
   0 C :    0.073508
   1 C :   -0.168487
   2 C :   -0.019331
   3 N :   -0.080072
   4 C :   -0.019180
   5 N :   -0.083075
   6 C :   -0.016891
   7 C :   -0.047181
   8 C :    0.014376
   9 C :   -0.038119
  10 C :   -0.147126
  11 C :   -0.015941
  12 S :    0.422284
  13 C :   -0.277181
  14 C :   -0.070902
  15 Br:    0.124110
  16 C :    0.079790
  17 O :   -0.165085
  18 C :   -0.120280
  19 C :    0.045587
  20 C :   -0.081900
  21 C :   -0.101556
  22 C :   -0.054434
  23 C :   -0.007380
  24 C :   -0.206390
  25 S :    0.412396
  26 C :   -0.141127
  27 C :   -0.053128
  28 C :   -0.005338
  29 C :   -0.175561
  30 S :    0.436998
  31 C :   -0.030604
  32 C :   -0.192943
  33 S :    0.429299
  34 C :   -0.145222
  35 C :   -0.055305
  36 C :   -0.029982
  37 C :   -0.040143
  38 C :   -0.019387
  39 C :   -0.029821
  40 C :   -0.053590
  41 C :   -0.025722
  42 C :   -0.061783
  43 C :   -0.020942
  44 C :   -0.174417
  45 S :    0.425718
  46 C :   -0.183617
  47 C :   -0.055862
  48 C :   -0.045169
  49 C :   -0.046534
  50 C :   -0.030613
  51 C :   -0.012990
  52 C :   -0.018513
  53 C :   -0.021856
  54 C :   -0.057252
  55 C :    0.053750
  56 O :   -0.097511
  57 C :    0.078611
  58 C :    0.042204
  59 O :   -0.095757
  60 C :    0.079570
  61 C :   -0.083080
  62 C :   -0.054297
  63 C :   -0.042101
  64 N :   -0.291034
  65 S :    0.625498
  66 N :   -0.288264
  67 H :    0.037363
  68 H :    0.039074
  69 H :    0.036460
  70 H :    0.028736
  71 H :    0.036909
  72 H :    0.036132
  73 H :    0.033868
  74 H :    0.033551
  75 H :    0.036608
  76 H :    0.038433
  77 H :    0.028329
  78 H :    0.029526
  79 H :    0.019509
  80 H :    0.027709
  81 H :    0.027796
  82 H :    0.020031
  83 H :    0.024994
  84 H :    0.017068
  85 H :    0.030835
  86 H :    0.036389
  87 H :    0.020814
  88 H :    0.031920
  89 H :    0.021320
  90 H :    0.031820
  91 H :    0.036395
  92 H :    0.034838
  93 H :    0.028409
  94 H :    0.024308
  95 H :    0.025018
  96 H :    0.025395
  97 H :    0.014990
  98 H :    0.014651
  99 H :    0.021093
 100 H :    0.019508
 101 H :    0.029425
 102 H :    0.019425
 103 H :    0.037627

  Mayer bond orders larger than 0.100000
B(  0-C ,  1-C ) :   1.5527 B(  0-C ,  6-C ) :   0.9814 B(  0-C , 18-C ) :   1.1449
B(  1-C ,  2-C ) :   1.1556 B(  1-C ,  4-C ) :   1.1591 B(  2-C ,  3-N ) :   2.9577
B(  4-C ,  5-N ) :   2.9564 B(  6-C ,  7-C ) :   1.2803 B(  6-C , 11-C ) :   1.4242
B(  7-C ,  8-C ) :   1.4365 B(  7-C , 16-C ) :   0.9295 B(  8-C ,  9-C ) :   1.2334
B(  8-C , 67-H ) :   1.0163 B(  9-C , 10-C ) :   1.3227 B(  9-C , 14-C ) :   1.1587
B( 10-C , 11-C ) :   1.3159 B( 10-C , 12-S ) :   1.0803 B( 11-C , 68-H ) :   0.9792
B( 12-S , 13-C ) :   1.0849 B( 13-C , 14-C ) :   1.6219 B( 13-C , 15-Br) :   1.0083
B( 14-C , 69-H ) :   1.0003 B( 16-C , 17-O ) :   2.1868 B( 16-C , 18-C ) :   0.9776
B( 18-C , 19-C ) :   1.4244 B( 19-C , 20-C ) :   1.3156 B( 19-C , 70-H ) :   0.9400
B( 20-C , 21-C ) :   1.3603 B( 20-C , 71-H ) :   0.9821 B( 21-C , 22-C ) :   1.2155
B( 21-C , 25-S ) :   1.1019 B( 22-C , 23-C ) :   1.4977 B( 22-C , 72-H ) :   1.0013
B( 23-C , 24-C ) :   1.2552 B( 23-C , 73-H ) :   0.9955 B( 24-C , 25-S ) :   1.0465
B( 24-C , 26-C ) :   1.4120 B( 26-C , 27-C ) :   1.2180 B( 26-C , 30-S ) :   1.1043
B( 27-C , 28-C ) :   1.5536 B( 27-C , 74-H ) :   0.9946 B( 28-C , 29-C ) :   1.1711
B( 28-C , 75-H ) :   0.9979 B( 29-C , 30-S ) :   1.0268 B( 29-C , 31-C ) :   1.5646
B( 31-C , 32-C ) :   1.1920 B( 31-C , 76-H ) :   0.9433 B( 32-C , 33-S ) :   1.0835
B( 32-C , 36-C ) :   1.4147 B( 33-S , 34-C ) :   1.1361 B( 34-C , 35-C ) :   1.4284
B( 34-C , 42-C ) :   1.1656 B( 35-C , 36-C ) :   1.3783 B( 35-C , 41-C ) :   1.0528
B( 36-C , 37-C ) :   1.0487 B( 37-C , 38-C ) :   1.0864 B( 37-C , 77-H ) :   0.9240
B( 37-C , 78-H ) :   0.8855 B( 38-C , 39-C ) :   1.0532 B( 38-C , 79-H ) :   0.9364
B( 38-C , 80-H ) :   0.9336 B( 39-C , 40-C ) :   1.0821 B( 39-C , 41-C ) :   1.0365
B( 39-C , 81-H ) :   0.9223 B( 40-C , 82-H ) :   0.9574 B( 40-C , 83-H ) :   0.9607
B( 40-C , 84-H ) :   0.9572 B( 41-C , 85-H ) :   0.9066 B( 41-C , 86-H ) :   0.8971
B( 42-C , 43-C ) :   1.6289 B( 42-C , 87-H ) :   0.9489 B( 43-C , 44-C ) :   1.1979
B( 43-C , 88-H ) :   0.9500 B( 44-C , 45-S ) :   1.1131 B( 44-C , 49-C ) :   1.4026
B( 45-S , 46-C ) :   1.1403 B( 46-C , 47-C ) :   1.5950 B( 46-C , 89-H ) :   0.9656
B( 47-C , 48-C ) :   1.0938 B( 47-C , 49-C ) :   1.2366 B( 48-C , 90-H ) :   0.9474
B( 48-C , 91-H ) :   0.9453 B( 48-C , 92-H ) :   0.9411 B( 49-C , 50-C ) :   1.0700
B( 50-C , 51-C ) :   1.6746 B( 50-C , 93-H ) :   0.9594 B( 51-C , 52-C ) :   1.1055
B( 51-C , 94-H ) :   0.9912 B( 52-C , 53-C ) :   1.6358 B( 52-C , 95-H ) :   0.9658
B( 53-C , 54-C ) :   1.1224 B( 53-C , 96-H ) :   0.9721 B( 54-C , 55-C ) :   1.4563
B( 54-C , 61-C ) :   0.1156 B( 54-C , 63-C ) :   1.1614 B( 55-C , 56-O ) :   1.2001
B( 55-C , 58-C ) :   1.1489 B( 56-O , 57-C ) :   0.9324 B( 57-C , 97-H ) :   0.9746
B( 57-C , 98-H ) :   0.9746 B( 57-C , 99-H ) :   0.9768 B( 58-C , 59-O ) :   1.1332
B( 58-C , 61-C ) :   1.3900 B( 59-O , 60-C ) :   0.9568 B( 60-C ,100-H ) :   0.9690
B( 60-C ,101-H ) :   0.9773 B( 60-C ,102-H ) :   0.9686 B( 61-C , 62-C ) :   1.1355
B( 61-C ,103-H ) :   1.0386 B( 62-C , 63-C ) :   1.1622 B( 62-C , 66-N ) :   1.5480
B( 63-C , 64-N ) :   1.5267 B( 64-N , 65-S ) :   1.2237 B( 64-N , 66-N ) :   0.1451
B( 65-S , 66-N ) :   1.2609

-----------------------------------------------------------------------------
         ABSORPTION SPECTRUM VIA TRANSITION ELECTRIC DIPOLE MOMENTS
-----------------------------------------------------------------------------
State   Energy  Wavelength   fosc         T2         TX        TY        TZ
        (cm-1)    (nm)                  (au**2)     (au)      (au)      (au)
-----------------------------------------------------------------------------
   0    9824.5   1017.9   1.030552708  34.53308   1.27822   4.01568   4.09555
   1   17765.0    562.9   0.742519587  13.76002   3.21747  -1.47774   1.10644
   2   19982.4    500.4   0.622841807  10.26136  -2.52582   1.93080  -0.39194
   3   21976.2    455.0   0.261176531   3.91253  -0.55627   1.58216   1.04874
   4   22389.0    446.6   0.404742363   5.95142  -2.12203   0.94959  -0.73938
   5   24075.6    415.4   0.209426804   2.86372   0.18650  -0.95248  -1.38626
   6   25079.2    398.7   0.136106722   1.78666  -0.79908  -0.74136  -0.77364
   7   26137.0    382.6   0.148029184   1.86452  -0.97404   0.18686  -0.93854
   8   26794.3    373.2   0.174796976   2.14767  -1.31301   0.52175  -0.38918
   9   27462.9    364.1   0.000002732   0.00003  -0.00395  -0.00154  -0.00384
  10   28158.5    355.1   0.027728084   0.32418   0.18974  -0.27112   0.46333
  11   28981.5    345.0   0.000342890   0.00390   0.05565   0.01163   0.02575
  12   29027.3    344.5   0.002062397   0.02339   0.12345  -0.09028   0.00084
  13   29530.3    338.6   0.078035800   0.86997   0.27955   0.07941   0.88629
  14   30414.1    328.8   0.066890761   0.72405   0.68717  -0.43591   0.24866
  15   30610.1    326.7   0.026595915   0.28604  -0.10297  -0.05720   0.52169
  16   31000.4    322.6   0.019644112   0.20861   0.27931  -0.25433  -0.25674
  17   31587.6    316.6   0.070943499   0.73939  -0.38240  -0.65830  -0.39974
  18   31899.6    313.5   0.036743558   0.37920   0.48457  -0.13818   0.35398
  19   32398.6    308.7   0.121211856   1.23167  -0.31896  -0.66089  -0.83256
  20   32485.8    307.8   0.022359650   0.22659  -0.27079  -0.19115  -0.34165
  21   32551.8    307.2   0.340926923   3.44796  -0.95046  -0.80270  -1.37850
  22   33648.6    297.2   0.448999527   4.39293   1.00151   0.88302   1.61561
  23   34091.5    293.3   0.032999534   0.31867   0.41614  -0.13570  -0.35649
  24   34350.1    291.1   0.060092354   0.57593   0.73294  -0.19658   0.00900
  25   34472.7    290.1   0.248460874   2.37279   1.17603  -0.68886  -0.71778
  26   35116.7    284.8   0.044947618   0.42138  -0.18443   0.61943   0.06052
  27   35313.6    283.2   0.066390899   0.61893   0.17204   0.14927   0.75303
  28   35888.0    278.6   0.108741552   0.99752   0.14734  -0.70902  -0.68783
  29   36070.1    277.2   0.091889244   0.83867  -0.29433   0.11332  -0.85977
  30   36863.2    271.3   0.045999046   0.41080   0.21543  -0.25773  -0.54586
  31   37656.5    265.6   0.059992453   0.52448  -0.34883   0.55424  -0.30923
  32   38022.1    263.0   0.245387542   2.12467   0.52762   0.70784   1.15985
  33   38392.3    260.5   0.129812779   1.11314   0.72650  -0.73124   0.22499
  34   38806.6    257.7   0.101480496   0.86090   0.44062  -0.81231  -0.08311
  35   38980.5    256.5   0.081105654   0.68498  -0.23586  -0.20154  -0.76729
  36   39531.4    253.0   0.032877347   0.27380   0.21420   0.17942   0.44241
  37   39892.6    250.7   0.054296556   0.44808  -0.34838   0.57158   0.00147
  38   40183.6    248.9   0.031764702   0.26024   0.29018  -0.41837   0.03163

FINAL SINGLE POINT ENERGY     -7445.696067471277

DIPOLE MOMENT
-------------
                                X             Y             Z
Electronic contribution:     51.74549     151.60283     140.36628
Nuclear contribution   :    -52.55364    -153.35688    -142.69769
                        -----------------------------------------
Total Dipole Moment    :     -0.80816      -1.75406      -2.33141
                        -----------------------------------------
Magnitude (a.u.)       :      3.02743
Magnitude (Debye)      :      7.69511

Rotational constants in cm-1:     0.000737     0.000351     0.000245
Rotational constants in MHz :    22.088037    10.514729     7.353509

                             ****ORCA TERMINATED NORMALLY****
TOTAL RUN TIME: 0 days 0 hours 10 minutes 34 seconds 894 msec
