                         Program Version 4.2.0 -  RELEASE  -
|  1> # ORCA input file
|  2> # SCF done       -188.647238722297          0.000645221903
|  3> ! CAM-B3LYP def2-SVP def2/J RIJCOSX Grid4 TightSCF
|  4> %maxcore 5000
|  5> %tddft
|  6>     Mode sTDDFT
|  7>     Ethresh 5.0
|  8>     maxcore 5000
|  9> end
| 10>
| 11> %pal
| 12>   nprocs 6
| 13>   end
| 14> * xyz 0 1
| 15>    C       -1.75085        -3.83137        -0.81876
| 16>    C       -1.51495        -4.27244         0.46318
| 17>    C       -1.28641        -5.62058         0.80753
| 18>    N       -1.09766        -6.69718         1.15920
| 19>    C       -1.41263        -3.45649         1.60311
| 20>    N       -1.29156        -2.84977         2.57370
| 21>    C       -1.72687        -4.67505        -2.00674
| 22>    C       -1.82672        -3.84678        -3.15009
| 23>    C       -1.81921        -4.34416        -4.42953
| 24>    C       -1.71793        -5.73068        -4.58981
| 25>    C       -1.62597        -6.55228        -3.44099
| 26>    C       -1.62623        -6.04710        -2.14668
| 27>    S       -1.51648        -8.23373        -3.86513
| 28>    C       -1.59309        -7.81604        -5.55606
| 29>    C       -1.69598        -6.48629        -5.79329
| 30>   Br       -1.53150        -9.17369        -6.84817
| 31>    C       -1.94113        -2.43298        -2.73076
| 32>    O       -1.97975        -1.47603        -3.47043
| 33>    C       -1.98725        -2.46704        -1.24660
| 34>    C       -2.27988        -1.43925        -0.38591
| 35>    C       -2.56518        -0.08889        -0.65071
| 36>    O       -2.63120         0.40343        -1.92088
| 37>    C       -3.00732         1.65603        -1.89243
| 38>    C       -3.21172         2.07387        -0.59466
| 39>    N       -3.63002         3.34980        -0.18009
| 40>    O       -3.76415         4.20835        -1.02465
| 41>    O       -3.83118         3.50935         1.01896
| 42>    C       -2.90975         0.94873         0.24814
| 43>    N       -2.98362         1.01206         1.59358
| 44>    C       -2.51207         0.15949         2.53285
| 45>    C       -2.79002         0.29459         3.86235
| 46>    C       -2.29932        -0.53971         4.90121
| 47>    C       -2.74761        -0.19539         6.13677
| 48>    C       -3.62282         0.91876         6.14616
| 49>    S       -3.84915         1.53479         4.52548
| 50>    C       -4.27475         1.48023         7.22499
| 51>    C       -4.20509         1.08718         8.58279
| 52>    C       -5.00254         1.81804         9.40610
| 53>    C       -5.75550         2.82208         8.74215
| 54>    S       -5.38197         2.82476         7.03380
| 55>    C       -6.68086         3.65575         9.31332
| 56>    C       -7.46458         4.57423         8.58750
| 57>    O       -7.25448         4.76545         7.25860
| 58>    C       -8.17800         5.59381         6.79541
| 59>    C       -9.02211         5.99019         7.80992
| 60>    N      -10.05215         6.94831         7.65314
| 61>    O      -10.44228         7.16224         6.52291
| 62>    O      -10.46886         7.50180         8.65196
| 63>    C       -8.57331         5.32574         8.99524
| 64>    N       -9.08267         5.38196        10.27435
| 65>    C      -10.37862         5.51473        10.63825
| 66>    C      -11.49281         5.33356         9.87704
| 67>    C      -11.68275         4.72155         8.58384
| 68>    C      -10.98446         3.64107         8.10036
| 69>    C      -11.19806         3.06147         6.83599
| 70>    N      -11.30620         2.57217         5.80309
| 71>    C      -10.05171         2.94321         8.89024
| 72>    N       -9.33751         2.32880         9.54888
| 73>    C      -12.88358         5.30209         8.00228
| 74>    C      -13.55322         6.04623         9.00714
| 75>    C      -12.76110         6.01037        10.25633
| 76>    O      -13.05365         6.45913        11.33871
| 77>    C      -14.73241         6.70439         8.76266
| 78>    C      -15.26177         6.63698         7.46810
| 79>    C      -14.57478         5.90232         6.47242
| 80>    C      -13.38853         5.22317         6.72000
| 81>    S      -15.39681         5.97049         4.94452
| 82>    C      -16.63958         6.96538         5.65392
| 83>    C      -16.44929         7.23687         6.96698
| 84>   Br      -18.07189         7.55128         4.59567
| 85>    H       -1.89199        -3.68515        -5.28040
| 86>    H       -1.55704        -6.71548        -1.30499
| 87>    H       -1.75460        -6.05501        -6.77594
| 88>    H       -2.36210        -1.70131         0.65700
| 89>    H       -3.11504         2.18922        -2.81801
| 90>    H       -3.41577         1.88162         1.92938
| 91>    H       -1.86361        -0.64730         2.22951
| 92>    H       -1.64656        -1.36538         4.68300
| 93>    H       -2.48529        -0.71255         7.04159
| 94>    H       -3.57722         0.27817         8.90972
| 95>    H       -5.09437         1.66334        10.46603
| 96>    H       -6.87881         3.55909        10.36858
| 97>    H       -8.16230         5.86633         5.75868
| 98>    H       -8.40122         5.30827        11.01710
| 99>    H      -10.53456         5.88986        11.64265
|100>    H      -15.22905         7.26229         9.54066
|101>    H      -12.88559         4.68672         5.93207
|102>    H      -17.11624         7.83669         7.55891
|103> *
|104>
|105>                          ****END OF INPUT****

CARTESIAN COORDINATES (ANGSTROEM)
---------------------------------
  C     -1.750850   -3.831370   -0.818760
  C     -1.514950   -4.272440    0.463180
  C     -1.286410   -5.620580    0.807530
  N     -1.097660   -6.697180    1.159200
  C     -1.412630   -3.456490    1.603110
  N     -1.291560   -2.849770    2.573700
  C     -1.726870   -4.675050   -2.006740
  C     -1.826720   -3.846780   -3.150090
  C     -1.819210   -4.344160   -4.429530
  C     -1.717930   -5.730680   -4.589810
  C     -1.625970   -6.552280   -3.440990
  C     -1.626230   -6.047100   -2.146680
  S     -1.516480   -8.233730   -3.865130
  C     -1.593090   -7.816040   -5.556060
  C     -1.695980   -6.486290   -5.793290
  Br    -1.531500   -9.173690   -6.848170
  C     -1.941130   -2.432980   -2.730760
  O     -1.979750   -1.476030   -3.470430
  C     -1.987250   -2.467040   -1.246600
  C     -2.279880   -1.439250   -0.385910
  C     -2.565180   -0.088890   -0.650710
  O     -2.631200    0.403430   -1.920880
  C     -3.007320    1.656030   -1.892430
  C     -3.211720    2.073870   -0.594660
  N     -3.630020    3.349800   -0.180090
  O     -3.764150    4.208350   -1.024650
  O     -3.831180    3.509350    1.018960
  C     -2.909750    0.948730    0.248140
  N     -2.983620    1.012060    1.593580
  C     -2.512070    0.159490    2.532850
  C     -2.790020    0.294590    3.862350
  C     -2.299320   -0.539710    4.901210
  C     -2.747610   -0.195390    6.136770
  C     -3.622820    0.918760    6.146160
  S     -3.849150    1.534790    4.525480
  C     -4.274750    1.480230    7.224990
  C     -4.205090    1.087180    8.582790
  C     -5.002540    1.818040    9.406100
  C     -5.755500    2.822080    8.742150
  S     -5.381970    2.824760    7.033800
  C     -6.680860    3.655750    9.313320
  C     -7.464580    4.574230    8.587500
  O     -7.254480    4.765450    7.258600
  C     -8.178000    5.593810    6.795410
  C     -9.022110    5.990190    7.809920
  N    -10.052150    6.948310    7.653140
  O    -10.442280    7.162240    6.522910
  O    -10.468860    7.501800    8.651960
  C     -8.573310    5.325740    8.995240
  N     -9.082670    5.381960   10.274350
  C    -10.378620    5.514730   10.638250
  C    -11.492810    5.333560    9.877040
  C    -11.682750    4.721550    8.583840
  C    -10.984460    3.641070    8.100360
  C    -11.198060    3.061470    6.835990
  N    -11.306200    2.572170    5.803090
  C    -10.051710    2.943210    8.890240
  N     -9.337510    2.328800    9.548880
  C    -12.883580    5.302090    8.002280
  C    -13.553220    6.046230    9.007140
  C    -12.761100    6.010370   10.256330
  O    -13.053650    6.459130   11.338710
  C    -14.732410    6.704390    8.762660
  C    -15.261770    6.636980    7.468100
  C    -14.574780    5.902320    6.472420
  C    -13.388530    5.223170    6.720000
  S    -15.396810    5.970490    4.944520
  C    -16.639580    6.965380    5.653920
  C    -16.449290    7.236870    6.966980
  Br   -18.071890    7.551280    4.595670
  H     -1.891990   -3.685150   -5.280400
  H     -1.557040   -6.715480   -1.304990
  H     -1.754600   -6.055010   -6.775940
  H     -2.362100   -1.701310    0.657000
  H     -3.115040    2.189220   -2.818010
  H     -3.415770    1.881620    1.929380
  H     -1.863610   -0.647300    2.229510
  H     -1.646560   -1.365380    4.683000
  H     -2.485290   -0.712550    7.041590
  H     -3.577220    0.278170    8.909720
  H     -5.094370    1.663340   10.466030
  H     -6.878810    3.559090   10.368580
  H     -8.162300    5.866330    5.758680
  H     -8.401220    5.308270   11.017100
  H    -10.534560    5.889860   11.642650
  H    -15.229050    7.262290    9.540660
  H    -12.885590    4.686720    5.932070
  H    -17.116240    7.836690    7.558910

 Total Charge           Charge          ....    0
 Multiplicity           Mult            ....    1
 Number of Electrons    NEL             ....  560
 Basis Dimension        Dim             .... 1122

ORBITAL ENERGIES
----------------

  NO   OCC          E(Eh)            E(eV)
   0   2.0000    -482.888041    -13140.0516
   1   2.0000    -482.876606    -13139.7405
   2   2.0000     -88.977741     -2421.2074
   3   2.0000     -88.964606     -2420.8500
   4   2.0000     -88.954604     -2420.5778
   5   2.0000     -88.946971     -2420.3701
   6   2.0000     -62.565715     -1702.4996
   7   2.0000     -62.554340     -1702.1901
   8   2.0000     -56.399667     -1534.7130
   9   2.0000     -56.396948     -1534.6390
  10   2.0000     -56.396918     -1534.6382
  11   2.0000     -56.388278     -1534.4030
  12   2.0000     -56.385586     -1534.3298
  13   2.0000     -56.385545     -1534.3287
  14   2.0000     -19.334376      -526.1151
  15   2.0000     -19.323841      -525.8284
  16   2.0000     -19.269292      -524.3441
  17   2.0000     -19.267661      -524.2997
  18   2.0000     -19.250087      -523.8215
  19   2.0000     -19.246872      -523.7340
  20   2.0000     -19.214502      -522.8532
  21   2.0000     -19.200818      -522.4808
  22   2.0000     -14.679131      -399.4395
  23   2.0000     -14.658198      -398.8699
  24   2.0000     -14.492182      -394.3523
  25   2.0000     -14.487277      -394.2188
  26   2.0000     -14.431384      -392.6979
  27   2.0000     -14.417488      -392.3198
  28   2.0000     -14.406963      -392.0334
  29   2.0000     -14.405055      -391.9815
  30   2.0000     -10.394005      -282.8353
  31   2.0000     -10.379419      -282.4384
  32   2.0000     -10.368997      -282.1548
  33   2.0000     -10.368176      -282.1324
  34   2.0000     -10.361612      -281.9538
  35   2.0000     -10.361146      -281.9411
  36   2.0000     -10.354343      -281.7560
  37   2.0000     -10.354136      -281.7504
  38   2.0000     -10.352860      -281.7156
  39   2.0000     -10.348608      -281.5999
  40   2.0000     -10.348050      -281.5847
  41   2.0000     -10.347919      -281.5812
  42   2.0000     -10.344398      -281.4854
  43   2.0000     -10.340998      -281.3929
  44   2.0000     -10.337355      -281.2937
  45   2.0000     -10.337190      -281.2893
  46   2.0000     -10.334761      -281.2232
  47   2.0000     -10.334235      -281.2088
  48   2.0000     -10.330830      -281.1162
  49   2.0000     -10.329964      -281.0926
  50   2.0000     -10.327738      -281.0320
  51   2.0000     -10.321370      -280.8587
  52   2.0000     -10.320589      -280.8375
  53   2.0000     -10.317240      -280.7464
  54   2.0000     -10.315097      -280.6881
  55   2.0000     -10.313452      -280.6433
  56   2.0000     -10.310486      -280.5626
  57   2.0000     -10.310242      -280.5560
  58   2.0000     -10.309938      -280.5477
  59   2.0000     -10.309311      -280.5306
  60   2.0000     -10.309238      -280.5286
  61   2.0000     -10.308734      -280.5149
  62   2.0000     -10.304317      -280.3947
  63   2.0000     -10.302793      -280.3532
  64   2.0000     -10.298971      -280.2493
  65   2.0000     -10.295574      -280.1568
  66   2.0000     -10.295267      -280.1485
  67   2.0000     -10.294091      -280.1165
  68   2.0000     -10.293830      -280.1094
  69   2.0000     -10.292410      -280.0707
  70   2.0000     -10.289874      -280.0017
  71   2.0000     -10.289306      -279.9862
  72   2.0000     -10.288936      -279.9762
  73   2.0000     -10.288737      -279.9708
  74   2.0000     -10.286247      -279.9030
  75   2.0000     -10.286172      -279.9010
  76   2.0000     -10.279957      -279.7318
  77   2.0000     -10.277304      -279.6597
  78   2.0000      -8.795130      -239.3276
  79   2.0000      -8.783779      -239.0188
  80   2.0000      -8.073833      -219.7002
  81   2.0000      -8.060706      -219.3430
  82   2.0000      -8.050998      -219.0788
  83   2.0000      -8.043075      -218.8632
  84   2.0000      -6.631405      -180.4497
  85   2.0000      -6.620040      -180.1405
  86   2.0000      -6.616879      -180.0544
  87   2.0000      -6.616662      -180.0485
  88   2.0000      -6.605520      -179.7453
  89   2.0000      -6.605356      -179.7409
  90   2.0000      -6.043518      -164.4525
  91   2.0000      -6.039243      -164.3362
  92   2.0000      -6.035024      -164.2214
  93   2.0000      -6.030376      -164.0949
  94   2.0000      -6.026131      -163.9794
  95   2.0000      -6.021922      -163.8648
  96   2.0000      -6.020810      -163.8346
  97   2.0000      -6.016786      -163.7251
  98   2.0000      -6.012895      -163.6192
  99   2.0000      -6.011744      -163.5879
 100   2.0000      -6.008682      -163.5046
 101   2.0000      -6.003895      -163.3743
 102   2.0000      -2.747324       -74.7585
 103   2.0000      -2.743188       -74.6459
 104   2.0000      -2.743031       -74.6417
 105   2.0000      -2.735885       -74.4472
 106   2.0000      -2.731859       -74.3376
 107   2.0000      -2.731732       -74.3342
 108   2.0000      -2.731470       -74.3271
 109   2.0000      -2.731468       -74.3270
 110   2.0000      -2.720184       -74.0200
 111   2.0000      -2.720176       -74.0197
 112   2.0000      -1.347458       -36.6662
 113   2.0000      -1.329525       -36.1782
 114   2.0000      -1.263690       -34.3868
 115   2.0000      -1.245131       -33.8817
 116   2.0000      -1.167360       -31.7655
 117   2.0000      -1.148172       -31.2434
 118   2.0000      -1.131194       -30.7814
 119   2.0000      -1.117555       -30.4102
 120   2.0000      -1.095079       -29.7986
 121   2.0000      -1.080943       -29.4140
 122   2.0000      -1.028974       -27.9998
 123   2.0000      -1.020305       -27.7639
 124   2.0000      -1.011287       -27.5185
 125   2.0000      -1.003018       -27.2935
 126   2.0000      -1.002735       -27.2858
 127   2.0000      -1.000387       -27.2219
 128   2.0000      -0.993579       -27.0367
 129   2.0000      -0.985255       -26.8102
 130   2.0000      -0.980987       -26.6940
 131   2.0000      -0.978179       -26.6176
 132   2.0000      -0.968683       -26.3592
 133   2.0000      -0.950419       -25.8622
 134   2.0000      -0.949993       -25.8506
 135   2.0000      -0.931219       -25.3397
 136   2.0000      -0.930186       -25.3116
 137   2.0000      -0.916078       -24.9277
 138   2.0000      -0.912104       -24.8196
 139   2.0000      -0.898089       -24.4382
 140   2.0000      -0.892977       -24.2991
 141   2.0000      -0.888812       -24.1858
 142   2.0000      -0.882511       -24.0143
 143   2.0000      -0.875933       -23.8354
 144   2.0000      -0.874519       -23.7969
 145   2.0000      -0.861131       -23.4326
 146   2.0000      -0.852513       -23.1981
 147   2.0000      -0.844625       -22.9834
 148   2.0000      -0.834355       -22.7039
 149   2.0000      -0.831453       -22.6250
 150   2.0000      -0.829591       -22.5743
 151   2.0000      -0.826863       -22.5001
 152   2.0000      -0.818241       -22.2655
 153   2.0000      -0.816947       -22.2303
 154   2.0000      -0.797618       -21.7043
 155   2.0000      -0.782003       -21.2794
 156   2.0000      -0.768016       -20.8988
 157   2.0000      -0.764337       -20.7987
 158   2.0000      -0.754232       -20.5237
 159   2.0000      -0.746341       -20.3090
 160   2.0000      -0.736116       -20.0307
 161   2.0000      -0.726521       -19.7697
 162   2.0000      -0.721958       -19.6455
 163   2.0000      -0.707388       -19.2490
 164   2.0000      -0.696380       -18.9495
 165   2.0000      -0.691499       -18.8166
 166   2.0000      -0.688590       -18.7375
 167   2.0000      -0.687149       -18.6983
 168   2.0000      -0.677928       -18.4474
 169   2.0000      -0.674113       -18.3436
 170   2.0000      -0.665801       -18.1174
 171   2.0000      -0.664354       -18.0780
 172   2.0000      -0.661078       -17.9888
 173   2.0000      -0.659344       -17.9417
 174   2.0000      -0.657179       -17.8827
 175   2.0000      -0.650800       -17.7092
 176   2.0000      -0.646585       -17.5945
 177   2.0000      -0.642831       -17.4923
 178   2.0000      -0.642354       -17.4793
 179   2.0000      -0.631464       -17.1830
 180   2.0000      -0.626499       -17.0479
 181   2.0000      -0.625310       -17.0155
 182   2.0000      -0.620825       -16.8935
 183   2.0000      -0.614800       -16.7295
 184   2.0000      -0.614235       -16.7142
 185   2.0000      -0.612339       -16.6626
 186   2.0000      -0.603159       -16.4128
 187   2.0000      -0.600576       -16.3425
 188   2.0000      -0.599311       -16.3081
 189   2.0000      -0.596955       -16.2440
 190   2.0000      -0.589989       -16.0544
 191   2.0000      -0.585642       -15.9361
 192   2.0000      -0.585212       -15.9244
 193   2.0000      -0.584205       -15.8970
 194   2.0000      -0.580650       -15.8003
 195   2.0000      -0.576140       -15.6776
 196   2.0000      -0.568937       -15.4816
 197   2.0000      -0.556117       -15.1327
 198   2.0000      -0.553136       -15.0516
 199   2.0000      -0.550189       -14.9714
 200   2.0000      -0.543481       -14.7889
 201   2.0000      -0.541723       -14.7410
 202   2.0000      -0.539969       -14.6933
 203   2.0000      -0.536571       -14.6008
 204   2.0000      -0.534816       -14.5531
 205   2.0000      -0.528636       -14.3849
 206   2.0000      -0.528119       -14.3708
 207   2.0000      -0.527717       -14.3599
 208   2.0000      -0.526029       -14.3140
 209   2.0000      -0.518638       -14.1128
 210   2.0000      -0.515363       -14.0238
 211   2.0000      -0.513319       -13.9681
 212   2.0000      -0.512136       -13.9359
 213   2.0000      -0.510848       -13.9009
 214   2.0000      -0.501977       -13.6595
 215   2.0000      -0.498595       -13.5675
 216   2.0000      -0.497927       -13.5493
 217   2.0000      -0.497381       -13.5344
 218   2.0000      -0.497020       -13.5246
 219   2.0000      -0.496135       -13.5005
 220   2.0000      -0.494246       -13.4491
 221   2.0000      -0.491994       -13.3878
 222   2.0000      -0.482808       -13.1379
 223   2.0000      -0.481971       -13.1151
 224   2.0000      -0.480476       -13.0744
 225   2.0000      -0.478252       -13.0139
 226   2.0000      -0.472872       -12.8675
 227   2.0000      -0.466120       -12.6838
 228   2.0000      -0.465450       -12.6655
 229   2.0000      -0.463370       -12.6089
 230   2.0000      -0.461294       -12.5525
 231   2.0000      -0.460819       -12.5395
 232   2.0000      -0.450639       -12.2625
 233   2.0000      -0.449903       -12.2425
 234   2.0000      -0.447771       -12.1845
 235   2.0000      -0.443661       -12.0726
 236   2.0000      -0.442874       -12.0512
 237   2.0000      -0.439071       -11.9477
 238   2.0000      -0.437177       -11.8962
 239   2.0000      -0.436110       -11.8672
 240   2.0000      -0.435137       -11.8407
 241   2.0000      -0.434480       -11.8228
 242   2.0000      -0.429949       -11.6995
 243   2.0000      -0.429237       -11.6801
 244   2.0000      -0.428360       -11.6563
 245   2.0000      -0.424165       -11.5421
 246   2.0000      -0.415376       -11.3029
 247   2.0000      -0.415090       -11.2952
 248   2.0000      -0.413491       -11.2517
 249   2.0000      -0.407622       -11.0920
 250   2.0000      -0.406788       -11.0693
 251   2.0000      -0.404000       -10.9934
 252   2.0000      -0.402465       -10.9516
 253   2.0000      -0.400464       -10.8972
 254   2.0000      -0.400122       -10.8879
 255   2.0000      -0.397776       -10.8240
 256   2.0000      -0.394589       -10.7373
 257   2.0000      -0.388751       -10.5784
 258   2.0000      -0.388129       -10.5615
 259   2.0000      -0.383562       -10.4373
 260   2.0000      -0.379122       -10.3164
 261   2.0000      -0.377864       -10.2822
 262   2.0000      -0.377205       -10.2643
 263   2.0000      -0.371449       -10.1076
 264   2.0000      -0.366327        -9.9683
 265   2.0000      -0.362109        -9.8535
 266   2.0000      -0.347656        -9.4602
 267   2.0000      -0.346018        -9.4156
 268   2.0000      -0.340539        -9.2665
 269   2.0000      -0.335834        -9.1385
 270   2.0000      -0.328901        -8.9499
 271   2.0000      -0.325016        -8.8441
 272   2.0000      -0.317834        -8.6487
 273   2.0000      -0.310024        -8.4362
 274   2.0000      -0.303299        -8.2532
 275   2.0000      -0.297695        -8.1007
 276   2.0000      -0.291026        -7.9192
 277   2.0000      -0.281939        -7.6719
 278   2.0000      -0.271531        -7.3887
 279   2.0000      -0.216045        -5.8789
 280   0.0000      -0.103519        -2.8169
 281   0.0000      -0.080053        -2.1784
 282   0.0000      -0.068853        -1.8736
 283   0.0000      -0.065241        -1.7753
 284   0.0000      -0.054399        -1.4803

MULLIKEN ATOMIC CHARGES
-----------------------
   0 C :    0.306580
   1 C :   -0.362368
   2 C :   -0.185670
   3 N :    0.149608
   4 C :   -0.157110
   5 N :    0.120746
   6 C :    0.013861
   7 C :   -0.016697
   8 C :   -0.072780
   9 C :    0.117092
  10 C :   -0.091617
  11 C :   -0.016814
  12 S :    0.186988
  13 C :   -0.122517
  14 C :    0.037883
  15 Br:    0.025797
  16 C :    0.128397
  17 O :   -0.134077
  18 C :   -0.077443
  19 C :   -0.074169
  20 C :    0.024365
  21 O :   -0.115620
  22 C :    0.113679
  23 C :    0.100675
  24 N :    0.290273
  25 O :   -0.226416
  26 O :   -0.265489
  27 C :    0.067068
  28 N :    0.016713
  29 C :    0.033200
  30 C :   -0.057708
  31 C :    0.047811
  32 C :    0.028532
  33 C :   -0.044222
  34 S :    0.069250
  35 C :   -0.053818
  36 C :    0.037726
  37 C :    0.032089
  38 C :   -0.018763
  39 S :    0.100035
  40 C :   -0.050219
  41 C :    0.117380
  42 O :   -0.176191
  43 C :    0.083190
  44 C :    0.144718
  45 N :    0.251835
  46 O :   -0.237640
  47 O :   -0.224737
  48 C :   -0.046150
  49 N :    0.032089
  50 C :    0.083895
  51 C :   -0.163523
  52 C :    0.197729
  53 C :   -0.319608
  54 C :   -0.187412
  55 N :    0.152908
  56 C :   -0.195488
  57 N :    0.149465
  58 C :    0.021167
  59 C :    0.008698
  60 C :    0.155066
  61 O :   -0.149253
  62 C :   -0.079502
  63 C :    0.115755
  64 C :   -0.083830
  65 C :   -0.016581
  66 S :    0.179407
  67 C :   -0.125573
  68 C :    0.038350
  69 Br:    0.014766
  70 H :   -0.009878
  71 H :   -0.005311
  72 H :   -0.002791
  73 H :    0.000221
  74 H :    0.045528
  75 H :    0.158378
  76 H :    0.017572
  77 H :    0.009674
  78 H :   -0.009421
  79 H :   -0.009788
  80 H :   -0.008861
  81 H :   -0.019269
  82 H :    0.030805
  83 H :    0.153729
  84 H :    0.028054
  85 H :   -0.012666
  86 H :   -0.006638
  87 H :   -0.005122
Sum of atomic charges:   -0.0000000

LOEWDIN ATOMIC CHARGES
----------------------
   0 C :    0.083350
   1 C :   -0.159552
   2 C :   -0.020785
   3 N :   -0.056515
   4 C :    0.001273
   5 N :   -0.075314
   6 C :   -0.024170
   7 C :   -0.048545
   8 C :    0.020059
   9 C :   -0.031154
  10 C :   -0.145306
  11 C :   -0.008526
  12 S :    0.433321
  13 C :   -0.270620
  14 C :   -0.070698
  15 Br:    0.138507
  16 C :    0.073118
  17 O :   -0.139486
  18 C :   -0.104191
  19 C :    0.037126
  20 C :   -0.025127
  21 O :    0.078726
  22 C :    0.126337
  23 C :   -0.110014
  24 N :    0.294146
  25 O :   -0.189020
  26 O :   -0.213423
  27 C :    0.033530
  28 N :    0.071468
  29 C :   -0.007539
  30 C :   -0.172846
  31 C :   -0.010394
  32 C :   -0.039643
  33 C :   -0.160245
  34 S :    0.361632
  35 C :   -0.191511
  36 C :   -0.019603
  37 C :   -0.036397
  38 C :   -0.122239
  39 S :    0.387543
  40 C :   -0.090850
  41 C :    0.025457
  42 O :    0.044166
  43 C :    0.078885
  44 C :   -0.088973
  45 N :    0.285978
  46 O :   -0.204699
  47 O :   -0.192009
  48 C :   -0.043195
  49 N :    0.073716
  50 C :    0.108405
  51 C :   -0.148625
  52 C :    0.056568
  53 C :   -0.151676
  54 C :   -0.022563
  55 N :   -0.058696
  56 C :   -0.018697
  57 N :   -0.069485
  58 C :   -0.019965
  59 C :   -0.046786
  60 C :    0.090072
  61 O :   -0.151270
  62 C :    0.021673
  63 C :   -0.033949
  64 C :   -0.143351
  65 C :   -0.009176
  66 S :    0.429014
  67 C :   -0.275078
  68 C :   -0.069855
  69 Br:    0.130474
  70 H :    0.040588
  71 H :    0.041074
  72 H :    0.039012
  73 H :    0.047657
  74 H :    0.048205
  75 H :    0.078108
  76 H :    0.031797
  77 H :    0.039860
  78 H :    0.034089
  79 H :    0.033419
  80 H :    0.035004
  81 H :    0.035952
  82 H :    0.040558
  83 H :    0.100682
  84 H :    0.043070
  85 H :    0.040074
  86 H :    0.040168
  87 H :    0.037898

  Mayer bond orders larger than 0.100000
B(  0-C ,  1-C ) :   1.5874 B(  0-C ,  6-C ) :   1.0079 B(  0-C , 18-C ) :   1.0957
B(  1-C ,  2-C ) :   1.1416 B(  1-C ,  4-C ) :   1.1586 B(  2-C ,  3-N ) :   2.9714
B(  4-C ,  5-N ) :   2.9181 B(  6-C ,  7-C ) :   1.2716 B(  6-C , 11-C ) :   1.4087
B(  7-C ,  8-C ) :   1.4336 B(  7-C , 16-C ) :   0.9354 B(  8-C ,  9-C ) :   1.2438
B(  8-C , 70-H ) :   1.0160 B(  9-C , 10-C ) :   1.3049 B(  9-C , 14-C ) :   1.1644
B( 10-C , 11-C ) :   1.3333 B( 10-C , 12-S ) :   1.0844 B( 11-C , 71-H ) :   0.9793
B( 12-S , 13-C ) :   1.0878 B( 13-C , 14-C ) :   1.6157 B( 13-C , 15-Br) :   1.0207
B( 14-C , 72-H ) :   1.0011 B( 16-C , 17-O ) :   2.2765 B( 16-C , 18-C ) :   0.9234
B( 18-C , 19-C ) :   1.5135 B( 19-C , 20-C ) :   1.2803 B( 19-C , 73-H ) :   0.9249
B( 20-C , 21-O ) :   1.0928 B( 20-C , 27-C ) :   1.2555 B( 21-O , 22-C ) :   1.2762
B( 22-C , 23-C ) :   1.3943 B( 22-C , 74-H ) :   1.0164 B( 23-C , 24-N ) :   0.9532
B( 23-C , 27-C ) :   1.2384 B( 24-N , 25-O ) :   1.5584 B( 24-N , 26-O ) :   1.4582
B( 25-O , 26-O ) :   0.2581 B( 26-O , 75-H ) :   0.1100 B( 27-C , 28-N ) :   1.3190
B( 28-N , 29-C ) :   1.1363 B( 28-N , 75-H ) :   0.8467 B( 29-C , 30-C ) :   1.6169
B( 29-C , 76-H ) :   0.9301 B( 30-C , 31-C ) :   1.1511 B( 30-C , 34-S ) :   1.0174
B( 31-C , 32-C ) :   1.6045 B( 31-C , 77-H ) :   0.9906 B( 32-C , 33-C ) :   1.1747
B( 32-C , 78-H ) :   0.9950 B( 33-C , 34-S ) :   1.0534 B( 33-C , 35-C ) :   1.5244
B( 35-C , 36-C ) :   1.1853 B( 35-C , 39-S ) :   1.0199 B( 36-C , 37-C ) :   1.5941
B( 36-C , 79-H ) :   0.9944 B( 37-C , 38-C ) :   1.1405 B( 37-C , 80-H ) :   1.0003
B( 38-C , 39-S ) :   1.0620 B( 38-C , 40-C ) :   1.5770 B( 40-C , 41-C ) :   1.1828
B( 40-C , 81-H ) :   0.9542 B( 41-C , 42-O ) :   1.1116 B( 41-C , 48-C ) :   1.3853
B( 42-O , 43-C ) :   1.1834 B( 43-C , 44-C ) :   1.4537 B( 43-C , 82-H ) :   1.0156
B( 44-C , 45-N ) :   0.9155 B( 44-C , 48-C ) :   1.2683 B( 45-N , 46-O ) :   1.5331
B( 45-N , 47-O ) :   1.5307 B( 46-O , 47-O ) :   0.2649 B( 48-C , 49-N ) :   1.1165
B( 49-N , 50-C ) :   1.2725 B( 49-N , 83-H ) :   0.9021 B( 50-C , 51-C ) :   1.6018
B( 50-C , 84-H ) :   0.9233 B( 51-C , 52-C ) :   1.0640 B( 51-C , 60-C ) :   0.9591
B( 52-C , 53-C ) :   1.6202 B( 52-C , 58-C ) :   1.0178 B( 53-C , 54-C ) :   1.1291
B( 53-C , 56-C ) :   1.1790 B( 54-C , 55-N ) :   2.9930 B( 56-C , 57-N ) :   2.9770
B( 58-C , 59-C ) :   1.2773 B( 58-C , 65-C ) :   1.4225 B( 59-C , 60-C ) :   0.9186
B( 59-C , 62-C ) :   1.4312 B( 60-C , 61-O ) :   2.2748 B( 62-C , 63-C ) :   1.2463
B( 62-C , 85-H ) :   1.0165 B( 63-C , 64-C ) :   1.3148 B( 63-C , 68-C ) :   1.1636
B( 64-C , 65-C ) :   1.3196 B( 64-C , 66-S ) :   1.0804 B( 65-C , 86-H ) :   0.9846
B( 66-S , 67-C ) :   1.0880 B( 67-C , 68-C ) :   1.6188 B( 67-C , 69-Br) :   1.0135
B( 68-C , 87-H ) :   1.0002

-----------------------------------------------------------------------------
         ABSORPTION SPECTRUM VIA TRANSITION ELECTRIC DIPOLE MOMENTS
-----------------------------------------------------------------------------
State   Energy  Wavelength   fosc         T2         TX        TY        TZ
        (cm-1)    (nm)                  (au**2)     (au)      (au)      (au)
-----------------------------------------------------------------------------
   0   11276.9    886.8   1.057229273  30.86422  -2.68661   3.05683   3.78182
   1   15352.1    651.4   0.244256270   5.23785  -2.09513   0.21111   0.89650
   2   17056.6    586.3   0.068813337   1.32818  -0.56902   0.17428  -0.98692
   3   19536.0    511.9   0.369239191   6.22227  -1.33100   1.41779   1.56224
   4   21600.3    463.0   0.052758025   0.80409   0.43869  -0.52223   0.58216
   5   22657.2    441.4   0.260010104   3.77797   0.47024   1.40337   1.25992
   6   23185.0    431.3   0.082387083   1.16984  -0.95046   0.26796   0.44121
   7   24998.0    400.0   0.096168605   1.26650  -0.30011   0.17778  -1.06997
   8   26824.3    372.8   0.201398106   2.47174   0.02147  -1.02924  -1.18825
   9   26984.4    370.6   0.082314545   1.00425  -0.07565  -0.41994  -0.90674
  10   27293.0    366.4   0.095252499   1.14895   0.33886   1.01690   0.00523
  11   27881.7    358.7   0.475257979   5.61158   1.48910  -1.46761   1.11367
  12   28065.8    356.3   0.046846159   0.54951  -0.33519   0.22972  -0.61999
  13   28546.2    350.3   0.073775122   0.85082  -0.45454   0.78929  -0.14569
  14   29433.9    339.7   0.012263829   0.13717   0.01862  -0.14757   0.33918
  15   29695.4    336.8   0.012049880   0.13359   0.11263  -0.34771  -0.00194
  16   30228.3    330.8   0.101741677   1.10805  -0.32901   0.92610   0.37701
  17   30506.2    327.8   0.040800335   0.44030   0.04567   0.38206   0.54060
  18   31295.2    319.5   0.009838489   0.10350  -0.00474  -0.00832   0.32157
  19   31375.2    318.7   0.115920977   1.21633   0.16893   0.79759   0.74272
  20   31688.4    315.6   0.017353014   0.18028   0.24755  -0.33470   0.08353
  21   31741.2    315.0   0.225292860   2.33668  -0.28390   0.13352  -1.49608
  22   32189.2    310.7   0.011462193   0.11723  -0.20122  -0.27619  -0.02146
  23   32424.2    308.4   0.191491576   1.94427  -0.80876   1.09133   0.31492
  24   32845.5    304.5   0.070397152   0.70559  -0.44297   0.44822  -0.55541
  25   33212.2    301.1   0.212864670   2.11000  -0.23696   0.80502   1.18566
  26   33266.7    300.6   0.079797052   0.78968   0.08779   0.24928   0.84843
  27   33457.4    298.9   0.161830829   1.59237  -0.28353   0.76973   0.95890
  28   33687.7    296.8   0.200102539   1.95550   1.03983  -0.88770   0.29366
  29   33976.3    294.3   0.144863780   1.40365   0.50762  -1.06975   0.04014
  30   34292.2    291.6   0.015804785   0.15173   0.34708   0.17500  -0.02521
  31   34730.1    287.9   0.344293320   3.26361  -1.25985   1.08370  -0.70851
  32   35179.9    284.3   0.135044278   1.26374  -0.12781   0.74271  -0.83414
  33   35222.5    283.9   0.006070722   0.05674  -0.19809   0.13225  -0.00350
  34   35594.3    280.9   0.003375853   0.03122  -0.03909   0.14976   0.08524
  35   35845.5    279.0   0.166656322   1.53061  -0.98664  -0.32742  -0.67077
  36   36122.0    276.8   0.010211509   0.09307   0.20246   0.18125   0.13865
  37   36582.1    273.4   0.029688578   0.26718  -0.45698   0.23857  -0.03786
  38   37091.4    269.6   0.070566945   0.62633  -0.78478  -0.08014   0.06342
  39   37610.6    265.9   0.014543386   0.12730  -0.30117  -0.18243  -0.05758
  40   37773.6    264.7   0.008954713   0.07804   0.18895   0.13810  -0.15254
  41   37865.1    264.1   0.135785214   1.18056  -0.54291   0.74285  -0.57791
  42   38350.6    260.8   0.234323233   2.01150  -0.75685   1.19925  -0.02135
  43   38381.0    260.5   0.061852625   0.53054   0.24219   0.39609  -0.56125
  44   38511.7    259.7   0.014380310   0.12293  -0.32044   0.00091   0.14230
  45   38588.3    259.1   0.004609652   0.03933   0.13051  -0.00431  -0.14925
  46   38788.1    257.8   0.002900767   0.02462  -0.01491   0.12568   0.09275
  47   38978.0    256.6   0.027652508   0.23356  -0.46404   0.01115  -0.13454
  48   39418.6    253.7   0.126257230   1.05446   0.36234  -0.84234   0.46221
  49   39682.7    252.0   0.003485871   0.02892  -0.02560   0.09211  -0.14064
  50   40232.4    248.6   0.014787321   0.12100  -0.03662   0.33199   0.09719
  51   40322.3    248.0   0.020547968   0.16776   0.10860  -0.26754   0.29050

FINAL SINGLE POINT ENERGY     -9616.071309566745

DIPOLE MOMENT
-------------
                                X             Y             Z
Electronic contribution:    -67.19672     -41.53435    -104.15390
Nuclear contribution   :     69.14731      41.33408     102.82498
                        -----------------------------------------
Total Dipole Moment    :      1.95059      -0.20026      -1.32893
                        -----------------------------------------
Magnitude (a.u.)       :      2.36874
Magnitude (Debye)      :      6.02087

Rotational constants in cm-1:     0.001103     0.000197     0.000180
Rotational constants in MHz :    33.053278     5.904440     5.397534

                             ****ORCA TERMINATED NORMALLY****
TOTAL RUN TIME: 0 days 0 hours 9 minutes 20 seconds 352 msec
