                         Program Version 4.2.0 -  RELEASE  -
|  1> # ORCA input file
|  2> # SCF done       -152.886507140537          0.000666043365
|  3> ! CAM-B3LYP def2-SVP def2/J RIJCOSX Grid4 TightSCF
|  4> %maxcore 5000
|  5> %tddft
|  6>     Mode sTDDFT
|  7>     Ethresh 5.0
|  8>     maxcore 5000
|  9> end
| 10>
| 11> %pal
| 12>   nprocs 6
| 13>   end
| 14> * xyz 0 1
| 15>    C        1.56883        -4.52576         5.09888
| 16>    C        2.85692        -4.62324         4.74384
| 17>    C        4.01316        -4.29744         5.53057
| 18>    C        5.19009        -4.50021         4.90031
| 19>    C        5.06459        -5.00153         3.57213
| 20>    S        3.37876        -5.20338         3.15370
| 21>    C        6.07886        -5.30778         2.69562
| 22>    C        7.47607        -5.19538         2.90704
| 23>    C        8.22482        -5.58990         1.84432
| 24>    C        7.46390        -6.03879         0.73275
| 25>    S        5.75494        -5.93043         1.08661
| 26>    C        7.95555        -6.51277        -0.45778
| 27>    C        7.14357        -6.96202        -1.50790
| 28>    O        5.78395        -6.91459        -1.39873
| 29>    C        7.45625        -7.51250        -2.74489
| 30>    C        8.55464        -7.90392        -3.61898
| 31>    O        9.75129        -7.83733        -3.48518
| 32>    N        7.90675        -8.42017        -4.74696
| 33>    C        6.51918        -8.40327        -4.68936
| 34>    O        5.78267        -8.81137        -5.55784
| 35>    C        6.23088        -7.80829        -3.38698
| 36>    C        5.21167        -7.42303        -2.52630
| 37>    C        3.80805        -7.47961        -2.63822
| 38>    C        3.19873        -8.01487        -3.73427
| 39>    C        1.81086        -8.12249        -3.91779
| 40>    C        1.15900        -8.73148        -5.01259
| 41>    C       -0.25960        -8.70648        -4.89396
| 42>    C       -1.05585        -9.28187        -5.89974
| 43>    C       -0.44854        -9.85946        -6.98201
| 44>    C        0.95166        -9.88152        -7.10132
| 45>    C        1.75299        -9.32932        -6.13811
| 46>    C       -0.68130        -8.06403        -3.71200
| 47>    S        0.66156        -7.51360        -2.77010
| 48>    C       -1.98867        -7.83116        -3.24714
| 49>    O       -3.07496        -8.29147        -3.92797
| 50>    C       -2.43818        -7.15427        -2.12348
| 51>    C       -2.00521        -6.41420        -0.94483
| 52>    O       -0.90286        -6.13542        -0.54011
| 53>    N       -3.20307        -6.06443        -0.32197
| 54>    C       -4.36058        -6.50112        -0.96896
| 55>    O       -5.48453        -6.29745        -0.58329
| 56>    C       -3.85193        -7.21016        -2.14086
| 57>    C       -4.21909        -7.92650        -3.26914
| 58>    C       -5.47903        -8.30675        -3.76868
| 59>    C       -5.62469        -9.08241        -4.88456
| 60>    C       -6.84917        -9.50827        -5.41112
| 61>    C       -6.95728       -10.32225        -6.51285
| 62>    C       -8.14878       -10.81529        -7.10140
| 63>    C       -7.95172       -11.62169        -8.17842
| 64>    C       -6.58820       -11.81516        -8.51024
| 65>    S       -5.56582       -10.92430        -7.39914
| 66>    C       -6.06380       -12.57529        -9.52927
| 67>    C       -6.77818       -13.35217       -10.48439
| 68>    C       -5.99384       -14.00619       -11.36904
| 69>    C       -4.58655       -13.79559       -11.18302
| 70>    S       -4.33988       -12.70854        -9.80649
| 71>    C       -3.57751       -14.30929       -11.89923
| 72>    H        1.29245        -4.16871         6.07539
| 73>    H        0.77711        -4.79858         4.42542
| 74>    H        3.90696        -3.92577         6.53432
| 75>    H        6.15399        -4.31028         5.33797
| 76>    H        7.88509        -4.83083         3.83224
| 77>    H        9.29988        -5.58051         1.81376
| 78>    H        9.02157        -6.56558        -0.61452
| 79>    H        8.41342        -8.78108        -5.54228
| 80>    H        3.23280        -7.08781        -1.81123
| 81>    H        3.82137        -8.40064        -4.53021
| 82>    H       -2.12904        -9.26306        -5.80999
| 83>    H       -1.05146       -10.30625        -7.75853
| 84>    H        1.39664       -10.34293        -7.96999
| 85>    H        2.82696        -9.34776        -6.23612
| 86>    H       -3.23296        -5.53361         0.53632
| 87>    H       -6.33476        -7.96290        -3.20747
| 88>    H       -4.72984        -9.40792        -5.40022
| 89>    H       -7.76267        -9.19301        -4.92521
| 90>    H       -9.11404       -10.55672        -6.70279
| 91>    H       -8.74326       -12.08263        -8.74161
| 92>    H       -7.85276       -13.39797       -10.47682
| 93>    H       -6.35344       -14.64119       -12.15917
| 94>    H       -3.77117       -14.96676       -12.72815
| 95>    H       -2.55158       -14.08481       -11.67176
| 96> *
| 97>
| 98>                          ****END OF INPUT****

CARTESIAN COORDINATES (ANGSTROEM)
---------------------------------
  C      1.568830   -4.525760    5.098880
  C      2.856920   -4.623240    4.743840
  C      4.013160   -4.297440    5.530570
  C      5.190090   -4.500210    4.900310
  C      5.064590   -5.001530    3.572130
  S      3.378760   -5.203380    3.153700
  C      6.078860   -5.307780    2.695620
  C      7.476070   -5.195380    2.907040
  C      8.224820   -5.589900    1.844320
  C      7.463900   -6.038790    0.732750
  S      5.754940   -5.930430    1.086610
  C      7.955550   -6.512770   -0.457780
  C      7.143570   -6.962020   -1.507900
  O      5.783950   -6.914590   -1.398730
  C      7.456250   -7.512500   -2.744890
  C      8.554640   -7.903920   -3.618980
  O      9.751290   -7.837330   -3.485180
  N      7.906750   -8.420170   -4.746960
  C      6.519180   -8.403270   -4.689360
  O      5.782670   -8.811370   -5.557840
  C      6.230880   -7.808290   -3.386980
  C      5.211670   -7.423030   -2.526300
  C      3.808050   -7.479610   -2.638220
  C      3.198730   -8.014870   -3.734270
  C      1.810860   -8.122490   -3.917790
  C      1.159000   -8.731480   -5.012590
  C     -0.259600   -8.706480   -4.893960
  C     -1.055850   -9.281870   -5.899740
  C     -0.448540   -9.859460   -6.982010
  C      0.951660   -9.881520   -7.101320
  C      1.752990   -9.329320   -6.138110
  C     -0.681300   -8.064030   -3.712000
  S      0.661560   -7.513600   -2.770100
  C     -1.988670   -7.831160   -3.247140
  O     -3.074960   -8.291470   -3.927970
  C     -2.438180   -7.154270   -2.123480
  C     -2.005210   -6.414200   -0.944830
  O     -0.902860   -6.135420   -0.540110
  N     -3.203070   -6.064430   -0.321970
  C     -4.360580   -6.501120   -0.968960
  O     -5.484530   -6.297450   -0.583290
  C     -3.851930   -7.210160   -2.140860
  C     -4.219090   -7.926500   -3.269140
  C     -5.479030   -8.306750   -3.768680
  C     -5.624690   -9.082410   -4.884560
  C     -6.849170   -9.508270   -5.411120
  C     -6.957280  -10.322250   -6.512850
  C     -8.148780  -10.815290   -7.101400
  C     -7.951720  -11.621690   -8.178420
  C     -6.588200  -11.815160   -8.510240
  S     -5.565820  -10.924300   -7.399140
  C     -6.063800  -12.575290   -9.529270
  C     -6.778180  -13.352170  -10.484390
  C     -5.993840  -14.006190  -11.369040
  C     -4.586550  -13.795590  -11.183020
  S     -4.339880  -12.708540   -9.806490
  C     -3.577510  -14.309290  -11.899230
  H      1.292450   -4.168710    6.075390
  H      0.777110   -4.798580    4.425420
  H      3.906960   -3.925770    6.534320
  H      6.153990   -4.310280    5.337970
  H      7.885090   -4.830830    3.832240
  H      9.299880   -5.580510    1.813760
  H      9.021570   -6.565580   -0.614520
  H      8.413420   -8.781080   -5.542280
  H      3.232800   -7.087810   -1.811230
  H      3.821370   -8.400640   -4.530210
  H     -2.129040   -9.263060   -5.809990
  H     -1.051460  -10.306250   -7.758530
  H      1.396640  -10.342930   -7.969990
  H      2.826960   -9.347760   -6.236120
  H     -3.232960   -5.533610    0.536320
  H     -6.334760   -7.962900   -3.207470
  H     -4.729840   -9.407920   -5.400220
  H     -7.762670   -9.193010   -4.925210
  H     -9.114040  -10.556720   -6.702790
  H     -8.743260  -12.082630   -8.741610
  H     -7.852760  -13.397970  -10.476820
  H     -6.353440  -14.641190  -12.159170
  H     -3.771170  -14.966760  -12.728150
  H     -2.551580  -14.084810  -11.671760

 Total Charge           Charge          ....    0
 Multiplicity           Mult            ....    1
 Number of Electrons    NEL             ....  430
 Basis Dimension        Dim             ....  938

ORBITAL ENERGIES
----------------

  NO   OCC          E(Eh)            E(eV)
   0   2.0000     -88.963202     -2420.8118
   1   2.0000     -88.945914     -2420.3414
   2   2.0000     -88.943112     -2420.2651
   3   2.0000     -88.941316     -2420.2162
   4   2.0000     -88.939764     -2420.1740
   5   2.0000     -19.299635      -525.1698
   6   2.0000     -19.297274      -525.1055
   7   2.0000     -19.201665      -522.5039
   8   2.0000     -19.198778      -522.4253
   9   2.0000     -19.197004      -522.3770
  10   2.0000     -19.195358      -522.3323
  11   2.0000     -14.441876      -392.9834
  12   2.0000     -14.441584      -392.9755
  13   2.0000     -10.388726      -282.6916
  14   2.0000     -10.387389      -282.6552
  15   2.0000     -10.386758      -282.6380
  16   2.0000     -10.384731      -282.5829
  17   2.0000     -10.357961      -281.8545
  18   2.0000     -10.349378      -281.6209
  19   2.0000     -10.348451      -281.5957
  20   2.0000     -10.347829      -281.5787
  21   2.0000     -10.315570      -280.7009
  22   2.0000     -10.313930      -280.6563
  23   2.0000     -10.312106      -280.6067
  24   2.0000     -10.311590      -280.5926
  25   2.0000     -10.311317      -280.5852
  26   2.0000     -10.310435      -280.5612
  27   2.0000     -10.308102      -280.4977
  28   2.0000     -10.307831      -280.4903
  29   2.0000     -10.304080      -280.3883
  30   2.0000     -10.301925      -280.3296
  31   2.0000     -10.293313      -280.0953
  32   2.0000     -10.292341      -280.0688
  33   2.0000     -10.291071      -280.0343
  34   2.0000     -10.289264      -279.9851
  35   2.0000     -10.289252      -279.9848
  36   2.0000     -10.288014      -279.9511
  37   2.0000     -10.286257      -279.9033
  38   2.0000     -10.283543      -279.8294
  39   2.0000     -10.283088      -279.8171
  40   2.0000     -10.282625      -279.8045
  41   2.0000     -10.282002      -279.7875
  42   2.0000     -10.280535      -279.7476
  43   2.0000     -10.280133      -279.7366
  44   2.0000     -10.279163      -279.7102
  45   2.0000     -10.278448      -279.6908
  46   2.0000     -10.277907      -279.6761
  47   2.0000     -10.277670      -279.6696
  48   2.0000     -10.276795      -279.6458
  49   2.0000     -10.274979      -279.5964
  50   2.0000     -10.274564      -279.5851
  51   2.0000     -10.273358      -279.5523
  52   2.0000     -10.273306      -279.5509
  53   2.0000     -10.267933      -279.4047
  54   2.0000     -10.267103      -279.3821
  55   2.0000     -10.266587      -279.3680
  56   2.0000     -10.266078      -279.3542
  57   2.0000      -8.057729      -219.2620
  58   2.0000      -8.042122      -218.8373
  59   2.0000      -8.039778      -218.7735
  60   2.0000      -8.037234      -218.7042
  61   2.0000      -8.036479      -218.6837
  62   2.0000      -6.026774      -163.9969
  63   2.0000      -6.022554      -163.8820
  64   2.0000      -6.020416      -163.8239
  65   2.0000      -6.011829      -163.5902
  66   2.0000      -6.009593      -163.5293
  67   2.0000      -6.007972      -163.4852
  68   2.0000      -6.007065      -163.4605
  69   2.0000      -6.006271      -163.4389
  70   2.0000      -6.005688      -163.4231
  71   2.0000      -6.002948      -163.3485
  72   2.0000      -6.002848      -163.3458
  73   2.0000      -6.002334      -163.3318
  74   2.0000      -6.000325      -163.2771
  75   2.0000      -5.998031      -163.2147
  76   2.0000      -5.997055      -163.1882
  77   2.0000      -1.214011       -33.0349
  78   2.0000      -1.212695       -32.9991
  79   2.0000      -1.141845       -31.0712
  80   2.0000      -1.141809       -31.0702
  81   2.0000      -1.120994       -30.5038
  82   2.0000      -1.120509       -30.4906
  83   2.0000      -1.029543       -28.0153
  84   2.0000      -1.029166       -28.0050
  85   2.0000      -0.996059       -27.1042
  86   2.0000      -0.994142       -27.0520
  87   2.0000      -0.993009       -27.0212
  88   2.0000      -0.973219       -26.4826
  89   2.0000      -0.970873       -26.4188
  90   2.0000      -0.928122       -25.2555
  91   2.0000      -0.924579       -25.1591
  92   2.0000      -0.916631       -24.9428
  93   2.0000      -0.908940       -24.7335
  94   2.0000      -0.908543       -24.7227
  95   2.0000      -0.897481       -24.4217
  96   2.0000      -0.884988       -24.0818
  97   2.0000      -0.874436       -23.7946
  98   2.0000      -0.862956       -23.4822
  99   2.0000      -0.851032       -23.1578
 100   2.0000      -0.848273       -23.0827
 101   2.0000      -0.845653       -23.0114
 102   2.0000      -0.829586       -22.5742
 103   2.0000      -0.826442       -22.4886
 104   2.0000      -0.823325       -22.4038
 105   2.0000      -0.819133       -22.2897
 106   2.0000      -0.816160       -22.2088
 107   2.0000      -0.796462       -21.6728
 108   2.0000      -0.783744       -21.3267
 109   2.0000      -0.768638       -20.9157
 110   2.0000      -0.759927       -20.6787
 111   2.0000      -0.754799       -20.5391
 112   2.0000      -0.751802       -20.4576
 113   2.0000      -0.747360       -20.3367
 114   2.0000      -0.735586       -20.0163
 115   2.0000      -0.721829       -19.6420
 116   2.0000      -0.705015       -19.1844
 117   2.0000      -0.699514       -19.0347
 118   2.0000      -0.692285       -18.8380
 119   2.0000      -0.688736       -18.7414
 120   2.0000      -0.685451       -18.6521
 121   2.0000      -0.681455       -18.5433
 122   2.0000      -0.671566       -18.2742
 123   2.0000      -0.658612       -17.9217
 124   2.0000      -0.645554       -17.5664
 125   2.0000      -0.637811       -17.3557
 126   2.0000      -0.627990       -17.0885
 127   2.0000      -0.624635       -16.9972
 128   2.0000      -0.619975       -16.8704
 129   2.0000      -0.617697       -16.8084
 130   2.0000      -0.614856       -16.7311
 131   2.0000      -0.606965       -16.5164
 132   2.0000      -0.601765       -16.3749
 133   2.0000      -0.599555       -16.3147
 134   2.0000      -0.592815       -16.1313
 135   2.0000      -0.584561       -15.9067
 136   2.0000      -0.583836       -15.8870
 137   2.0000      -0.579565       -15.7708
 138   2.0000      -0.573875       -15.6159
 139   2.0000      -0.571899       -15.5622
 140   2.0000      -0.570887       -15.5346
 141   2.0000      -0.565289       -15.3823
 142   2.0000      -0.561903       -15.2902
 143   2.0000      -0.553703       -15.0670
 144   2.0000      -0.547437       -14.8965
 145   2.0000      -0.542650       -14.7663
 146   2.0000      -0.540688       -14.7129
 147   2.0000      -0.537047       -14.6138
 148   2.0000      -0.533703       -14.5228
 149   2.0000      -0.531683       -14.4678
 150   2.0000      -0.530911       -14.4468
 151   2.0000      -0.528218       -14.3735
 152   2.0000      -0.517956       -14.0943
 153   2.0000      -0.513861       -13.9829
 154   2.0000      -0.510339       -13.8870
 155   2.0000      -0.509500       -13.8642
 156   2.0000      -0.506845       -13.7919
 157   2.0000      -0.504704       -13.7337
 158   2.0000      -0.504037       -13.7155
 159   2.0000      -0.501927       -13.6581
 160   2.0000      -0.498401       -13.5622
 161   2.0000      -0.494849       -13.4655
 162   2.0000      -0.493712       -13.4346
 163   2.0000      -0.493663       -13.4333
 164   2.0000      -0.491733       -13.3807
 165   2.0000      -0.489582       -13.3222
 166   2.0000      -0.488376       -13.2894
 167   2.0000      -0.485784       -13.2188
 168   2.0000      -0.483211       -13.1488
 169   2.0000      -0.482128       -13.1194
 170   2.0000      -0.470165       -12.7938
 171   2.0000      -0.469184       -12.7672
 172   2.0000      -0.467341       -12.7170
 173   2.0000      -0.465991       -12.6802
 174   2.0000      -0.461149       -12.5485
 175   2.0000      -0.460886       -12.5413
 176   2.0000      -0.458458       -12.4753
 177   2.0000      -0.457444       -12.4477
 178   2.0000      -0.452853       -12.3228
 179   2.0000      -0.448850       -12.2138
 180   2.0000      -0.431216       -11.7340
 181   2.0000      -0.430026       -11.7016
 182   2.0000      -0.429294       -11.6817
 183   2.0000      -0.423550       -11.5254
 184   2.0000      -0.422532       -11.4977
 185   2.0000      -0.422035       -11.4842
 186   2.0000      -0.418002       -11.3744
 187   2.0000      -0.416128       -11.3234
 188   2.0000      -0.407153       -11.0792
 189   2.0000      -0.406213       -11.0536
 190   2.0000      -0.399548       -10.8723
 191   2.0000      -0.395630       -10.7656
 192   2.0000      -0.392185       -10.6719
 193   2.0000      -0.379489       -10.3264
 194   2.0000      -0.367933       -10.0120
 195   2.0000      -0.364389        -9.9155
 196   2.0000      -0.359442        -9.7809
 197   2.0000      -0.357329        -9.7234
 198   2.0000      -0.355795        -9.6817
 199   2.0000      -0.350360        -9.5338
 200   2.0000      -0.349300        -9.5049
 201   2.0000      -0.340874        -9.2756
 202   2.0000      -0.337389        -9.1808
 203   2.0000      -0.336199        -9.1484
 204   2.0000      -0.333702        -9.0805
 205   2.0000      -0.332151        -9.0383
 206   2.0000      -0.331767        -9.0278
 207   2.0000      -0.321707        -8.7541
 208   2.0000      -0.318008        -8.6534
 209   2.0000      -0.311747        -8.4831
 210   2.0000      -0.295124        -8.0307
 211   2.0000      -0.281722        -7.6660
 212   2.0000      -0.243083        -6.6146
 213   2.0000      -0.220113        -5.9896
 214   2.0000      -0.203874        -5.5477
 215   0.0000      -0.086607        -2.3567
 216   0.0000      -0.074264        -2.0208
 217   0.0000      -0.063888        -1.7385
 218   0.0000      -0.021752        -0.5919
 219   0.0000      -0.014843        -0.4039

MULLIKEN ATOMIC CHARGES
-----------------------
   0 C :   -0.020110
   1 C :   -0.072959
   2 C :    0.060742
   3 C :    0.026633
   4 C :   -0.063238
   5 S :    0.098767
   6 C :   -0.052772
   7 C :    0.036781
   8 C :    0.025311
   9 C :   -0.001840
  10 S :    0.108746
  11 C :   -0.064248
  12 C :    0.093473
  13 O :   -0.232543
  14 C :   -0.022329
  15 C :    0.151342
  16 O :   -0.153163
  17 N :   -0.161821
  18 C :    0.182945
  19 O :   -0.173639
  20 C :   -0.088385
  21 C :    0.142179
  22 C :   -0.013850
  23 C :   -0.017300
  24 C :   -0.072387
  25 C :    0.090356
  26 C :    0.122516
  27 C :   -0.038381
  28 C :    0.041634
  29 C :    0.026724
  30 C :   -0.037366
  31 C :   -0.176837
  32 S :    0.210171
  33 C :    0.153329
  34 O :   -0.235962
  35 C :   -0.099272
  36 C :    0.160293
  37 O :   -0.156647
  38 N :   -0.165985
  39 C :    0.152268
  40 O :   -0.150728
  41 C :   -0.025779
  42 C :    0.102990
  43 C :   -0.039960
  44 C :    0.022561
  45 C :   -0.011516
  46 C :   -0.013298
  47 C :    0.035429
  48 C :    0.033347
  49 C :   -0.048733
  50 S :    0.064996
  51 C :   -0.063213
  52 C :    0.028786
  53 C :    0.054928
  54 C :   -0.063805
  55 S :    0.083731
  56 C :   -0.027955
  57 H :    0.022332
  58 H :    0.029050
  59 H :   -0.009429
  60 H :   -0.010208
  61 H :   -0.013601
  62 H :   -0.007643
  63 H :    0.004804
  64 H :    0.133329
  65 H :   -0.001501
  66 H :    0.013927
  67 H :   -0.028175
  68 H :   -0.012932
  69 H :   -0.013206
  70 H :   -0.002262
  71 H :    0.133120
  72 H :    0.005489
  73 H :    0.017641
  74 H :   -0.013900
  75 H :   -0.011023
  76 H :   -0.012036
  77 H :   -0.008634
  78 H :   -0.008391
  79 H :    0.023288
  80 H :    0.025004
Sum of atomic charges:    0.0000000

LOEWDIN ATOMIC CHARGES
----------------------
   0 C :   -0.065092
   1 C :   -0.141034
   2 C :   -0.023775
   3 C :   -0.027796
   4 C :   -0.165600
   5 S :    0.366175
   6 C :   -0.191610
   7 C :   -0.021446
   8 C :   -0.039622
   9 C :   -0.125929
  10 S :    0.392756
  11 C :   -0.090158
  12 C :    0.067441
  13 O :    0.001408
  14 C :   -0.106112
  15 C :    0.083776
  16 O :   -0.169853
  17 N :   -0.006242
  18 C :    0.087878
  19 O :   -0.179007
  20 C :   -0.105866
  21 C :    0.069018
  22 C :   -0.052568
  23 C :   -0.008214
  24 C :   -0.170805
  25 C :   -0.036613
  26 C :   -0.033159
  27 C :   -0.019727
  28 C :   -0.018036
  29 C :   -0.022209
  30 C :   -0.009621
  31 C :   -0.199007
  32 S :    0.524740
  33 C :    0.056313
  34 O :    0.006976
  35 C :   -0.114915
  36 C :    0.078170
  37 O :   -0.173645
  38 N :   -0.008831
  39 C :    0.083099
  40 O :   -0.168910
  41 C :   -0.099722
  42 C :    0.070894
  43 C :   -0.048945
  44 C :   -0.008892
  45 C :   -0.065209
  46 C :   -0.131921
  47 C :   -0.037058
  48 C :   -0.024348
  49 C :   -0.183190
  50 S :    0.368314
  51 C :   -0.171126
  52 C :   -0.027204
  53 C :   -0.027061
  54 C :   -0.139908
  55 S :    0.354717
  56 C :   -0.069324
  57 H :    0.029826
  58 H :    0.029500
  59 H :    0.034518
  60 H :    0.032866
  61 H :    0.031485
  62 H :    0.034965
  63 H :    0.048356
  64 H :    0.092068
  65 H :    0.034636
  66 H :    0.039165
  67 H :    0.026786
  68 H :    0.030308
  69 H :    0.029794
  70 H :    0.036697
  71 H :    0.091539
  72 H :    0.044148
  73 H :    0.024822
  74 H :    0.033836
  75 H :    0.034374
  76 H :    0.032267
  77 H :    0.033259
  78 H :    0.034683
  79 H :    0.030106
  80 H :    0.027634

  Mayer bond orders larger than 0.100000
B(  0-C ,  1-C ) :   1.8667 B(  0-C , 57-H ) :   0.9508 B(  0-C , 58-H ) :   0.9405
B(  1-C ,  2-C ) :   1.0786 B(  1-C ,  5-S ) :   1.0079 B(  2-C ,  3-C ) :   1.6638
B(  2-C , 59-H ) :   0.9923 B(  3-C ,  4-C ) :   1.1486 B(  3-C , 60-H ) :   0.9928
B(  4-C ,  5-S ) :   1.0581 B(  4-C ,  6-C ) :   1.5524 B(  6-C ,  7-C ) :   1.1757
B(  6-C , 10-S ) :   1.0158 B(  7-C ,  8-C ) :   1.5991 B(  7-C , 61-H ) :   0.9936
B(  8-C ,  9-C ) :   1.1355 B(  8-C , 62-H ) :   1.0025 B(  9-C , 10-S ) :   1.0667
B(  9-C , 11-C ) :   1.5261 B( 11-C , 12-C ) :   1.2262 B( 11-C , 63-H ) :   0.9657
B( 12-C , 13-O ) :   1.1194 B( 12-C , 14-C ) :   1.3541 B( 13-O , 21-C ) :   1.1123
B( 14-C , 15-C ) :   0.8980 B( 14-C , 20-C ) :   1.2828 B( 15-C , 16-O ) :   2.2591
B( 15-C , 17-N ) :   1.0615 B( 17-N , 18-C ) :   1.1112 B( 17-N , 64-H ) :   0.9162
B( 18-C , 19-O ) :   2.1463 B( 18-C , 20-C ) :   0.8977 B( 20-C , 21-C ) :   1.3996
B( 21-C , 22-C ) :   1.2010 B( 22-C , 23-C ) :   1.5533 B( 22-C , 65-H ) :   0.9682
B( 23-C , 24-C ) :   1.2245 B( 23-C , 66-H ) :   0.9522 B( 24-C , 25-C ) :   1.2800
B( 24-C , 31-C ) :   0.1213 B( 24-C , 32-S ) :   1.1230 B( 25-C , 26-C ) :   1.2139
B( 25-C , 30-C ) :   1.2322 B( 26-C , 27-C ) :   1.2371 B( 26-C , 31-C ) :   1.2765
B( 27-C , 28-C ) :   1.5199 B( 27-C , 67-H ) :   0.9975 B( 28-C , 29-C ) :   1.2237
B( 28-C , 68-H ) :   0.9860 B( 29-C , 30-C ) :   1.5332 B( 29-C , 69-H ) :   0.9844
B( 30-C , 70-H ) :   0.9928 B( 31-C , 32-S ) :   1.1729 B( 31-C , 33-C ) :   1.2047
B( 33-C , 34-O ) :   1.1517 B( 33-C , 35-C ) :   1.3939 B( 34-O , 42-C ) :   1.1183
B( 35-C , 36-C ) :   0.8910 B( 35-C , 41-C ) :   1.2695 B( 36-C , 37-O ) :   2.2332
B( 36-C , 38-N ) :   1.0846 B( 38-N , 39-C ) :   1.0750 B( 38-N , 71-H ) :   0.9155
B( 39-C , 40-O ) :   2.2628 B( 39-C , 41-C ) :   0.8877 B( 41-C , 42-C ) :   1.3685
B( 42-C , 43-C ) :   1.1980 B( 43-C , 44-C ) :   1.5658 B( 43-C , 72-H ) :   0.9697
B( 44-C , 45-C ) :   1.1648 B( 44-C , 73-H ) :   0.9828 B( 45-C , 46-C ) :   1.5432
B( 45-C , 74-H ) :   0.9866 B( 46-C , 47-C ) :   1.1418 B( 46-C , 50-S ) :   1.0424
B( 47-C , 48-C ) :   1.5967 B( 47-C , 75-H ) :   1.0002 B( 48-C , 49-C ) :   1.1778
B( 48-C , 76-H ) :   0.9928 B( 49-C , 50-S ) :   1.0377 B( 49-C , 51-C ) :   1.5483
B( 51-C , 52-C ) :   1.1532 B( 51-C , 55-S ) :   1.0513 B( 52-C , 53-C ) :   1.6618
B( 52-C , 77-H ) :   0.9916 B( 53-C , 54-C ) :   1.0797 B( 53-C , 78-H ) :   0.9929
B( 54-C , 55-S ) :   1.0066 B( 54-C , 56-C ) :   1.8619 B( 56-C , 79-H ) :   0.9516
B( 56-C , 80-H ) :   0.9427

-----------------------------------------------------------------------------
         ABSORPTION SPECTRUM VIA TRANSITION ELECTRIC DIPOLE MOMENTS
-----------------------------------------------------------------------------
State   Energy  Wavelength   fosc         T2         TX        TY        TZ
        (cm-1)    (nm)                  (au**2)     (au)      (au)      (au)
-----------------------------------------------------------------------------
   0   11882.3    841.6   1.188927482  32.94050  -3.68428  -2.22441  -3.79718
   1   15893.8    629.2   0.095483766   1.97778   0.87069   1.07675   0.24553
   2   17189.9    581.7   0.012228151   0.23419   0.19984  -0.22857  -0.37684
   3   18124.5    551.7   0.721324644  13.10206  -1.83370   1.36430   2.80683
   4   20674.0    483.7   1.517520157  24.16494   2.85756  -2.01697  -3.45414
   5   22033.1    453.9   0.070464790   1.05286  -1.01721  -0.11326  -0.07294
   6   22553.5    443.4   0.148454071   2.16697  -1.38723  -0.05261   0.48969
   7   25240.5    396.2   0.019854954   0.25897  -0.50786   0.00176   0.03225
   8   26152.6    382.4   0.036654777   0.46141   0.28037   0.25248   0.56485
   9   26534.6    376.9   0.110694086   1.37337   0.73845  -0.52870  -0.74063
  10   26965.5    370.8   0.014721789   0.17973   0.42225  -0.01932  -0.03259
  11   28547.5    350.3   0.028028852   0.32323  -0.56234   0.00071   0.08367
  12   29820.0    335.3   0.061666367   0.68079  -0.50331  -0.33492  -0.56151
  13   30389.6    329.1   0.153321437   1.66094  -0.65389  -0.58103  -0.94645
  14   31579.8    316.7   0.160998917   1.67838   1.28566   0.06899   0.14382
  15   31873.1    313.7   0.322479595   3.33084   1.82491   0.00560  -0.02219
  16   32144.8    311.1   0.099790458   1.02201   0.63517   0.38670   0.68486
  17   32505.6    307.6   0.010606454   0.10742  -0.25245  -0.13201  -0.16206
  18   33010.6    302.9   0.014627263   0.14588  -0.03926   0.19462   0.32628
  19   33549.3    298.1   0.079488725   0.78001  -0.01295   0.44458   0.76301
  20   33756.5    296.2   0.098532629   0.96094  -0.87944  -0.24232  -0.35891
  21   34142.1    292.9   0.047780971   0.46072  -0.22754  -0.26057  -0.58400
  22   35072.5    285.1   0.045780097   0.42972  -0.12688  -0.31374  -0.56142
  23   35505.7    281.6   0.040230489   0.37302  -0.47431  -0.14293  -0.35724
  24   35603.7    280.9   0.002806016   0.02595  -0.06781  -0.14396   0.02499
  25   36006.1    277.7   0.066306149   0.60625   0.22209   0.38918   0.63676
  26   36562.8    273.5   0.121351652   1.09265  -0.38221  -0.48419  -0.84387
  27   36896.2    271.0   0.006829799   0.06094   0.09229   0.14345   0.17845
  28   37212.3    268.7   0.068251592   0.60381  -0.34223   0.28485   0.63683
  29   37619.2    265.8   0.011348527   0.09931   0.01216  -0.21080  -0.23395
  30   37751.2    264.9   0.012058062   0.10515  -0.03309  -0.21050  -0.24443
  31   37936.5    263.6   0.088502774   0.76803  -0.19012   0.39119   0.76082
  32   38250.8    261.4   0.094646240   0.81459   0.86013  -0.19154  -0.19513
  33   38569.3    259.3   0.025441104   0.21715   0.44613   0.10474  -0.08458
  34   38741.0    258.1   0.005475676   0.04653  -0.08601   0.11645   0.15992
  35   38767.3    257.9   0.031054712   0.26372  -0.11776   0.28132   0.41317
  36   39563.1    252.8   0.012991311   0.10810  -0.29511  -0.08752  -0.11555
  37   40138.8    249.1   0.023148563   0.18986   0.16536   0.21691   0.33980

FINAL SINGLE POINT ENERGY     -4239.478097948305

DIPOLE MOMENT
-------------
                                X             Y             Z
Electronic contribution:     14.73816      10.31687       9.68971
Nuclear contribution   :    -16.10734     -11.01250      -9.75391
                        -----------------------------------------
Total Dipole Moment    :     -1.36918      -0.69563      -0.06420
                        -----------------------------------------
Magnitude (a.u.)       :      1.53710
Magnitude (Debye)      :      3.90699

Rotational constants in cm-1:     0.001820     0.000480     0.000383
Rotational constants in MHz :    54.562133    14.388012    11.486794

                             ****ORCA TERMINATED NORMALLY****
TOTAL RUN TIME: 0 days 0 hours 5 minutes 44 seconds 33 msec
