                         Program Version 4.2.0 -  RELEASE  -
|  1> # ORCA input file
|  2> # SCF done       -151.623259938755          0.000573238317
|  3> ! CAM-B3LYP def2-SVP def2/J RIJCOSX Grid4 TightSCF
|  4> %maxcore 5000
|  5> %tddft
|  6>     Mode sTDDFT
|  7>     Ethresh 5.0
|  8>     maxcore 5000
|  9> end
| 10>
| 11> %pal
| 12>   nprocs 6
| 13>   end
| 14> * xyz 0 1
| 15>    C        6.74283       -17.33328        -5.58954
| 16>    C        7.30104       -16.47261        -4.72534
| 17>    C        8.34902       -16.72960        -3.78227
| 18>    C        8.70699       -15.65581        -3.03999
| 19>    C        7.97862       -14.47240        -3.33105
| 20>    S        6.80878       -14.77564        -4.59786
| 21>    C        8.12305       -13.23483        -2.73846
| 22>    C        9.02452       -12.86405        -1.71643
| 23>    C        8.92292       -11.55696        -1.34219
| 24>    C        7.94071       -10.82477        -2.04411
| 25>    S        7.13897       -11.86047        -3.20675
| 26>    C        7.64456        -9.48967        -1.85943
| 27>    C        6.69516        -8.73048        -2.52423
| 28>    C        6.45360        -7.35426        -2.29325
| 29>    C        5.42425        -6.80813        -3.11197
| 30>    N        5.08155        -5.51330        -3.00838
| 31>    C        5.74754        -4.80697        -2.12908
| 32>    C        6.77553        -5.34143        -1.31823
| 33>    C        7.50707        -4.48250        -0.34026
| 34>    N        7.12026        -6.60969        -1.40253
| 35>    C        4.85466        -7.75410        -3.99392
| 36>    S        5.62222        -9.30691        -3.77087
| 37>    C        3.84857        -7.59529        -4.94659
| 38>    C        3.20069        -6.40715        -5.18198
| 39>    C        2.21327        -6.22851        -6.15323
| 40>    S        1.45708        -4.65603        -6.37512
| 41>    C        0.43893        -5.18913        -7.69629
| 42>    C        0.68607        -6.54963        -7.93716
| 43>    C        1.66226        -7.11021        -7.08022
| 44>    S        1.88328        -8.78259        -7.46845
| 45>    C        0.66704        -8.57780        -8.72143
| 46>    N        0.15717        -7.41420        -8.84134
| 47>    C       -0.43009        -4.30845        -8.33838
| 48>    C       -1.21645        -4.67011        -9.40784
| 49>    C       -2.07444        -3.79154       -10.06585
| 50>    C       -2.35368        -2.43029        -9.80185
| 51>    C       -3.28785        -1.86195       -10.71491
| 52>    N       -3.67069        -0.58031       -10.61954
| 53>    C       -3.13801         0.10644        -9.63938
| 54>    C       -2.21306        -0.44447        -8.72146
| 55>    C       -1.64181         0.38360        -7.61809
| 56>    N       -1.82733        -1.69956        -8.80707
| 57>    C       -3.74620        -2.76638       -11.70061
| 58>    S       -2.99685        -4.32162       -11.45136
| 59>    C       -4.64372        -2.47443       -12.71893
| 60>    C       -5.06149        -3.36319       -13.68621
| 61>    C       -5.95260        -3.03224       -14.69799
| 62>    C       -6.37520        -3.89718       -15.68996
| 63>    C       -7.27134        -3.60797       -16.73990
| 64>    C       -7.50689        -4.65428       -17.58374
| 65>    C       -6.80516        -5.83076       -17.24206
| 66>    S       -5.83497        -5.56115       -15.80867
| 67>    C       -6.82708        -7.04890       -17.89036
| 68>    C       -7.56601        -7.39421       -19.05202
| 69>    C       -7.39008        -8.67063       -19.46755
| 70>    C       -6.49000        -9.43671       -18.65740
| 71>    S       -5.88909        -8.42037       -17.33765
| 72>    C       -6.12181       -10.71640       -18.81935
| 73>    H        7.07238       -18.35625        -5.63418
| 74>    H        5.95744       -17.03374        -6.25851
| 75>    H        8.78815       -17.70808        -3.70183
| 76>    H        9.47447       -15.66975        -2.28649
| 77>    H        9.71941       -13.56307        -1.28727
| 78>    H        9.52577       -11.09368        -0.58099
| 79>    H        8.21334        -8.95179        -1.11171
| 80>    H        5.46929        -3.76440        -2.04788
| 81>    H        8.25171        -5.07675         0.18133
| 82>    H        6.81189        -4.05783         0.38244
| 83>    H        7.99899        -3.66005        -0.85771
| 84>    H        3.58744        -8.47320        -5.52312
| 85>    H        3.47382        -5.54803        -4.58748
| 86>    H        0.39203        -9.41288        -9.33477
| 87>    H       -0.47474        -3.29049        -7.98052
| 88>    H       -1.16475        -5.68721        -9.77201
| 89>    H       -3.44343         1.14129        -9.55901
| 90>    H       -0.95133        -0.21479        -7.03074
| 91>    H       -2.43920         0.75075        -6.97349
| 92>    H       -1.11622         1.24514        -8.02728
| 93>    H       -5.01783        -1.45893       -12.72624
| 94>    H       -4.67111        -4.37369       -13.66128
| 95>    H       -6.34948        -2.02531       -14.72585
| 96>    H       -7.71687        -2.63389       -16.84328
| 97>    H       -8.16136        -4.60765       -18.43548
| 98>    H       -8.20555        -6.68133       -19.54183
| 99>    H       -7.86615        -9.10974       -20.32619
|100>    H       -6.51005       -11.30003       -19.63521
|101>    H       -5.43425       -11.19598       -18.14734
|102> *
|103>
|104>                          ****END OF INPUT****

CARTESIAN COORDINATES (ANGSTROEM)
---------------------------------
  C      6.742830  -17.333280   -5.589540
  C      7.301040  -16.472610   -4.725340
  C      8.349020  -16.729600   -3.782270
  C      8.706990  -15.655810   -3.039990
  C      7.978620  -14.472400   -3.331050
  S      6.808780  -14.775640   -4.597860
  C      8.123050  -13.234830   -2.738460
  C      9.024520  -12.864050   -1.716430
  C      8.922920  -11.556960   -1.342190
  C      7.940710  -10.824770   -2.044110
  S      7.138970  -11.860470   -3.206750
  C      7.644560   -9.489670   -1.859430
  C      6.695160   -8.730480   -2.524230
  C      6.453600   -7.354260   -2.293250
  C      5.424250   -6.808130   -3.111970
  N      5.081550   -5.513300   -3.008380
  C      5.747540   -4.806970   -2.129080
  C      6.775530   -5.341430   -1.318230
  C      7.507070   -4.482500   -0.340260
  N      7.120260   -6.609690   -1.402530
  C      4.854660   -7.754100   -3.993920
  S      5.622220   -9.306910   -3.770870
  C      3.848570   -7.595290   -4.946590
  C      3.200690   -6.407150   -5.181980
  C      2.213270   -6.228510   -6.153230
  S      1.457080   -4.656030   -6.375120
  C      0.438930   -5.189130   -7.696290
  C      0.686070   -6.549630   -7.937160
  C      1.662260   -7.110210   -7.080220
  S      1.883280   -8.782590   -7.468450
  C      0.667040   -8.577800   -8.721430
  N      0.157170   -7.414200   -8.841340
  C     -0.430090   -4.308450   -8.338380
  C     -1.216450   -4.670110   -9.407840
  C     -2.074440   -3.791540  -10.065850
  C     -2.353680   -2.430290   -9.801850
  C     -3.287850   -1.861950  -10.714910
  N     -3.670690   -0.580310  -10.619540
  C     -3.138010    0.106440   -9.639380
  C     -2.213060   -0.444470   -8.721460
  C     -1.641810    0.383600   -7.618090
  N     -1.827330   -1.699560   -8.807070
  C     -3.746200   -2.766380  -11.700610
  S     -2.996850   -4.321620  -11.451360
  C     -4.643720   -2.474430  -12.718930
  C     -5.061490   -3.363190  -13.686210
  C     -5.952600   -3.032240  -14.697990
  C     -6.375200   -3.897180  -15.689960
  C     -7.271340   -3.607970  -16.739900
  C     -7.506890   -4.654280  -17.583740
  C     -6.805160   -5.830760  -17.242060
  S     -5.834970   -5.561150  -15.808670
  C     -6.827080   -7.048900  -17.890360
  C     -7.566010   -7.394210  -19.052020
  C     -7.390080   -8.670630  -19.467550
  C     -6.490000   -9.436710  -18.657400
  S     -5.889090   -8.420370  -17.337650
  C     -6.121810  -10.716400  -18.819350
  H      7.072380  -18.356250   -5.634180
  H      5.957440  -17.033740   -6.258510
  H      8.788150  -17.708080   -3.701830
  H      9.474470  -15.669750   -2.286490
  H      9.719410  -13.563070   -1.287270
  H      9.525770  -11.093680   -0.580990
  H      8.213340   -8.951790   -1.111710
  H      5.469290   -3.764400   -2.047880
  H      8.251710   -5.076750    0.181330
  H      6.811890   -4.057830    0.382440
  H      7.998990   -3.660050   -0.857710
  H      3.587440   -8.473200   -5.523120
  H      3.473820   -5.548030   -4.587480
  H      0.392030   -9.412880   -9.334770
  H     -0.474740   -3.290490   -7.980520
  H     -1.164750   -5.687210   -9.772010
  H     -3.443430    1.141290   -9.559010
  H     -0.951330   -0.214790   -7.030740
  H     -2.439200    0.750750   -6.973490
  H     -1.116220    1.245140   -8.027280
  H     -5.017830   -1.458930  -12.726240
  H     -4.671110   -4.373690  -13.661280
  H     -6.349480   -2.025310  -14.725850
  H     -7.716870   -2.633890  -16.843280
  H     -8.161360   -4.607650  -18.435480
  H     -8.205550   -6.681330  -19.541830
  H     -7.866150   -9.109740  -20.326190
  H     -6.510050  -11.300030  -19.635210
  H     -5.434250  -11.195980  -18.147340

 Total Charge           Charge          ....    0
 Multiplicity           Mult            ....    1
 Number of Electrons    NEL             ....  462
 Basis Dimension        Dim             ....  989

ORBITAL ENERGIES
----------------

  NO   OCC          E(Eh)            E(eV)
   0   2.0000     -88.960454     -2420.7370
   1   2.0000     -88.957299     -2420.6512
   2   2.0000     -88.956809     -2420.6378
   3   2.0000     -88.949716     -2420.4448
   4   2.0000     -88.939481     -2420.1663
   5   2.0000     -88.934832     -2420.0398
   6   2.0000     -88.932936     -2419.9882
   7   2.0000     -88.930965     -2419.9346
   8   2.0000     -14.418751      -392.3541
   9   2.0000     -14.418134      -392.3374
  10   2.0000     -14.413242      -392.2043
  11   2.0000     -14.412134      -392.1741
  12   2.0000     -14.410799      -392.1378
  13   2.0000     -10.331375      -281.1310
  14   2.0000     -10.315502      -280.6991
  15   2.0000     -10.314892      -280.6825
  16   2.0000     -10.308039      -280.4960
  17   2.0000     -10.307261      -280.4748
  18   2.0000     -10.303512      -280.3728
  19   2.0000     -10.302829      -280.3542
  20   2.0000     -10.302078      -280.3338
  21   2.0000     -10.301544      -280.3193
  22   2.0000     -10.301462      -280.3170
  23   2.0000     -10.301136      -280.3082
  24   2.0000     -10.301098      -280.3071
  25   2.0000     -10.301070      -280.3064
  26   2.0000     -10.300890      -280.3015
  27   2.0000     -10.299133      -280.2536
  28   2.0000     -10.299008      -280.2502
  29   2.0000     -10.298070      -280.2247
  30   2.0000     -10.297661      -280.2136
  31   2.0000     -10.297528      -280.2100
  32   2.0000     -10.297137      -280.1994
  33   2.0000     -10.296511      -280.1823
  34   2.0000     -10.296436      -280.1803
  35   2.0000     -10.296233      -280.1747
  36   2.0000     -10.295995      -280.1683
  37   2.0000     -10.295037      -280.1422
  38   2.0000     -10.283634      -279.8319
  39   2.0000     -10.282161      -279.7918
  40   2.0000     -10.278792      -279.7002
  41   2.0000     -10.278401      -279.6895
  42   2.0000     -10.277314      -279.6599
  43   2.0000     -10.276598      -279.6405
  44   2.0000     -10.276307      -279.6325
  45   2.0000     -10.275842      -279.6199
  46   2.0000     -10.275644      -279.6145
  47   2.0000     -10.273287      -279.5503
  48   2.0000     -10.271083      -279.4904
  49   2.0000     -10.270048      -279.4622
  50   2.0000     -10.268279      -279.4141
  51   2.0000     -10.268272      -279.4139
  52   2.0000     -10.266888      -279.3762
  53   2.0000     -10.264628      -279.3147
  54   2.0000     -10.264550      -279.3126
  55   2.0000     -10.264338      -279.3068
  56   2.0000     -10.263914      -279.2953
  57   2.0000     -10.262537      -279.2578
  58   2.0000      -8.054962      -219.1867
  59   2.0000      -8.052405      -219.1171
  60   2.0000      -8.052142      -219.1099
  61   2.0000      -8.044791      -218.9099
  62   2.0000      -8.035539      -218.6581
  63   2.0000      -8.031173      -218.5393
  64   2.0000      -8.029632      -218.4974
  65   2.0000      -8.027748      -218.4461
  66   2.0000      -6.023982      -163.9209
  67   2.0000      -6.021891      -163.8640
  68   2.0000      -6.021077      -163.8418
  69   2.0000      -6.020013      -163.8129
  70   2.0000      -6.017741      -163.7511
  71   2.0000      -6.017592      -163.7470
  72   2.0000      -6.017269      -163.7382
  73   2.0000      -6.014761      -163.6700
  74   2.0000      -6.014109      -163.6522
  75   2.0000      -6.014086      -163.6516
  76   2.0000      -6.010163      -163.5448
  77   2.0000      -6.006737      -163.4516
  78   2.0000      -6.005272      -163.4118
  79   2.0000      -6.001176      -163.3003
  80   2.0000      -6.000870      -163.2920
  81   2.0000      -5.999435      -163.2529
  82   2.0000      -5.997558      -163.2019
  83   2.0000      -5.996938      -163.1850
  84   2.0000      -5.996538      -163.1741
  85   2.0000      -5.995524      -163.1465
  86   2.0000      -5.993641      -163.0953
  87   2.0000      -5.992055      -163.0521
  88   2.0000      -5.990202      -163.0017
  89   2.0000      -5.988286      -162.9496
  90   2.0000      -1.071608       -29.1599
  91   2.0000      -1.070985       -29.1430
  92   2.0000      -1.062833       -28.9212
  93   2.0000      -0.995527       -27.0897
  94   2.0000      -0.994828       -27.0706
  95   2.0000      -0.986774       -26.8515
  96   2.0000      -0.984408       -26.7871
  97   2.0000      -0.972172       -26.4542
  98   2.0000      -0.969120       -26.3711
  99   2.0000      -0.965139       -26.2628
 100   2.0000      -0.961506       -26.1639
 101   2.0000      -0.959936       -26.1212
 102   2.0000      -0.909338       -24.7443
 103   2.0000      -0.900309       -24.4987
 104   2.0000      -0.890332       -24.2272
 105   2.0000      -0.876475       -23.8501
 106   2.0000      -0.875139       -23.8137
 107   2.0000      -0.866255       -23.5720
 108   2.0000      -0.863010       -23.4837
 109   2.0000      -0.859786       -23.3960
 110   2.0000      -0.852073       -23.1861
 111   2.0000      -0.838684       -22.8218
 112   2.0000      -0.837211       -22.7817
 113   2.0000      -0.835959       -22.7476
 114   2.0000      -0.820865       -22.3369
 115   2.0000      -0.814470       -22.1629
 116   2.0000      -0.814103       -22.1529
 117   2.0000      -0.808930       -22.0121
 118   2.0000      -0.804089       -21.8804
 119   2.0000      -0.795237       -21.6395
 120   2.0000      -0.790263       -21.5041
 121   2.0000      -0.782277       -21.2868
 122   2.0000      -0.764515       -20.8035
 123   2.0000      -0.752078       -20.4651
 124   2.0000      -0.737628       -20.0719
 125   2.0000      -0.732937       -19.9442
 126   2.0000      -0.729583       -19.8530
 127   2.0000      -0.713072       -19.4037
 128   2.0000      -0.706709       -19.2305
 129   2.0000      -0.700524       -19.0622
 130   2.0000      -0.686888       -18.6912
 131   2.0000      -0.684791       -18.6341
 132   2.0000      -0.678281       -18.4570
 133   2.0000      -0.666319       -18.1315
 134   2.0000      -0.655861       -17.8469
 135   2.0000      -0.651295       -17.7226
 136   2.0000      -0.640766       -17.4361
 137   2.0000      -0.632056       -17.1991
 138   2.0000      -0.629814       -17.1381
 139   2.0000      -0.625855       -17.0304
 140   2.0000      -0.623206       -16.9583
 141   2.0000      -0.619200       -16.8493
 142   2.0000      -0.613540       -16.6953
 143   2.0000      -0.609988       -16.5986
 144   2.0000      -0.607234       -16.5237
 145   2.0000      -0.599415       -16.3109
 146   2.0000      -0.595554       -16.2058
 147   2.0000      -0.593246       -16.1430
 148   2.0000      -0.590183       -16.0597
 149   2.0000      -0.585595       -15.9348
 150   2.0000      -0.570835       -15.5332
 151   2.0000      -0.559783       -15.2325
 152   2.0000      -0.555204       -15.1079
 153   2.0000      -0.550994       -14.9933
 154   2.0000      -0.545488       -14.8435
 155   2.0000      -0.540841       -14.7170
 156   2.0000      -0.536402       -14.5962
 157   2.0000      -0.533521       -14.5178
 158   2.0000      -0.532856       -14.4998
 159   2.0000      -0.529670       -14.4131
 160   2.0000      -0.528302       -14.3758
 161   2.0000      -0.520438       -14.1618
 162   2.0000      -0.516216       -14.0469
 163   2.0000      -0.515144       -14.0178
 164   2.0000      -0.509774       -13.8717
 165   2.0000      -0.508404       -13.8344
 166   2.0000      -0.506514       -13.7829
 167   2.0000      -0.499531       -13.5929
 168   2.0000      -0.494895       -13.4668
 169   2.0000      -0.492747       -13.4083
 170   2.0000      -0.492183       -13.3930
 171   2.0000      -0.489294       -13.3144
 172   2.0000      -0.486993       -13.2518
 173   2.0000      -0.486743       -13.2449
 174   2.0000      -0.483935       -13.1686
 175   2.0000      -0.482123       -13.1192
 176   2.0000      -0.477832       -13.0025
 177   2.0000      -0.476177       -12.9574
 178   2.0000      -0.471575       -12.8322
 179   2.0000      -0.470061       -12.7910
 180   2.0000      -0.469018       -12.7626
 181   2.0000      -0.465486       -12.6665
 182   2.0000      -0.463552       -12.6139
 183   2.0000      -0.462503       -12.5854
 184   2.0000      -0.457804       -12.4575
 185   2.0000      -0.455287       -12.3890
 186   2.0000      -0.454322       -12.3627
 187   2.0000      -0.452224       -12.3056
 188   2.0000      -0.446321       -12.1450
 189   2.0000      -0.444735       -12.1019
 190   2.0000      -0.443800       -12.0764
 191   2.0000      -0.437850       -11.9145
 192   2.0000      -0.431548       -11.7430
 193   2.0000      -0.429966       -11.7000
 194   2.0000      -0.427090       -11.6217
 195   2.0000      -0.426423       -11.6036
 196   2.0000      -0.420676       -11.4472
 197   2.0000      -0.419842       -11.4245
 198   2.0000      -0.418871       -11.3981
 199   2.0000      -0.418763       -11.3951
 200   2.0000      -0.414187       -11.2706
 201   2.0000      -0.407007       -11.0752
 202   2.0000      -0.406715       -11.0673
 203   2.0000      -0.404937       -11.0189
 204   2.0000      -0.398811       -10.8522
 205   2.0000      -0.395145       -10.7524
 206   2.0000      -0.388706       -10.5772
 207   2.0000      -0.385282       -10.4840
 208   2.0000      -0.383001       -10.4220
 209   2.0000      -0.378557       -10.3011
 210   2.0000      -0.377672       -10.2770
 211   2.0000      -0.365306        -9.9405
 212   2.0000      -0.354912        -9.6576
 213   2.0000      -0.345654        -9.4057
 214   2.0000      -0.345416        -9.3992
 215   2.0000      -0.331746        -9.0273
 216   2.0000      -0.329399        -8.9634
 217   2.0000      -0.329069        -8.9544
 218   2.0000      -0.320272        -8.7150
 219   2.0000      -0.317408        -8.6371
 220   2.0000      -0.313810        -8.5392
 221   2.0000      -0.313539        -8.5318
 222   2.0000      -0.311430        -8.4744
 223   2.0000      -0.310560        -8.4508
 224   2.0000      -0.305259        -8.3065
 225   2.0000      -0.303582        -8.2609
 226   2.0000      -0.283822        -7.7232
 227   2.0000      -0.259506        -7.0615
 228   2.0000      -0.232783        -6.3343
 229   2.0000      -0.201809        -5.4915
 230   2.0000      -0.179518        -4.8849
 231   0.0000      -0.093225        -2.5368
 232   0.0000      -0.072192        -1.9644
 233   0.0000      -0.041484        -1.1288
 234   0.0000      -0.030853        -0.8396
 235   0.0000      -0.019017        -0.5175

MULLIKEN ATOMIC CHARGES
-----------------------
   0 C :   -0.032141
   1 C :   -0.064822
   2 C :    0.051955
   3 C :    0.024872
   4 C :   -0.069159
   5 S :    0.079765
   6 C :   -0.031938
   7 C :    0.019768
   8 C :    0.032935
   9 C :   -0.028128
  10 S :    0.063903
  11 C :   -0.028978
  12 C :   -0.139083
  13 C :    0.037895
  14 C :    0.030195
  15 N :   -0.001682
  16 C :    0.024640
  17 C :   -0.153500
  18 C :    0.107412
  19 N :    0.000611
  20 C :   -0.132950
  21 S :    0.145472
  22 C :    0.001130
  23 C :    0.046702
  24 C :   -0.171646
  25 S :    0.147286
  26 C :   -0.130848
  27 C :    0.076448
  28 C :   -0.019029
  29 S :    0.086565
  30 C :    0.024676
  31 N :   -0.048532
  32 C :    0.011502
  33 C :    0.010651
  34 C :   -0.142239
  35 C :    0.060937
  36 C :    0.018450
  37 N :    0.001494
  38 C :    0.012405
  39 C :   -0.138629
  40 C :    0.103766
  41 N :   -0.007944
  42 C :   -0.119397
  43 S :    0.160797
  44 C :   -0.021441
  45 C :    0.003175
  46 C :   -0.008411
  47 C :   -0.023894
  48 C :    0.035987
  49 C :    0.018577
  50 C :   -0.044661
  51 S :    0.074676
  52 C :   -0.067940
  53 C :    0.027558
  54 C :    0.048464
  55 C :   -0.062290
  56 S :    0.079021
  57 C :   -0.033336
  58 H :    0.018398
  59 H :    0.021129
  60 H :   -0.013904
  61 H :   -0.011760
  62 H :   -0.017906
  63 H :   -0.013747
  64 H :   -0.004618
  65 H :   -0.006242
  66 H :    0.025953
  67 H :    0.029923
  68 H :    0.030217
  69 H :   -0.037688
  70 H :   -0.013176
  71 H :    0.040959
  72 H :   -0.020266
  73 H :   -0.015384
  74 H :   -0.004970
  75 H :    0.029141
  76 H :    0.030869
  77 H :    0.030589
  78 H :   -0.004023
  79 H :   -0.000924
  80 H :   -0.017682
  81 H :   -0.016191
  82 H :   -0.016581
  83 H :   -0.013248
  84 H :   -0.014355
  85 H :    0.017934
  86 H :    0.020480
Sum of atomic charges:   -0.0000000

LOEWDIN ATOMIC CHARGES
----------------------
   0 C :   -0.079563
   1 C :   -0.139184
   2 C :   -0.034589
   3 C :   -0.027137
   4 C :   -0.179083
   5 S :    0.352246
   6 C :   -0.179482
   7 C :   -0.043753
   8 C :   -0.032087
   9 C :   -0.160786
  10 S :    0.367147
  11 C :   -0.062003
  12 C :   -0.192986
  13 C :   -0.039749
  14 C :   -0.052308
  15 N :   -0.030171
  16 C :    0.000805
  17 C :   -0.010740
  18 C :   -0.053093
  19 N :   -0.049471
  20 C :   -0.176473
  21 S :    0.468600
  22 C :   -0.058568
  23 C :   -0.036800
  24 C :   -0.189018
  25 S :    0.444583
  26 C :   -0.165855
  27 C :   -0.068496
  28 C :   -0.203454
  29 S :    0.386138
  30 C :   -0.099907
  31 N :   -0.080673
  32 C :   -0.039823
  33 C :   -0.035007
  34 C :   -0.175590
  35 C :   -0.043811
  36 C :   -0.048811
  37 N :   -0.032371
  38 C :   -0.001640
  39 C :   -0.006314
  40 C :   -0.052792
  41 N :   -0.045295
  42 C :   -0.179950
  43 S :    0.472610
  44 C :   -0.033304
  45 C :   -0.037698
  46 C :   -0.054145
  47 C :   -0.150085
  48 C :   -0.036035
  49 C :   -0.036882
  50 C :   -0.179250
  51 S :    0.370331
  52 C :   -0.180943
  53 C :   -0.027418
  54 C :   -0.036063
  55 C :   -0.139122
  56 S :    0.352080
  57 C :   -0.081166
  58 H :    0.027893
  59 H :    0.025657
  60 H :    0.032443
  61 H :    0.032058
  62 H :    0.029766
  63 H :    0.033342
  64 H :    0.043251
  65 H :    0.022929
  66 H :    0.037303
  67 H :    0.038342
  68 H :    0.038502
  69 H :    0.013850
  70 H :    0.028952
  71 H :    0.019845
  72 H :    0.026050
  73 H :    0.029358
  74 H :    0.022698
  75 H :    0.037755
  76 H :    0.038994
  77 H :    0.038689
  78 H :    0.038207
  79 H :    0.016407
  80 H :    0.033114
  81 H :    0.032333
  82 H :    0.029981
  83 H :    0.031615
  84 H :    0.032089
  85 H :    0.027571
  86 H :    0.025408

  Mayer bond orders larger than 0.100000
B(  0-C ,  1-C ) :   1.8543 B(  0-C , 58-H ) :   0.9506 B(  0-C , 59-H ) :   0.9423
B(  1-C ,  2-C ) :   1.0856 B(  1-C ,  5-S ) :   1.0096 B(  2-C ,  3-C ) :   1.6462
B(  2-C , 60-H ) :   0.9931 B(  3-C ,  4-C ) :   1.1652 B(  3-C , 61-H ) :   0.9929
B(  4-C ,  5-S ) :   1.0465 B(  4-C ,  6-C ) :   1.5274 B(  6-C ,  7-C ) :   1.1891
B(  6-C , 10-S ) :   1.0404 B(  7-C ,  8-C ) :   1.5702 B(  7-C , 62-H ) :   0.9928
B(  8-C ,  9-C ) :   1.1709 B(  8-C , 63-H ) :   1.0014 B(  9-C , 10-S ) :   1.0383
B(  9-C , 11-C ) :   1.4699 B( 11-C , 12-C ) :   1.2937 B( 11-C , 64-H ) :   0.9691
B( 12-C , 13-C ) :   1.2702 B( 12-C , 20-C ) :   0.1153 B( 12-C , 21-S ) :   1.1041
B( 13-C , 14-C ) :   1.2367 B( 13-C , 19-N ) :   1.4536 B( 14-C , 15-N ) :   1.4200
B( 14-C , 20-C ) :   1.2555 B( 15-N , 16-C ) :   1.6818 B( 16-C , 17-C ) :   1.1907
B( 16-C , 65-H ) :   0.9802 B( 17-C , 18-C ) :   1.0465 B( 17-C , 19-N ) :   1.6739
B( 18-C , 66-H ) :   0.9522 B( 18-C , 67-H ) :   0.9535 B( 18-C , 68-H ) :   0.9536
B( 20-C , 21-S ) :   1.1418 B( 20-C , 22-C ) :   1.2599 B( 22-C , 23-C ) :   1.5643
B( 22-C , 69-H ) :   0.9373 B( 23-C , 24-C ) :   1.2124 B( 23-C , 70-H ) :   0.9411
B( 24-C , 25-S ) :   1.1030 B( 24-C , 28-C ) :   1.4258 B( 25-S , 26-C ) :   1.1189
B( 26-C , 27-C ) :   1.3381 B( 26-C , 32-C ) :   1.2124 B( 27-C , 28-C ) :   1.2952
B( 27-C , 31-N ) :   1.3023 B( 28-C , 29-S ) :   1.0629 B( 29-S , 30-C ) :   1.0875
B( 29-S , 31-N ) :   0.1044 B( 30-C , 31-N ) :   1.7723 B( 30-C , 71-H ) :   0.9637
B( 32-C , 33-C ) :   1.5639 B( 32-C , 72-H ) :   0.9419 B( 33-C , 34-C ) :   1.2373
B( 33-C , 73-H ) :   0.9406 B( 34-C , 35-C ) :   1.2625 B( 34-C , 42-C ) :   0.1160
B( 34-C , 43-S ) :   1.1387 B( 35-C , 36-C ) :   1.2285 B( 35-C , 41-N ) :   1.4096
B( 36-C , 37-N ) :   1.4490 B( 36-C , 42-C ) :   1.2604 B( 37-N , 38-C ) :   1.6886
B( 38-C , 39-C ) :   1.1864 B( 38-C , 74-H ) :   0.9803 B( 39-C , 40-C ) :   1.0477
B( 39-C , 41-N ) :   1.6728 B( 40-C , 75-H ) :   0.9540 B( 40-C , 76-H ) :   0.9530
B( 40-C , 77-H ) :   0.9531 B( 42-C , 43-S ) :   1.1192 B( 42-C , 44-C ) :   1.2743
B( 44-C , 45-C ) :   1.4847 B( 44-C , 78-H ) :   0.9844 B( 45-C , 46-C ) :   1.2264
B( 45-C , 79-H ) :   0.9731 B( 46-C , 47-C ) :   1.5010 B( 46-C , 80-H ) :   0.9840
B( 47-C , 48-C ) :   1.1681 B( 47-C , 51-S ) :   1.0371 B( 48-C , 49-C ) :   1.5700
B( 48-C , 81-H ) :   0.9990 B( 49-C , 50-C ) :   1.1947 B( 49-C , 82-H ) :   0.9937
B( 50-C , 51-S ) :   1.0442 B( 50-C , 52-C ) :   1.5224 B( 52-C , 53-C ) :   1.1669
B( 52-C , 56-S ) :   1.0464 B( 53-C , 54-C ) :   1.6459 B( 53-C , 83-H ) :   0.9921
B( 54-C , 55-C ) :   1.0859 B( 54-C , 84-H ) :   0.9937 B( 55-C , 56-S ) :   1.0097
B( 55-C , 57-C ) :   1.8546 B( 57-C , 85-H ) :   0.9507 B( 57-C , 86-H ) :   0.9420

-----------------------------------------------------------------------------
         ABSORPTION SPECTRUM VIA TRANSITION ELECTRIC DIPOLE MOMENTS
-----------------------------------------------------------------------------
State   Energy  Wavelength   fosc         T2         TX        TY        TZ
        (cm-1)    (nm)                  (au**2)     (au)      (au)      (au)
-----------------------------------------------------------------------------
   0    7466.5   1339.3   1.511296999  66.63595  -5.48746   2.73239  -5.39052
   1   12161.0    822.3   0.759164590  20.55147  -0.00187   4.03625   2.06401
   2   13044.1    766.6   0.121956308   3.07797   0.04903  -1.59306  -0.73331
   3   17275.6    578.9   0.114130044   2.17492   0.92877   0.17898   1.13149
   4   18530.1    539.7   0.423246819   7.51956  -0.59142   2.56846   0.75683
   5   19203.5    520.7   0.295919506   5.07305   0.68746   1.55854   1.47357
   6   19750.7    506.3   0.082526497   1.37558   0.21654   1.06988   0.42899
   7   21263.4    470.3   0.220899977   3.42010  -1.17508   1.22298  -0.73730
   8   23056.8    433.7   0.399770176   5.70804  -0.35598  -2.06968  -1.13919
   9   25232.1    396.3   0.155959542   2.03486  -0.08905   1.35570   0.43474
  10   25335.7    394.7   0.230426569   2.99416  -0.11551  -1.57684  -0.70313
  11   26756.3    373.7   0.018697062   0.23005  -0.28989   0.34159  -0.17127
  12   27232.9    367.2   0.149803329   1.81094   0.68048   0.70232   0.92446
  13   27535.6    363.2   0.165546841   1.97926  -0.43233  -1.07185  -0.80217
  14   27735.8    360.5   0.003320084   0.03941   0.14661   0.09814  -0.09101
  15   28594.0    349.7   0.003119130   0.03591   0.11456   0.03788  -0.14612
  16   28629.6    349.3   0.083254176   0.95734   0.60214   0.29245   0.71361
  17   29117.7    343.4   0.034398813   0.38892   0.25229  -0.56412   0.08394
  18   29909.8    334.3   0.000218123   0.00240   0.04235   0.01350  -0.02061
  19   30405.6    328.9   0.157037108   1.70030   0.86877   0.10429   0.96678
  20   30838.7    324.3   0.061449826   0.65599  -0.55377   0.22236  -0.54762
  21   31056.4    322.0   0.027425740   0.29073   0.26846  -0.41765   0.21029
  22   31797.9    314.5   0.007190405   0.07444  -0.07783   0.26068   0.02076
  23   32170.3    310.8   0.003265082   0.03341  -0.12628   0.00217  -0.13214
  24   32428.4    308.4   0.117097180   1.18876  -0.24135  -0.88925  -0.58289
  25   32799.0    304.9   0.026768316   0.26868  -0.23286  -0.18926  -0.42266
  26   33147.5    301.7   0.030848950   0.30638   0.34562   0.13505   0.41072
  27   33437.0    299.1   0.000025066   0.00025   0.01417  -0.00679  -0.00013
  28   33865.9    295.3   0.040736709   0.39600  -0.23895   0.57939  -0.05668
  29   34129.4    293.0   0.048581043   0.46861   0.10361  -0.65852  -0.15565
  30   34569.3    289.3   0.043158705   0.41101  -0.39074  -0.07050  -0.50335
  31   34862.8    286.8   0.069280442   0.65422  -0.34482   0.73148  -0.01627
  32   35472.4    281.9   0.141877950   1.31674   0.16690   0.97704   0.57817
  33   35613.1    280.8   0.056923141   0.52620  -0.25331  -0.52834  -0.42766
  34   35931.5    278.3   0.030193072   0.27663   0.22462   0.20926   0.42708
  35   35993.7    277.8   0.001058789   0.00968  -0.01644  -0.04564  -0.08562
  36   36463.2    274.2   0.031289277   0.28250  -0.24431  -0.24775  -0.40179
  37   36700.6    272.5   0.064237237   0.57622  -0.33215  -0.36020  -0.57979
  38   37044.9    269.9   0.064704431   0.57502  -0.07204  -0.69893  -0.28517
  39   37117.5    269.4   0.003118730   0.02766   0.08606  -0.01539  -0.14149
  40   37203.3    268.8   0.005289378   0.04681   0.16971  -0.06443   0.11770
  41   37471.8    266.9   0.000178512   0.00157  -0.03672   0.01141   0.00947
  42   37571.4    266.2   0.024345164   0.21332  -0.11011   0.44705   0.03662
  43   37883.1    264.0   0.063860236   0.55496   0.01017   0.66913   0.32729
  44   38496.5    259.8   0.018526256   0.15843  -0.26644   0.21853  -0.19922
  45   38560.0    259.3   0.000245238   0.00209   0.04112  -0.01144  -0.01648
  46   38892.2    257.1   0.000702705   0.00595  -0.06827  -0.01866   0.03066
  47   39100.3    255.8   0.020175407   0.16987  -0.31067   0.10860  -0.24811
  48   39156.8    255.4   0.002592260   0.02179   0.02366   0.05838  -0.13352
  49   39607.9    252.5   0.031208432   0.25940  -0.00186   0.48657   0.15048
  50   39753.3    251.6   0.005131819   0.04250  -0.08693   0.18278  -0.03915
  51   39929.0    250.4   0.000113233   0.00093   0.02899  -0.00542   0.00798

FINAL SINGLE POINT ENERGY     -5187.871656069614

DIPOLE MOMENT
-------------
                                X             Y             Z
Electronic contribution:      2.51812      -9.34226       2.17617
Nuclear contribution   :     -2.15555       9.55813      -1.89614
                        -----------------------------------------
Total Dipole Moment    :      0.36257       0.21587       0.28003
                        -----------------------------------------
Magnitude (a.u.)       :      0.50643
Magnitude (Debye)      :      1.28724

Rotational constants in cm-1:     0.001336     0.000289     0.000238
Rotational constants in MHz :    40.049610     8.668096     7.135332

                             ****ORCA TERMINATED NORMALLY****
TOTAL RUN TIME: 0 days 0 hours 6 minutes 38 seconds 646 msec
