                         Program Version 4.2.0 -  RELEASE  -
|  1> # ORCA input file
|  2> # SCF done       -217.224681502470          0.000278959088
|  3> ! CAM-B3LYP def2-SVP def2/J RIJCOSX Grid4 TightSCF
|  4> %maxcore 5000
|  5> %tddft
|  6>     Mode sTDDFT
|  7>     Ethresh 5.0
|  8>     maxcore 5000
|  9> end
| 10>
| 11> %pal
| 12>   nprocs 6
| 13>   end
| 14> * xyz 0 1
| 15>    C        1.28431         4.97498         1.38374
| 16>    C        0.32440         5.92523         1.17186
| 17>    F       -0.45392         6.32042         2.19512
| 18>    C        0.11325         6.51387        -0.08255
| 19>    C        0.89453         6.12608        -1.13525
| 20>    C        1.89937         5.15025        -0.97337
| 21>    C        2.09638         4.56154         0.31000
| 22>    C        3.09055         3.57237         0.49530
| 23>    C        3.86020         3.18917        -0.56901
| 24>    C        3.67477         3.79745        -1.84394
| 25>    C        2.71814         4.74873        -2.05251
| 26>    C        4.66214         3.24927        -2.79100
| 27>    O        4.77846         3.48622        -3.97182
| 28>    C        5.54445         2.36901        -1.97291
| 29>    C        4.91886         2.18810        -0.68133
| 30>    C        5.08069         1.12815         0.17373
| 31>    C        5.94330         0.04288        -0.07018
| 32>    N        6.61327        -0.87421        -0.24083
| 33>    C        4.32682         0.94832         1.35255
| 34>    N        3.73964         0.74900         2.31799
| 35>    C        6.73664         1.97105        -2.50200
| 36>    C        7.87865         1.47850        -1.83892
| 37>    C        8.22725         1.58213        -0.49914
| 38>    C        9.44751         0.98192        -0.22386
| 39>    C       10.04978         0.41129        -1.36552
| 40>    S        9.12154         0.64544        -2.77134
| 41>    C       11.25811        -0.20686        -0.96795
| 42>    C       11.42333        -0.03335         0.41777
| 43>    C       10.28570         0.71596         0.93112
| 44>    C       10.03191         1.06765         2.22397
| 45>    C       10.91260         0.74943         3.27909
| 46>    N       11.63336         0.49728         4.13409
| 47>    C        8.86388         1.77753         2.57494
| 48>    N        7.91277         2.35940         2.84279
| 49>    C       12.58496        -0.62647         0.90718
| 50>    C       13.30818        -1.25340        -0.09329
| 51>    S       12.53745        -1.10159        -1.66504
| 52>    C       14.52339        -1.96922         0.03707
| 53>    C       15.21884        -2.61980        -0.96399
| 54>    C       16.36565        -3.23979        -0.46958
| 55>    C       16.55179        -3.05693         0.92195
| 56>    S       15.29030        -2.10995         1.61551
| 57>    C       17.71858        -3.73746         1.26049
| 58>    C       18.20998        -4.31861         0.06592
| 59>    N       17.37520        -4.01375        -0.97500
| 60>    C       17.55158        -4.38250        -2.35204
| 61>    C       19.37922        -5.05546         0.24747
| 62>    C       19.78785        -5.04197         1.56768
| 63>    S       18.72413        -4.10429         2.61070
| 64>    C       20.91420        -5.70146         2.11627
| 65>    C       21.35802        -5.67342         3.42860
| 66>    C       22.48710        -6.46714         3.61431
| 67>    C       22.90686        -7.10865         2.43571
| 68>    S       21.91475        -6.72403         1.09707
| 69>    C       24.02952        -7.91160         2.73118
| 70>    C       24.33697        -7.77308         4.10164
| 71>    C       23.38130        -6.85644         4.69793
| 72>    C       23.33008        -6.44078         5.99532
| 73>    C       24.26453        -6.87384         6.96049
| 74>    N       25.02668        -7.21434         7.74615
| 75>    C       22.34843        -5.53784         6.45656
| 76>    N       21.55613        -4.79965         6.83277
| 77>    C       25.43097        -8.53982         4.48558
| 78>    C       25.93862        -9.29857         3.44080
| 79>    S       25.07233        -8.99145         1.93260
| 80>    C       27.05831       -10.15586         3.50599
| 81>    C       27.44094       -11.14030         2.64530
| 82>    C       28.86341       -11.58081         2.61686
| 83>    O       29.71433       -11.33438         3.43992
| 84>    C       29.01237       -12.31427         1.34419
| 85>    C       30.14271       -12.82051         0.77048
| 86>    C       30.04997       -13.46513        -0.48366
| 87>    C       28.78104       -13.56759        -1.12522
| 88>    C       28.69854       -14.20151        -2.38010
| 89>    C       29.83242       -14.70727        -2.95239
| 90>    C       31.08828       -14.62021        -2.33635
| 91>    C       31.18661       -14.00634        -1.11872
| 92>    F       29.75530       -15.31260        -4.15134
| 93>    C       27.62431       -13.04302        -0.50275
| 94>    C       27.73867       -12.43241         0.71605
| 95>    C       26.73490       -11.84629         1.59928
| 96>    C       25.40017       -12.16151         1.59453
| 97>    C       24.52109       -11.81634         2.64105
| 98>    N       23.78965       -11.58570         3.49558
| 99>    C       24.78146       -12.93691         0.59438
|100>    N       24.22716       -13.54370        -0.20716
|101>    H        1.41688         4.54058         2.36223
|102>    H       -0.65928         7.25875        -0.18951
|103>    H        0.75108         6.56557        -2.11090
|104>    H        3.22675         3.15139         1.47881
|105>    H        2.58809         5.19132        -3.02870
|106>    H        6.82967         2.11934        -3.57379
|107>    H        7.62984         2.11117         0.22074
|108>    H       12.90359        -0.61853         1.93404
|109>    H       14.89059        -2.63161        -1.98755
|110>    H       18.16382        -5.28067        -2.40922
|111>    H       18.04237        -3.58242        -2.91415
|112>    H       16.58070        -4.58500        -2.80397
|113>    H       19.91875        -5.57908        -0.52092
|114>    H       20.86476        -5.10053         4.19308
|115>    H       25.83455        -8.58894         5.48088
|116>    H       27.75409        -9.95159         4.31463
|117>    H       31.09732       -12.73090         1.26684
|118>    H       27.74722       -14.29081        -2.88096
|119>    H       31.94793       -15.03850        -2.83542
|120>    H       32.14325       -13.92707        -0.62469
|121>    H       26.67655       -13.12766        -1.01085
|122> *
|123>
|124>                          ****END OF INPUT****

CARTESIAN COORDINATES (ANGSTROEM)
---------------------------------
  C      1.284310    4.974980    1.383740
  C      0.324400    5.925230    1.171860
  F     -0.453920    6.320420    2.195120
  C      0.113250    6.513870   -0.082550
  C      0.894530    6.126080   -1.135250
  C      1.899370    5.150250   -0.973370
  C      2.096380    4.561540    0.310000
  C      3.090550    3.572370    0.495300
  C      3.860200    3.189170   -0.569010
  C      3.674770    3.797450   -1.843940
  C      2.718140    4.748730   -2.052510
  C      4.662140    3.249270   -2.791000
  O      4.778460    3.486220   -3.971820
  C      5.544450    2.369010   -1.972910
  C      4.918860    2.188100   -0.681330
  C      5.080690    1.128150    0.173730
  C      5.943300    0.042880   -0.070180
  N      6.613270   -0.874210   -0.240830
  C      4.326820    0.948320    1.352550
  N      3.739640    0.749000    2.317990
  C      6.736640    1.971050   -2.502000
  C      7.878650    1.478500   -1.838920
  C      8.227250    1.582130   -0.499140
  C      9.447510    0.981920   -0.223860
  C     10.049780    0.411290   -1.365520
  S      9.121540    0.645440   -2.771340
  C     11.258110   -0.206860   -0.967950
  C     11.423330   -0.033350    0.417770
  C     10.285700    0.715960    0.931120
  C     10.031910    1.067650    2.223970
  C     10.912600    0.749430    3.279090
  N     11.633360    0.497280    4.134090
  C      8.863880    1.777530    2.574940
  N      7.912770    2.359400    2.842790
  C     12.584960   -0.626470    0.907180
  C     13.308180   -1.253400   -0.093290
  S     12.537450   -1.101590   -1.665040
  C     14.523390   -1.969220    0.037070
  C     15.218840   -2.619800   -0.963990
  C     16.365650   -3.239790   -0.469580
  C     16.551790   -3.056930    0.921950
  S     15.290300   -2.109950    1.615510
  C     17.718580   -3.737460    1.260490
  C     18.209980   -4.318610    0.065920
  N     17.375200   -4.013750   -0.975000
  C     17.551580   -4.382500   -2.352040
  C     19.379220   -5.055460    0.247470
  C     19.787850   -5.041970    1.567680
  S     18.724130   -4.104290    2.610700
  C     20.914200   -5.701460    2.116270
  C     21.358020   -5.673420    3.428600
  C     22.487100   -6.467140    3.614310
  C     22.906860   -7.108650    2.435710
  S     21.914750   -6.724030    1.097070
  C     24.029520   -7.911600    2.731180
  C     24.336970   -7.773080    4.101640
  C     23.381300   -6.856440    4.697930
  C     23.330080   -6.440780    5.995320
  C     24.264530   -6.873840    6.960490
  N     25.026680   -7.214340    7.746150
  C     22.348430   -5.537840    6.456560
  N     21.556130   -4.799650    6.832770
  C     25.430970   -8.539820    4.485580
  C     25.938620   -9.298570    3.440800
  S     25.072330   -8.991450    1.932600
  C     27.058310  -10.155860    3.505990
  C     27.440940  -11.140300    2.645300
  C     28.863410  -11.580810    2.616860
  O     29.714330  -11.334380    3.439920
  C     29.012370  -12.314270    1.344190
  C     30.142710  -12.820510    0.770480
  C     30.049970  -13.465130   -0.483660
  C     28.781040  -13.567590   -1.125220
  C     28.698540  -14.201510   -2.380100
  C     29.832420  -14.707270   -2.952390
  C     31.088280  -14.620210   -2.336350
  C     31.186610  -14.006340   -1.118720
  F     29.755300  -15.312600   -4.151340
  C     27.624310  -13.043020   -0.502750
  C     27.738670  -12.432410    0.716050
  C     26.734900  -11.846290    1.599280
  C     25.400170  -12.161510    1.594530
  C     24.521090  -11.816340    2.641050
  N     23.789650  -11.585700    3.495580
  C     24.781460  -12.936910    0.594380
  N     24.227160  -13.543700   -0.207160
  H      1.416880    4.540580    2.362230
  H     -0.659280    7.258750   -0.189510
  H      0.751080    6.565570   -2.110900
  H      3.226750    3.151390    1.478810
  H      2.588090    5.191320   -3.028700
  H      6.829670    2.119340   -3.573790
  H      7.629840    2.111170    0.220740
  H     12.903590   -0.618530    1.934040
  H     14.890590   -2.631610   -1.987550
  H     18.163820   -5.280670   -2.409220
  H     18.042370   -3.582420   -2.914150
  H     16.580700   -4.585000   -2.803970
  H     19.918750   -5.579080   -0.520920
  H     20.864760   -5.100530    4.193080
  H     25.834550   -8.588940    5.480880
  H     27.754090   -9.951590    4.314630
  H     31.097320  -12.730900    1.266840
  H     27.747220  -14.290810   -2.880960
  H     31.947930  -15.038500   -2.835420
  H     32.143250  -13.927070   -0.624690
  H     26.676550  -13.127660   -1.010850

 Total Charge           Charge          ....    0
 Multiplicity           Mult            ....    1
 Number of Electrons    NEL             ....  616
 Basis Dimension        Dim             .... 1333

ORBITAL ENERGIES
----------------

  NO   OCC          E(Eh)            E(eV)
   0   2.0000     -88.996472     -2421.7171
   1   2.0000     -88.996407     -2421.7153
   2   2.0000     -88.996362     -2421.7141
   3   2.0000     -88.995850     -2421.7002
   4   2.0000     -88.973063     -2421.0801
   5   2.0000     -88.972712     -2421.0706
   6   2.0000     -24.788077      -674.5179
   7   2.0000     -24.784241      -674.4135
   8   2.0000     -19.214543      -522.8543
   9   2.0000     -19.213459      -522.8248
  10   2.0000     -14.483630      -394.1196
  11   2.0000     -14.434129      -392.7726
  12   2.0000     -14.433705      -392.7611
  13   2.0000     -14.433639      -392.7593
  14   2.0000     -14.432983      -392.7414
  15   2.0000     -14.418532      -392.3482
  16   2.0000     -14.417443      -392.3186
  17   2.0000     -14.416961      -392.3054
  18   2.0000     -14.412243      -392.1771
  19   2.0000     -10.371714      -282.2287
  20   2.0000     -10.369908      -282.1795
  21   2.0000     -10.369063      -282.1565
  22   2.0000     -10.367981      -282.1271
  23   2.0000     -10.366993      -282.1002
  24   2.0000     -10.365114      -282.0491
  25   2.0000     -10.356893      -281.8254
  26   2.0000     -10.355833      -281.7965
  27   2.0000     -10.347104      -281.5590
  28   2.0000     -10.345797      -281.5234
  29   2.0000     -10.345081      -281.5040
  30   2.0000     -10.344790      -281.4960
  31   2.0000     -10.342687      -281.4388
  32   2.0000     -10.341761      -281.4136
  33   2.0000     -10.339076      -281.3406
  34   2.0000     -10.337463      -281.2967
  35   2.0000     -10.337260      -281.2911
  36   2.0000     -10.335402      -281.2406
  37   2.0000     -10.334846      -281.2255
  38   2.0000     -10.334202      -281.2079
  39   2.0000     -10.333595      -281.1914
  40   2.0000     -10.333485      -281.1884
  41   2.0000     -10.332948      -281.1738
  42   2.0000     -10.328253      -281.0460
  43   2.0000     -10.327288      -281.0198
  44   2.0000     -10.327263      -281.0191
  45   2.0000     -10.327133      -281.0156
  46   2.0000     -10.326225      -280.9909
  47   2.0000     -10.325748      -280.9779
  48   2.0000     -10.325070      -280.9594
  49   2.0000     -10.324896      -280.9547
  50   2.0000     -10.321168      -280.8533
  51   2.0000     -10.319046      -280.7955
  52   2.0000     -10.318774      -280.7881
  53   2.0000     -10.315680      -280.7039
  54   2.0000     -10.314773      -280.6792
  55   2.0000     -10.314600      -280.6745
  56   2.0000     -10.313558      -280.6462
  57   2.0000     -10.312773      -280.6248
  58   2.0000     -10.311134      -280.5802
  59   2.0000     -10.310699      -280.5684
  60   2.0000     -10.308444      -280.5070
  61   2.0000     -10.308382      -280.5053
  62   2.0000     -10.308232      -280.5013
  63   2.0000     -10.307439      -280.4797
  64   2.0000     -10.306503      -280.4542
  65   2.0000     -10.305695      -280.4322
  66   2.0000     -10.304642      -280.4036
  67   2.0000     -10.304577      -280.4018
  68   2.0000     -10.303259      -280.3659
  69   2.0000     -10.302384      -280.3421
  70   2.0000     -10.301800      -280.3262
  71   2.0000     -10.301592      -280.3206
  72   2.0000     -10.300686      -280.2959
  73   2.0000     -10.299862      -280.2735
  74   2.0000     -10.299719      -280.2696
  75   2.0000     -10.299189      -280.2552
  76   2.0000     -10.298932      -280.2482
  77   2.0000     -10.298794      -280.2444
  78   2.0000     -10.296560      -280.1837
  79   2.0000     -10.296514      -280.1824
  80   2.0000     -10.296412      -280.1796
  81   2.0000     -10.293203      -280.0923
  82   2.0000     -10.292025      -280.0602
  83   2.0000     -10.291221      -280.0384
  84   2.0000     -10.288890      -279.9749
  85   2.0000     -10.287270      -279.9308
  86   2.0000      -8.091167      -220.1719
  87   2.0000      -8.091023      -220.1679
  88   2.0000      -8.090623      -220.1571
  89   2.0000      -8.090462      -220.1527
  90   2.0000      -8.067574      -219.5299
  91   2.0000      -8.067296      -219.5223
  92   2.0000      -6.060339      -164.9102
  93   2.0000      -6.060335      -164.9101
  94   2.0000      -6.059872      -164.8975
  95   2.0000      -6.059765      -164.8946
  96   2.0000      -6.056202      -164.7976
  97   2.0000      -6.056191      -164.7973
  98   2.0000      -6.055697      -164.7839
  99   2.0000      -6.055653      -164.7827
 100   2.0000      -6.053609      -164.7271
 101   2.0000      -6.053219      -164.7165
 102   2.0000      -6.052994      -164.7103
 103   2.0000      -6.052651      -164.7010
 104   2.0000      -6.037333      -164.2842
 105   2.0000      -6.037048      -164.2764
 106   2.0000      -6.033223      -164.1723
 107   2.0000      -6.032960      -164.1652
 108   2.0000      -6.028837      -164.0530
 109   2.0000      -6.028540      -164.0449
 110   2.0000      -1.302962       -35.4554
 111   2.0000      -1.299259       -35.3546
 112   2.0000      -1.130219       -30.7548
 113   2.0000      -1.128911       -30.7192
 114   2.0000      -1.110675       -30.2230
 115   2.0000      -1.051837       -28.6219
 116   2.0000      -1.051127       -28.6026
 117   2.0000      -1.026190       -27.9240
 118   2.0000      -1.025646       -27.9093
 119   2.0000      -1.022170       -27.8147
 120   2.0000      -1.019206       -27.7340
 121   2.0000      -1.011484       -27.5239
 122   2.0000      -1.011278       -27.5183
 123   2.0000      -1.008981       -27.4558
 124   2.0000      -1.008197       -27.4344
 125   2.0000      -1.002702       -27.2849
 126   2.0000      -1.000088       -27.2138
 127   2.0000      -0.996330       -27.1115
 128   2.0000      -0.992676       -27.0121
 129   2.0000      -0.988512       -26.8988
 130   2.0000      -0.987108       -26.8606
 131   2.0000      -0.978421       -26.6242
 132   2.0000      -0.975252       -26.5380
 133   2.0000      -0.963276       -26.2121
 134   2.0000      -0.961702       -26.1692
 135   2.0000      -0.932406       -25.3721
 136   2.0000      -0.930136       -25.3103
 137   2.0000      -0.923360       -25.1259
 138   2.0000      -0.919987       -25.0341
 139   2.0000      -0.906779       -24.6747
 140   2.0000      -0.900935       -24.5157
 141   2.0000      -0.895971       -24.3806
 142   2.0000      -0.889037       -24.1919
 143   2.0000      -0.885717       -24.1016
 144   2.0000      -0.880262       -23.9531
 145   2.0000      -0.879219       -23.9248
 146   2.0000      -0.873435       -23.7674
 147   2.0000      -0.866946       -23.5908
 148   2.0000      -0.865012       -23.5382
 149   2.0000      -0.864671       -23.5289
 150   2.0000      -0.852538       -23.1987
 151   2.0000      -0.851978       -23.1835
 152   2.0000      -0.839253       -22.8372
 153   2.0000      -0.836087       -22.7511
 154   2.0000      -0.833321       -22.6758
 155   2.0000      -0.823565       -22.4104
 156   2.0000      -0.810437       -22.0531
 157   2.0000      -0.800882       -21.7931
 158   2.0000      -0.784993       -21.3607
 159   2.0000      -0.781749       -21.2725
 160   2.0000      -0.776161       -21.1204
 161   2.0000      -0.771732       -20.9999
 162   2.0000      -0.763410       -20.7734
 163   2.0000      -0.759570       -20.6690
 164   2.0000      -0.746534       -20.3142
 165   2.0000      -0.734580       -19.9889
 166   2.0000      -0.725080       -19.7304
 167   2.0000      -0.717193       -19.5158
 168   2.0000      -0.711863       -19.3708
 169   2.0000      -0.710523       -19.3343
 170   2.0000      -0.708256       -19.2726
 171   2.0000      -0.707662       -19.2565
 172   2.0000      -0.694575       -18.9004
 173   2.0000      -0.692132       -18.8339
 174   2.0000      -0.690766       -18.7967
 175   2.0000      -0.686571       -18.6825
 176   2.0000      -0.682551       -18.5732
 177   2.0000      -0.678419       -18.4607
 178   2.0000      -0.666764       -18.1436
 179   2.0000      -0.665279       -18.1032
 180   2.0000      -0.661172       -17.9914
 181   2.0000      -0.658457       -17.9175
 182   2.0000      -0.638997       -17.3880
 183   2.0000      -0.638706       -17.3801
 184   2.0000      -0.637858       -17.3570
 185   2.0000      -0.635175       -17.2840
 186   2.0000      -0.631912       -17.1952
 187   2.0000      -0.629558       -17.1311
 188   2.0000      -0.627784       -17.0829
 189   2.0000      -0.626206       -17.0399
 190   2.0000      -0.623951       -16.9786
 191   2.0000      -0.621974       -16.9248
 192   2.0000      -0.617654       -16.8072
 193   2.0000      -0.610914       -16.6238
 194   2.0000      -0.604230       -16.4419
 195   2.0000      -0.602311       -16.3897
 196   2.0000      -0.598613       -16.2891
 197   2.0000      -0.585375       -15.9289
 198   2.0000      -0.582256       -15.8440
 199   2.0000      -0.580737       -15.8027
 200   2.0000      -0.579418       -15.7668
 201   2.0000      -0.569690       -15.5021
 202   2.0000      -0.567076       -15.4309
 203   2.0000      -0.562553       -15.3078
 204   2.0000      -0.560522       -15.2526
 205   2.0000      -0.557862       -15.1802
 206   2.0000      -0.557299       -15.1649
 207   2.0000      -0.556732       -15.1494
 208   2.0000      -0.553773       -15.0689
 209   2.0000      -0.553041       -15.0490
 210   2.0000      -0.550957       -14.9923
 211   2.0000      -0.548079       -14.9140
 212   2.0000      -0.544989       -14.8299
 213   2.0000      -0.540738       -14.7142
 214   2.0000      -0.536376       -14.5955
 215   2.0000      -0.534145       -14.5348
 216   2.0000      -0.532323       -14.4852
 217   2.0000      -0.528159       -14.3719
 218   2.0000      -0.525711       -14.3053
 219   2.0000      -0.525026       -14.2867
 220   2.0000      -0.522037       -14.2053
 221   2.0000      -0.519758       -14.1433
 222   2.0000      -0.517633       -14.0855
 223   2.0000      -0.516990       -14.0680
 224   2.0000      -0.513888       -13.9836
 225   2.0000      -0.512696       -13.9512
 226   2.0000      -0.511887       -13.9292
 227   2.0000      -0.510650       -13.8955
 228   2.0000      -0.510466       -13.8905
 229   2.0000      -0.507417       -13.8075
 230   2.0000      -0.505568       -13.7572
 231   2.0000      -0.503523       -13.7016
 232   2.0000      -0.501160       -13.6373
 233   2.0000      -0.500770       -13.6266
 234   2.0000      -0.494465       -13.4551
 235   2.0000      -0.494251       -13.4492
 236   2.0000      -0.492477       -13.4010
 237   2.0000      -0.491028       -13.3615
 238   2.0000      -0.490734       -13.3535
 239   2.0000      -0.488576       -13.2948
 240   2.0000      -0.485905       -13.2221
 241   2.0000      -0.483704       -13.1623
 242   2.0000      -0.483024       -13.1438
 243   2.0000      -0.480392       -13.0721
 244   2.0000      -0.479850       -13.0574
 245   2.0000      -0.474371       -12.9083
 246   2.0000      -0.469978       -12.7888
 247   2.0000      -0.469007       -12.7623
 248   2.0000      -0.466101       -12.6832
 249   2.0000      -0.464087       -12.6285
 250   2.0000      -0.464022       -12.6267
 251   2.0000      -0.461142       -12.5483
 252   2.0000      -0.460762       -12.5380
 253   2.0000      -0.459417       -12.5014
 254   2.0000      -0.458105       -12.4657
 255   2.0000      -0.455600       -12.3975
 256   2.0000      -0.452862       -12.3230
 257   2.0000      -0.451594       -12.2885
 258   2.0000      -0.450283       -12.2528
 259   2.0000      -0.447967       -12.1898
 260   2.0000      -0.447055       -12.1650
 261   2.0000      -0.445276       -12.1166
 262   2.0000      -0.443952       -12.0806
 263   2.0000      -0.443401       -12.0655
 264   2.0000      -0.443385       -12.0651
 265   2.0000      -0.442825       -12.0499
 266   2.0000      -0.442088       -12.0298
 267   2.0000      -0.441041       -12.0013
 268   2.0000      -0.439766       -11.9667
 269   2.0000      -0.436579       -11.8799
 270   2.0000      -0.435503       -11.8506
 271   2.0000      -0.432000       -11.7553
 272   2.0000      -0.430673       -11.7192
 273   2.0000      -0.429853       -11.6969
 274   2.0000      -0.429107       -11.6766
 275   2.0000      -0.428525       -11.6608
 276   2.0000      -0.427984       -11.6460
 277   2.0000      -0.425674       -11.5832
 278   2.0000      -0.424655       -11.5555
 279   2.0000      -0.422317       -11.4918
 280   2.0000      -0.419488       -11.4149
 281   2.0000      -0.416298       -11.3281
 282   2.0000      -0.409565       -11.1448
 283   2.0000      -0.409331       -11.1385
 284   2.0000      -0.400984       -10.9113
 285   2.0000      -0.400723       -10.9042
 286   2.0000      -0.390563       -10.6278
 287   2.0000      -0.384010       -10.4495
 288   2.0000      -0.380934       -10.3657
 289   2.0000      -0.377427       -10.2703
 290   2.0000      -0.367782       -10.0079
 291   2.0000      -0.355624        -9.6770
 292   2.0000      -0.353938        -9.6311
 293   2.0000      -0.350777        -9.5451
 294   2.0000      -0.345101        -9.3907
 295   2.0000      -0.338751        -9.2179
 296   2.0000      -0.335699        -9.1348
 297   2.0000      -0.331100        -9.0097
 298   2.0000      -0.327047        -8.8994
 299   2.0000      -0.323630        -8.8064
 300   2.0000      -0.315762        -8.5923
 301   2.0000      -0.312797        -8.5117
 302   2.0000      -0.302295        -8.2259
 303   2.0000      -0.298394        -8.1197
 304   2.0000      -0.291232        -7.9248
 305   2.0000      -0.290726        -7.9111
 306   2.0000      -0.268234        -7.2990
 307   2.0000      -0.236284        -6.4296
 308   0.0000      -0.118220        -3.2169
 309   0.0000      -0.112069        -3.0495
 310   0.0000      -0.091910        -2.5010
 311   0.0000      -0.090463        -2.4616
 312   0.0000      -0.061057        -1.6615

MULLIKEN ATOMIC CHARGES
-----------------------
   0 C :   -0.092896
   1 C :    0.302869
   2 F :   -0.189791
   3 C :   -0.032505
   4 C :   -0.007932
   5 C :    0.098111
   6 C :    0.097006
   7 C :   -0.078040
   8 C :    0.029835
   9 C :    0.014347
  10 C :   -0.078135
  11 C :    0.134940
  12 O :   -0.147408
  13 C :   -0.142127
  14 C :    0.275452
  15 C :   -0.334522
  16 C :   -0.202089
  17 N :    0.166705
  18 C :   -0.169247
  19 N :    0.158027
  20 C :    0.080465
  21 C :   -0.113465
  22 C :    0.000585
  23 C :   -0.010292
  24 C :   -0.066400
  25 S :    0.208709
  26 C :   -0.106464
  27 C :    0.028200
  28 C :    0.306057
  29 C :   -0.286278
  30 C :   -0.188224
  31 N :    0.177866
  32 C :   -0.184334
  33 N :    0.171430
  34 C :   -0.069192
  35 C :   -0.037820
  36 S :    0.179606
  37 C :   -0.053777
  38 C :   -0.116586
  39 C :    0.165013
  40 C :   -0.111935
  41 S :    0.158610
  42 C :   -0.118205
  43 C :    0.165633
  44 N :   -0.169285
  45 C :    0.124764
  46 C :   -0.111794
  47 C :   -0.057522
  48 S :    0.161225
  49 C :   -0.037149
  50 C :   -0.067797
  51 C :    0.025359
  52 C :   -0.104751
  53 S :    0.182288
  54 C :   -0.072440
  55 C :    0.019380
  56 C :    0.299828
  57 C :   -0.286562
  58 C :   -0.189833
  59 N :    0.178672
  60 C :   -0.188490
  61 N :    0.176510
  62 C :    0.010079
  63 C :   -0.097544
  64 S :    0.199874
  65 C :    0.048378
  66 C :   -0.142645
  67 C :    0.140963
  68 O :   -0.142952
  69 C :    0.013426
  70 C :   -0.082401
  71 C :    0.101116
  72 C :    0.103441
  73 C :   -0.098545
  74 C :    0.303558
  75 C :   -0.027309
  76 C :   -0.011525
  77 F :   -0.189855
  78 C :   -0.087355
  79 C :    0.041872
  80 C :    0.247007
  81 C :   -0.324982
  82 C :   -0.210475
  83 N :    0.171038
  84 C :   -0.172003
  85 N :    0.151919
  86 H :   -0.000930
  87 H :    0.004241
  88 H :   -0.009989
  89 H :    0.001112
  90 H :   -0.012731
  91 H :    0.020328
  92 H :    0.026681
  93 H :    0.017671
  94 H :   -0.016791
  95 H :    0.041333
  96 H :    0.046830
  97 H :    0.042841
  98 H :   -0.015521
  99 H :    0.017783
 100 H :    0.018605
 101 H :    0.033619
 102 H :   -0.010750
 103 H :   -0.004009
 104 H :    0.003690
 105 H :   -0.008143
 106 H :   -0.005152
Sum of atomic charges:    0.0000000

LOEWDIN ATOMIC CHARGES
----------------------
   0 C :   -0.040683
   1 C :    0.093261
   2 F :   -0.064374
   3 C :   -0.036848
   4 C :    0.004267
   5 C :   -0.018828
   6 C :    0.003753
   7 C :    0.013950
   8 C :   -0.016970
   9 C :   -0.060182
  10 C :    0.034296
  11 C :    0.082364
  12 O :   -0.148189
  13 C :   -0.095144
  14 C :    0.065574
  15 C :   -0.137671
  16 C :   -0.015345
  17 N :   -0.048146
  18 C :   -0.018823
  19 N :   -0.047149
  20 C :    0.043035
  21 C :   -0.183870
  22 C :    0.011807
  23 C :   -0.069898
  24 C :   -0.154572
  25 S :    0.494432
  26 C :   -0.192042
  27 C :   -0.051412
  28 C :    0.082142
  29 C :   -0.095164
  30 C :   -0.017334
  31 N :   -0.026594
  32 C :   -0.012884
  33 N :   -0.030380
  34 C :   -0.040213
  35 C :   -0.162253
  36 S :    0.473593
  37 C :   -0.178267
  38 C :   -0.077876
  39 C :   -0.013846
  40 C :   -0.216678
  41 S :    0.433815
  42 C :   -0.216540
  43 C :   -0.013692
  44 N :    0.029276
  45 C :    0.041239
  46 C :   -0.075810
  47 C :   -0.180672
  48 S :    0.433928
  49 C :   -0.158521
  50 C :   -0.041216
  51 C :   -0.047288
  52 C :   -0.196322
  53 S :    0.474962
  54 C :   -0.145213
  55 C :   -0.077691
  56 C :    0.080072
  57 C :   -0.094768
  58 C :   -0.016984
  59 N :   -0.026045
  60 C :   -0.016994
  61 N :   -0.027195
  62 C :    0.018500
  63 C :   -0.182131
  64 S :    0.505240
  65 C :    0.053186
  66 C :   -0.105994
  67 C :    0.082339
  68 O :   -0.144547
  69 C :   -0.058822
  70 C :    0.034508
  71 C :   -0.018557
  72 C :    0.003276
  73 C :   -0.042655
  74 C :    0.093151
  75 C :   -0.036432
  76 C :    0.004971
  77 F :   -0.064713
  78 C :    0.009526
  79 C :   -0.017214
  80 C :    0.060166
  81 C :   -0.147057
  82 C :   -0.037243
  83 N :   -0.049282
  84 C :   -0.019930
  85 N :   -0.053175
  86 H :    0.043965
  87 H :    0.041917
  88 H :    0.035417
  89 H :    0.040968
  90 H :    0.039364
  91 H :    0.045327
  92 H :    0.043154
  93 H :    0.038344
  94 H :    0.026339
  95 H :    0.036191
  96 H :    0.030962
  97 H :    0.035062
  98 H :    0.025958
  99 H :    0.038428
 100 H :    0.047590
 101 H :    0.055033
 102 H :    0.040147
 103 H :    0.042672
 104 H :    0.042061
 105 H :    0.036100
 106 H :    0.038711

  Mayer bond orders larger than 0.100000
B(  0-C ,  1-C ) :   1.4403 B(  0-C ,  6-C ) :   1.2037 B(  0-C , 86-H ) :   1.0066
B(  1-C ,  2-F ) :   1.0894 B(  1-C ,  3-C ) :   1.2550 B(  3-C ,  4-C ) :   1.4606
B(  3-C , 87-H ) :   0.9936 B(  4-C ,  5-C ) :   1.2344 B(  4-C , 88-H ) :   0.9970
B(  5-C ,  6-C ) :   1.2555 B(  5-C , 10-C ) :   1.1921 B(  6-C ,  7-C ) :   1.2047
B(  7-C ,  8-C ) :   1.4653 B(  7-C , 89-H ) :   0.9945 B(  8-C ,  9-C ) :   1.2181
B(  8-C , 14-C ) :   0.9932 B(  9-C , 10-C ) :   1.4708 B(  9-C , 11-C ) :   0.9216
B( 10-C , 90-H ) :   1.0152 B( 11-C , 12-O ) :   2.2638 B( 11-C , 13-C ) :   0.9453
B( 13-C , 14-C ) :   1.0434 B( 13-C , 20-C ) :   1.6509 B( 14-C , 15-C ) :   1.6452
B( 15-C , 16-C ) :   1.1738 B( 15-C , 18-C ) :   1.1284 B( 16-C , 17-N ) :   2.9949
B( 18-C , 19-N ) :   2.9908 B( 20-C , 21-C ) :   1.1489 B( 20-C , 91-H ) :   0.9288
B( 21-C , 22-C ) :   1.3887 B( 21-C , 25-S ) :   1.0806 B( 22-C , 23-C ) :   1.3646
B( 22-C , 92-H ) :   0.9793 B( 23-C , 24-C ) :   1.3994 B( 23-C , 28-C ) :   1.0008
B( 24-C , 25-S ) :   1.1557 B( 24-C , 26-C ) :   1.2033 B( 26-C , 27-C ) :   1.4406
B( 26-C , 36-S ) :   1.1019 B( 27-C , 28-C ) :   0.9908 B( 27-C , 34-C ) :   1.3042
B( 28-C , 29-C ) :   1.7187 B( 29-C , 30-C ) :   1.1317 B( 29-C , 32-C ) :   1.1348
B( 30-C , 31-N ) :   2.9927 B( 32-C , 33-N ) :   2.9823 B( 34-C , 35-C ) :   1.4438
B( 34-C , 93-H ) :   0.9904 B( 35-C , 36-S ) :   1.1164 B( 35-C , 37-C ) :   1.1859
B( 37-C , 38-C ) :   1.4623 B( 37-C , 41-S ) :   1.0998 B( 38-C , 39-C ) :   1.2441
B( 38-C , 94-H ) :   1.0031 B( 39-C , 40-C ) :   1.3845 B( 39-C , 44-N ) :   1.1517
B( 40-C , 41-S ) :   1.0346 B( 40-C , 42-C ) :   1.3985 B( 42-C , 43-C ) :   1.3827
B( 42-C , 48-S ) :   1.0349 B( 43-C , 44-N ) :   1.1474 B( 43-C , 46-C ) :   1.2451
B( 44-N , 45-C ) :   0.9672 B( 45-C , 95-H ) :   0.9726 B( 45-C , 96-H ) :   0.9736
B( 45-C , 97-H ) :   0.9711 B( 46-C , 47-C ) :   1.4629 B( 46-C , 98-H ) :   1.0008
B( 47-C , 48-S ) :   1.0992 B( 47-C , 49-C ) :   1.1873 B( 49-C , 50-C ) :   1.4372
B( 49-C , 53-S ) :   1.1212 B( 50-C , 51-C ) :   1.3096 B( 50-C , 99-H ) :   0.9902
B( 51-C , 52-C ) :   1.4340 B( 51-C , 56-C ) :   0.9902 B( 52-C , 53-S ) :   1.0960
B( 52-C , 54-C ) :   1.2211 B( 54-C , 55-C ) :   1.3853 B( 54-C , 64-S ) :   1.1590
B( 55-C , 56-C ) :   0.9965 B( 55-C , 62-C ) :   1.3123 B( 56-C , 57-C ) :   1.7191
B( 57-C , 58-C ) :   1.1329 B( 57-C , 60-C ) :   1.1324 B( 58-C , 59-N ) :   2.9934
B( 60-C , 61-N ) :   2.9907 B( 62-C , 63-C ) :   1.3900 B( 62-C ,100-H ) :   1.0005
B( 63-C , 64-S ) :   1.0737 B( 63-C , 65-C ) :   1.1586 B( 65-C , 66-C ) :   1.6148
B( 65-C ,101-H ) :   0.9481 B( 66-C , 67-C ) :   0.9417 B( 66-C , 80-C ) :   1.0450
B( 67-C , 68-O ) :   2.2725 B( 67-C , 69-C ) :   0.9193 B( 69-C , 70-C ) :   1.4710
B( 69-C , 79-C ) :   1.2203 B( 70-C , 71-C ) :   1.1906 B( 70-C ,102-H ) :   1.0160
B( 71-C , 72-C ) :   1.2578 B( 71-C , 76-C ) :   1.2334 B( 72-C , 73-C ) :   1.2023
B( 72-C , 78-C ) :   1.2013 B( 73-C , 74-C ) :   1.4395 B( 73-C ,103-H ) :   1.0070
B( 74-C , 75-C ) :   1.2562 B( 74-C , 77-F ) :   1.0897 B( 75-C , 76-C ) :   1.4602
B( 75-C ,104-H ) :   0.9931 B( 76-C ,105-H ) :   0.9975 B( 78-C , 79-C ) :   1.4615
B( 78-C ,106-H ) :   0.9952 B( 79-C , 80-C ) :   1.0004 B( 80-C , 81-C ) :   1.6460
B( 81-C , 82-C ) :   1.1530 B( 81-C , 84-C ) :   1.1368 B( 82-C , 83-N ) :   3.0206
B( 84-C , 85-N ) :   2.9877

-----------------------------------------------------------------------------
         ABSORPTION SPECTRUM VIA TRANSITION ELECTRIC DIPOLE MOMENTS
-----------------------------------------------------------------------------
State   Energy  Wavelength   fosc         T2         TX        TY        TZ
        (cm-1)    (nm)                  (au**2)     (au)      (au)      (au)
-----------------------------------------------------------------------------
   0   10651.1    938.9   0.881017973  27.23124  -4.32793   2.83106  -0.69667
   1   11725.7    852.8   0.020009232   0.56178  -0.73320  -0.04001  -0.15034
   2   17523.8    570.7   1.511225666  28.39079  -4.43482   2.95121  -0.11627
   3   18581.5    538.2   0.126566603   2.24240   1.03903   0.89162   0.60649
   4   19621.5    509.6   0.037137772   0.62310  -0.42971  -0.53127  -0.39523
   5   20478.0    488.3   0.037892005   0.60917  -0.52962   0.22621   0.52678
   6   24053.4    415.7   0.010477071   0.14340   0.28355  -0.10631  -0.22736
   7   24526.4    407.7   0.771431467  10.35472   2.63325  -1.47793   1.11194
   8   25058.4    399.1   0.229735535   3.01821  -1.44143   0.76683  -0.59367
   9   25622.0    390.3   0.025583109   0.32871  -0.30489  -0.46969  -0.12306
  10   25831.3    387.1   0.034574443   0.44064   0.10097  -0.47989  -0.44738
  11   25961.2    385.2   0.037159795   0.47122  -0.19401   0.65808   0.02259
  12   26626.1    375.6   0.260107631   3.21604  -1.55096   0.87815   0.19853
  13   27057.8    369.6   0.049357403   0.60053   0.70246  -0.03928   0.32487
  14   27286.2    366.5   0.021631321   0.26099  -0.47994   0.16072  -0.06937
  15   27474.7    364.0   0.035040114   0.41986  -0.48248  -0.28462   0.32567
  16   27725.5    360.7   0.058476368   0.69435  -0.70026   0.41701  -0.17347
  17   28688.9    348.6   0.044872893   0.51493   0.37266  -0.21874  -0.57289
  18   28914.6    345.8   0.066902218   0.76173   0.60888  -0.41319   0.46932
  19   29280.5    341.5   0.021382432   0.24041   0.23788  -0.36386  -0.22678
  20   29406.5    340.1   0.029999390   0.33585   0.19896  -0.14231  -0.52537
  21   30152.3    331.6   0.526812864   5.75190   0.84888  -1.04580  -1.98434
  22   30339.0    329.6   0.197608692   2.14428   0.82697  -1.16888  -0.30680
  23   30668.9    326.1   0.476079406   5.11043  -0.11525  -0.46515  -2.20925
  24   30998.0    322.6   0.057340256   0.60898  -0.74109   0.18423   0.16067
  25   31413.1    318.3   0.000741710   0.00777   0.05347  -0.05215  -0.04685
  26   31755.3    314.9   0.046934185   0.48657  -0.28598   0.42911   0.46974
  27   32107.4    311.5   0.067495615   0.69206   0.48294  -0.06265  -0.67447
  28   32233.1    310.2   0.191794761   1.95889  -1.08310   0.56674   0.68160
  29   32715.3    305.7   0.138370153   1.39241   0.86444  -0.67253  -0.43914
  30   33050.0    302.6   0.123165002   1.22685   0.04571  -0.39844  -1.03247
  31   33198.0    301.2   0.141476233   1.40297  -0.64296   0.87695   0.46961
  32   33282.7    300.5   0.024393979   0.24129   0.40263   0.07208   0.27200
  33   33813.8    295.7   0.281156485   2.73735   0.06205   0.59334   1.54319
  34   33998.6    294.1   0.037126460   0.35950   0.40527  -0.31462  -0.31028
  35   34081.3    293.4   0.230159478   2.22325   1.31069  -0.45987  -0.54208
  36   34133.4    293.0   0.248104640   2.39294   0.93528  -1.21045  -0.23025
  37   34346.8    291.1   0.361329771   3.46332  -1.17951   0.94620  -1.08479
  38   34510.4    289.8   0.039388763   0.37575   0.07677   0.04178  -0.60672
  39   34770.5    287.6   0.528585999   5.00473  -1.77009   1.10614   0.80496
  40   35033.9    285.4   0.029244322   0.27481  -0.03002  -0.22065   0.47457
  41   35154.1    284.5   0.096627538   0.90490   0.26221  -0.38644   0.82874
  42   35399.3    282.5   0.167943885   1.56187   0.92419  -0.76200  -0.35649
  43   35620.1    280.7   0.026756900   0.24730  -0.10327   0.28239   0.39609
  44   35846.5    279.0   0.005354732   0.04918  -0.06006   0.17911  -0.11615
  45   36003.0    277.8   0.063672767   0.58223   0.51899  -0.55764   0.04367
  46   36130.9    276.8   0.064274149   0.58564  -0.08101   0.25321   0.71761
  47   36313.5    275.4   0.033338987   0.30225  -0.36957   0.10628   0.39290
  48   36415.9    274.6   0.023115069   0.20897  -0.34758   0.15898   0.25076
  49   36523.0    273.8   0.027905997   0.25154  -0.01120   0.49799   0.05846
  50   36534.3    273.7   0.068080727   0.61348   0.18509  -0.01525  -0.76091
  51   36876.0    271.2   0.012255878   0.10941   0.27091   0.18891   0.01830
  52   37021.8    270.1   0.160845434   1.43030  -0.90759   0.21958   0.74724
  53   37625.5    265.8   0.001180389   0.01033  -0.01114   0.06873  -0.07402
  54   37771.6    264.7   0.057845200   0.50417   0.10328  -0.14770  -0.68680
  55   38172.9    262.0   0.008707309   0.07509  -0.06600  -0.00437  -0.26593
  56   38252.4    261.4   0.030786135   0.26495   0.28199  -0.39626  -0.16857
  57   38885.2    257.2   0.041812487   0.35399   0.07863  -0.26091   0.52890
  58   38984.0    256.5   0.063022022   0.53221  -0.39698   0.20257  -0.57756
  59   39010.1    256.3   0.053964462   0.45541  -0.01239  -0.39622   0.54614
  60   39398.1    253.8   0.009301277   0.07772  -0.27832  -0.00016   0.01610
  61   39561.9    252.8   0.022993008   0.19134  -0.27343  -0.07577  -0.33291
  62   39730.6    251.7   0.011895808   0.09857  -0.20048   0.22560   0.08648
  63   40083.5    249.5   0.058578961   0.48112  -0.33899   0.37894  -0.47181
  64   40246.3    248.5   0.149932810   1.22644  -0.69723  -0.35640  -0.78313

FINAL SINGLE POINT ENERGY     -5792.625875880362

DIPOLE MOMENT
-------------
                                X             Y             Z
Electronic contribution:     -3.06204       0.71233      13.33642
Nuclear contribution   :      5.07882       0.63434     -18.69830
                        -----------------------------------------
Total Dipole Moment    :      2.01679       1.34667      -5.36188
                        -----------------------------------------
Magnitude (a.u.)       :      5.88478
Magnitude (Debye)      :     14.95793

Rotational constants in cm-1:     0.001890     0.000109     0.000105
Rotational constants in MHz :    56.666316     3.282235     3.153566

                             ****ORCA TERMINATED NORMALLY****
TOTAL RUN TIME: 0 days 0 hours 14 minutes 9 seconds 771 msec
