                         Program Version 4.2.0 -  RELEASE  -
|  1> # ORCA input file
|  2> # SCF done       -204.323233866705          0.006072199830
|  3> ! CAM-B3LYP def2-SVP def2/J RIJCOSX Grid4 TightSCF
|  4> %maxcore 5000
|  5> %tddft
|  6>     Mode sTDDFT
|  7>     Ethresh 5.0
|  8>     maxcore 5000
|  9> end
| 10>
| 11> %pal
| 12>   nprocs 6
| 13>   end
| 14> * xyz 0 1
| 15>    C       -4.22090         3.14012         0.26208
| 16>    C       -5.02381         3.74102         1.21963
| 17>    C       -5.80369         2.98080         2.08067
| 18>    C       -5.79290         1.59571         2.01718
| 19>    C       -4.98909         0.98432         1.06888
| 20>    C       -4.20620         1.75575         0.18062
| 21>    C       -3.48993         0.86078        -0.71759
| 22>    C       -2.56521         1.24047        -1.65393
| 23>    C       -2.16174         2.57565        -1.87556
| 24>    N       -1.78489         3.63369        -2.11220
| 25>    C       -1.84947         0.37666        -2.50979
| 26>    N       -1.22351        -0.26160        -3.23258
| 27>    C       -3.96140        -0.49179        -0.43031
| 28>    C       -4.74000        -0.42352         0.80086
| 29>    C       -4.94731        -1.43846         1.69706
| 30>    C       -4.44462        -2.74865         1.56689
| 31>    N       -4.01953        -3.81499         1.55070
| 32>    C       -5.58661        -1.27067         2.94398
| 33>    N       -6.08616        -1.20621         3.97455
| 34>    C       -3.72758        -1.56909        -1.23941
| 35>    C       -4.40420        -2.80758        -1.27454
| 36>    C       -5.70112        -3.13966        -0.90539
| 37>    C       -5.98317        -4.48196        -1.13176
| 38>    C       -4.88325        -5.18320        -1.66858
| 39>    S       -3.53992        -4.18639        -1.95032
| 40>    C       -5.23228        -6.54895        -1.77378
| 41>    C       -6.55112        -6.72174        -1.32541
| 42>    C       -7.07633        -5.42162        -0.92750
| 43>    C       -8.32414        -5.13711        -0.45467
| 44>    C       -9.31722        -6.12877        -0.32419
| 45>    N      -10.11962        -6.94318        -0.22809
| 46>    C       -8.68166        -3.82306        -0.08044
| 47>    N       -8.92406        -2.74486         0.22153
| 48>    C       -6.95451        -8.05837        -1.34830
| 49>    C       -5.95898        -8.89910        -1.81541
| 50>    S       -4.49910        -8.01793        -2.23344
| 51>    C       -6.01379       -10.31788        -1.92523
| 52>    S       -7.31762       -11.18398        -1.14229
| 53>    C       -6.68147       -12.68414        -1.68276
| 54>    C       -5.54695       -12.54515        -2.42322
| 55>    C       -5.15970       -11.18967        -2.57133
| 56>    C       -3.97722       -10.80499        -3.39912
| 57>    C       -3.68912       -11.86472        -4.46519
| 58>    C       -3.53453       -13.22560        -3.76831
| 59>    C       -4.81524       -13.68079        -3.06839
| 60>    C       -4.73908       -11.91264        -5.56355
| 61>    C       -4.46818       -12.42941        -6.75465
| 62>    C       -6.08880       -11.43396        -5.24637
| 63>    C       -7.16721       -12.21849        -4.94022
| 64>    C       -8.26547       -11.46470        -4.50529
| 65>    C       -8.02802       -10.08522        -4.54310
| 66>    S       -6.46246        -9.72382        -5.12630
| 67>    C       -9.16648        -9.41605        -4.01448
| 68>    C      -10.11546       -10.38956        -3.64617
| 69>    C       -9.57226       -11.70732        -3.92749
| 70>    C      -10.14273       -12.91207        -3.63785
| 71>    C      -11.42922       -13.00372        -3.06715
| 72>    N      -12.47814       -13.06668        -2.60901
| 73>    C       -9.46219       -14.12782        -3.85693
| 74>    N       -8.88387       -15.10623        -4.00571
| 75>    C      -11.26870        -9.84676        -3.10056
| 76>    C      -11.21860        -8.46176        -3.04184
| 77>    S       -9.68722        -7.83921        -3.64192
| 78>    C      -12.17870        -7.57443        -2.50674
| 79>    C      -13.51413        -7.82038        -2.35549
| 80>    C      -14.38022        -7.12458        -1.40792
| 81>    C      -14.10942        -5.96107        -0.73870
| 82>    C      -12.94204        -5.18282        -0.88770
| 83>    N      -12.02527        -4.49452        -0.96857
| 84>    C      -15.00301        -5.34996         0.16908
| 85>    N      -15.68721        -4.79979         0.90861
| 86>    C      -15.59292        -7.92375        -1.28261
| 87>    C      -15.54034        -8.98588        -2.21450
| 88>    C      -16.55827        -9.92295        -2.28309
| 89>    C      -17.63947        -9.78792        -1.42553
| 90>    C      -17.70324        -8.73690        -0.52117
| 91>    C      -16.68479        -7.79881        -0.43705
| 92>    C      -14.32415        -8.85193        -2.99789
| 93>    C      -14.12942        -9.38744        -4.24283
| 94>    C      -15.02258       -10.28576        -4.86582
| 95>    N      -15.70218       -11.01707        -5.43130
| 96>    C      -13.06897        -9.04841        -5.10688
| 97>    N      -12.25582        -8.78480        -5.87365
| 98>    H       -3.62671         3.74719        -0.40072
| 99>    H       -5.04441         4.81798         1.29101
|100>    H       -6.42800         3.47226         2.81095
|101>    H       -6.40954         1.01630         2.68516
|102>    H       -2.94913        -1.46697        -1.98321
|103>    H       -6.40406        -2.42135        -0.52448
|104>    H       -7.91693        -8.42124        -1.03347
|105>    H       -7.19119       -13.59235        -1.42850
|106>    H       -3.09937       -10.70317        -2.75354
|107>    H       -4.13536        -9.83588        -3.87754
|108>    H       -2.73197       -11.62397        -4.93950
|109>    H       -2.73295       -13.13009        -3.03295
|110>    H       -3.23445       -13.98241        -4.49368
|111>    H       -4.57397       -14.43405        -2.31490
|112>    H       -5.48030       -14.16160        -3.78921
|113>    H       -3.49132       -12.81203        -6.99398
|114>    H       -5.21077       -12.48346        -7.53172
|115>    H       -7.14913       -13.29074        -4.99370
|116>    H      -12.09429       -10.42071        -2.72025
|117>    H      -11.78179        -6.65254        -2.10689
|118>    H      -16.51045       -10.74961        -2.97333
|119>    H      -18.43924       -10.51182        -1.46328
|120>    H      -18.55686        -8.64852         0.13374
|121>    H      -16.75088        -6.99675         0.27914
|122> *
|123>
|124>                          ****END OF INPUT****

CARTESIAN COORDINATES (ANGSTROEM)
---------------------------------
  C     -4.220900    3.140120    0.262080
  C     -5.023810    3.741020    1.219630
  C     -5.803690    2.980800    2.080670
  C     -5.792900    1.595710    2.017180
  C     -4.989090    0.984320    1.068880
  C     -4.206200    1.755750    0.180620
  C     -3.489930    0.860780   -0.717590
  C     -2.565210    1.240470   -1.653930
  C     -2.161740    2.575650   -1.875560
  N     -1.784890    3.633690   -2.112200
  C     -1.849470    0.376660   -2.509790
  N     -1.223510   -0.261600   -3.232580
  C     -3.961400   -0.491790   -0.430310
  C     -4.740000   -0.423520    0.800860
  C     -4.947310   -1.438460    1.697060
  C     -4.444620   -2.748650    1.566890
  N     -4.019530   -3.814990    1.550700
  C     -5.586610   -1.270670    2.943980
  N     -6.086160   -1.206210    3.974550
  C     -3.727580   -1.569090   -1.239410
  C     -4.404200   -2.807580   -1.274540
  C     -5.701120   -3.139660   -0.905390
  C     -5.983170   -4.481960   -1.131760
  C     -4.883250   -5.183200   -1.668580
  S     -3.539920   -4.186390   -1.950320
  C     -5.232280   -6.548950   -1.773780
  C     -6.551120   -6.721740   -1.325410
  C     -7.076330   -5.421620   -0.927500
  C     -8.324140   -5.137110   -0.454670
  C     -9.317220   -6.128770   -0.324190
  N    -10.119620   -6.943180   -0.228090
  C     -8.681660   -3.823060   -0.080440
  N     -8.924060   -2.744860    0.221530
  C     -6.954510   -8.058370   -1.348300
  C     -5.958980   -8.899100   -1.815410
  S     -4.499100   -8.017930   -2.233440
  C     -6.013790  -10.317880   -1.925230
  S     -7.317620  -11.183980   -1.142290
  C     -6.681470  -12.684140   -1.682760
  C     -5.546950  -12.545150   -2.423220
  C     -5.159700  -11.189670   -2.571330
  C     -3.977220  -10.804990   -3.399120
  C     -3.689120  -11.864720   -4.465190
  C     -3.534530  -13.225600   -3.768310
  C     -4.815240  -13.680790   -3.068390
  C     -4.739080  -11.912640   -5.563550
  C     -4.468180  -12.429410   -6.754650
  C     -6.088800  -11.433960   -5.246370
  C     -7.167210  -12.218490   -4.940220
  C     -8.265470  -11.464700   -4.505290
  C     -8.028020  -10.085220   -4.543100
  S     -6.462460   -9.723820   -5.126300
  C     -9.166480   -9.416050   -4.014480
  C    -10.115460  -10.389560   -3.646170
  C     -9.572260  -11.707320   -3.927490
  C    -10.142730  -12.912070   -3.637850
  C    -11.429220  -13.003720   -3.067150
  N    -12.478140  -13.066680   -2.609010
  C     -9.462190  -14.127820   -3.856930
  N     -8.883870  -15.106230   -4.005710
  C    -11.268700   -9.846760   -3.100560
  C    -11.218600   -8.461760   -3.041840
  S     -9.687220   -7.839210   -3.641920
  C    -12.178700   -7.574430   -2.506740
  C    -13.514130   -7.820380   -2.355490
  C    -14.380220   -7.124580   -1.407920
  C    -14.109420   -5.961070   -0.738700
  C    -12.942040   -5.182820   -0.887700
  N    -12.025270   -4.494520   -0.968570
  C    -15.003010   -5.349960    0.169080
  N    -15.687210   -4.799790    0.908610
  C    -15.592920   -7.923750   -1.282610
  C    -15.540340   -8.985880   -2.214500
  C    -16.558270   -9.922950   -2.283090
  C    -17.639470   -9.787920   -1.425530
  C    -17.703240   -8.736900   -0.521170
  C    -16.684790   -7.798810   -0.437050
  C    -14.324150   -8.851930   -2.997890
  C    -14.129420   -9.387440   -4.242830
  C    -15.022580  -10.285760   -4.865820
  N    -15.702180  -11.017070   -5.431300
  C    -13.068970   -9.048410   -5.106880
  N    -12.255820   -8.784800   -5.873650
  H     -3.626710    3.747190   -0.400720
  H     -5.044410    4.817980    1.291010
  H     -6.428000    3.472260    2.810950
  H     -6.409540    1.016300    2.685160
  H     -2.949130   -1.466970   -1.983210
  H     -6.404060   -2.421350   -0.524480
  H     -7.916930   -8.421240   -1.033470
  H     -7.191190  -13.592350   -1.428500
  H     -3.099370  -10.703170   -2.753540
  H     -4.135360   -9.835880   -3.877540
  H     -2.731970  -11.623970   -4.939500
  H     -2.732950  -13.130090   -3.032950
  H     -3.234450  -13.982410   -4.493680
  H     -4.573970  -14.434050   -2.314900
  H     -5.480300  -14.161600   -3.789210
  H     -3.491320  -12.812030   -6.993980
  H     -5.210770  -12.483460   -7.531720
  H     -7.149130  -13.290740   -4.993700
  H    -12.094290  -10.420710   -2.720250
  H    -11.781790   -6.652540   -2.106890
  H    -16.510450  -10.749610   -2.973330
  H    -18.439240  -10.511820   -1.463280
  H    -18.556860   -8.648520    0.133740
  H    -16.750880   -6.996750    0.279140

 Total Charge           Charge          ....    0
 Multiplicity           Mult            ....    1
 Number of Electrons    NEL             ....  584
 Basis Dimension        Dim             .... 1302

ORBITAL ENERGIES
----------------

  NO   OCC          E(Eh)            E(eV)
   0   2.0000     -89.003089     -2421.8972
   1   2.0000     -89.003039     -2421.8958
   2   2.0000     -89.002944     -2421.8932
   3   2.0000     -88.995744     -2421.6973
   4   2.0000     -88.972100     -2421.0539
   5   2.0000     -14.441944      -392.9853
   6   2.0000     -14.439718      -392.9247
   7   2.0000     -14.438503      -392.8916
   8   2.0000     -14.434140      -392.7729
   9   2.0000     -14.427984      -392.6054
  10   2.0000     -14.426411      -392.5626
  11   2.0000     -14.425162      -392.5286
  12   2.0000     -14.423420      -392.4812
  13   2.0000     -14.422446      -392.4547
  14   2.0000     -14.422128      -392.4461
  15   2.0000     -14.420261      -392.3952
  16   2.0000     -14.419356      -392.3706
  17   2.0000     -10.374520      -282.3050
  18   2.0000     -10.372306      -282.2448
  19   2.0000     -10.363103      -281.9944
  20   2.0000     -10.359848      -281.9058
  21   2.0000     -10.355126      -281.7773
  22   2.0000     -10.353895      -281.7438
  23   2.0000     -10.352569      -281.7077
  24   2.0000     -10.352004      -281.6923
  25   2.0000     -10.351959      -281.6911
  26   2.0000     -10.351565      -281.6804
  27   2.0000     -10.350514      -281.6518
  28   2.0000     -10.349560      -281.6258
  29   2.0000     -10.349187      -281.6157
  30   2.0000     -10.349081      -281.6128
  31   2.0000     -10.344024      -281.4752
  32   2.0000     -10.343613      -281.4640
  33   2.0000     -10.340471      -281.3785
  34   2.0000     -10.339020      -281.3390
  35   2.0000     -10.338940      -281.3369
  36   2.0000     -10.337928      -281.3093
  37   2.0000     -10.337281      -281.2917
  38   2.0000     -10.336261      -281.2640
  39   2.0000     -10.334173      -281.2071
  40   2.0000     -10.332707      -281.1672
  41   2.0000     -10.332255      -281.1550
  42   2.0000     -10.330339      -281.1028
  43   2.0000     -10.329553      -281.0814
  44   2.0000     -10.328354      -281.0488
  45   2.0000     -10.327711      -281.0313
  46   2.0000     -10.325369      -280.9676
  47   2.0000     -10.325204      -280.9631
  48   2.0000     -10.324984      -280.9571
  49   2.0000     -10.324145      -280.9343
  50   2.0000     -10.323149      -280.9072
  51   2.0000     -10.322552      -280.8909
  52   2.0000     -10.322061      -280.8775
  53   2.0000     -10.321785      -280.8700
  54   2.0000     -10.320747      -280.8418
  55   2.0000     -10.319447      -280.8064
  56   2.0000     -10.316931      -280.7380
  57   2.0000     -10.315556      -280.7005
  58   2.0000     -10.315396      -280.6962
  59   2.0000     -10.314993      -280.6852
  60   2.0000     -10.313456      -280.6434
  61   2.0000     -10.312724      -280.6235
  62   2.0000     -10.312253      -280.6107
  63   2.0000     -10.311700      -280.5956
  64   2.0000     -10.311024      -280.5772
  65   2.0000     -10.306521      -280.4547
  66   2.0000     -10.304280      -280.3937
  67   2.0000     -10.304198      -280.3915
  68   2.0000     -10.302901      -280.3562
  69   2.0000     -10.302593      -280.3478
  70   2.0000     -10.301547      -280.3193
  71   2.0000     -10.300930      -280.3026
  72   2.0000     -10.300834      -280.2999
  73   2.0000     -10.300716      -280.2967
  74   2.0000     -10.300228      -280.2834
  75   2.0000     -10.299828      -280.2726
  76   2.0000     -10.299766      -280.2709
  77   2.0000     -10.299068      -280.2519
  78   2.0000     -10.296445      -280.1805
  79   2.0000     -10.290722      -280.0248
  80   2.0000     -10.286846      -279.9193
  81   2.0000     -10.285575      -279.8847
  82   2.0000     -10.285000      -279.8691
  83   2.0000      -8.097848      -220.3537
  84   2.0000      -8.096915      -220.3283
  85   2.0000      -8.096873      -220.3271
  86   2.0000      -8.089439      -220.1248
  87   2.0000      -8.066948      -219.5128
  88   2.0000      -6.067011      -165.0918
  89   2.0000      -6.066210      -165.0700
  90   2.0000      -6.066125      -165.0676
  91   2.0000      -6.062807      -164.9774
  92   2.0000      -6.061909      -164.9529
  93   2.0000      -6.061861      -164.9516
  94   2.0000      -6.060328      -164.9099
  95   2.0000      -6.059534      -164.8883
  96   2.0000      -6.059312      -164.8823
  97   2.0000      -6.058798      -164.8683
  98   2.0000      -6.054538      -164.7524
  99   2.0000      -6.051854      -164.6793
 100   2.0000      -6.036436      -164.2598
 101   2.0000      -6.032043      -164.1402
 102   2.0000      -6.029077      -164.0595
 103   2.0000      -1.058113       -28.7927
 104   2.0000      -1.054746       -28.7011
 105   2.0000      -1.040250       -28.3066
 106   2.0000      -1.037566       -28.2336
 107   2.0000      -1.031484       -28.0681
 108   2.0000      -1.030943       -28.0534
 109   2.0000      -1.022931       -27.8354
 110   2.0000      -1.019921       -27.7535
 111   2.0000      -1.018218       -27.7071
 112   2.0000      -1.017147       -27.6780
 113   2.0000      -1.014911       -27.6171
 114   2.0000      -1.011846       -27.5337
 115   2.0000      -1.009213       -27.4621
 116   2.0000      -1.008646       -27.4467
 117   2.0000      -1.002947       -27.2916
 118   2.0000      -1.002350       -27.2753
 119   2.0000      -0.999808       -27.2062
 120   2.0000      -0.999638       -27.2015
 121   2.0000      -0.996897       -27.1269
 122   2.0000      -0.972804       -26.4713
 123   2.0000      -0.970207       -26.4007
 124   2.0000      -0.960718       -26.1425
 125   2.0000      -0.958679       -26.0870
 126   2.0000      -0.950495       -25.8643
 127   2.0000      -0.944128       -25.6910
 128   2.0000      -0.941278       -25.6135
 129   2.0000      -0.929051       -25.2808
 130   2.0000      -0.924074       -25.1453
 131   2.0000      -0.901843       -24.5404
 132   2.0000      -0.899003       -24.4631
 133   2.0000      -0.894738       -24.3471
 134   2.0000      -0.893403       -24.3107
 135   2.0000      -0.888351       -24.1733
 136   2.0000      -0.884565       -24.0703
 137   2.0000      -0.874659       -23.8007
 138   2.0000      -0.870664       -23.6920
 139   2.0000      -0.868534       -23.6340
 140   2.0000      -0.866798       -23.5868
 141   2.0000      -0.865779       -23.5590
 142   2.0000      -0.860678       -23.4202
 143   2.0000      -0.839841       -22.8532
 144   2.0000      -0.832564       -22.6552
 145   2.0000      -0.818459       -22.2714
 146   2.0000      -0.813991       -22.1498
 147   2.0000      -0.795943       -21.6587
 148   2.0000      -0.792856       -21.5747
 149   2.0000      -0.787361       -21.4252
 150   2.0000      -0.786707       -21.4074
 151   2.0000      -0.778643       -21.1880
 152   2.0000      -0.773626       -21.0514
 153   2.0000      -0.740060       -20.1380
 154   2.0000      -0.736715       -20.0470
 155   2.0000      -0.733857       -19.9693
 156   2.0000      -0.721611       -19.6360
 157   2.0000      -0.719323       -19.5738
 158   2.0000      -0.717520       -19.5247
 159   2.0000      -0.716847       -19.5064
 160   2.0000      -0.714971       -19.4554
 161   2.0000      -0.714363       -19.4388
 162   2.0000      -0.703589       -19.1456
 163   2.0000      -0.695785       -18.9333
 164   2.0000      -0.692877       -18.8541
 165   2.0000      -0.688608       -18.7380
 166   2.0000      -0.683159       -18.5897
 167   2.0000      -0.672760       -18.3067
 168   2.0000      -0.669280       -18.2120
 169   2.0000      -0.667802       -18.1718
 170   2.0000      -0.666738       -18.1429
 171   2.0000      -0.661824       -18.0091
 172   2.0000      -0.655122       -17.8268
 173   2.0000      -0.649051       -17.6616
 174   2.0000      -0.641631       -17.4597
 175   2.0000      -0.640374       -17.4254
 176   2.0000      -0.632235       -17.2040
 177   2.0000      -0.627409       -17.0727
 178   2.0000      -0.625449       -17.0193
 179   2.0000      -0.618687       -16.8353
 180   2.0000      -0.617515       -16.8034
 181   2.0000      -0.608391       -16.5552
 182   2.0000      -0.604907       -16.4604
 183   2.0000      -0.589771       -16.0485
 184   2.0000      -0.587757       -15.9937
 185   2.0000      -0.587229       -15.9793
 186   2.0000      -0.586610       -15.9625
 187   2.0000      -0.581721       -15.8294
 188   2.0000      -0.579586       -15.7713
 189   2.0000      -0.569281       -15.4909
 190   2.0000      -0.562005       -15.2929
 191   2.0000      -0.560955       -15.2643
 192   2.0000      -0.555765       -15.1231
 193   2.0000      -0.553380       -15.0582
 194   2.0000      -0.551060       -14.9951
 195   2.0000      -0.547799       -14.9064
 196   2.0000      -0.546062       -14.8591
 197   2.0000      -0.541628       -14.7384
 198   2.0000      -0.541209       -14.7270
 199   2.0000      -0.539309       -14.6753
 200   2.0000      -0.538364       -14.6496
 201   2.0000      -0.534155       -14.5351
 202   2.0000      -0.530905       -14.4467
 203   2.0000      -0.527310       -14.3488
 204   2.0000      -0.524557       -14.2739
 205   2.0000      -0.519472       -14.1356
 206   2.0000      -0.518978       -14.1221
 207   2.0000      -0.516917       -14.0660
 208   2.0000      -0.514589       -14.0027
 209   2.0000      -0.513035       -13.9604
 210   2.0000      -0.511531       -13.9195
 211   2.0000      -0.509820       -13.8729
 212   2.0000      -0.507947       -13.8220
 213   2.0000      -0.507730       -13.8160
 214   2.0000      -0.505994       -13.7688
 215   2.0000      -0.502250       -13.6669
 216   2.0000      -0.499124       -13.5819
 217   2.0000      -0.498559       -13.5665
 218   2.0000      -0.495794       -13.4912
 219   2.0000      -0.492828       -13.4105
 220   2.0000      -0.489991       -13.3333
 221   2.0000      -0.487739       -13.2721
 222   2.0000      -0.484126       -13.1737
 223   2.0000      -0.481998       -13.1158
 224   2.0000      -0.477132       -12.9834
 225   2.0000      -0.473892       -12.8953
 226   2.0000      -0.471992       -12.8436
 227   2.0000      -0.470563       -12.8047
 228   2.0000      -0.468617       -12.7517
 229   2.0000      -0.467351       -12.7173
 230   2.0000      -0.465977       -12.6799
 231   2.0000      -0.465742       -12.6735
 232   2.0000      -0.463148       -12.6029
 233   2.0000      -0.462075       -12.5737
 234   2.0000      -0.461543       -12.5592
 235   2.0000      -0.460766       -12.5381
 236   2.0000      -0.458981       -12.4895
 237   2.0000      -0.458780       -12.4840
 238   2.0000      -0.458124       -12.4662
 239   2.0000      -0.455903       -12.4058
 240   2.0000      -0.454648       -12.3716
 241   2.0000      -0.452467       -12.3123
 242   2.0000      -0.452086       -12.3019
 243   2.0000      -0.450481       -12.2582
 244   2.0000      -0.450199       -12.2505
 245   2.0000      -0.449789       -12.2394
 246   2.0000      -0.449616       -12.2347
 247   2.0000      -0.448323       -12.1995
 248   2.0000      -0.447249       -12.1703
 249   2.0000      -0.446794       -12.1579
 250   2.0000      -0.444359       -12.0916
 251   2.0000      -0.442923       -12.0525
 252   2.0000      -0.441155       -12.0044
 253   2.0000      -0.436977       -11.8908
 254   2.0000      -0.436101       -11.8669
 255   2.0000      -0.435944       -11.8626
 256   2.0000      -0.435071       -11.8389
 257   2.0000      -0.434853       -11.8330
 258   2.0000      -0.433564       -11.7979
 259   2.0000      -0.432618       -11.7721
 260   2.0000      -0.432031       -11.7562
 261   2.0000      -0.430207       -11.7065
 262   2.0000      -0.429613       -11.6904
 263   2.0000      -0.426271       -11.5994
 264   2.0000      -0.424739       -11.5577
 265   2.0000      -0.419795       -11.4232
 266   2.0000      -0.419391       -11.4122
 267   2.0000      -0.417342       -11.3565
 268   2.0000      -0.415467       -11.3054
 269   2.0000      -0.414245       -11.2722
 270   2.0000      -0.413142       -11.2422
 271   2.0000      -0.411755       -11.2044
 272   2.0000      -0.410631       -11.1738
 273   2.0000      -0.394276       -10.7288
 274   2.0000      -0.388928       -10.5833
 275   2.0000      -0.386279       -10.5112
 276   2.0000      -0.383933       -10.4474
 277   2.0000      -0.367484        -9.9997
 278   2.0000      -0.361146        -9.8273
 279   2.0000      -0.355881        -9.6840
 280   2.0000      -0.351973        -9.5777
 281   2.0000      -0.345766        -9.4088
 282   2.0000      -0.336992        -9.1700
 283   2.0000      -0.334567        -9.1040
 284   2.0000      -0.331830        -9.0296
 285   2.0000      -0.329709        -8.9718
 286   2.0000      -0.325169        -8.8483
 287   2.0000      -0.321828        -8.7574
 288   2.0000      -0.309354        -8.4179
 289   2.0000      -0.303249        -8.2518
 290   2.0000      -0.271572        -7.3898
 291   2.0000      -0.263530        -7.1710
 292   0.0000      -0.119000        -3.2382
 293   0.0000      -0.116454        -3.1689
 294   0.0000      -0.099364        -2.7038
 295   0.0000      -0.094834        -2.5806
 296   0.0000      -0.091364        -2.4861

MULLIKEN ATOMIC CHARGES
-----------------------
   0 C :   -0.032180
   1 C :    0.045115
   2 C :    0.048291
   3 C :   -0.024059
   4 C :   -0.003924
   5 C :    0.011399
   6 C :    0.301843
   7 C :   -0.350707
   8 C :   -0.188807
   9 N :    0.162145
  10 C :   -0.177155
  11 N :    0.150325
  12 C :   -0.066366
  13 C :    0.245082
  14 C :   -0.339193
  15 C :   -0.193944
  16 N :    0.176064
  17 C :   -0.180998
  18 N :    0.170346
  19 C :    0.071629
  20 C :   -0.148872
  21 C :    0.009047
  22 C :   -0.004199
  23 C :   -0.057338
  24 S :    0.226804
  25 C :   -0.103365
  26 C :    0.045788
  27 C :    0.295210
  28 C :   -0.303828
  29 C :   -0.150659
  30 N :    0.154996
  31 C :   -0.174008
  32 N :    0.180927
  33 C :   -0.085055
  34 C :   -0.067038
  35 S :    0.169760
  36 C :   -0.126213
  37 S :    0.126599
  38 C :   -0.142014
  39 C :   -0.031454
  40 C :   -0.066621
  41 C :    0.133034
  42 C :   -0.023260
  43 C :    0.074095
  44 C :    0.125701
  45 C :   -0.058932
  46 C :    0.003159
  47 C :   -0.171021
  48 C :    0.083054
  49 C :   -0.018992
  50 C :   -0.100182
  51 S :    0.198484
  52 C :   -0.071348
  53 C :   -0.002863
  54 C :    0.307660
  55 C :   -0.299359
  56 C :   -0.186238
  57 N :    0.173026
  58 C :   -0.190784
  59 N :    0.170990
  60 C :    0.008258
  61 C :   -0.143914
  62 S :    0.221908
  63 C :    0.119463
  64 C :   -0.088320
  65 C :    0.303188
  66 C :   -0.344823
  67 C :   -0.160592
  68 N :    0.143892
  69 C :   -0.186436
  70 N :    0.157974
  71 C :    0.017991
  72 C :   -0.005025
  73 C :   -0.025131
  74 C :    0.046241
  75 C :    0.046390
  76 C :   -0.035009
  77 C :    0.233610
  78 C :   -0.343305
  79 C :   -0.182151
  80 N :    0.169873
  81 C :   -0.191802
  82 N :    0.174929
  83 H :    0.006886
  84 H :    0.007405
  85 H :    0.007536
  86 H :    0.013152
  87 H :    0.016588
  88 H :    0.025605
  89 H :    0.014347
  90 H :    0.023516
  91 H :    0.024983
  92 H :    0.021136
  93 H :   -0.000346
  94 H :    0.008591
  95 H :    0.003665
  96 H :    0.022989
  97 H :    0.019212
  98 H :    0.020823
  99 H :    0.029153
 100 H :    0.006619
 101 H :    0.028289
 102 H :    0.007922
 103 H :    0.013960
 104 H :    0.007673
 105 H :    0.005767
 106 H :    0.007725
Sum of atomic charges:   -0.0000000

LOEWDIN ATOMIC CHARGES
----------------------
   0 C :    0.005469
   1 C :    0.003121
   2 C :    0.007214
   3 C :    0.005474
   4 C :   -0.009985
   5 C :   -0.013979
   6 C :    0.078897
   7 C :   -0.134650
   8 C :   -0.019123
   9 N :   -0.045300
  10 C :   -0.020658
  11 N :   -0.047950
  12 C :   -0.058602
  13 C :    0.067826
  14 C :   -0.128659
  15 C :   -0.016379
  16 N :   -0.045873
  17 C :   -0.020606
  18 N :   -0.039042
  19 C :    0.035000
  20 C :   -0.183495
  21 C :    0.010576
  22 C :   -0.068397
  23 C :   -0.150563
  24 S :    0.511422
  25 C :   -0.198149
  26 C :   -0.052668
  27 C :    0.080712
  28 C :   -0.093105
  29 C :   -0.001977
  30 N :   -0.042702
  31 C :   -0.011482
  32 N :   -0.022578
  33 C :   -0.050803
  34 C :   -0.164608
  35 S :    0.501235
  36 C :   -0.203228
  37 S :    0.444870
  38 C :   -0.182210
  39 C :   -0.060532
  40 C :   -0.058294
  41 C :   -0.040716
  42 C :   -0.019245
  43 C :   -0.014921
  44 C :   -0.025546
  45 C :   -0.044419
  46 C :   -0.018596
  47 C :   -0.149213
  48 C :   -0.021911
  49 C :   -0.060308
  50 C :   -0.184773
  51 S :    0.493969
  52 C :   -0.151189
  53 C :   -0.069143
  54 C :    0.084059
  55 C :   -0.104273
  56 C :   -0.015948
  57 N :   -0.032236
  58 C :   -0.014334
  59 N :   -0.037181
  60 C :    0.008397
  61 C :   -0.179241
  62 S :    0.517161
  63 C :    0.050809
  64 C :   -0.057697
  65 C :    0.081171
  66 C :   -0.131952
  67 C :   -0.009608
  68 N :   -0.053764
  69 C :   -0.018065
  70 N :   -0.046151
  71 C :   -0.012763
  72 C :   -0.010162
  73 C :    0.005436
  74 C :    0.006022
  75 C :    0.002787
  76 C :    0.005695
  77 C :    0.067739
  78 C :   -0.130796
  79 C :   -0.020578
  80 N :   -0.042080
  81 C :   -0.017695
  82 N :   -0.046994
  83 H :    0.041774
  84 H :    0.038706
  85 H :    0.038957
  86 H :    0.043281
  87 H :    0.045181
  88 H :    0.043903
  89 H :    0.032696
  90 H :    0.025736
  91 H :    0.038034
  92 H :    0.003506
  93 H :    0.034490
  94 H :    0.025151
  95 H :    0.027026
  96 H :    0.040622
  97 H :    0.033082
  98 H :    0.025166
  99 H :    0.029943
 100 H :    0.038035
 101 H :    0.043087
 102 H :    0.041542
 103 H :    0.043334
 104 H :    0.038682
 105 H :    0.038213
 106 H :    0.041892

  Mayer bond orders larger than 0.100000
B(  0-C ,  1-C ) :   1.3748 B(  0-C ,  5-C ) :   1.3803 B(  0-C , 83-H ) :   0.9825
B(  1-C ,  2-C ) :   1.3740 B(  1-C , 84-H ) :   0.9852 B(  2-C ,  3-C ) :   1.3708
B(  2-C , 85-H ) :   0.9861 B(  3-C ,  4-C ) :   1.3812 B(  3-C , 86-H ) :   0.9855
B(  4-C ,  5-C ) :   1.3119 B(  4-C , 13-C ) :   1.0071 B(  5-C ,  6-C ) :   1.0001
B(  6-C ,  7-C ) :   1.6292 B(  6-C , 12-C ) :   1.0675 B(  7-C ,  8-C ) :   1.1497
B(  7-C , 10-C ) :   1.1381 B(  8-C ,  9-N ) :   2.9750 B( 10-C , 11-N ) :   2.9571
B( 12-C , 13-C ) :   1.0178 B( 12-C , 19-C ) :   1.6237 B( 13-C , 14-C ) :   1.6497
B( 14-C , 15-C ) :   1.1644 B( 14-C , 17-C ) :   1.1377 B( 15-C , 16-N ) :   3.0015
B( 17-C , 18-N ) :   2.9958 B( 19-C , 20-C ) :   1.1713 B( 19-C , 87-H ) :   0.9078
B( 20-C , 21-C ) :   1.3846 B( 20-C , 24-S ) :   1.0904 B( 21-C , 22-C ) :   1.3620
B( 21-C , 88-H ) :   0.9887 B( 22-C , 23-C ) :   1.3975 B( 22-C , 27-C ) :   0.9980
B( 23-C , 24-S ) :   1.1645 B( 23-C , 25-C ) :   1.1937 B( 25-C , 26-C ) :   1.4360
B( 25-C , 35-S ) :   1.1060 B( 26-C , 27-C ) :   0.9849 B( 26-C , 33-C ) :   1.2923
B( 27-C , 28-C ) :   1.7169 B( 28-C , 29-C ) :   1.1555 B( 28-C , 31-C ) :   1.1395
B( 29-C , 30-N ) :   2.9244 B( 31-C , 32-N ) :   2.9782 B( 33-C , 34-C ) :   1.4442
B( 33-C , 89-H ) :   0.9931 B( 34-C , 35-S ) :   1.1242 B( 34-C , 36-C ) :   1.1308
B( 36-C , 37-S ) :   1.1362 B( 36-C , 40-C ) :   1.5239 B( 37-S , 38-C ) :   1.1455
B( 38-C , 39-C ) :   1.5571 B( 38-C , 90-H ) :   0.9721 B( 39-C , 40-C ) :   1.2938
B( 39-C , 44-C ) :   1.0371 B( 40-C , 41-C ) :   1.0407 B( 41-C , 42-C ) :   1.0507
B( 41-C , 91-H ) :   0.8919 B( 41-C , 92-H ) :   0.9078 B( 42-C , 43-C ) :   1.0617
B( 42-C , 45-C ) :   0.9778 B( 42-C , 93-H ) :   0.8955 B( 43-C , 44-C ) :   1.0876
B( 43-C , 94-H ) :   0.9389 B( 43-C , 95-H ) :   0.9327 B( 44-C , 96-H ) :   0.9144
B( 44-C , 97-H ) :   0.9132 B( 45-C , 46-C ) :   2.0271 B( 45-C , 47-C ) :   0.9529
B( 46-C , 98-H ) :   0.9458 B( 46-C , 99-H ) :   0.9491 B( 47-C , 48-C ) :   1.5268
B( 47-C , 51-S ) :   1.1390 B( 48-C , 49-C ) :   1.2773 B( 48-C ,100-H ) :   0.9930
B( 49-C , 50-C ) :   1.4599 B( 49-C , 54-C ) :   0.9967 B( 50-C , 51-S ) :   1.1111
B( 50-C , 52-C ) :   1.1917 B( 52-C , 53-C ) :   1.4119 B( 52-C , 62-S ) :   1.1662
B( 53-C , 54-C ) :   0.9923 B( 53-C , 60-C ) :   1.3521 B( 54-C , 55-C ) :   1.7149
B( 55-C , 56-C ) :   1.1303 B( 55-C , 58-C ) :   1.1390 B( 56-C , 57-N ) :   2.9834
B( 58-C , 59-N ) :   2.9798 B( 60-C , 61-C ) :   1.3977 B( 60-C ,101-H ) :   0.9849
B( 61-C , 62-S ) :   1.0947 B( 61-C , 63-C ) :   1.1632 B( 63-C , 64-C ) :   1.6382
B( 63-C ,102-H ) :   0.9060 B( 64-C , 65-C ) :   1.0647 B( 64-C , 77-C ) :   1.0119
B( 65-C , 66-C ) :   1.6363 B( 65-C , 71-C ) :   0.9982 B( 66-C , 67-C ) :   1.1411
B( 66-C , 69-C ) :   1.1474 B( 67-C , 68-N ) :   2.9478 B( 69-C , 70-N ) :   2.9755
B( 71-C , 72-C ) :   1.3111 B( 71-C , 76-C ) :   1.3795 B( 72-C , 73-C ) :   1.3824
B( 72-C , 77-C ) :   1.0085 B( 73-C , 74-C ) :   1.3688 B( 73-C ,103-H ) :   0.9857
B( 74-C , 75-C ) :   1.3745 B( 74-C ,104-H ) :   0.9861 B( 75-C , 76-C ) :   1.3736
B( 75-C ,105-H ) :   0.9855 B( 76-C ,106-H ) :   0.9835 B( 77-C , 78-C ) :   1.6548
B( 78-C , 79-C ) :   1.1404 B( 78-C , 81-C ) :   1.1588 B( 79-C , 80-N ) :   2.9980
B( 81-C , 82-N ) :   3.0054

-----------------------------------------------------------------------------
         ABSORPTION SPECTRUM VIA TRANSITION ELECTRIC DIPOLE MOMENTS
-----------------------------------------------------------------------------
State   Energy  Wavelength   fosc         T2         TX        TY        TZ
        (cm-1)    (nm)                  (au**2)     (au)      (au)      (au)
-----------------------------------------------------------------------------
   0   13057.4    765.8   0.202359641   5.10201   0.81540   2.08452   0.30318
   1   14415.9    693.7   0.110564052   2.52491   1.35752  -0.72859  -0.38886
   2   16261.1    615.0   0.010639631   0.21540   0.21395   0.34210   0.22934
   3   18511.3    540.2   0.500863846   8.90755  -1.61564  -2.38713  -0.77385
   4   18797.3    532.0   0.218732717   3.83084   0.32904  -1.85069  -0.54543
   5   19917.1    502.1   0.345430919   5.70966   2.03159  -1.18795  -0.41361
   6   22258.3    449.3   0.287814952   4.25693   0.87725   1.73776  -0.68377
   7   23085.3    433.2   0.239428200   3.41441  -0.62507   1.35170   1.09389
   8   23467.5    426.1   0.026083361   0.36591   0.10094  -0.51039  -0.30858
   9   24107.5    414.8   0.023446716   0.32019  -0.26629   0.49654  -0.05218
  10   24404.7    409.8   0.006669111   0.08996  -0.28950   0.07513   0.02260
  11   26135.1    382.6   0.004468882   0.05629  -0.17151  -0.13278  -0.09616
  12   26640.5    375.4   0.039648566   0.48996   0.40722  -0.25940  -0.50680
  13   27295.2    366.4   0.073435495   0.88572   0.06543   0.93216   0.11186
  14   27466.1    364.1   0.009845866   0.11801   0.24368   0.06083  -0.23438
  15   27612.1    362.2   0.003394983   0.04048   0.06655   0.18899   0.01820
  16   27798.4    359.7   0.042236281   0.50020  -0.50042  -0.27244   0.41899
  17   28917.6    345.8   0.015553241   0.17707  -0.25822  -0.14166   0.30053
  18   29370.2    340.5   0.198936487   2.22989   1.06829  -1.03602  -0.12370
  19   30059.2    332.7   0.127456408   1.39592  -0.46561   1.08286  -0.08092
  20   30339.0    329.6   0.276387545   2.99912  -1.43247  -0.61455   0.75464
  21   30522.9    327.6   0.076265612   0.82258  -0.49810   0.16793   0.73911
  22   30658.3    326.2   0.085591161   0.91909  -0.64410  -0.05000   0.70833
  23   30783.5    324.8   0.246668392   2.63797   1.17785   1.11052   0.13186
  24   30858.8    324.1   0.013678110   0.14592  -0.27937   0.06116   0.25325
  25   31330.1    319.2   0.073818541   0.77567   0.36424  -0.37029  -0.71126
  26   31414.3    318.3   0.171075953   1.79282   0.94397   0.93665  -0.15634
  27   31810.4    314.4   0.102704538   1.06291  -0.53099   0.88289  -0.03824
  28   32043.5    312.1   0.482808895   4.96033  -0.64690  -2.11143   0.28936
  29   32428.4    308.4   0.168982312   1.71550  -0.23691   1.28755  -0.04001
  30   32586.9    306.9   0.135670884   1.37063   0.30977   0.36575  -1.06813
  31   32625.3    306.5   0.306831467   3.09614  -0.30034  -1.37189  -1.06012
  32   32960.5    303.4   0.185742017   1.85520  -0.54576  -1.17654  -0.41607
  33   33114.9    302.0   0.509657300   5.06676  -1.01630   0.73800   1.86796
  34   33274.1    300.5   0.165831637   1.64073   1.11397   0.51196  -0.37108
  35   33470.8    298.8   0.037997835   0.37374   0.08058   0.53545  -0.28379
  36   33908.3    294.9   0.122967654   1.19388  -0.36924   1.02210   0.11340
  37   34204.9    292.4   0.257183127   2.47531   0.96818   1.16503  -0.42501
  38   34281.0    291.7   0.080348514   0.77161   0.77933  -0.40302   0.04286
  39   34489.2    289.9   0.135955547   1.29774   0.84980  -0.57054  -0.50007
  40   34862.4    286.8   0.017387441   0.16419   0.14123  -0.37361   0.06827
  41   34991.4    285.8   0.428930616   4.03554   1.65118  -0.46011  -1.04759
  42   35003.4    285.7   0.353848858   3.32800   0.74870   1.64985  -0.21317
  43   35202.4    284.1   0.142143337   1.32932   0.30368  -1.07266  -0.29411
  44   35487.8    281.8   0.023381579   0.21691   0.05502   0.46233   0.01121
  45   35741.1    279.8   0.077309088   0.71210   0.52721   0.65889  -0.00346
  46   35930.5    278.3   0.099292750   0.90977  -0.30162   0.90390   0.04187
  47   36153.9    276.6   0.088266253   0.80374  -0.66608   0.12472   0.58696
  48   36187.2    276.3   0.005491415   0.04996  -0.04221  -0.20294  -0.08360
  49   36437.7    274.4   0.011153367   0.10077  -0.14814   0.11179   0.25754
  50   36614.7    273.1   0.016546885   0.14878   0.37265   0.03214  -0.09420
  51   37078.0    269.7   0.033245709   0.29519  -0.45779  -0.15288   0.24948
  52   37469.5    266.9   0.002526816   0.02220   0.12533  -0.05529  -0.05862
  53   37572.7    266.2   0.002265406   0.01985   0.08067   0.11409  -0.01805
  54   37655.5    265.6   0.012839489   0.11225   0.30307  -0.08998  -0.11091
  55   37866.8    264.1   0.000502658   0.00437   0.03897  -0.05088   0.01621
  56   38190.4    261.8   0.033170637   0.28594  -0.50136   0.04512   0.18040
  57   38535.8    259.5   0.035695280   0.30495  -0.33012   0.42982   0.10590
  58   38785.9    257.8   0.007490162   0.06358  -0.15317  -0.20022  -0.00528
  59   38922.2    256.9   0.040247996   0.34043  -0.31401   0.40712   0.27581
  60   39192.6    255.2   0.005206102   0.04373   0.17997   0.09556  -0.04703
  61   39275.7    254.6   0.024083641   0.20187  -0.27991  -0.33869  -0.09384
  62   39495.6    253.2   0.065944924   0.54968   0.59700  -0.35823  -0.25483
  63   39586.0    252.6   0.205110027   1.70577   0.39250  -1.22919  -0.20199
  64   39855.0    250.9   0.054190412   0.44763   0.57775  -0.03541  -0.33552
  65   39913.5    250.5   0.119689472   0.98722   0.78668   0.56385  -0.22454
  66   40208.3    248.7   0.067523820   0.55286  -0.66469   0.17317   0.28471

FINAL SINGLE POINT ENERGY     -5172.410416627645

DIPOLE MOMENT
-------------
                                X             Y             Z
Electronic contribution:     -9.75360      26.61745       4.17412
Nuclear contribution   :     11.32554     -28.50952      -4.70392
                        -----------------------------------------
Total Dipole Moment    :      1.57194      -1.89207      -0.52980
                        -----------------------------------------
Magnitude (a.u.)       :      2.51627
Magnitude (Debye)      :      6.39585

Rotational constants in cm-1:     0.000946     0.000449     0.000334
Rotational constants in MHz :    28.372307    13.474764    10.015097

                             ****ORCA TERMINATED NORMALLY****
TOTAL RUN TIME: 0 days 0 hours 28 minutes 3 seconds 798 msec
