                         Program Version 4.2.0 -  RELEASE  -
|  1> # ORCA input file
|  2> # SCF done       -200.254800034563          0.000814451934
|  3> ! CAM-B3LYP def2-SVP def2/J RIJCOSX Grid4 TightSCF
|  4> %maxcore 5000
|  5> %tddft
|  6>     Mode sTDDFT
|  7>     Ethresh 5.0
|  8>     maxcore 5000
|  9> end
| 10>
| 11> %pal
| 12>   nprocs 6
| 13>   end
| 14> * xyz 0 1
| 15>    C        3.89812         1.92979       -10.00464
| 16>    C        3.71474         1.21400        -8.85991
| 17>    C        3.16296         2.01248        -7.84060
| 18>    C        2.94315         3.33087        -8.25591
| 19>    S        3.40954         3.58569        -9.87815
| 20>    C        2.38161         4.06150        -7.16989
| 21>    C        2.24983         3.19709        -6.07259
| 22>    C        2.73579         1.87889        -6.45812
| 23>    C        2.77271         0.75684        -5.68388
| 24>    C        2.31224         0.74294        -4.34973
| 25>    N        1.93342         0.71613        -3.26800
| 26>    C        3.26851        -0.47131        -6.17053
| 27>    N        3.66337        -1.47422        -6.56168
| 28>    C        1.70155         3.82110        -4.95181
| 29>    C        1.41230         5.15104        -5.18722
| 30>    S        1.83375         5.63543        -6.82684
| 31>    C        0.83426         6.09780        -4.28379
| 32>    C        0.57516         7.40792        -4.65776
| 33>    C        0.02768         8.33232        -3.77390
| 34>    F       -0.16507         9.58209        -4.23753
| 35>    C       -0.29184         8.05368        -2.45439
| 36>    C       -0.09255         6.70806        -2.05834
| 37>    C        0.48028         5.74011        -2.95284
| 38>    N        0.58405         4.54451        -2.37427
| 39>    S        0.01671         4.62837        -0.87836
| 40>    N       -0.41255         6.17270        -0.88131
| 41>    C       -0.79530         9.03771        -1.53163
| 42>    C       -0.52139         9.13609        -0.18009
| 43>    C        0.56074         8.42067         0.49571
| 44>    O        1.48209         7.86692        -0.06301
| 45>    C        0.46123         8.50559         1.97169
| 46>    C       -0.42581         9.39341         2.63729
| 47>    C       -0.31488         9.29697         4.00378
| 48>    S        0.84371         8.13070         4.50066
| 49>    C        1.20215         7.76459         2.85903
| 50>    C        2.20787         6.70307         2.54121
| 51>    F        1.71199         5.75309         1.73519
| 52>    F        3.31447         7.17770         1.96863
| 53>    F        2.60329         6.06999         3.66034
| 54>    C       -1.08100        10.05785         5.04343
| 55>    F       -2.39759         9.83264         4.97175
| 56>    F       -0.70434         9.67263         6.27824
| 57>    F       -0.88380        11.37198         4.98215
| 58>    C       -1.33969        10.30837         1.91935
| 59>    O       -2.09020        11.06780         2.49722
| 60>    C       -1.29061        10.14509         0.46845
| 61>    C       -2.08114        10.85782        -0.41726
| 62>    S       -1.94539        10.23159        -2.02846
| 63>    C       -2.92346        11.98813        -0.17233
| 64>    S       -4.46792        12.10735        -0.95592
| 65>    C       -4.83231        13.63137        -0.19582
| 66>    C       -3.78066        14.02136         0.63295
| 67>    C       -2.71139        13.09204         0.63041
| 68>    N       -1.48971        13.36012         1.32951
| 69>    O       -0.48275        12.82135         0.91502
| 70>    O       -1.53760        14.13616         2.25062
| 71>    C       -3.73925        15.23832         1.33833
| 72>    N       -3.74142        16.25618         1.86775
| 73>    C       -6.06501        14.25532        -0.50490
| 74>    C       -6.53796        15.40683         0.03758
| 75>    C       -7.76289        16.00978        -0.32008
| 76>    C       -8.28816        17.17769         0.20212
| 77>    C       -9.50777        17.51775        -0.37562
| 78>    C       -9.93669        16.60986        -1.35570
| 79>    S       -8.81392        15.31926        -1.55576
| 80>    C      -11.15925        16.99146        -1.91619
| 81>    C      -11.65710        18.18439        -1.36289
| 82>    S      -10.61559        18.84907        -0.13804
| 83>    C      -12.87169        18.46841        -1.99914
| 84>    C      -13.06622        17.45007        -2.90601
| 85>    N      -12.03820        16.55990        -2.86082
| 86>    C      -11.88731        15.36895        -3.64737
| 87>    H        4.29864         1.58437       -10.93669
| 88>    H        3.96339         0.17336        -8.76054
| 89>    H        1.51021         3.35728        -4.00164
| 90>    H        0.81010         7.74715        -5.65530
| 91>    H       -6.66804        13.74273        -1.24473
| 92>    H       -5.96741        15.92752         0.79216
| 93>    H       -7.79338        17.74753         0.96687
| 94>    H      -13.52042        19.30166        -1.82443
| 95>    H      -13.88233        17.30743        -3.58723
| 96>    H      -12.69747        15.30815        -4.37115
| 97>    H      -11.91047        14.48260        -3.00868
| 98>    H      -10.93249        15.38470        -4.17715
| 99> *
|100>
|101>                          ****END OF INPUT****

CARTESIAN COORDINATES (ANGSTROEM)
---------------------------------
  C      3.898120    1.929790  -10.004640
  C      3.714740    1.214000   -8.859910
  C      3.162960    2.012480   -7.840600
  C      2.943150    3.330870   -8.255910
  S      3.409540    3.585690   -9.878150
  C      2.381610    4.061500   -7.169890
  C      2.249830    3.197090   -6.072590
  C      2.735790    1.878890   -6.458120
  C      2.772710    0.756840   -5.683880
  C      2.312240    0.742940   -4.349730
  N      1.933420    0.716130   -3.268000
  C      3.268510   -0.471310   -6.170530
  N      3.663370   -1.474220   -6.561680
  C      1.701550    3.821100   -4.951810
  C      1.412300    5.151040   -5.187220
  S      1.833750    5.635430   -6.826840
  C      0.834260    6.097800   -4.283790
  C      0.575160    7.407920   -4.657760
  C      0.027680    8.332320   -3.773900
  F     -0.165070    9.582090   -4.237530
  C     -0.291840    8.053680   -2.454390
  C     -0.092550    6.708060   -2.058340
  C      0.480280    5.740110   -2.952840
  N      0.584050    4.544510   -2.374270
  S      0.016710    4.628370   -0.878360
  N     -0.412550    6.172700   -0.881310
  C     -0.795300    9.037710   -1.531630
  C     -0.521390    9.136090   -0.180090
  C      0.560740    8.420670    0.495710
  O      1.482090    7.866920   -0.063010
  C      0.461230    8.505590    1.971690
  C     -0.425810    9.393410    2.637290
  C     -0.314880    9.296970    4.003780
  S      0.843710    8.130700    4.500660
  C      1.202150    7.764590    2.859030
  C      2.207870    6.703070    2.541210
  F      1.711990    5.753090    1.735190
  F      3.314470    7.177700    1.968630
  F      2.603290    6.069990    3.660340
  C     -1.081000   10.057850    5.043430
  F     -2.397590    9.832640    4.971750
  F     -0.704340    9.672630    6.278240
  F     -0.883800   11.371980    4.982150
  C     -1.339690   10.308370    1.919350
  O     -2.090200   11.067800    2.497220
  C     -1.290610   10.145090    0.468450
  C     -2.081140   10.857820   -0.417260
  S     -1.945390   10.231590   -2.028460
  C     -2.923460   11.988130   -0.172330
  S     -4.467920   12.107350   -0.955920
  C     -4.832310   13.631370   -0.195820
  C     -3.780660   14.021360    0.632950
  C     -2.711390   13.092040    0.630410
  N     -1.489710   13.360120    1.329510
  O     -0.482750   12.821350    0.915020
  O     -1.537600   14.136160    2.250620
  C     -3.739250   15.238320    1.338330
  N     -3.741420   16.256180    1.867750
  C     -6.065010   14.255320   -0.504900
  C     -6.537960   15.406830    0.037580
  C     -7.762890   16.009780   -0.320080
  C     -8.288160   17.177690    0.202120
  C     -9.507770   17.517750   -0.375620
  C     -9.936690   16.609860   -1.355700
  S     -8.813920   15.319260   -1.555760
  C    -11.159250   16.991460   -1.916190
  C    -11.657100   18.184390   -1.362890
  S    -10.615590   18.849070   -0.138040
  C    -12.871690   18.468410   -1.999140
  C    -13.066220   17.450070   -2.906010
  N    -12.038200   16.559900   -2.860820
  C    -11.887310   15.368950   -3.647370
  H      4.298640    1.584370  -10.936690
  H      3.963390    0.173360   -8.760540
  H      1.510210    3.357280   -4.001640
  H      0.810100    7.747150   -5.655300
  H     -6.668040   13.742730   -1.244730
  H     -5.967410   15.927520    0.792160
  H     -7.793380   17.747530    0.966870
  H    -13.520420   19.301660   -1.824430
  H    -13.882330   17.307430   -3.587230
  H    -12.697470   15.308150   -4.371150
  H    -11.910470   14.482600   -3.008680
  H    -10.932490   15.384700   -4.177150

 Total Charge           Charge          ....    0
 Multiplicity           Mult            ....    1
 Number of Electrons    NEL             ....  560
 Basis Dimension        Dim             .... 1100

ORBITAL ENERGIES
----------------

  NO   OCC          E(Eh)            E(eV)
   0   2.0000     -89.031309     -2422.6651
   1   2.0000     -89.006833     -2421.9991
   2   2.0000     -88.991710     -2421.5875
   3   2.0000     -88.990509     -2421.5548
   4   2.0000     -88.990181     -2421.5459
   5   2.0000     -88.988620     -2421.5034
   6   2.0000     -88.964712     -2420.8529
   7   2.0000     -88.951587     -2420.4957
   8   2.0000     -24.806495      -675.0191
   9   2.0000     -24.806398      -675.0164
  10   2.0000     -24.801724      -674.8892
  11   2.0000     -24.801126      -674.8730
  12   2.0000     -24.797729      -674.7805
  13   2.0000     -24.794170      -674.6837
  14   2.0000     -24.793502      -674.6655
  15   2.0000     -19.246743      -523.7305
  16   2.0000     -19.239405      -523.5308
  17   2.0000     -19.221814      -523.0522
  18   2.0000     -19.219659      -522.9935
  19   2.0000     -14.651744      -398.6942
  20   2.0000     -14.473621      -393.8472
  21   2.0000     -14.446596      -393.1119
  22   2.0000     -14.441967      -392.9859
  23   2.0000     -14.429058      -392.6346
  24   2.0000     -14.427783      -392.5999
  25   2.0000     -14.403265      -391.9328
  26   2.0000     -10.531346      -286.5725
  27   2.0000     -10.526940      -286.4526
  28   2.0000     -10.387506      -282.6584
  29   2.0000     -10.382180      -282.5135
  30   2.0000     -10.379510      -282.4408
  31   2.0000     -10.363460      -282.0041
  32   2.0000     -10.350618      -281.6546
  33   2.0000     -10.345989      -281.5287
  34   2.0000     -10.342857      -281.4434
  35   2.0000     -10.342636      -281.4374
  36   2.0000     -10.342329      -281.4291
  37   2.0000     -10.342110      -281.4231
  38   2.0000     -10.340222      -281.3717
  39   2.0000     -10.337538      -281.2987
  40   2.0000     -10.335778      -281.2508
  41   2.0000     -10.335351      -281.2392
  42   2.0000     -10.334459      -281.2149
  43   2.0000     -10.331016      -281.1212
  44   2.0000     -10.329333      -281.0755
  45   2.0000     -10.327834      -281.0346
  46   2.0000     -10.327242      -281.0185
  47   2.0000     -10.327083      -281.0142
  48   2.0000     -10.326294      -280.9928
  49   2.0000     -10.324063      -280.9320
  50   2.0000     -10.315620      -280.7023
  51   2.0000     -10.315351      -280.6950
  52   2.0000     -10.315046      -280.6867
  53   2.0000     -10.313400      -280.6419
  54   2.0000     -10.312390      -280.6144
  55   2.0000     -10.307342      -280.4770
  56   2.0000     -10.306752      -280.4610
  57   2.0000     -10.305466      -280.4260
  58   2.0000     -10.305390      -280.4239
  59   2.0000     -10.304072      -280.3881
  60   2.0000     -10.303763      -280.3796
  61   2.0000     -10.302633      -280.3489
  62   2.0000     -10.302274      -280.3391
  63   2.0000     -10.300971      -280.3037
  64   2.0000     -10.300243      -280.2838
  65   2.0000     -10.299658      -280.2679
  66   2.0000     -10.299627      -280.2671
  67   2.0000     -10.297384      -280.2061
  68   2.0000     -10.293161      -280.0911
  69   2.0000     -10.291615      -280.0491
  70   2.0000     -10.288938      -279.9762
  71   2.0000     -10.265369      -279.3349
  72   2.0000      -8.122788      -221.0323
  73   2.0000      -8.101734      -220.4594
  74   2.0000      -8.086210      -220.0370
  75   2.0000      -8.086173      -220.0360
  76   2.0000      -8.085195      -220.0093
  77   2.0000      -8.084262      -219.9839
  78   2.0000      -8.059418      -219.3079
  79   2.0000      -8.046467      -218.9555
  80   2.0000      -6.093968      -165.8253
  81   2.0000      -6.086150      -165.6126
  82   2.0000      -6.085311      -165.5897
  83   2.0000      -6.070869      -165.1967
  84   2.0000      -6.066385      -165.0747
  85   2.0000      -6.064426      -165.0214
  86   2.0000      -6.055411      -164.7761
  87   2.0000      -6.055407      -164.7760
  88   2.0000      -6.054427      -164.7493
  89   2.0000      -6.053314      -164.7191
  90   2.0000      -6.051281      -164.6637
  91   2.0000      -6.051266      -164.6633
  92   2.0000      -6.050007      -164.6290
  93   2.0000      -6.049113      -164.6047
  94   2.0000      -6.048711      -164.5938
  95   2.0000      -6.048261      -164.5816
  96   2.0000      -6.047824      -164.5697
  97   2.0000      -6.046723      -164.5397
  98   2.0000      -6.028938      -164.0557
  99   2.0000      -6.024998      -163.9485
 100   2.0000      -6.021049      -163.8411
 101   2.0000      -6.016344      -163.7130
 102   2.0000      -6.012486      -163.6081
 103   2.0000      -6.007245      -163.4655
 104   2.0000      -1.394238       -37.9392
 105   2.0000      -1.389562       -37.8119
 106   2.0000      -1.326671       -36.1006
 107   2.0000      -1.320824       -35.9415
 108   2.0000      -1.296312       -35.2744
 109   2.0000      -1.293649       -35.2020
 110   2.0000      -1.291605       -35.1464
 111   2.0000      -1.289042       -35.0766
 112   2.0000      -1.147285       -31.2192
 113   2.0000      -1.141964       -31.0744
 114   2.0000      -1.139817       -31.0160
 115   2.0000      -1.131423       -30.7876
 116   2.0000      -1.097606       -29.8674
 117   2.0000      -1.044263       -28.4158
 118   2.0000      -1.033149       -28.1134
 119   2.0000      -1.029588       -28.0165
 120   2.0000      -1.020502       -27.7693
 121   2.0000      -1.013425       -27.5767
 122   2.0000      -1.005937       -27.3729
 123   2.0000      -1.002410       -27.2770
 124   2.0000      -1.001757       -27.2592
 125   2.0000      -0.986652       -26.8482
 126   2.0000      -0.984029       -26.7768
 127   2.0000      -0.977443       -26.5976
 128   2.0000      -0.954957       -25.9857
 129   2.0000      -0.947443       -25.7812
 130   2.0000      -0.926137       -25.2015
 131   2.0000      -0.921040       -25.0628
 132   2.0000      -0.915136       -24.9021
 133   2.0000      -0.904842       -24.6220
 134   2.0000      -0.900607       -24.5068
 135   2.0000      -0.897508       -24.4224
 136   2.0000      -0.884257       -24.0619
 137   2.0000      -0.873545       -23.7704
 138   2.0000      -0.869967       -23.6730
 139   2.0000      -0.864040       -23.5117
 140   2.0000      -0.858703       -23.3665
 141   2.0000      -0.855518       -23.2798
 142   2.0000      -0.852245       -23.1908
 143   2.0000      -0.840722       -22.8772
 144   2.0000      -0.817313       -22.2402
 145   2.0000      -0.813771       -22.1438
 146   2.0000      -0.806657       -21.9502
 147   2.0000      -0.804238       -21.8844
 148   2.0000      -0.791019       -21.5247
 149   2.0000      -0.777942       -21.1689
 150   2.0000      -0.775329       -21.0978
 151   2.0000      -0.769691       -20.9444
 152   2.0000      -0.762852       -20.7583
 153   2.0000      -0.749559       -20.3965
 154   2.0000      -0.746478       -20.3127
 155   2.0000      -0.734524       -19.9874
 156   2.0000      -0.728078       -19.8120
 157   2.0000      -0.724988       -19.7279
 158   2.0000      -0.717961       -19.5367
 159   2.0000      -0.714876       -19.4528
 160   2.0000      -0.702216       -19.1083
 161   2.0000      -0.697495       -18.9798
 162   2.0000      -0.689736       -18.7687
 163   2.0000      -0.678922       -18.4744
 164   2.0000      -0.676614       -18.4116
 165   2.0000      -0.675271       -18.3751
 166   2.0000      -0.671639       -18.2762
 167   2.0000      -0.670851       -18.2548
 168   2.0000      -0.668663       -18.1953
 169   2.0000      -0.659477       -17.9453
 170   2.0000      -0.654127       -17.7997
 171   2.0000      -0.649047       -17.6615
 172   2.0000      -0.643523       -17.5112
 173   2.0000      -0.637747       -17.3540
 174   2.0000      -0.635647       -17.2968
 175   2.0000      -0.634707       -17.2713
 176   2.0000      -0.630464       -17.1558
 177   2.0000      -0.628319       -17.0974
 178   2.0000      -0.627653       -17.0793
 179   2.0000      -0.624963       -17.0061
 180   2.0000      -0.618176       -16.8214
 181   2.0000      -0.614106       -16.7107
 182   2.0000      -0.611087       -16.6285
 183   2.0000      -0.596892       -16.2423
 184   2.0000      -0.592257       -16.1161
 185   2.0000      -0.590919       -16.0797
 186   2.0000      -0.586945       -15.9716
 187   2.0000      -0.583605       -15.8807
 188   2.0000      -0.576093       -15.6763
 189   2.0000      -0.573780       -15.6134
 190   2.0000      -0.568761       -15.4768
 191   2.0000      -0.567393       -15.4396
 192   2.0000      -0.560809       -15.2604
 193   2.0000      -0.560112       -15.2414
 194   2.0000      -0.553581       -15.0637
 195   2.0000      -0.553016       -15.0483
 196   2.0000      -0.550579       -14.9820
 197   2.0000      -0.549030       -14.9399
 198   2.0000      -0.545816       -14.8524
 199   2.0000      -0.544787       -14.8244
 200   2.0000      -0.543388       -14.7863
 201   2.0000      -0.542579       -14.7643
 202   2.0000      -0.535738       -14.5782
 203   2.0000      -0.531631       -14.4664
 204   2.0000      -0.526790       -14.3347
 205   2.0000      -0.523949       -14.2574
 206   2.0000      -0.522933       -14.2297
 207   2.0000      -0.519751       -14.1431
 208   2.0000      -0.518116       -14.0986
 209   2.0000      -0.513493       -13.9728
 210   2.0000      -0.511068       -13.9069
 211   2.0000      -0.509239       -13.8571
 212   2.0000      -0.506509       -13.7828
 213   2.0000      -0.506259       -13.7760
 214   2.0000      -0.505230       -13.7480
 215   2.0000      -0.503791       -13.7089
 216   2.0000      -0.502721       -13.6797
 217   2.0000      -0.500844       -13.6287
 218   2.0000      -0.496238       -13.5033
 219   2.0000      -0.495614       -13.4863
 220   2.0000      -0.494865       -13.4660
 221   2.0000      -0.492912       -13.4128
 222   2.0000      -0.491972       -13.3873
 223   2.0000      -0.486754       -13.2453
 224   2.0000      -0.486261       -13.2318
 225   2.0000      -0.485699       -13.2165
 226   2.0000      -0.484630       -13.1875
 227   2.0000      -0.484350       -13.1798
 228   2.0000      -0.480235       -13.0678
 229   2.0000      -0.478755       -13.0276
 230   2.0000      -0.474999       -12.9254
 231   2.0000      -0.471086       -12.8189
 232   2.0000      -0.469692       -12.7810
 233   2.0000      -0.469355       -12.7718
 234   2.0000      -0.468829       -12.7575
 235   2.0000      -0.465138       -12.6570
 236   2.0000      -0.463314       -12.6074
 237   2.0000      -0.461725       -12.5642
 238   2.0000      -0.459707       -12.5093
 239   2.0000      -0.456073       -12.4104
 240   2.0000      -0.454311       -12.3624
 241   2.0000      -0.451369       -12.2824
 242   2.0000      -0.450864       -12.2686
 243   2.0000      -0.445652       -12.1268
 244   2.0000      -0.441518       -12.0143
 245   2.0000      -0.438423       -11.9301
 246   2.0000      -0.437292       -11.8993
 247   2.0000      -0.436909       -11.8889
 248   2.0000      -0.434040       -11.8108
 249   2.0000      -0.431556       -11.7432
 250   2.0000      -0.426059       -11.5936
 251   2.0000      -0.424807       -11.5596
 252   2.0000      -0.418175       -11.3791
 253   2.0000      -0.414054       -11.2670
 254   2.0000      -0.408506       -11.1160
 255   2.0000      -0.406038       -11.0488
 256   2.0000      -0.404947       -11.0192
 257   2.0000      -0.394460       -10.7338
 258   2.0000      -0.383287       -10.4298
 259   2.0000      -0.379330       -10.3221
 260   2.0000      -0.374505       -10.1908
 261   2.0000      -0.373422       -10.1613
 262   2.0000      -0.370509       -10.0821
 263   2.0000      -0.362642        -9.8680
 264   2.0000      -0.359853        -9.7921
 265   2.0000      -0.354135        -9.6365
 266   2.0000      -0.352394        -9.5891
 267   2.0000      -0.348391        -9.4802
 268   2.0000      -0.346195        -9.4205
 269   2.0000      -0.343118        -9.3367
 270   2.0000      -0.341770        -9.3000
 271   2.0000      -0.339562        -9.2399
 272   2.0000      -0.335795        -9.1374
 273   2.0000      -0.333196        -9.0667
 274   2.0000      -0.321342        -8.7442
 275   2.0000      -0.313541        -8.5319
 276   2.0000      -0.292907        -7.9704
 277   2.0000      -0.277512        -7.5515
 278   2.0000      -0.263766        -7.1774
 279   2.0000      -0.241225        -6.5641
 280   0.0000      -0.105171        -2.8618
 281   0.0000      -0.087540        -2.3821
 282   0.0000      -0.081951        -2.2300
 283   0.0000      -0.060059        -1.6343
 284   0.0000      -0.055824        -1.5190

MULLIKEN ATOMIC CHARGES
-----------------------
   0 C :   -0.078597
   1 C :    0.035418
   2 C :   -0.026365
   3 C :   -0.120564
   4 S :    0.184356
   5 C :   -0.083292
   6 C :    0.022548
   7 C :    0.301713
   8 C :   -0.303697
   9 C :   -0.188085
  10 N :    0.179545
  11 C :   -0.190915
  12 N :    0.176484
  13 C :   -0.042972
  14 C :   -0.129139
  15 S :    0.162332
  16 C :    0.178039
  17 C :   -0.146778
  18 C :    0.221162
  19 F :   -0.179808
  20 C :    0.013816
  21 C :    0.014818
  22 C :    0.017108
  23 N :   -0.280843
  24 S :    0.549717
  25 N :   -0.279384
  26 C :   -0.159543
  27 C :    0.029367
  28 C :    0.129752
  29 O :   -0.145161
  30 C :    0.067661
  31 C :    0.058814
  32 C :   -0.339347
  33 S :    0.279733
  34 C :   -0.340135
  35 C :    0.564588
  36 F :   -0.158642
  37 F :   -0.138937
  38 F :   -0.165350
  39 C :    0.571299
  40 F :   -0.148861
  41 F :   -0.169084
  42 F :   -0.134580
  43 C :    0.122106
  44 O :   -0.153751
  45 C :    0.078065
  46 C :   -0.160075
  47 S :    0.215541
  48 C :   -0.197161
  49 S :    0.186172
  50 C :   -0.066144
  51 C :   -0.096098
  52 C :    0.297248
  53 N :    0.247634
  54 O :   -0.243915
  55 O :   -0.192973
  56 C :   -0.218650
  57 N :    0.147424
  58 C :    0.016471
  59 C :    0.023266
  60 C :   -0.052569
  61 C :   -0.027294
  62 C :   -0.049970
  63 C :   -0.052342
  64 S :    0.115722
  65 C :    0.020022
  66 C :   -0.038546
  67 S :    0.146745
  68 C :   -0.087985
  69 C :    0.072808
  70 N :   -0.160576
  71 C :    0.118970
  72 H :    0.037109
  73 H :    0.013978
  74 H :    0.024555
  75 H :   -0.001404
  76 H :   -0.016248
  77 H :    0.013756
  78 H :    0.000669
  79 H :   -0.018788
  80 H :   -0.000384
  81 H :    0.039494
  82 H :    0.044940
  83 H :    0.043990
Sum of atomic charges:   -0.0000000

LOEWDIN ATOMIC CHARGES
----------------------
   0 C :   -0.174210
   1 C :   -0.034337
   2 C :   -0.070191
   3 C :   -0.188548
   4 S :    0.479520
   5 C :   -0.169298
   6 C :   -0.075267
   7 C :    0.081184
   8 C :   -0.100378
   9 C :   -0.018102
  10 N :   -0.028303
  11 C :   -0.016668
  12 N :   -0.033006
  13 C :   -0.006652
  14 C :   -0.169566
  15 S :    0.475655
  16 C :   -0.012040
  17 C :   -0.057831
  18 C :    0.103147
  19 F :   -0.059926
  20 C :   -0.092027
  21 C :   -0.028772
  22 C :   -0.044659
  23 N :   -0.273530
  24 S :    0.677415
  25 N :   -0.282211
  26 C :   -0.123745
  27 C :   -0.077910
  28 C :    0.081693
  29 O :   -0.127060
  30 C :   -0.058725
  31 C :   -0.064272
  32 C :   -0.202322
  33 S :    0.558602
  34 C :   -0.210265
  35 C :    0.146837
  36 F :   -0.056449
  37 F :   -0.040208
  38 F :   -0.066370
  39 C :    0.144198
  40 F :   -0.047442
  41 F :   -0.069673
  42 F :   -0.034380
  43 C :    0.079264
  44 O :   -0.136951
  45 C :   -0.077940
  46 C :   -0.158526
  47 S :    0.500254
  48 C :   -0.183684
  49 S :    0.481061
  50 C :   -0.116831
  51 C :   -0.107662
  52 C :   -0.024100
  53 N :    0.288360
  54 O :   -0.204296
  55 O :   -0.150529
  56 C :   -0.033271
  57 N :   -0.049231
  58 C :   -0.090426
  59 C :    0.010589
  60 C :   -0.177268
  61 C :   -0.033433
  62 C :   -0.200740
  63 C :   -0.198468
  64 S :    0.404787
  65 C :   -0.061446
  66 C :   -0.186174
  67 S :    0.394499
  68 C :   -0.095758
  69 C :    0.003121
  70 N :    0.050200
  71 C :    0.037084
  72 H :    0.028311
  73 H :    0.043197
  74 H :    0.040650
  75 H :    0.033539
  76 H :    0.020406
  77 H :    0.046485
  78 H :    0.040859
  79 H :    0.028532
  80 H :    0.021273
  81 H :    0.037018
  82 H :    0.031604
  83 H :    0.031731

  Mayer bond orders larger than 0.100000
B(  0-C ,  1-C ) :   1.5437 B(  0-C ,  4-S ) :   1.1564 B(  0-C , 72-H ) :   0.9641
B(  1-C ,  2-C ) :   1.2809 B(  1-C , 73-H ) :   0.9956 B(  2-C ,  3-C ) :   1.4582
B(  2-C ,  7-C ) :   1.0107 B(  3-C ,  4-S ) :   1.1320 B(  3-C ,  5-C ) :   1.1792
B(  5-C ,  6-C ) :   1.4486 B(  5-C , 15-S ) :   1.1411 B(  6-C ,  7-C ) :   0.9951
B(  6-C , 13-C ) :   1.2440 B(  7-C ,  8-C ) :   1.7126 B(  8-C ,  9-C ) :   1.1375
B(  8-C , 11-C ) :   1.1315 B(  9-C , 10-N ) :   2.9895 B( 11-C , 12-N ) :   3.0024
B( 13-C , 14-C ) :   1.4852 B( 13-C , 74-H ) :   0.9812 B( 14-C , 15-S ) :   1.0828
B( 14-C , 16-C ) :   1.1382 B( 16-C , 17-C ) :   1.3920 B( 16-C , 20-C ) :   0.1093
B( 16-C , 22-C ) :   1.1802 B( 17-C , 18-C ) :   1.2270 B( 17-C , 75-H ) :   0.9932
B( 18-C , 19-F ) :   1.1303 B( 18-C , 20-C ) :   1.4186 B( 20-C , 21-C ) :   1.2096
B( 20-C , 26-C ) :   1.0229 B( 21-C , 22-C ) :   1.1632 B( 21-C , 25-N ) :   1.5353
B( 22-C , 23-N ) :   1.5258 B( 23-N , 24-S ) :   1.2796 B( 23-N , 25-N ) :   0.1427
B( 24-S , 25-N ) :   1.2703 B( 26-C , 27-C ) :   1.5395 B( 26-C , 47-S ) :   1.1616
B( 27-C , 28-C ) :   0.9686 B( 27-C , 45-C ) :   1.2103 B( 28-C , 29-O ) :   2.2049
B( 28-C , 30-C ) :   0.9256 B( 30-C , 31-C ) :   1.2366 B( 30-C , 34-C ) :   1.5830
B( 31-C , 32-C ) :   1.5750 B( 31-C , 43-C ) :   0.9448 B( 32-C , 33-S ) :   1.1917
B( 32-C , 39-C ) :   0.9286 B( 33-S , 34-C ) :   1.1811 B( 34-C , 35-C ) :   0.9335
B( 35-C , 36-F ) :   1.1629 B( 35-C , 37-F ) :   1.1943 B( 35-C , 38-F ) :   1.1531
B( 39-C , 40-F ) :   1.1805 B( 39-C , 41-F ) :   1.1450 B( 39-C , 42-F ) :   1.1968
B( 43-C , 44-O ) :   2.1833 B( 43-C , 45-C ) :   0.9778 B( 45-C , 46-C ) :   1.5280
B( 46-C , 47-S ) :   1.1614 B( 46-C , 48-C ) :   1.0553 B( 48-C , 49-S ) :   1.1445
B( 48-C , 52-C ) :   1.5357 B( 49-S , 50-C ) :   1.1177 B( 50-C , 51-C ) :   1.4682
B( 50-C , 58-C ) :   1.1814 B( 51-C , 52-C ) :   1.2870 B( 51-C , 56-C ) :   1.1363
B( 52-C , 53-N ) :   0.8924 B( 53-N , 54-O ) :   1.5119 B( 53-N , 55-O ) :   1.5582
B( 54-O , 55-O ) :   0.2722 B( 56-C , 57-N ) :   2.9448 B( 58-C , 59-C ) :   1.6161
B( 58-C , 76-H ) :   0.9348 B( 59-C , 60-C ) :   1.2018 B( 59-C , 77-H ) :   0.9622
B( 60-C , 61-C ) :   1.4651 B( 60-C , 64-S ) :   1.0502 B( 61-C , 62-C ) :   1.2771
B( 61-C , 78-H ) :   1.0090 B( 62-C , 63-C ) :   1.4257 B( 62-C , 67-S ) :   1.0503
B( 63-C , 64-S ) :   1.0581 B( 63-C , 65-C ) :   1.2805 B( 65-C , 66-C ) :   1.4006
B( 65-C , 70-N ) :   1.1951 B( 66-C , 67-S ) :   1.0315 B( 66-C , 68-C ) :   1.3245
B( 68-C , 69-C ) :   1.4831 B( 68-C , 79-H ) :   1.0146 B( 69-C , 70-N ) :   1.1961
B( 69-C , 80-H ) :   0.9858 B( 70-N , 71-C ) :   0.9680 B( 71-C , 81-H ) :   0.9733
B( 71-C , 82-H ) :   0.9729 B( 71-C , 83-H ) :   0.9725

-----------------------------------------------------------------------------
         ABSORPTION SPECTRUM VIA TRANSITION ELECTRIC DIPOLE MOMENTS
-----------------------------------------------------------------------------
State   Energy  Wavelength   fosc         T2         TX        TY        TZ
        (cm-1)    (nm)                  (au**2)     (au)      (au)      (au)
-----------------------------------------------------------------------------
   0   15386.8    649.9   0.158252419   3.38592   0.84875  -1.14065  -1.16810
   1   18582.9    538.1   0.986727239  17.48073   2.97960  -2.92988  -0.13600
   2   21464.9    465.9   0.497301284   7.62722  -0.86921   1.57018   2.09910
   3   22807.4    438.5   0.234639693   3.38690  -0.52918   1.15765   1.32917
   4   23745.0    421.1   0.849970625  11.78438  -3.03799   1.08260  -1.17599
   5   25151.4    397.6   0.082374836   1.07822   0.80439  -0.61231   0.23719
   6   25680.1    389.4   0.029294860   0.37555   0.37107  -0.28481  -0.39591
   7   27791.7    359.8   0.014131241   0.16739  -0.17768  -0.19201  -0.31458
   8   27983.4    357.4   0.015139155   0.17810   0.32256  -0.27111   0.02367
   9   28105.1    355.8   0.009244866   0.10829   0.02372   0.10530   0.31087
  10   28682.4    348.6   0.043714864   0.50175  -0.14205   0.60557   0.33890
  11   29743.4    336.2   0.003771000   0.04174   0.00885   0.19843  -0.04783
  12   30052.1    332.8   0.022740003   0.24911   0.09071  -0.33986  -0.35409
  13   30952.4    323.1   0.045614325   0.48516  -0.00301   0.55267  -0.42391
  14   31142.2    321.1   0.081436450   0.86089   0.15827   0.85576  -0.32174
  15   31367.7    318.8   0.460519856   4.83327  -0.33490   1.69411  -1.36056
  16   31891.4    313.6   0.044406845   0.45841  -0.46244  -0.25057   0.42635
  17   32009.4    312.4   0.008606487   0.08852  -0.18813   0.07687   0.21729
  18   32768.4    305.2   0.063434137   0.63730   0.03799  -0.58819  -0.53842
  19   33301.0    300.3   0.019811737   0.19586  -0.29703   0.25762   0.20313
  20   33364.6    299.7   0.106188945   1.04778   0.26378  -0.25816  -0.95475
  21   33665.2    297.0   0.019584292   0.19151  -0.13972   0.37553   0.17598
  22   34198.0    292.4   0.029655956   0.28549  -0.32797   0.34025   0.24930
  23   34455.0    290.2   0.099346000   0.94923   0.19279   0.59131  -0.74994
  24   35299.6    283.3   0.077829502   0.72586   0.08051   0.73329   0.42621
  25   35494.1    281.7   0.164986013   1.53026  -0.73371   0.88452   0.45778
  26   35552.5    281.3   0.007443221   0.06892   0.15278  -0.21349   0.00146
  27   35811.9    279.2   0.128471936   1.18102   0.31122  -1.04113   0.01441
  28   36197.5    276.3   0.012155388   0.11055   0.05914   0.26846  -0.18704
  29   36231.1    276.0   0.066189314   0.60143   0.01699  -0.57620   0.51877
  30   36415.2    274.6   0.056704221   0.51264   0.21486  -0.35593  -0.58291
  31   36553.6    273.6   0.144575936   1.30209  -0.37636   0.50488   0.95160
  32   36913.3    270.9   0.022815020   0.20348   0.30875  -0.27592  -0.17893
  33   37106.1    269.5   0.054079017   0.47980   0.06435  -0.17041  -0.66830
  34   37512.8    266.6   0.008708103   0.07642   0.00644   0.10165   0.25700
  35   37682.8    265.4   0.023150911   0.20226  -0.33214   0.28309   0.10863
  36   37808.7    264.5   0.126673081   1.10298   0.35411  -0.98802  -0.03748
  37   37926.3    263.7   0.087865241   0.76270  -0.36250   0.06984   0.79146
  38   38511.4    259.7   0.015454943   0.13212   0.00625  -0.15635   0.32807
  39   38888.1    257.1   0.088392857   0.74830  -0.10624  -0.47013  -0.71833
  40   39053.7    256.1   0.015929784   0.13428  -0.19620   0.07738  -0.29967
  41   39229.9    254.9   0.104792619   0.87941   0.85927  -0.16140   0.33912
  42   39506.0    253.1   0.053084152   0.44236   0.34816   0.12649   0.55240
  43   39673.7    252.1   0.025465616   0.21131  -0.21028  -0.07008   0.40272
  44   39774.6    251.4   0.083569997   0.69170  -0.31494   0.38181   0.66838
  45   40010.0    249.9   0.007590660   0.06246   0.03641  -0.24695   0.01209
  46   40196.6    248.8   0.088474637   0.72461   0.51900  -0.21371   0.63998

FINAL SINGLE POINT ENERGY     -6323.837300212402

DIPOLE MOMENT
-------------
                                X             Y             Z
Electronic contribution:     59.93932     -33.60272      49.76668
Nuclear contribution   :    -62.74421      33.32448     -54.32983
                        -----------------------------------------
Total Dipole Moment    :     -2.80488      -0.27825      -4.56315
                        -----------------------------------------
Magnitude (a.u.)       :      5.36350
Magnitude (Debye)      :     13.63293

Rotational constants in cm-1:     0.001024     0.000303     0.000246
Rotational constants in MHz :    30.690198     9.095587     7.373226

                             ****ORCA TERMINATED NORMALLY****
TOTAL RUN TIME: 0 days 0 hours 7 minutes 54 seconds 936 msec
