                         Program Version 4.2.0 -  RELEASE  -
|  1> # ORCA input file
|  2> # SCF done       -190.882919016315          0.000682331417
|  3> ! CAM-B3LYP def2-SVP def2/J RIJCOSX Grid4 TightSCF
|  4> %maxcore 5000
|  5> %tddft
|  6>     Mode sTDDFT
|  7>     Ethresh 5.0
|  8>     maxcore 5000
|  9> end
| 10>
| 11> %pal
| 12>   nprocs 6
| 13>   end
| 14> * xyz 0 1
| 15>    C        0.05031        -2.71743        -2.23705
| 16>    C        0.84700        -2.28737        -1.22086
| 17>    C        0.75626        -0.89151        -1.05408
| 18>    C       -0.12307        -0.29985        -1.96780
| 19>    S       -0.82951        -1.44339        -3.01828
| 20>    C       -0.15410         1.10546        -1.72749
| 21>    C        0.70698         1.38836        -0.66076
| 22>    C        1.31019         0.14340        -0.20190
| 23>    C        2.20831        -0.00533         0.81546
| 24>    C        2.66673         1.09271         1.57155
| 25>    N        3.04127         1.98694         2.18508
| 26>    C        2.73548        -1.26176         1.17847
| 27>    N        3.16942        -2.28038         1.47786
| 28>    C        0.74977         2.74769        -0.34105
| 29>    C       -0.07271         3.49683        -1.15927
| 30>    S       -0.91012         2.50778        -2.34019
| 31>    C       -0.28358         4.90676        -1.12536
| 32>    C        0.26376         5.79548        -0.24152
| 33>    C       -0.13472         7.14194        -0.45727
| 34>    C       -1.01841         7.22983        -1.56452
| 35>    S       -1.33325         5.68152        -2.28929
| 36>    C       -1.59784         8.39026        -2.06244
| 37>    O       -2.41122         8.18382        -3.12945
| 38>    C       -3.13018         9.23451        -3.73046
| 39>    C       -1.27031         9.58726        -1.40137
| 40>    C       -0.40143         9.49924        -0.28389
| 41>    C        0.17882         8.33861         0.21236
| 42>    O        0.97768         8.54889         1.29276
| 43>    C        1.66079         7.49514         1.92444
| 44>    S       -0.09778        11.04782         0.44517
| 45>    C       -1.11967        11.82396        -0.74590
| 46>    C       -1.64888        10.93645        -1.63789
| 47>    C       -1.30438        13.24428        -0.71581
| 48>    C       -2.23530        14.00620        -1.38823
| 49>    C       -3.26723        13.42189        -2.29321
| 50>    O       -3.23491        13.49381        -3.48751
| 51>    O       -4.26242        12.76294        -1.66364
| 52>    C       -2.07866        15.40537        -1.16118
| 53>    C       -1.03857        15.66186        -0.30430
| 54>    S       -0.23235        14.24779         0.21586
| 55>    C       -2.91536        16.44098        -1.71873
| 56>    C       -2.60522        17.75566        -1.87142
| 57>    C       -3.65153        18.53096        -2.43124
| 58>    C       -4.80643        17.76251        -2.71698
| 59>    S       -4.54368        16.09530        -2.24952
| 60>    C       -5.93389        18.33690        -3.28661
| 61>    O       -7.10195        17.74532        -3.63838
| 62>    C       -7.23326        16.34404        -3.57656
| 63>    C       -5.87296        19.72362        -3.53218
| 64>    C       -4.72036        20.49460        -3.23069
| 65>    C       -3.58625        19.91509        -2.68666
| 66>    O       -2.40498        20.49856        -2.35093
| 67>    C       -2.19434        21.86645        -2.60647
| 68>    S       -5.00188        22.17343        -3.65304
| 69>    C       -6.62089        21.81977        -4.21905
| 70>    C       -6.92106        20.49515        -4.08913
| 71>    C       -7.43920        22.86694        -4.72925
| 72>    C       -8.72330        22.76794        -5.22892
| 73>    C       -9.21949        24.00820        -5.63798
| 74>    C       -8.30717        25.05296        -5.44691
| 75>    S       -6.83743        24.51435        -4.76611
| 76>    C       -8.90929        26.26473        -5.89196
| 77>    C      -10.19623        25.97883        -6.36160
| 78>    C      -10.43898        24.55602        -6.22154
| 79>    C      -11.56748        23.86799        -6.56265
| 80>    C      -12.69442        24.50283        -7.12438
| 81>    N      -13.61431        25.01279        -7.58201
| 82>    C      -11.68456        22.47531        -6.37647
| 83>    N      -11.78630        21.34253        -6.22776
| 84>    C      -10.86772        27.12832        -6.82326
| 85>    C      -10.09278        28.23961        -6.69697
| 86>    S       -8.52889        27.92367        -6.01564
| 87>    H       -0.08317        -3.72067        -2.58884
| 88>    H        1.46248        -2.93852        -0.62753
| 89>    H        1.34884         3.17091         0.44328
| 90>    H        0.92905         5.46959         0.53320
| 91>    H       -3.73491         8.75788        -4.50119
| 92>    H       -2.46395         9.96232        -4.20139
| 93>    H       -3.79003         9.73456        -3.01644
| 94>    H        2.21345         7.96311         2.73856
| 95>    H        2.36789         7.00985         1.24581
| 96>    H        0.96772         6.75845         2.34043
| 97>    H       -2.25866        11.25684        -2.45807
| 98>    H       -4.17694        12.79569        -0.70168
| 99>    H       -0.71756        16.61806         0.05574
|100>    H       -1.65284        18.18300        -1.62052
|101>    H       -8.21673        16.13045        -3.99305
|102>    H       -7.19158        15.97815        -2.54699
|103>    H       -6.47065        15.83830        -4.17415
|104>    H       -1.17508        22.06569        -2.27791
|105>    H       -2.88455        22.49654        -2.03913
|106>    H       -2.28073        22.09759        -3.67135
|107>    H       -7.86018        20.05924        -4.37283
|108>    H       -9.25987        21.83958        -5.28882
|109>    H      -11.86420        27.13787        -7.22547
|110>    H      -10.33867        29.24776        -6.96383
|111> *
|112>
|113>                          ****END OF INPUT****

CARTESIAN COORDINATES (ANGSTROEM)
---------------------------------
  C      0.050310   -2.717430   -2.237050
  C      0.847000   -2.287370   -1.220860
  C      0.756260   -0.891510   -1.054080
  C     -0.123070   -0.299850   -1.967800
  S     -0.829510   -1.443390   -3.018280
  C     -0.154100    1.105460   -1.727490
  C      0.706980    1.388360   -0.660760
  C      1.310190    0.143400   -0.201900
  C      2.208310   -0.005330    0.815460
  C      2.666730    1.092710    1.571550
  N      3.041270    1.986940    2.185080
  C      2.735480   -1.261760    1.178470
  N      3.169420   -2.280380    1.477860
  C      0.749770    2.747690   -0.341050
  C     -0.072710    3.496830   -1.159270
  S     -0.910120    2.507780   -2.340190
  C     -0.283580    4.906760   -1.125360
  C      0.263760    5.795480   -0.241520
  C     -0.134720    7.141940   -0.457270
  C     -1.018410    7.229830   -1.564520
  S     -1.333250    5.681520   -2.289290
  C     -1.597840    8.390260   -2.062440
  O     -2.411220    8.183820   -3.129450
  C     -3.130180    9.234510   -3.730460
  C     -1.270310    9.587260   -1.401370
  C     -0.401430    9.499240   -0.283890
  C      0.178820    8.338610    0.212360
  O      0.977680    8.548890    1.292760
  C      1.660790    7.495140    1.924440
  S     -0.097780   11.047820    0.445170
  C     -1.119670   11.823960   -0.745900
  C     -1.648880   10.936450   -1.637890
  C     -1.304380   13.244280   -0.715810
  C     -2.235300   14.006200   -1.388230
  C     -3.267230   13.421890   -2.293210
  O     -3.234910   13.493810   -3.487510
  O     -4.262420   12.762940   -1.663640
  C     -2.078660   15.405370   -1.161180
  C     -1.038570   15.661860   -0.304300
  S     -0.232350   14.247790    0.215860
  C     -2.915360   16.440980   -1.718730
  C     -2.605220   17.755660   -1.871420
  C     -3.651530   18.530960   -2.431240
  C     -4.806430   17.762510   -2.716980
  S     -4.543680   16.095300   -2.249520
  C     -5.933890   18.336900   -3.286610
  O     -7.101950   17.745320   -3.638380
  C     -7.233260   16.344040   -3.576560
  C     -5.872960   19.723620   -3.532180
  C     -4.720360   20.494600   -3.230690
  C     -3.586250   19.915090   -2.686660
  O     -2.404980   20.498560   -2.350930
  C     -2.194340   21.866450   -2.606470
  S     -5.001880   22.173430   -3.653040
  C     -6.620890   21.819770   -4.219050
  C     -6.921060   20.495150   -4.089130
  C     -7.439200   22.866940   -4.729250
  C     -8.723300   22.767940   -5.228920
  C     -9.219490   24.008200   -5.637980
  C     -8.307170   25.052960   -5.446910
  S     -6.837430   24.514350   -4.766110
  C     -8.909290   26.264730   -5.891960
  C    -10.196230   25.978830   -6.361600
  C    -10.438980   24.556020   -6.221540
  C    -11.567480   23.867990   -6.562650
  C    -12.694420   24.502830   -7.124380
  N    -13.614310   25.012790   -7.582010
  C    -11.684560   22.475310   -6.376470
  N    -11.786300   21.342530   -6.227760
  C    -10.867720   27.128320   -6.823260
  C    -10.092780   28.239610   -6.696970
  S     -8.528890   27.923670   -6.015640
  H     -0.083170   -3.720670   -2.588840
  H      1.462480   -2.938520   -0.627530
  H      1.348840    3.170910    0.443280
  H      0.929050    5.469590    0.533200
  H     -3.734910    8.757880   -4.501190
  H     -2.463950    9.962320   -4.201390
  H     -3.790030    9.734560   -3.016440
  H      2.213450    7.963110    2.738560
  H      2.367890    7.009850    1.245810
  H      0.967720    6.758450    2.340430
  H     -2.258660   11.256840   -2.458070
  H     -4.176940   12.795690   -0.701680
  H     -0.717560   16.618060    0.055740
  H     -1.652840   18.183000   -1.620520
  H     -8.216730   16.130450   -3.993050
  H     -7.191580   15.978150   -2.546990
  H     -6.470650   15.838300   -4.174150
  H     -1.175080   22.065690   -2.277910
  H     -2.884550   22.496540   -2.039130
  H     -2.280730   22.097590   -3.671350
  H     -7.860180   20.059240   -4.372830
  H     -9.259870   21.839580   -5.288820
  H    -11.864200   27.137870   -7.225470
  H    -10.338670   29.247760   -6.963830

 Total Charge           Charge          ....    0
 Multiplicity           Mult            ....    1
 Number of Electrons    NEL             ....  562
 Basis Dimension        Dim             .... 1164

ORBITAL ENERGIES
----------------

  NO   OCC          E(Eh)            E(eV)
   0   2.0000     -88.984874     -2421.4015
   1   2.0000     -88.983419     -2421.3619
   2   2.0000     -88.982495     -2421.3368
   3   2.0000     -88.981166     -2421.3006
   4   2.0000     -88.970731     -2421.0167
   5   2.0000     -88.952129     -2420.5105
   6   2.0000     -88.949777     -2420.4465
   7   2.0000     -88.949588     -2420.4413
   8   2.0000     -88.949390     -2420.4360
   9   2.0000     -19.266342      -524.2638
  10   2.0000     -19.250360      -523.8289
  11   2.0000     -19.249104      -523.7948
  12   2.0000     -19.247727      -523.7573
  13   2.0000     -19.245627      -523.7001
  14   2.0000     -19.208355      -522.6859
  15   2.0000     -14.427181      -392.5836
  16   2.0000     -14.425332      -392.5332
  17   2.0000     -14.423159      -392.4741
  18   2.0000     -14.422990      -392.4695
  19   2.0000     -10.411922      -283.3228
  20   2.0000     -10.358537      -281.8701
  21   2.0000     -10.355938      -281.7994
  22   2.0000     -10.347004      -281.5563
  23   2.0000     -10.344199      -281.4800
  24   2.0000     -10.338190      -281.3165
  25   2.0000     -10.337721      -281.3037
  26   2.0000     -10.335779      -281.2508
  27   2.0000     -10.335499      -281.2432
  28   2.0000     -10.328231      -281.0455
  29   2.0000     -10.326297      -280.9928
  30   2.0000     -10.325935      -280.9830
  31   2.0000     -10.325632      -280.9747
  32   2.0000     -10.324455      -280.9427
  33   2.0000     -10.324106      -280.9332
  34   2.0000     -10.323961      -280.9293
  35   2.0000     -10.323880      -280.9270
  36   2.0000     -10.323599      -280.9194
  37   2.0000     -10.323319      -280.9118
  38   2.0000     -10.321565      -280.8641
  39   2.0000     -10.321051      -280.8501
  40   2.0000     -10.320875      -280.8453
  41   2.0000     -10.318894      -280.7914
  42   2.0000     -10.318834      -280.7898
  43   2.0000     -10.311635      -280.5939
  44   2.0000     -10.311477      -280.5895
  45   2.0000     -10.308487      -280.5082
  46   2.0000     -10.307106      -280.4706
  47   2.0000     -10.304926      -280.4113
  48   2.0000     -10.303957      -280.3849
  49   2.0000     -10.303912      -280.3837
  50   2.0000     -10.302829      -280.3542
  51   2.0000     -10.301016      -280.3049
  52   2.0000     -10.300632      -280.2945
  53   2.0000     -10.296777      -280.1895
  54   2.0000     -10.296496      -280.1819
  55   2.0000     -10.296119      -280.1716
  56   2.0000     -10.295711      -280.1605
  57   2.0000     -10.294666      -280.1321
  58   2.0000     -10.294228      -280.1202
  59   2.0000     -10.294086      -280.1163
  60   2.0000     -10.293450      -280.0990
  61   2.0000     -10.291556      -280.0475
  62   2.0000     -10.291462      -280.0449
  63   2.0000     -10.291130      -280.0359
  64   2.0000     -10.290336      -280.0143
  65   2.0000     -10.288814      -279.9729
  66   2.0000     -10.280977      -279.7596
  67   2.0000     -10.280321      -279.7418
  68   2.0000     -10.278407      -279.6897
  69   2.0000     -10.277589      -279.6674
  70   2.0000     -10.273743      -279.5628
  71   2.0000     -10.270334      -279.4700
  72   2.0000      -8.079479      -219.8538
  73   2.0000      -8.078422      -219.8250
  74   2.0000      -8.077132      -219.7899
  75   2.0000      -8.076200      -219.7646
  76   2.0000      -8.066553      -219.5021
  77   2.0000      -8.047246      -218.9767
  78   2.0000      -8.045096      -218.9182
  79   2.0000      -8.044876      -218.9122
  80   2.0000      -8.044034      -218.8893
  81   2.0000      -6.048744      -164.5947
  82   2.0000      -6.047641      -164.5647
  83   2.0000      -6.046404      -164.5310
  84   2.0000      -6.045485      -164.5060
  85   2.0000      -6.044474      -164.4785
  86   2.0000      -6.043257      -164.4454
  87   2.0000      -6.042181      -164.4161
  88   2.0000      -6.041916      -164.4089
  89   2.0000      -6.041052      -164.3854
  90   2.0000      -6.041010      -164.3842
  91   2.0000      -6.039527      -164.3439
  92   2.0000      -6.038789      -164.3238
  93   2.0000      -6.035819      -164.2430
  94   2.0000      -6.031434      -164.1237
  95   2.0000      -6.028919      -164.0552
  96   2.0000      -6.017212      -163.7367
  97   2.0000      -6.014849      -163.6724
  98   2.0000      -6.014628      -163.6663
  99   2.0000      -6.013876      -163.6459
 100   2.0000      -6.012868      -163.6185
 101   2.0000      -6.010652      -163.5582
 102   2.0000      -6.010438      -163.5523
 103   2.0000      -6.009588      -163.5292
 104   2.0000      -6.008243      -163.4926
 105   2.0000      -6.006315      -163.4401
 106   2.0000      -6.006079      -163.4337
 107   2.0000      -6.005251      -163.4112
 108   2.0000      -1.188869       -32.3508
 109   2.0000      -1.153937       -31.4002
 110   2.0000      -1.152207       -31.3532
 111   2.0000      -1.152123       -31.3509
 112   2.0000      -1.150210       -31.2988
 113   2.0000      -1.104815       -30.0636
 114   2.0000      -1.038197       -28.2508
 115   2.0000      -1.035577       -28.1795
 116   2.0000      -1.017630       -27.6911
 117   2.0000      -1.014586       -27.6083
 118   2.0000      -1.008364       -27.4390
 119   2.0000      -1.003899       -27.3175
 120   2.0000      -1.000715       -27.2308
 121   2.0000      -0.998786       -27.1784
 122   2.0000      -0.996274       -27.1100
 123   2.0000      -0.989097       -26.9147
 124   2.0000      -0.984591       -26.7921
 125   2.0000      -0.974565       -26.5193
 126   2.0000      -0.969148       -26.3719
 127   2.0000      -0.951100       -25.8807
 128   2.0000      -0.948381       -25.8068
 129   2.0000      -0.917627       -24.9699
 130   2.0000      -0.911890       -24.8138
 131   2.0000      -0.898840       -24.4587
 132   2.0000      -0.894364       -24.3369
 133   2.0000      -0.877468       -23.8771
 134   2.0000      -0.871381       -23.7115
 135   2.0000      -0.866266       -23.5723
 136   2.0000      -0.862368       -23.4662
 137   2.0000      -0.859185       -23.3796
 138   2.0000      -0.858147       -23.3514
 139   2.0000      -0.848270       -23.0826
 140   2.0000      -0.845159       -22.9980
 141   2.0000      -0.840860       -22.8810
 142   2.0000      -0.836377       -22.7590
 143   2.0000      -0.828826       -22.5535
 144   2.0000      -0.814787       -22.1715
 145   2.0000      -0.810084       -22.0435
 146   2.0000      -0.805216       -21.9110
 147   2.0000      -0.796857       -21.6836
 148   2.0000      -0.793665       -21.5967
 149   2.0000      -0.781091       -21.2546
 150   2.0000      -0.774234       -21.0680
 151   2.0000      -0.771445       -20.9921
 152   2.0000      -0.767768       -20.8920
 153   2.0000      -0.744572       -20.2608
 154   2.0000      -0.743013       -20.2184
 155   2.0000      -0.736713       -20.0470
 156   2.0000      -0.722008       -19.6468
 157   2.0000      -0.718691       -19.5566
 158   2.0000      -0.698992       -19.0206
 159   2.0000      -0.696913       -18.9640
 160   2.0000      -0.695605       -18.9284
 161   2.0000      -0.690711       -18.7952
 162   2.0000      -0.678953       -18.4753
 163   2.0000      -0.676553       -18.4099
 164   2.0000      -0.673205       -18.3189
 165   2.0000      -0.668019       -18.1777
 166   2.0000      -0.666464       -18.1354
 167   2.0000      -0.663814       -18.0633
 168   2.0000      -0.662423       -18.0254
 169   2.0000      -0.651757       -17.7352
 170   2.0000      -0.649859       -17.6836
 171   2.0000      -0.636148       -17.3105
 172   2.0000      -0.629977       -17.1425
 173   2.0000      -0.623050       -16.9541
 174   2.0000      -0.620137       -16.8748
 175   2.0000      -0.613770       -16.7015
 176   2.0000      -0.610597       -16.6152
 177   2.0000      -0.609191       -16.5769
 178   2.0000      -0.605896       -16.4873
 179   2.0000      -0.605636       -16.4802
 180   2.0000      -0.599563       -16.3149
 181   2.0000      -0.589575       -16.0431
 182   2.0000      -0.584823       -15.9138
 183   2.0000      -0.583789       -15.8857
 184   2.0000      -0.572813       -15.5870
 185   2.0000      -0.562070       -15.2947
 186   2.0000      -0.561897       -15.2900
 187   2.0000      -0.560434       -15.2502
 188   2.0000      -0.558908       -15.2087
 189   2.0000      -0.554020       -15.0756
 190   2.0000      -0.552044       -15.0219
 191   2.0000      -0.548118       -14.9151
 192   2.0000      -0.547185       -14.8897
 193   2.0000      -0.540746       -14.7144
 194   2.0000      -0.540717       -14.7137
 195   2.0000      -0.538697       -14.6587
 196   2.0000      -0.538040       -14.6408
 197   2.0000      -0.536300       -14.5935
 198   2.0000      -0.531506       -14.4630
 199   2.0000      -0.529877       -14.4187
 200   2.0000      -0.526612       -14.3298
 201   2.0000      -0.522786       -14.2257
 202   2.0000      -0.516647       -14.0587
 203   2.0000      -0.509942       -13.8762
 204   2.0000      -0.507283       -13.8039
 205   2.0000      -0.506306       -13.7773
 206   2.0000      -0.502802       -13.6819
 207   2.0000      -0.500738       -13.6258
 208   2.0000      -0.498143       -13.5552
 209   2.0000      -0.496786       -13.5182
 210   2.0000      -0.494050       -13.4438
 211   2.0000      -0.493287       -13.4230
 212   2.0000      -0.491153       -13.3649
 213   2.0000      -0.490000       -13.3336
 214   2.0000      -0.488305       -13.2874
 215   2.0000      -0.487006       -13.2521
 216   2.0000      -0.482430       -13.1276
 217   2.0000      -0.481988       -13.1156
 218   2.0000      -0.480512       -13.0754
 219   2.0000      -0.478773       -13.0281
 220   2.0000      -0.471137       -12.8203
 221   2.0000      -0.470517       -12.8034
 222   2.0000      -0.466506       -12.6943
 223   2.0000      -0.463407       -12.6100
 224   2.0000      -0.461814       -12.5666
 225   2.0000      -0.461216       -12.5503
 226   2.0000      -0.459599       -12.5063
 227   2.0000      -0.458211       -12.4686
 228   2.0000      -0.455267       -12.3884
 229   2.0000      -0.454868       -12.3776
 230   2.0000      -0.453115       -12.3299
 231   2.0000      -0.452191       -12.3048
 232   2.0000      -0.451090       -12.2748
 233   2.0000      -0.450083       -12.2474
 234   2.0000      -0.447160       -12.1679
 235   2.0000      -0.445716       -12.1285
 236   2.0000      -0.440179       -11.9779
 237   2.0000      -0.438954       -11.9445
 238   2.0000      -0.437651       -11.9091
 239   2.0000      -0.436955       -11.8902
 240   2.0000      -0.436519       -11.8783
 241   2.0000      -0.434747       -11.8301
 242   2.0000      -0.433587       -11.7985
 243   2.0000      -0.432722       -11.7750
 244   2.0000      -0.431577       -11.7438
 245   2.0000      -0.431066       -11.7299
 246   2.0000      -0.429356       -11.6834
 247   2.0000      -0.425594       -11.5810
 248   2.0000      -0.422633       -11.5004
 249   2.0000      -0.420428       -11.4404
 250   2.0000      -0.419317       -11.4102
 251   2.0000      -0.418365       -11.3843
 252   2.0000      -0.408632       -11.1194
 253   2.0000      -0.404602       -11.0098
 254   2.0000      -0.404450       -11.0057
 255   2.0000      -0.402640       -10.9564
 256   2.0000      -0.401564       -10.9271
 257   2.0000      -0.399043       -10.8585
 258   2.0000      -0.396653       -10.7935
 259   2.0000      -0.393871       -10.7178
 260   2.0000      -0.375497       -10.2178
 261   2.0000      -0.374619       -10.1939
 262   2.0000      -0.367958       -10.0127
 263   2.0000      -0.363478        -9.8908
 264   2.0000      -0.350310        -9.5324
 265   2.0000      -0.343003        -9.3336
 266   2.0000      -0.341176        -9.2839
 267   2.0000      -0.338526        -9.2117
 268   2.0000      -0.335600        -9.1321
 269   2.0000      -0.333849        -9.0845
 270   2.0000      -0.329037        -8.9536
 271   2.0000      -0.319948        -8.7062
 272   2.0000      -0.318543        -8.6680
 273   2.0000      -0.315774        -8.5927
 274   2.0000      -0.313696        -8.5361
 275   2.0000      -0.295674        -8.0457
 276   2.0000      -0.277875        -7.5614
 277   2.0000      -0.260759        -7.0956
 278   2.0000      -0.258602        -7.0369
 279   2.0000      -0.232810        -6.3351
 280   2.0000      -0.224450        -6.1076
 281   0.0000      -0.097533        -2.6540
 282   0.0000      -0.095010        -2.5853
 283   0.0000      -0.045856        -1.2478
 284   0.0000      -0.037336        -1.0160
 285   0.0000      -0.016386        -0.4459

MULLIKEN ATOMIC CHARGES
-----------------------
   0 C :   -0.084598
   1 C :    0.038266
   2 C :   -0.034889
   3 C :   -0.118698
   4 S :    0.179349
   5 C :   -0.104058
   6 C :    0.009571
   7 C :    0.300811
   8 C :   -0.300895
   9 C :   -0.182684
  10 N :    0.158976
  11 C :   -0.190567
  12 N :    0.173672
  13 C :   -0.051548
  14 C :   -0.048463
  15 S :    0.192468
  16 C :   -0.003186
  17 C :   -0.120058
  18 C :    0.074586
  19 C :   -0.144686
  20 S :    0.137600
  21 C :    0.144886
  22 O :   -0.312660
  23 C :    0.180272
  24 C :    0.060433
  25 C :   -0.134642
  26 C :    0.134244
  27 O :   -0.314005
  28 C :    0.184828
  29 S :    0.141952
  30 C :   -0.049129
  31 C :   -0.134071
  32 C :   -0.090150
  33 C :   -0.084182
  34 C :    0.131054
  35 O :   -0.164817
  36 O :   -0.167252
  37 C :    0.161870
  38 C :   -0.132690
  39 S :    0.158817
  40 C :   -0.042585
  41 C :   -0.051942
  42 C :    0.062942
  43 C :   -0.102060
  44 S :    0.058020
  45 C :    0.109823
  46 O :   -0.309632
  47 C :    0.166531
  48 C :    0.053588
  49 C :   -0.107408
  50 C :    0.098668
  51 O :   -0.313090
  52 C :    0.169357
  53 S :    0.059088
  54 C :   -0.000355
  55 C :   -0.065068
  56 C :   -0.038378
  57 C :   -0.055156
  58 C :    0.013492
  59 C :   -0.105055
  60 S :    0.182315
  61 C :   -0.117018
  62 C :   -0.036614
  63 C :    0.299555
  64 C :   -0.304090
  65 C :   -0.191221
  66 N :    0.172753
  67 C :   -0.186732
  68 N :    0.167937
  69 C :    0.040938
  70 C :   -0.085435
  71 S :    0.174867
  72 H :    0.034258
  73 H :    0.011582
  74 H :   -0.001109
  75 H :   -0.037019
  76 H :    0.035577
  77 H :    0.042975
  78 H :    0.035237
  79 H :    0.038275
  80 H :    0.033607
  81 H :    0.032500
  82 H :   -0.000330
  83 H :    0.191920
  84 H :    0.026523
  85 H :   -0.022773
  86 H :    0.039720
  87 H :    0.033956
  88 H :    0.045305
  89 H :    0.036833
  90 H :    0.034625
  91 H :    0.035527
  92 H :   -0.010198
  93 H :    0.005852
  94 H :    0.010272
  95 H :    0.033121
Sum of atomic charges:   -0.0000000

LOEWDIN ATOMIC CHARGES
----------------------
   0 C :   -0.180574
   1 C :   -0.034083
   2 C :   -0.080864
   3 C :   -0.180770
   4 S :    0.476292
   5 C :   -0.186692
   6 C :   -0.070306
   7 C :    0.086215
   8 C :   -0.108290
   9 C :   -0.013584
  10 N :   -0.042835
  11 C :   -0.017336
  12 N :   -0.035613
  13 C :   -0.029285
  14 C :   -0.178147
  15 S :    0.477436
  16 C :   -0.175453
  17 C :   -0.060475
  18 C :   -0.070385
  19 C :   -0.172772
  20 S :    0.406371
  21 C :    0.025222
  22 O :   -0.107386
  23 C :    0.080559
  24 C :   -0.074961
  25 C :   -0.171144
  26 C :    0.021276
  27 O :   -0.108597
  28 C :    0.079676
  29 S :    0.407674
  30 C :   -0.187979
  31 C :   -0.056611
  32 C :   -0.177550
  33 C :   -0.113489
  34 C :    0.057707
  35 O :   -0.140705
  36 O :   -0.035190
  37 C :   -0.062555
  38 C :   -0.177133
  39 S :    0.463910
  40 C :   -0.155906
  41 C :   -0.041098
  42 C :   -0.058451
  43 C :   -0.183947
  44 S :    0.417149
  45 C :    0.027626
  46 O :   -0.101293
  47 C :    0.066858
  48 C :   -0.061144
  49 C :   -0.182921
  50 C :    0.023431
  51 O :   -0.105278
  52 C :    0.065131
  53 S :    0.378373
  54 C :   -0.179149
  55 C :   -0.033803
  56 C :   -0.176677
  57 C :   -0.027017
  58 C :   -0.068891
  59 C :   -0.189197
  60 S :    0.468727
  61 C :   -0.180342
  62 C :   -0.081432
  63 C :    0.085265
  64 C :   -0.106928
  65 C :   -0.016608
  66 N :   -0.036598
  67 C :   -0.016049
  68 N :   -0.037681
  69 C :   -0.034040
  70 C :   -0.181539
  71 S :    0.472091
  72 H :    0.026843
  73 H :    0.042183
  74 H :    0.037308
  75 H :    0.025938
  76 H :    0.031337
  77 H :    0.021047
  78 H :    0.019684
  79 H :    0.031865
  80 H :    0.018151
  81 H :    0.017696
  82 H :    0.030496
  83 H :    0.100493
  84 H :    0.026778
  85 H :    0.030650
  86 H :    0.031495
  87 H :    0.010987
  88 H :    0.018092
  89 H :    0.030138
  90 H :    0.011512
  91 H :    0.013291
  92 H :    0.035261
  93 H :    0.040311
  94 H :    0.041953
  95 H :    0.026253

  Mayer bond orders larger than 0.100000
B(  0-C ,  1-C ) :   1.5517 B(  0-C ,  4-S ) :   1.1463 B(  0-C , 72-H ) :   0.9646
B(  1-C ,  2-C ) :   1.2744 B(  1-C , 73-H ) :   0.9961 B(  2-C ,  3-C ) :   1.4594
B(  2-C ,  7-C ) :   1.0179 B(  3-C ,  4-S ) :   1.1395 B(  3-C ,  5-C ) :   1.1794
B(  5-C ,  6-C ) :   1.4610 B(  5-C , 15-S ) :   1.1252 B(  6-C ,  7-C ) :   0.9951
B(  6-C , 13-C ) :   1.2827 B(  7-C ,  8-C ) :   1.7050 B(  8-C ,  9-C ) :   1.1356
B(  8-C , 11-C ) :   1.1294 B(  9-C , 10-N ) :   2.9827 B( 11-C , 12-N ) :   3.0040
B( 13-C , 14-C ) :   1.4992 B( 13-C , 74-H ) :   0.9930 B( 14-C , 15-S ) :   1.1078
B( 14-C , 16-C ) :   1.0963 B( 16-C , 17-C ) :   1.6087 B( 16-C , 20-S ) :   1.0571
B( 17-C , 18-C ) :   1.1441 B( 17-C , 75-H ) :   0.9961 B( 18-C , 19-C ) :   1.3303
B( 18-C , 26-C ) :   1.2084 B( 19-C , 20-S ) :   1.0385 B( 19-C , 21-C ) :   1.4087
B( 21-C , 22-O ) :   1.2668 B( 21-C , 24-C ) :   1.2104 B( 22-O , 23-C ) :   0.9426
B( 23-C , 76-H ) :   0.9725 B( 23-C , 77-H ) :   0.9678 B( 23-C , 78-H ) :   0.9675
B( 24-C , 25-C ) :   1.3334 B( 24-C , 31-C ) :   1.1413 B( 25-C , 26-C ) :   1.4106
B( 25-C , 29-S ) :   1.0388 B( 26-C , 27-O ) :   1.2565 B( 27-O , 28-C ) :   0.9502
B( 28-C , 79-H ) :   0.9737 B( 28-C , 80-H ) :   0.9685 B( 28-C , 81-H ) :   0.9685
B( 29-S , 30-C ) :   1.0582 B( 30-C , 31-C ) :   1.6075 B( 30-C , 32-C ) :   1.0848
B( 31-C , 82-H ) :   0.9756 B( 32-C , 33-C ) :   1.5740 B( 32-C , 39-S ) :   1.1569
B( 33-C , 34-C ) :   0.8807 B( 33-C , 37-C ) :   1.2666 B( 34-C , 35-O ) :   2.1782
B( 34-C , 36-O ) :   1.2115 B( 36-O , 83-H ) :   0.9484 B( 37-C , 38-C ) :   1.5481
B( 37-C , 40-C ) :   1.0195 B( 38-C , 39-S ) :   1.1528 B( 38-C , 84-H ) :   0.9640
B( 40-C , 41-C ) :   1.5861 B( 40-C , 44-S ) :   1.0664 B( 41-C , 42-C ) :   1.1653
B( 41-C , 85-H ) :   1.0088 B( 42-C , 43-C ) :   1.3153 B( 42-C , 48-C ) :   0.1004
B( 42-C , 50-C ) :   1.2939 B( 43-C , 44-S ) :   1.0235 B( 43-C , 45-C ) :   1.3510
B( 45-C , 46-O ) :   1.2235 B( 45-C , 48-C ) :   1.2972 B( 46-O , 47-C ) :   0.9434
B( 47-C , 86-H ) :   0.9764 B( 47-C , 87-H ) :   0.9658 B( 47-C , 88-H ) :   0.9688
B( 48-C , 49-C ) :   1.3128 B( 48-C , 55-C ) :   1.1705 B( 49-C , 50-C ) :   1.3743
B( 49-C , 53-S ) :   1.0068 B( 50-C , 51-O ) :   1.2155 B( 51-O , 52-C ) :   0.9501
B( 52-C , 89-H ) :   0.9765 B( 52-C , 90-H ) :   0.9664 B( 52-C , 91-H ) :   0.9676
B( 53-S , 54-C ) :   1.0408 B( 54-C , 55-C ) :   1.5729 B( 54-C , 56-C ) :   1.1047
B( 55-C , 92-H ) :   1.0068 B( 56-C , 57-C ) :   1.4987 B( 56-C , 60-S ) :   1.1052
B( 57-C , 58-C ) :   1.2792 B( 57-C , 93-H ) :   0.9973 B( 58-C , 59-C ) :   1.4619
B( 58-C , 63-C ) :   0.9926 B( 59-C , 60-S ) :   1.1208 B( 59-C , 61-C ) :   1.1801
B( 61-C , 62-C ) :   1.4587 B( 61-C , 71-S ) :   1.1379 B( 62-C , 63-C ) :   1.0200
B( 62-C , 69-C ) :   1.2730 B( 63-C , 64-C ) :   1.7051 B( 64-C , 65-C ) :   1.1323
B( 64-C , 67-C ) :   1.1349 B( 65-C , 66-N ) :   3.0030 B( 67-C , 68-N ) :   2.9905
B( 69-C , 70-C ) :   1.5540 B( 69-C , 94-H ) :   0.9951 B( 70-C , 71-S ) :   1.1441
B( 70-C , 95-H ) :   0.9649

-----------------------------------------------------------------------------
         ABSORPTION SPECTRUM VIA TRANSITION ELECTRIC DIPOLE MOMENTS
-----------------------------------------------------------------------------
State   Energy  Wavelength   fosc         T2         TX        TY        TZ
        (cm-1)    (nm)                  (au**2)     (au)      (au)      (au)
-----------------------------------------------------------------------------
   0   12706.8    787.0   0.136304729   3.53142  -0.87754   1.55316  -0.59079
   1   13448.8    743.6   0.106629889   2.61019   0.13376  -1.60107  -0.16988
   2   18598.9    537.7   0.032062002   0.56752   0.02798  -0.73989  -0.13893
   3   18742.4    533.5   0.034027855   0.59770   0.30049  -0.66354   0.25909
   4   22052.2    453.5   0.005427743   0.08103  -0.04777   0.28055  -0.00609
   5   24085.4    415.2   1.727500378  23.61241   1.02813  -4.74264   0.25039
   6   24245.1    412.5   0.002313559   0.03141  -0.10717   0.12087  -0.07294
   7   24749.0    404.1   0.239800287   3.18983   1.07625  -0.37657   1.37467
   8   27105.5    368.9   0.261209460   3.17254   0.48605  -1.70048   0.21139
   9   27484.2    363.8   0.108035312   1.29407  -0.13980   1.12704   0.06569
  10   28316.2    353.2   0.133916936   1.55695   0.80488  -0.80689   0.50799
  11   29830.9    335.2   1.006488587  11.10756   1.08314  -3.07647   0.68538
  12   30514.3    327.7   0.109977110   1.18652  -0.39071   1.00128  -0.17693
  13   30606.9    326.7   0.045848326   0.49315   0.62322  -0.15457   0.28436
  14   30728.7    325.4   0.000252390   0.00270  -0.01360   0.03710   0.03380
  15   31275.8    319.7   0.775741998   8.16554  -2.65696   0.08768  -1.04806
  16   31708.4    315.4   0.592189128   6.14840   1.68575   0.73897   1.66150
  17   31740.9    315.1   0.342125343   3.54848   0.08697   1.77661  -0.62013
  18   32276.6    309.8   0.304002334   3.10074   0.58508   1.37013   0.93871
  19   32534.6    307.4   0.154724664   1.56563   0.68086  -0.65917   0.81704
  20   33065.8    302.4   0.232270559   2.31255   0.29942  -1.46385   0.28292
  21   33280.1    300.5   0.005089299   0.05034   0.17470   0.12937   0.05557
  22   33933.2    294.7   0.176149640   1.70896  -0.71868   0.90186  -0.61572
  23   34132.6    293.0   0.128075969   1.23530   1.01868  -0.05893   0.44059
  24   35241.2    283.8   0.022146950   0.20689  -0.31498   0.22637  -0.23756
  25   35648.0    280.5   0.041306277   0.38147   0.43696   0.42426   0.10265
  26   35905.6    278.5   0.002526643   0.02317   0.10052  -0.04380   0.10556
  27   35923.3    278.4   0.006672013   0.06114  -0.14113   0.10028  -0.17655
  28   37285.9    268.2   0.035859508   0.31662   0.08972   0.53199   0.15986
  29   37490.4    266.7   0.007827844   0.06874  -0.05193   0.25670   0.01208
  30   37836.6    264.3   0.039844428   0.34668   0.06421  -0.58303   0.05129
  31   37929.9    263.6   0.027445417   0.23821  -0.19908   0.44495   0.02446
  32   38025.0    263.0   0.053935537   0.46696   0.20225  -0.65267   0.00867
  33   38260.2    261.4   0.001360071   0.01170  -0.00638   0.10039  -0.03979
  34   39069.2    256.0   0.062853266   0.52963  -0.50286   0.36942  -0.37455
  35   39828.8    251.1   0.145632427   1.20375  -0.14115  -1.08804   0.00126
  36   39851.2    250.9   0.032950300   0.27220  -0.02464  -0.51765  -0.06026

FINAL SINGLE POINT ENERGY     -6283.572372684989

DIPOLE MOMENT
-------------
                                X             Y             Z
Electronic contribution:     -3.58206      -3.51145      -4.67356
Nuclear contribution   :      4.41212       4.54811       5.01300
                        -----------------------------------------
Total Dipole Moment    :      0.83006       1.03666       0.33944
                        -----------------------------------------
Magnitude (a.u.)       :      1.37073
Magnitude (Debye)      :      3.48411

Rotational constants in cm-1:     0.002501     0.000152     0.000144
Rotational constants in MHz :    74.972015     4.554270     4.325170

                             ****ORCA TERMINATED NORMALLY****
TOTAL RUN TIME: 0 days 0 hours 9 minutes 29 seconds 514 msec
