                         Program Version 4.2.0 -  RELEASE  -
|  1> # ORCA input file
|  2> # SCF done       -183.339041384931          0.000976602841
|  3> ! CAM-B3LYP def2-SVP def2/J RIJCOSX Grid4 TightSCF
|  4> %maxcore 5000
|  5> %tddft
|  6>     Mode sTDDFT
|  7>     Ethresh 5.0
|  8>     maxcore 5000
|  9> end
| 10>
| 11> %pal
| 12>   nprocs 6
| 13>   end
| 14> * xyz 0 1
| 15>    C       -1.32701       -10.39175         6.50612
| 16>    C       -0.41507        -9.88330         5.62374
| 17>    F        0.79392        -9.50252         6.06045
| 18>    C       -0.68800        -9.73614         4.24918
| 19>    F        0.29282        -9.22161         3.48415
| 20>    C       -1.89592       -10.09485         3.66918
| 21>    C       -2.86146       -10.62748         4.57327
| 22>    C       -2.57049       -10.76920         5.97800
| 23>    N       -3.60089       -11.27991         6.65217
| 24>    S       -4.80686       -11.55205         5.63204
| 25>    N       -4.09368       -11.04071         4.28729
| 26>    C       -2.17552        -9.94704         2.26950
| 27>    C       -3.32972       -10.34248         1.61561
| 28>    C       -3.28819       -10.04728         0.25613
| 29>    C       -2.08951        -9.41495        -0.13046
| 30>    S       -1.01963        -9.19850         1.17516
| 31>    C       -2.14494        -9.14380        -1.51941
| 32>    C       -3.38172        -9.61189        -2.01156
| 33>    C       -4.13705       -10.19515        -0.91367
| 34>    C       -5.37823       -10.75816        -0.97052
| 35>    C       -6.11059       -10.84355        -2.17365
| 36>    N       -6.71289       -10.92489        -3.14608
| 37>    C       -6.01564       -11.29256         0.16927
| 38>    N       -6.54519       -11.72392         1.09037
| 39>    C       -3.54017        -9.38289        -3.37101
| 40>    C       -2.43894        -8.73836        -3.92338
| 41>    S       -1.18714        -8.41890        -2.73383
| 42>    C       -2.27926        -8.33640        -5.27608
| 43>    C       -1.12856        -7.64538        -5.71393
| 44>    C       -0.96457        -7.19812        -7.06637
| 45>    N        0.15749        -6.53453        -7.40836
| 46>    C        1.07004        -6.31193        -6.51880
| 47>    C        0.90858        -6.75633        -5.18069
| 48>    N       -0.15594        -7.39435        -4.81545
| 49>    F        1.84509        -6.53027        -4.26523
| 50>    F        2.16212        -5.65529        -6.89640
| 51>    C       -1.93787        -7.42191        -8.06434
| 52>    C       -3.08544        -8.13451        -7.63963
| 53>    C       -3.25368        -8.57982        -6.27422
| 54>    N       -4.41172        -9.22120        -6.11116
| 55>    S       -5.20255        -9.26500        -7.50350
| 56>    N       -4.13069        -8.47549        -8.39473
| 57>    C       -1.76907        -6.94582        -9.39162
| 58>    C       -2.64771        -7.11677       -10.45557
| 59>    C       -2.19191        -6.49921       -11.61167
| 60>    C       -0.95348        -5.84782       -11.43078
| 61>    S       -0.35203        -6.01082        -9.84049
| 62>    C       -0.59210        -5.23481       -12.65527
| 63>    C       -1.59618        -5.49930       -13.60818
| 64>    C       -2.63058        -6.30721       -12.98533
| 65>    C       -3.77138        -6.78166       -13.56350
| 66>    C       -4.09243        -6.52980       -14.91429
| 67>    N       -4.36177        -6.33341       -16.01155
| 68>    C       -4.71072        -7.55582       -12.84964
| 69>    N       -5.48089        -8.18679       -12.28066
| 70>    C       -1.33639        -4.91401       -14.84386
| 71>    C       -0.14796        -4.20414       -14.84400
| 72>    S        0.66282        -4.27327       -13.28443
| 73>    C        0.40259        -3.46425       -15.94329
| 74>    C        1.59961        -2.76692       -15.87147
| 75>    F        2.30988        -2.77647       -14.72806
| 76>    C        2.13106        -2.02764       -16.94687
| 77>    F        3.29600        -1.39462       -16.74893
| 78>    C        1.50613        -1.93713       -18.15934
| 79>    C        0.29158        -2.62568       -18.29370
| 80>    C       -0.26329        -3.38573       -17.20180
| 81>    N       -1.41648        -3.95594       -17.54228
| 82>    S       -1.76495        -3.57987       -19.06397
| 83>    N       -0.48018        -2.67549       -19.37963
| 84>    H       -1.10547       -10.49756         7.55365
| 85>    H       -4.14437       -10.81697         2.13033
| 86>    H       -4.39659        -9.65253        -3.96082
| 87>    H       -3.56533        -7.66583       -10.35298
| 88>    H       -1.96257        -4.98007       -15.71413
| 89>    H        1.92203        -1.36677       -18.97132
| 90> *
| 91>
| 92>                          ****END OF INPUT****

CARTESIAN COORDINATES (ANGSTROEM)
---------------------------------
  C     -1.327010  -10.391750    6.506120
  C     -0.415070   -9.883300    5.623740
  F      0.793920   -9.502520    6.060450
  C     -0.688000   -9.736140    4.249180
  F      0.292820   -9.221610    3.484150
  C     -1.895920  -10.094850    3.669180
  C     -2.861460  -10.627480    4.573270
  C     -2.570490  -10.769200    5.978000
  N     -3.600890  -11.279910    6.652170
  S     -4.806860  -11.552050    5.632040
  N     -4.093680  -11.040710    4.287290
  C     -2.175520   -9.947040    2.269500
  C     -3.329720  -10.342480    1.615610
  C     -3.288190  -10.047280    0.256130
  C     -2.089510   -9.414950   -0.130460
  S     -1.019630   -9.198500    1.175160
  C     -2.144940   -9.143800   -1.519410
  C     -3.381720   -9.611890   -2.011560
  C     -4.137050  -10.195150   -0.913670
  C     -5.378230  -10.758160   -0.970520
  C     -6.110590  -10.843550   -2.173650
  N     -6.712890  -10.924890   -3.146080
  C     -6.015640  -11.292560    0.169270
  N     -6.545190  -11.723920    1.090370
  C     -3.540170   -9.382890   -3.371010
  C     -2.438940   -8.738360   -3.923380
  S     -1.187140   -8.418900   -2.733830
  C     -2.279260   -8.336400   -5.276080
  C     -1.128560   -7.645380   -5.713930
  C     -0.964570   -7.198120   -7.066370
  N      0.157490   -6.534530   -7.408360
  C      1.070040   -6.311930   -6.518800
  C      0.908580   -6.756330   -5.180690
  N     -0.155940   -7.394350   -4.815450
  F      1.845090   -6.530270   -4.265230
  F      2.162120   -5.655290   -6.896400
  C     -1.937870   -7.421910   -8.064340
  C     -3.085440   -8.134510   -7.639630
  C     -3.253680   -8.579820   -6.274220
  N     -4.411720   -9.221200   -6.111160
  S     -5.202550   -9.265000   -7.503500
  N     -4.130690   -8.475490   -8.394730
  C     -1.769070   -6.945820   -9.391620
  C     -2.647710   -7.116770  -10.455570
  C     -2.191910   -6.499210  -11.611670
  C     -0.953480   -5.847820  -11.430780
  S     -0.352030   -6.010820   -9.840490
  C     -0.592100   -5.234810  -12.655270
  C     -1.596180   -5.499300  -13.608180
  C     -2.630580   -6.307210  -12.985330
  C     -3.771380   -6.781660  -13.563500
  C     -4.092430   -6.529800  -14.914290
  N     -4.361770   -6.333410  -16.011550
  C     -4.710720   -7.555820  -12.849640
  N     -5.480890   -8.186790  -12.280660
  C     -1.336390   -4.914010  -14.843860
  C     -0.147960   -4.204140  -14.844000
  S      0.662820   -4.273270  -13.284430
  C      0.402590   -3.464250  -15.943290
  C      1.599610   -2.766920  -15.871470
  F      2.309880   -2.776470  -14.728060
  C      2.131060   -2.027640  -16.946870
  F      3.296000   -1.394620  -16.748930
  C      1.506130   -1.937130  -18.159340
  C      0.291580   -2.625680  -18.293700
  C     -0.263290   -3.385730  -17.201800
  N     -1.416480   -3.955940  -17.542280
  S     -1.764950   -3.579870  -19.063970
  N     -0.480180   -2.675490  -19.379630
  H     -1.105470  -10.497560    7.553650
  H     -4.144370  -10.816970    2.130330
  H     -4.396590   -9.652530   -3.960820
  H     -3.565330   -7.665830  -10.352980
  H     -1.962570   -4.980070  -15.714130
  H      1.922030   -1.366770  -18.971320

 Total Charge           Charge          ....    0
 Multiplicity           Mult            ....    1
 Number of Electrons    NEL             ....  520
 Basis Dimension        Dim             .... 1024

ORBITAL ENERGIES
----------------

  NO   OCC          E(Eh)            E(eV)
   0   2.0000     -89.044336     -2423.0196
   1   2.0000     -89.030769     -2422.6504
   2   2.0000     -89.030657     -2422.6473
   3   2.0000     -88.984353     -2421.3873
   4   2.0000     -88.984240     -2421.3843
   5   2.0000     -88.980255     -2421.2758
   6   2.0000     -88.980085     -2421.2712
   7   2.0000     -24.826283      -675.5575
   8   2.0000     -24.826106      -675.5527
   9   2.0000     -24.813706      -675.2153
  10   2.0000     -24.813625      -675.2131
  11   2.0000     -24.800243      -674.8489
  12   2.0000     -24.800031      -674.8432
  13   2.0000     -14.467598      -393.6834
  14   2.0000     -14.467449      -393.6793
  15   2.0000     -14.452907      -393.2836
  16   2.0000     -14.452838      -393.2817
  17   2.0000     -14.446198      -393.1010
  18   2.0000     -14.446183      -393.1006
  19   2.0000     -14.443763      -393.0348
  20   2.0000     -14.443699      -393.0330
  21   2.0000     -14.423363      -392.4797
  22   2.0000     -14.423314      -392.4783
  23   2.0000     -14.423095      -392.4724
  24   2.0000     -14.423067      -392.4716
  25   2.0000     -10.442642      -284.1587
  26   2.0000     -10.442347      -284.1507
  27   2.0000     -10.387594      -282.6608
  28   2.0000     -10.387569      -282.6601
  29   2.0000     -10.386598      -282.6337
  30   2.0000     -10.386581      -282.6332
  31   2.0000     -10.356877      -281.8249
  32   2.0000     -10.356794      -281.8227
  33   2.0000     -10.351689      -281.6838
  34   2.0000     -10.351414      -281.6763
  35   2.0000     -10.344749      -281.4949
  36   2.0000     -10.344735      -281.4945
  37   2.0000     -10.344364      -281.4845
  38   2.0000     -10.344124      -281.4779
  39   2.0000     -10.338698      -281.3303
  40   2.0000     -10.338653      -281.3290
  41   2.0000     -10.335425      -281.2412
  42   2.0000     -10.335389      -281.2402
  43   2.0000     -10.325793      -280.9791
  44   2.0000     -10.325711      -280.9769
  45   2.0000     -10.325385      -280.9680
  46   2.0000     -10.325294      -280.9655
  47   2.0000     -10.323944      -280.9288
  48   2.0000     -10.323878      -280.9270
  49   2.0000     -10.323631      -280.9203
  50   2.0000     -10.323628      -280.9202
  51   2.0000     -10.323593      -280.9193
  52   2.0000     -10.323582      -280.9190
  53   2.0000     -10.321440      -280.8607
  54   2.0000     -10.321268      -280.8560
  55   2.0000     -10.320223      -280.8276
  56   2.0000     -10.320207      -280.8271
  57   2.0000     -10.320049      -280.8228
  58   2.0000     -10.319922      -280.8194
  59   2.0000     -10.300432      -280.2890
  60   2.0000     -10.300422      -280.2887
  61   2.0000     -10.295880      -280.1651
  62   2.0000     -10.295816      -280.1634
  63   2.0000     -10.294191      -280.1192
  64   2.0000     -10.294128      -280.1175
  65   2.0000     -10.291330      -280.0413
  66   2.0000     -10.291288      -280.0402
  67   2.0000     -10.291131      -280.0359
  68   2.0000     -10.291120      -280.0356
  69   2.0000      -8.135392      -221.3753
  70   2.0000      -8.122501      -221.0245
  71   2.0000      -8.122438      -221.0228
  72   2.0000      -8.078482      -219.8267
  73   2.0000      -8.078409      -219.8247
  74   2.0000      -8.073099      -219.6802
  75   2.0000      -8.073008      -219.6777
  76   2.0000      -6.106491      -166.1661
  77   2.0000      -6.098554      -165.9501
  78   2.0000      -6.098281      -165.9427
  79   2.0000      -6.093717      -165.8185
  80   2.0000      -6.093684      -165.8176
  81   2.0000      -6.085903      -165.6058
  82   2.0000      -6.085786      -165.6027
  83   2.0000      -6.084927      -165.5793
  84   2.0000      -6.084874      -165.5778
  85   2.0000      -6.047743      -164.5675
  86   2.0000      -6.047676      -164.5656
  87   2.0000      -6.043372      -164.4485
  88   2.0000      -6.043287      -164.4462
  89   2.0000      -6.042570      -164.4267
  90   2.0000      -6.042487      -164.4244
  91   2.0000      -6.040981      -164.3835
  92   2.0000      -6.040895      -164.3811
  93   2.0000      -6.037863      -164.2986
  94   2.0000      -6.037761      -164.2958
  95   2.0000      -6.035598      -164.2370
  96   2.0000      -6.035487      -164.2340
  97   2.0000      -1.354802       -36.8660
  98   2.0000      -1.340796       -36.4849
  99   2.0000      -1.331915       -36.2432
 100   2.0000      -1.331849       -36.2414
 101   2.0000      -1.311574       -35.6897
 102   2.0000      -1.311374       -35.6843
 103   2.0000      -1.142475       -31.0883
 104   2.0000      -1.133204       -30.8360
 105   2.0000      -1.133169       -30.8351
 106   2.0000      -1.125911       -30.6376
 107   2.0000      -1.053437       -28.6655
 108   2.0000      -1.037100       -28.2209
 109   2.0000      -1.036479       -28.2040
 110   2.0000      -1.015042       -27.6207
 111   2.0000      -1.014930       -27.6177
 112   2.0000      -1.001985       -27.2654
 113   2.0000      -1.001282       -27.2463
 114   2.0000      -1.000136       -27.2151
 115   2.0000      -0.999352       -27.1938
 116   2.0000      -0.993271       -27.0283
 117   2.0000      -0.987448       -26.8698
 118   2.0000      -0.983630       -26.7659
 119   2.0000      -0.980843       -26.6901
 120   2.0000      -0.975558       -26.5463
 121   2.0000      -0.969063       -26.3695
 122   2.0000      -0.950737       -25.8709
 123   2.0000      -0.947128       -25.7727
 124   2.0000      -0.914674       -24.8895
 125   2.0000      -0.906571       -24.6690
 126   2.0000      -0.892350       -24.2821
 127   2.0000      -0.888823       -24.1861
 128   2.0000      -0.875871       -23.8337
 129   2.0000      -0.871935       -23.7266
 130   2.0000      -0.868811       -23.6415
 131   2.0000      -0.868538       -23.6341
 132   2.0000      -0.858016       -23.3478
 133   2.0000      -0.852289       -23.1920
 134   2.0000      -0.846921       -23.0459
 135   2.0000      -0.846222       -23.0269
 136   2.0000      -0.824026       -22.4229
 137   2.0000      -0.810238       -22.0477
 138   2.0000      -0.797071       -21.6894
 139   2.0000      -0.782239       -21.2858
 140   2.0000      -0.777365       -21.1532
 141   2.0000      -0.771152       -20.9841
 142   2.0000      -0.766628       -20.8610
 143   2.0000      -0.754689       -20.5361
 144   2.0000      -0.753710       -20.5095
 145   2.0000      -0.737249       -20.0616
 146   2.0000      -0.724279       -19.7086
 147   2.0000      -0.724233       -19.7074
 148   2.0000      -0.719299       -19.5731
 149   2.0000      -0.708018       -19.2661
 150   2.0000      -0.700342       -19.0573
 151   2.0000      -0.689278       -18.7562
 152   2.0000      -0.688089       -18.7238
 153   2.0000      -0.686528       -18.6814
 154   2.0000      -0.679982       -18.5033
 155   2.0000      -0.676138       -18.3987
 156   2.0000      -0.673961       -18.3394
 157   2.0000      -0.666767       -18.1436
 158   2.0000      -0.657211       -17.8836
 159   2.0000      -0.649086       -17.6625
 160   2.0000      -0.647367       -17.6158
 161   2.0000      -0.646975       -17.6051
 162   2.0000      -0.643894       -17.5213
 163   2.0000      -0.643629       -17.5140
 164   2.0000      -0.632054       -17.1991
 165   2.0000      -0.631628       -17.1875
 166   2.0000      -0.629777       -17.1371
 167   2.0000      -0.627116       -17.0647
 168   2.0000      -0.623693       -16.9715
 169   2.0000      -0.618289       -16.8245
 170   2.0000      -0.612228       -16.6596
 171   2.0000      -0.607009       -16.5175
 172   2.0000      -0.602990       -16.4082
 173   2.0000      -0.596352       -16.2276
 174   2.0000      -0.596314       -16.2265
 175   2.0000      -0.593545       -16.1512
 176   2.0000      -0.581739       -15.8299
 177   2.0000      -0.574051       -15.6207
 178   2.0000      -0.569995       -15.5103
 179   2.0000      -0.568611       -15.4727
 180   2.0000      -0.566945       -15.4274
 181   2.0000      -0.556584       -15.1454
 182   2.0000      -0.555027       -15.1030
 183   2.0000      -0.554952       -15.1010
 184   2.0000      -0.554289       -15.0830
 185   2.0000      -0.551537       -15.0081
 186   2.0000      -0.551452       -15.0058
 187   2.0000      -0.548960       -14.9380
 188   2.0000      -0.548447       -14.9240
 189   2.0000      -0.543837       -14.7986
 190   2.0000      -0.543309       -14.7842
 191   2.0000      -0.539544       -14.6817
 192   2.0000      -0.539053       -14.6684
 193   2.0000      -0.529236       -14.4012
 194   2.0000      -0.525200       -14.2914
 195   2.0000      -0.522339       -14.2136
 196   2.0000      -0.516979       -14.0677
 197   2.0000      -0.515905       -14.0385
 198   2.0000      -0.508945       -13.8491
 199   2.0000      -0.508252       -13.8302
 200   2.0000      -0.500388       -13.6163
 201   2.0000      -0.497423       -13.5356
 202   2.0000      -0.493481       -13.4283
 203   2.0000      -0.492200       -13.3934
 204   2.0000      -0.491527       -13.3751
 205   2.0000      -0.487804       -13.2738
 206   2.0000      -0.487295       -13.2600
 207   2.0000      -0.485610       -13.2141
 208   2.0000      -0.483011       -13.1434
 209   2.0000      -0.481012       -13.0890
 210   2.0000      -0.479633       -13.0515
 211   2.0000      -0.474321       -12.9069
 212   2.0000      -0.473775       -12.8921
 213   2.0000      -0.466852       -12.7037
 214   2.0000      -0.466030       -12.6813
 215   2.0000      -0.461670       -12.5627
 216   2.0000      -0.459320       -12.4987
 217   2.0000      -0.457318       -12.4443
 218   2.0000      -0.455144       -12.3851
 219   2.0000      -0.455024       -12.3818
 220   2.0000      -0.449808       -12.2399
 221   2.0000      -0.449467       -12.2306
 222   2.0000      -0.447025       -12.1642
 223   2.0000      -0.439202       -11.9513
 224   2.0000      -0.434169       -11.8143
 225   2.0000      -0.433950       -11.8084
 226   2.0000      -0.433501       -11.7962
 227   2.0000      -0.432651       -11.7730
 228   2.0000      -0.431820       -11.7504
 229   2.0000      -0.431796       -11.7498
 230   2.0000      -0.431147       -11.7321
 231   2.0000      -0.427442       -11.6313
 232   2.0000      -0.422323       -11.4920
 233   2.0000      -0.420940       -11.4543
 234   2.0000      -0.420706       -11.4480
 235   2.0000      -0.420651       -11.4465
 236   2.0000      -0.409258       -11.1365
 237   2.0000      -0.407343       -11.0844
 238   2.0000      -0.407007       -11.0752
 239   2.0000      -0.401468       -10.9245
 240   2.0000      -0.400917       -10.9095
 241   2.0000      -0.391619       -10.6565
 242   2.0000      -0.378174       -10.2907
 243   2.0000      -0.374793       -10.1986
 244   2.0000      -0.373836       -10.1726
 245   2.0000      -0.373448       -10.1620
 246   2.0000      -0.368096       -10.0164
 247   2.0000      -0.367720       -10.0062
 248   2.0000      -0.348824        -9.4920
 249   2.0000      -0.343803        -9.3554
 250   2.0000      -0.340411        -9.2631
 251   2.0000      -0.339455        -9.2370
 252   2.0000      -0.334466        -9.1013
 253   2.0000      -0.332844        -9.0571
 254   2.0000      -0.324827        -8.8390
 255   2.0000      -0.315326        -8.5805
 256   2.0000      -0.314330        -8.5533
 257   2.0000      -0.297283        -8.0895
 258   2.0000      -0.267860        -7.2888
 259   2.0000      -0.234748        -6.3878
 260   0.0000      -0.123019        -3.3475
 261   0.0000      -0.096687        -2.6310
 262   0.0000      -0.091278        -2.4838
 263   0.0000      -0.070711        -1.9242
 264   0.0000      -0.070679        -1.9233

MULLIKEN ATOMIC CHARGES
-----------------------
   0 C :   -0.122407
   1 C :    0.267866
   2 F :   -0.174744
   3 C :    0.108328
   4 F :   -0.176325
   5 C :    0.129634
   6 C :   -0.018493
   7 C :    0.065675
   8 N :   -0.269842
   9 S :    0.529239
  10 N :   -0.285659
  11 C :   -0.141327
  12 C :   -0.052837
  13 C :    0.025471
  14 C :   -0.094725
  15 S :    0.202357
  16 C :   -0.068656
  17 C :    0.038742
  18 C :    0.315335
  19 C :   -0.312098
  20 C :   -0.188603
  21 N :    0.168170
  22 C :   -0.188016
  23 N :    0.173744
  24 C :   -0.067483
  25 C :   -0.180679
  26 S :    0.199862
  27 C :    0.184665
  28 C :   -0.062750
  29 C :   -0.059084
  30 N :   -0.047004
  31 C :    0.149618
  32 C :    0.148723
  33 N :   -0.046473
  34 F :   -0.135510
  35 F :   -0.135395
  36 C :    0.181658
  37 C :   -0.014192
  38 C :   -0.009972
  39 N :   -0.289185
  40 S :    0.576654
  41 N :   -0.287057
  42 C :   -0.179922
  43 C :   -0.064244
  44 C :    0.036351
  45 C :   -0.070819
  46 S :    0.199869
  47 C :   -0.095242
  48 C :    0.030857
  49 C :    0.315233
  50 C :   -0.311709
  51 C :   -0.190009
  52 N :    0.172518
  53 C :   -0.188659
  54 N :    0.170048
  55 C :   -0.056203
  56 C :   -0.142803
  57 S :    0.202608
  58 C :    0.130537
  59 C :    0.107536
  60 F :   -0.176435
  61 C :    0.268522
  62 F :   -0.174336
  63 C :   -0.122316
  64 C :    0.060376
  65 C :   -0.013924
  66 N :   -0.286729
  67 S :    0.529948
  68 N :   -0.269166
  69 H :   -0.003483
  70 H :    0.022765
  71 H :    0.019710
  72 H :    0.021225
  73 H :    0.024353
  74 H :   -0.003680
Sum of atomic charges:   -0.0000000

LOEWDIN ATOMIC CHARGES
----------------------
   0 C :   -0.048253
   1 C :    0.070685
   2 F :   -0.049261
   3 C :    0.055593
   4 F :   -0.051253
   5 C :   -0.058835
   6 C :   -0.043860
   7 C :   -0.051725
   8 N :   -0.283503
   9 S :    0.659542
  10 N :   -0.277290
  11 C :   -0.170891
  12 C :   -0.014226
  13 C :   -0.071409
  14 C :   -0.180350
  15 S :    0.490325
  16 C :   -0.181999
  17 C :   -0.073458
  18 C :    0.082458
  19 C :   -0.105512
  20 C :   -0.016358
  21 N :   -0.036504
  22 C :   -0.017230
  23 N :   -0.035238
  24 C :   -0.012091
  25 C :   -0.168117
  26 S :    0.506952
  27 C :   -0.043328
  28 C :   -0.018733
  29 C :   -0.018628
  30 N :   -0.055197
  31 C :    0.062018
  32 C :    0.062036
  33 N :   -0.055250
  34 F :   -0.024931
  35 F :   -0.025035
  36 C :   -0.043401
  37 C :   -0.038645
  38 C :   -0.038405
  39 N :   -0.274194
  40 S :    0.695929
  41 N :   -0.273929
  42 C :   -0.168003
  43 C :   -0.011961
  44 C :   -0.073497
  45 C :   -0.182089
  46 S :    0.506866
  47 C :   -0.180271
  48 C :   -0.071330
  49 C :    0.082428
  50 C :   -0.105487
  51 C :   -0.017123
  52 N :   -0.035349
  53 C :   -0.016469
  54 N :   -0.036453
  55 C :   -0.014325
  56 C :   -0.171007
  57 S :    0.490225
  58 C :   -0.058755
  59 C :    0.055505
  60 F :   -0.051100
  61 C :    0.070585
  62 F :   -0.049133
  63 C :   -0.048347
  64 C :   -0.051805
  65 C :   -0.043792
  66 N :   -0.277384
  67 S :    0.659740
  68 N :   -0.283534
  69 H :    0.050934
  70 H :    0.038256
  71 H :    0.037353
  72 H :    0.037531
  73 H :    0.038379
  74 H :    0.050912

  Mayer bond orders larger than 0.100000
B(  0-C ,  1-C ) :   1.4535 B(  0-C ,  5-C ) :   0.1254 B(  0-C ,  7-C ) :   1.1438
B(  0-C , 69-H ) :   1.0477 B(  1-C ,  2-F ) :   1.1122 B(  1-C ,  3-C ) :   1.1568
B(  3-C ,  4-F ) :   1.1287 B(  3-C ,  5-C ) :   1.3891 B(  5-C ,  6-C ) :   1.1682
B(  5-C , 11-C ) :   1.1304 B(  6-C ,  7-C ) :   1.1551 B(  6-C , 10-N ) :   1.5412
B(  7-C ,  8-N ) :   1.5146 B(  8-N ,  9-S ) :   1.2796 B(  8-N , 10-N ) :   0.1458
B(  9-S , 10-N ) :   1.2557 B( 11-C , 12-C ) :   1.4725 B( 11-C , 15-S ) :   1.0923
B( 12-C , 13-C ) :   1.2578 B( 12-C , 70-H ) :   0.9786 B( 13-C , 14-C ) :   1.4206
B( 13-C , 18-C ) :   0.9965 B( 14-C , 15-S ) :   1.1133 B( 14-C , 16-C ) :   1.1927
B( 16-C , 17-C ) :   1.4088 B( 16-C , 26-S ) :   1.0920 B( 17-C , 18-C ) :   0.9870
B( 17-C , 24-C ) :   1.2739 B( 18-C , 19-C ) :   1.7072 B( 19-C , 20-C ) :   1.1402
B( 19-C , 22-C ) :   1.1363 B( 20-C , 21-N ) :   2.9854 B( 22-C , 23-N ) :   2.9887
B( 24-C , 25-C ) :   1.4219 B( 24-C , 71-H ) :   0.9808 B( 25-C , 26-S ) :   1.0867
B( 25-C , 27-C ) :   1.1905 B( 27-C , 28-C ) :   1.2957 B( 27-C , 36-C ) :   0.1279
B( 27-C , 38-C ) :   1.1935 B( 28-C , 29-C ) :   1.1179 B( 28-C , 33-N ) :   1.3803
B( 29-C , 30-N ) :   1.3782 B( 29-C , 36-C ) :   1.2954 B( 30-N , 31-C ) :   1.6559
B( 31-C , 32-C ) :   1.1086 B( 31-C , 35-F ) :   1.1866 B( 32-C , 33-N ) :   1.6529
B( 32-C , 34-F ) :   1.1867 B( 36-C , 37-C ) :   1.1945 B( 36-C , 42-C ) :   1.1913
B( 37-C , 38-C ) :   1.1021 B( 37-C , 41-N ) :   1.5123 B( 38-C , 39-N ) :   1.5106
B( 39-N , 40-S ) :   1.2824 B( 39-N , 41-N ) :   0.1490 B( 40-S , 41-N ) :   1.2829
B( 42-C , 43-C ) :   1.4213 B( 42-C , 46-S ) :   1.0865 B( 43-C , 44-C ) :   1.2736
B( 43-C , 72-H ) :   0.9809 B( 44-C , 45-C ) :   1.4107 B( 44-C , 49-C ) :   0.9871
B( 45-C , 46-S ) :   1.0921 B( 45-C , 47-C ) :   1.1942 B( 47-C , 48-C ) :   1.4175
B( 47-C , 57-S ) :   1.1132 B( 48-C , 49-C ) :   0.9956 B( 48-C , 55-C ) :   1.2568
B( 49-C , 50-C ) :   1.7062 B( 50-C , 51-C ) :   1.1397 B( 50-C , 53-C ) :   1.1387
B( 51-C , 52-N ) :   2.9876 B( 53-C , 54-N ) :   2.9869 B( 55-C , 56-C ) :   1.4738
B( 55-C , 73-H ) :   0.9788 B( 56-C , 57-S ) :   1.0919 B( 56-C , 58-C ) :   1.1305
B( 58-C , 59-C ) :   1.3904 B( 58-C , 63-C ) :   0.1258 B( 58-C , 65-C ) :   1.1678
B( 59-C , 60-F ) :   1.1279 B( 59-C , 61-C ) :   1.1578 B( 61-C , 62-F ) :   1.1119
B( 61-C , 63-C ) :   1.4528 B( 63-C , 64-C ) :   1.1446 B( 63-C , 74-H ) :   1.0475
B( 64-C , 65-C ) :   1.1540 B( 64-C , 68-N ) :   1.5162 B( 65-C , 66-N ) :   1.5392
B( 66-N , 67-S ) :   1.2565 B( 66-N , 68-N ) :   0.1460 B( 67-S , 68-N ) :   1.2794

-----------------------------------------------------------------------------
         ABSORPTION SPECTRUM VIA TRANSITION ELECTRIC DIPOLE MOMENTS
-----------------------------------------------------------------------------
State   Energy  Wavelength   fosc         T2         TX        TY        TZ
        (cm-1)    (nm)                  (au**2)     (au)      (au)      (au)
-----------------------------------------------------------------------------
   0    9329.6   1071.9   0.854455232  30.15105   0.62020   1.72415  -5.17626
   1   13160.6    759.8   0.003950388   0.09882  -0.21681  -0.20700  -0.09468
   2   13971.0    715.8   0.001992514   0.04695  -0.03171  -0.05731   0.20655
   3   17817.3    561.3   0.002824170   0.05218   0.08809   0.19623   0.07692
   4   22131.4    451.8   0.714833878  10.63337   0.36176   1.05729  -3.06343
   5   22577.7    442.9   0.058414061   0.85175  -0.68614  -0.54223  -0.29487
   6   23087.4    433.1   0.372796520   5.31584   0.23691   0.75318  -2.16620
   7   24454.5    408.9   0.024493446   0.32974  -0.48026  -0.27257  -0.15744
   8   25130.6    397.9   0.081026931   1.06146   0.12487   0.31064  -0.97436
   9   25977.4    384.9   0.000115311   0.00146  -0.00242   0.02013  -0.03241
  10   26437.6    378.2   0.033113130   0.41234   0.58042   0.23387   0.14406
  11   26599.5    375.9   0.002849380   0.03527   0.01304   0.08750  -0.16565
  12   29566.4    338.2   0.101151338   1.12629  -0.90118  -0.48918  -0.27361
  13   30233.3    330.8   0.000675703   0.00736  -0.00624  -0.04069  -0.07525
  14   30341.4    329.6   0.381916608   4.14389   0.25412   0.58438  -1.93334
  15   30552.1    327.3   0.251376418   2.70869   0.18619   0.53290  -1.54597
  16   30876.9    323.9   0.002382667   0.02540  -0.01091  -0.07951   0.13771
  17   31133.4    321.2   0.210396358   2.22478  -1.28657  -0.65461  -0.37549
  18   31333.7    319.1   0.002487899   0.02614   0.13260   0.08733   0.03051
  19   31776.4    314.7   0.657165958   6.80841  -0.29006  -0.79210   2.46918
  20   31954.4    312.9   0.038265918   0.39424  -0.56260  -0.26388  -0.08994
  21   32004.4    312.5   0.224979558   2.31424   1.35345   0.59493   0.35843
  22   32093.8    311.6   0.211211500   2.16656  -0.15163  -0.49986   1.37612
  23   32609.7    306.7   0.493032385   4.97742  -1.99836  -0.83177  -0.54048
  24   32616.5    306.6   0.005391423   0.05442  -0.08665  -0.17385   0.12918
  25   33846.4    295.5   0.027438668   0.26689  -0.06138  -0.16173   0.48679
  26   34169.7    292.7   0.134880521   1.29952  -1.07713  -0.29083  -0.23395
  27   34559.6    289.4   0.038147205   0.36339  -0.54493  -0.22171  -0.13147
  28   34588.0    289.1   0.002834600   0.02698   0.02219  -0.02435  -0.16092
  29   34877.4    286.7   0.098171423   0.92665   0.86265   0.36685   0.21888
  30   35179.2    284.3   0.154748215   1.44816   0.13370   0.38483  -1.13234
  31   36100.0    277.0   0.391980761   3.57464  -1.65053  -0.79688  -0.46408
  32   36255.4    275.8   0.050489467   0.45846  -0.60996  -0.24818  -0.15754
  33   36655.6    272.8   0.032581075   0.29262  -0.04580  -0.17556   0.50961
  34   36896.5    271.0   0.133587652   1.19195   0.89965   0.59650  -0.16359
  35   36900.6    271.0   0.164869424   1.47090   0.96314   0.36549   0.64005
  36   37013.7    270.2   0.000390684   0.00347  -0.03215  -0.00269  -0.04934
  37   37472.5    266.9   0.097443424   0.85608  -0.75433  -0.48102  -0.23597
  38   37812.6    264.5   0.168459790   1.46668  -0.11621  -0.39359   1.13941
  39   38592.5    259.1   0.000314117   0.00268  -0.02265   0.04644   0.00318
  40   38623.0    258.9   0.003529168   0.03008  -0.01880  -0.05889   0.16205
  41   38651.9    258.7   0.000480844   0.00410  -0.05884   0.01514  -0.02010
  42   38736.9    258.2   0.049705522   0.42243   0.07763   0.18831  -0.61721
  43   39109.2    255.7   0.001720201   0.01448   0.08063   0.07983   0.04007
  44   39443.8    253.5   0.004651124   0.03882   0.02756   0.08391  -0.17612
  45   39481.5    253.3   0.023185143   0.19333   0.39756   0.15510   0.10590
  46   40187.6    248.8   0.056124019   0.45976  -0.11680  -0.10387   0.65980
  47   40298.3    248.1   0.570860020   4.66357  -1.95836  -0.76461  -0.49374

FINAL SINGLE POINT ENERGY     -5719.162179823094

DIPOLE MOMENT
-------------
                                X             Y             Z
Electronic contribution:     24.23041      10.17584       6.34394
Nuclear contribution   :    -22.29658      -9.21539      -5.79099
                        -----------------------------------------
Total Dipole Moment    :      1.93383       0.96044       0.55295
                        -----------------------------------------
Magnitude (a.u.)       :      2.22888
Magnitude (Debye)      :      5.66535

Rotational constants in cm-1:     0.002580     0.000240     0.000220
Rotational constants in MHz :    77.342516     7.193262     6.595560

                             ****ORCA TERMINATED NORMALLY****
TOTAL RUN TIME: 0 days 0 hours 7 minutes 38 seconds 35 msec
