                         Program Version 4.2.0 -  RELEASE  -
|  1> # ORCA input file
|  2> # SCF done       -196.507819894012          0.000582764125
|  3> ! CAM-B3LYP def2-SVP def2/J RIJCOSX Grid4 TightSCF
|  4> %maxcore 5000
|  5> %tddft
|  6>     Mode sTDDFT
|  7>     Ethresh 5.0
|  8>     maxcore 5000
|  9> end
| 10>
| 11> %pal
| 12>   nprocs 6
| 13>   end
| 14> * xyz 0 1
| 15>    C        0.87577         1.85376         0.33451
| 16>    C        0.65361         3.03858         0.97845
| 17>    F        1.57749         4.00685         0.94443
| 18>    C       -0.54645         3.25745         1.68518
| 19>    F       -0.73689         4.42826         2.30678
| 20>    C       -1.50769         2.28735         1.73857
| 21>    C       -1.30770         1.05530         1.08604
| 22>    C       -0.09564         0.83302         0.36975
| 23>    C        0.12639        -0.39457        -0.29505
| 24>    C       -0.83259        -1.37209        -0.24102
| 25>    C       -2.03269        -1.14535         0.48584
| 26>    C       -2.28013         0.03244         1.13070
| 27>    C       -2.88697        -2.34527         0.41912
| 28>    O       -4.01004        -2.43215         0.87132
| 29>    C       -2.09276        -3.36398        -0.31083
| 30>    C       -0.88998        -2.71279        -0.81461
| 31>    C        0.00716        -3.21748        -1.71813
| 32>    C       -0.07740        -4.46899        -2.36658
| 33>    N       -0.07484        -5.45439        -2.95624
| 34>    C        1.14423        -2.51366        -2.17159
| 35>    N        2.08584        -1.99743        -2.57681
| 36>    C       -2.32244        -4.70694        -0.43464
| 37>    C       -3.37874        -5.52209         0.02523
| 38>    C       -4.57168        -5.23343         0.65828
| 39>    C       -5.32679        -6.36116         0.98518
| 40>    S       -6.91533        -6.23143         1.69483
| 41>    C       -7.42942        -4.59307         1.07380
| 42>    C       -4.70906        -7.56337         0.59653
| 43>    S       -3.21546        -7.24611        -0.22372
| 44>    C       -5.13002        -8.91422         0.73479
| 45>    C       -6.02282        -9.37652         1.72749
| 46>    C       -6.44938       -10.74482         1.78032
| 47>    N       -7.31777       -11.12482         2.73969
| 48>    C       -7.71547       -10.27285         3.62672
| 49>    C       -7.24399        -8.93486         3.60827
| 50>    N       -6.43771        -8.52382         2.68234
| 51>    F       -7.61483        -8.06736         4.54274
| 52>    F       -8.57496       -10.69261         4.54875
| 53>    C       -5.99112       -11.73319         0.88325
| 54>    C       -5.05243       -11.29179        -0.07572
| 55>    C       -4.62448        -9.91435        -0.13012
| 56>    N       -3.72672        -9.71547        -1.09384
| 57>    S       -3.44578       -11.09971        -1.85263
| 58>    N       -4.44463       -12.02697        -1.00823
| 59>    C       -6.42504       -13.08392         0.99446
| 60>    C       -6.01743       -14.17367         0.24957
| 61>    C       -6.60659       -15.37463         0.65343
| 62>    S       -6.16700       -16.89589        -0.09210
| 63>    C       -6.03578       -18.01808         1.34049
| 64>    C       -7.50296       -15.21917         1.71063
| 65>    S       -7.55626       -13.54693         2.22338
| 66>    C       -8.40556       -16.16527         2.23962
| 67>    C       -9.08066       -16.06513         3.42166
| 68>    C      -10.37546       -16.75991         3.63363
| 69>    O      -10.82887       -17.67445         2.98491
| 70>    C      -11.00715       -16.04289         4.76514
| 71>    C      -12.26610       -16.17615         5.27492
| 72>    C      -12.66979       -15.33500         6.33741
| 73>    C      -11.75981       -14.36546         6.85155
| 74>    C      -12.17739       -13.51978         7.89861
| 75>    C      -13.43739       -13.63377         8.41526
| 76>    C      -14.33480       -14.59553         7.90999
| 77>    C      -13.96052       -15.42882         6.89325
| 78>    F      -15.56471       -14.68540         8.43541
| 79>    F      -13.83326       -12.82890         9.41066
| 80>    C      -10.45616       -14.25967         6.31528
| 81>    C      -10.08756       -15.09033         5.29259
| 82>    C       -8.83003       -15.22081         4.56902
| 83>    C       -7.59269       -14.85254         5.03098
| 84>    C       -6.41242       -15.29440         4.40175
| 85>    N       -5.45384       -15.70740         3.92223
| 86>    C       -7.37721       -14.09101         6.19474
| 87>    N       -7.15345       -13.45883         7.12628
| 88>    H        1.79903         1.70350        -0.20296
| 89>    H       -2.42026         2.46982         2.28415
| 90>    H        1.05521        -0.53135        -0.82427
| 91>    H       -3.20289         0.17847         1.67139
| 92>    H       -1.54939        -5.27707        -0.93627
| 93>    H       -4.86182        -4.22642         0.88922
| 94>    H       -8.49794        -4.54060         1.25736
| 95>    H       -7.22840        -4.51560         0.01077
| 96>    H       -6.92690        -3.80433         1.62392
| 97>    H       -5.30147       -14.09968        -0.54764
| 98>    H       -5.21227       -18.68979         1.11730
| 99>    H       -6.94944       -18.58892         1.46814
|100>    H       -5.81027       -17.43120         2.22574
|101>    H       -8.69322       -16.98466         1.58898
|102>    H      -12.94887       -16.90859         4.87183
|103>    H      -11.50101       -12.77991         8.29716
|104>    H      -14.66062       -16.15834         6.51719
|105>    H       -9.78463       -13.51352         6.70993
|106> *
|107>
|108>                          ****END OF INPUT****

CARTESIAN COORDINATES (ANGSTROEM)
---------------------------------
  C      0.875770    1.853760    0.334510
  C      0.653610    3.038580    0.978450
  F      1.577490    4.006850    0.944430
  C     -0.546450    3.257450    1.685180
  F     -0.736890    4.428260    2.306780
  C     -1.507690    2.287350    1.738570
  C     -1.307700    1.055300    1.086040
  C     -0.095640    0.833020    0.369750
  C      0.126390   -0.394570   -0.295050
  C     -0.832590   -1.372090   -0.241020
  C     -2.032690   -1.145350    0.485840
  C     -2.280130    0.032440    1.130700
  C     -2.886970   -2.345270    0.419120
  O     -4.010040   -2.432150    0.871320
  C     -2.092760   -3.363980   -0.310830
  C     -0.889980   -2.712790   -0.814610
  C      0.007160   -3.217480   -1.718130
  C     -0.077400   -4.468990   -2.366580
  N     -0.074840   -5.454390   -2.956240
  C      1.144230   -2.513660   -2.171590
  N      2.085840   -1.997430   -2.576810
  C     -2.322440   -4.706940   -0.434640
  C     -3.378740   -5.522090    0.025230
  C     -4.571680   -5.233430    0.658280
  C     -5.326790   -6.361160    0.985180
  S     -6.915330   -6.231430    1.694830
  C     -7.429420   -4.593070    1.073800
  C     -4.709060   -7.563370    0.596530
  S     -3.215460   -7.246110   -0.223720
  C     -5.130020   -8.914220    0.734790
  C     -6.022820   -9.376520    1.727490
  C     -6.449380  -10.744820    1.780320
  N     -7.317770  -11.124820    2.739690
  C     -7.715470  -10.272850    3.626720
  C     -7.243990   -8.934860    3.608270
  N     -6.437710   -8.523820    2.682340
  F     -7.614830   -8.067360    4.542740
  F     -8.574960  -10.692610    4.548750
  C     -5.991120  -11.733190    0.883250
  C     -5.052430  -11.291790   -0.075720
  C     -4.624480   -9.914350   -0.130120
  N     -3.726720   -9.715470   -1.093840
  S     -3.445780  -11.099710   -1.852630
  N     -4.444630  -12.026970   -1.008230
  C     -6.425040  -13.083920    0.994460
  C     -6.017430  -14.173670    0.249570
  C     -6.606590  -15.374630    0.653430
  S     -6.167000  -16.895890   -0.092100
  C     -6.035780  -18.018080    1.340490
  C     -7.502960  -15.219170    1.710630
  S     -7.556260  -13.546930    2.223380
  C     -8.405560  -16.165270    2.239620
  C     -9.080660  -16.065130    3.421660
  C    -10.375460  -16.759910    3.633630
  O    -10.828870  -17.674450    2.984910
  C    -11.007150  -16.042890    4.765140
  C    -12.266100  -16.176150    5.274920
  C    -12.669790  -15.335000    6.337410
  C    -11.759810  -14.365460    6.851550
  C    -12.177390  -13.519780    7.898610
  C    -13.437390  -13.633770    8.415260
  C    -14.334800  -14.595530    7.909990
  C    -13.960520  -15.428820    6.893250
  F    -15.564710  -14.685400    8.435410
  F    -13.833260  -12.828900    9.410660
  C    -10.456160  -14.259670    6.315280
  C    -10.087560  -15.090330    5.292590
  C     -8.830030  -15.220810    4.569020
  C     -7.592690  -14.852540    5.030980
  C     -6.412420  -15.294400    4.401750
  N     -5.453840  -15.707400    3.922230
  C     -7.377210  -14.091010    6.194740
  N     -7.153450  -13.458830    7.126280
  H      1.799030    1.703500   -0.202960
  H     -2.420260    2.469820    2.284150
  H      1.055210   -0.531350   -0.824270
  H     -3.202890    0.178470    1.671390
  H     -1.549390   -5.277070   -0.936270
  H     -4.861820   -4.226420    0.889220
  H     -8.497940   -4.540600    1.257360
  H     -7.228400   -4.515600    0.010770
  H     -6.926900   -3.804330    1.623920
  H     -5.301470  -14.099680   -0.547640
  H     -5.212270  -18.689790    1.117300
  H     -6.949440  -18.588920    1.468140
  H     -5.810270  -17.431200    2.225740
  H     -8.693220  -16.984660    1.588980
  H    -12.948870  -16.908590    4.871830
  H    -11.501010  -12.779910    8.297160
  H    -14.660620  -16.158340    6.517190
  H     -9.784630  -13.513520    6.709930

 Total Charge           Charge          ....    0
 Multiplicity           Mult            ....    1
 Number of Electrons    NEL             ....  536
 Basis Dimension        Dim             .... 1132

ORBITAL ENERGIES
----------------

  NO   OCC          E(Eh)            E(eV)
   0   2.0000     -89.052855     -2423.2514
   1   2.0000     -88.972244     -2421.0578
   2   2.0000     -88.962193     -2420.7843
   3   2.0000     -88.934702     -2420.0363
   4   2.0000     -88.931012     -2419.9359
   5   2.0000     -24.828262      -675.6114
   6   2.0000     -24.822435      -675.4528
   7   2.0000     -24.801929      -674.8948
   8   2.0000     -24.800682      -674.8609
   9   2.0000     -24.796806      -674.7554
  10   2.0000     -24.796409      -674.7446
  11   2.0000     -19.227893      -523.2176
  12   2.0000     -19.212419      -522.7965
  13   2.0000     -14.466073      -393.6419
  14   2.0000     -14.465488      -393.6259
  15   2.0000     -14.462109      -393.5340
  16   2.0000     -14.461161      -393.5082
  17   2.0000     -14.421933      -392.4407
  18   2.0000     -14.419814      -392.3831
  19   2.0000     -14.414995      -392.2519
  20   2.0000     -14.414928      -392.2501
  21   2.0000     -10.445037      -284.2239
  22   2.0000     -10.439276      -284.0671
  23   2.0000     -10.385253      -282.5971
  24   2.0000     -10.384512      -282.5769
  25   2.0000     -10.379706      -282.4462
  26   2.0000     -10.379355      -282.4366
  27   2.0000     -10.379015      -282.4274
  28   2.0000     -10.364975      -282.0453
  29   2.0000     -10.358937      -281.8810
  30   2.0000     -10.357134      -281.8320
  31   2.0000     -10.351832      -281.6877
  32   2.0000     -10.351253      -281.6719
  33   2.0000     -10.348466      -281.5961
  34   2.0000     -10.347603      -281.5726
  35   2.0000     -10.339949      -281.3643
  36   2.0000     -10.338560      -281.3265
  37   2.0000     -10.333000      -281.1752
  38   2.0000     -10.330732      -281.1135
  39   2.0000     -10.330627      -281.1107
  40   2.0000     -10.326899      -281.0092
  41   2.0000     -10.325032      -280.9584
  42   2.0000     -10.324577      -280.9460
  43   2.0000     -10.322737      -280.8960
  44   2.0000     -10.320621      -280.8384
  45   2.0000     -10.320195      -280.8268
  46   2.0000     -10.318114      -280.7702
  47   2.0000     -10.318025      -280.7677
  48   2.0000     -10.317826      -280.7623
  49   2.0000     -10.314784      -280.6795
  50   2.0000     -10.314729      -280.6780
  51   2.0000     -10.314427      -280.6698
  52   2.0000     -10.311925      -280.6017
  53   2.0000     -10.309315      -280.5307
  54   2.0000     -10.308941      -280.5205
  55   2.0000     -10.308578      -280.5107
  56   2.0000     -10.307148      -280.4718
  57   2.0000     -10.306603      -280.4569
  58   2.0000     -10.305710      -280.4326
  59   2.0000     -10.305572      -280.4289
  60   2.0000     -10.304875      -280.4099
  61   2.0000     -10.303963      -280.3851
  62   2.0000     -10.300768      -280.2981
  63   2.0000     -10.300394      -280.2880
  64   2.0000     -10.299568      -280.2655
  65   2.0000     -10.298872      -280.2466
  66   2.0000     -10.298037      -280.2238
  67   2.0000     -10.293542      -280.1015
  68   2.0000     -10.292188      -280.0647
  69   2.0000     -10.290269      -280.0124
  70   2.0000     -10.288846      -279.9737
  71   2.0000     -10.288298      -279.9588
  72   2.0000     -10.284831      -279.8645
  73   2.0000      -8.143931      -221.6076
  74   2.0000      -8.066930      -219.5123
  75   2.0000      -8.055645      -219.2053
  76   2.0000      -8.028990      -218.4799
  77   2.0000      -8.026438      -218.4105
  78   2.0000      -6.115035      -166.3986
  79   2.0000      -6.107186      -166.1850
  80   2.0000      -6.106745      -166.1730
  81   2.0000      -6.036238      -164.2544
  82   2.0000      -6.031922      -164.1369
  83   2.0000      -6.029067      -164.0592
  84   2.0000      -6.025246      -163.9553
  85   2.0000      -6.020722      -163.8322
  86   2.0000      -6.017472      -163.7437
  87   2.0000      -5.999465      -163.2537
  88   2.0000      -5.996851      -163.1826
  89   2.0000      -5.995079      -163.1344
  90   2.0000      -5.992661      -163.0686
  91   2.0000      -5.988825      -162.9642
  92   2.0000      -5.986261      -162.8944
  93   2.0000      -1.354243       -36.8508
  94   2.0000      -1.339332       -36.4451
  95   2.0000      -1.324485       -36.0411
  96   2.0000      -1.319334       -35.9009
  97   2.0000      -1.309567       -35.6351
  98   2.0000      -1.304506       -35.4974
  99   2.0000      -1.151106       -31.3232
 100   2.0000      -1.142694       -31.0943
 101   2.0000      -1.127539       -30.6819
 102   2.0000      -1.126589       -30.6560
 103   2.0000      -1.052891       -28.6506
 104   2.0000      -1.025602       -27.9081
 105   2.0000      -1.020170       -27.7602
 106   2.0000      -1.015606       -27.6361
 107   2.0000      -1.009296       -27.4643
 108   2.0000      -1.006840       -27.3975
 109   2.0000      -1.002456       -27.2782
 110   2.0000      -0.999416       -27.1955
 111   2.0000      -0.996545       -27.1174
 112   2.0000      -0.992624       -27.0107
 113   2.0000      -0.986238       -26.8369
 114   2.0000      -0.980639       -26.6845
 115   2.0000      -0.976152       -26.5624
 116   2.0000      -0.938302       -25.5325
 117   2.0000      -0.931034       -25.3347
 118   2.0000      -0.921024       -25.0623
 119   2.0000      -0.914484       -24.8844
 120   2.0000      -0.903710       -24.5912
 121   2.0000      -0.900981       -24.5169
 122   2.0000      -0.896897       -24.4058
 123   2.0000      -0.895117       -24.3574
 124   2.0000      -0.892927       -24.2978
 125   2.0000      -0.890843       -24.2411
 126   2.0000      -0.881452       -23.9855
 127   2.0000      -0.873741       -23.7757
 128   2.0000      -0.845244       -23.0002
 129   2.0000      -0.842350       -22.9215
 130   2.0000      -0.838865       -22.8267
 131   2.0000      -0.831844       -22.6356
 132   2.0000      -0.829760       -22.5789
 133   2.0000      -0.823212       -22.4007
 134   2.0000      -0.819203       -22.2917
 135   2.0000      -0.798969       -21.7411
 136   2.0000      -0.789334       -21.4789
 137   2.0000      -0.774319       -21.0703
 138   2.0000      -0.773232       -21.0407
 139   2.0000      -0.764379       -20.7998
 140   2.0000      -0.762268       -20.7424
 141   2.0000      -0.749925       -20.4065
 142   2.0000      -0.743774       -20.2391
 143   2.0000      -0.738992       -20.1090
 144   2.0000      -0.730708       -19.8836
 145   2.0000      -0.724266       -19.7083
 146   2.0000      -0.718486       -19.5510
 147   2.0000      -0.714828       -19.4515
 148   2.0000      -0.709922       -19.3180
 149   2.0000      -0.696687       -18.9578
 150   2.0000      -0.692407       -18.8414
 151   2.0000      -0.686754       -18.6875
 152   2.0000      -0.685740       -18.6599
 153   2.0000      -0.683795       -18.6070
 154   2.0000      -0.677018       -18.4226
 155   2.0000      -0.668382       -18.1876
 156   2.0000      -0.665307       -18.1039
 157   2.0000      -0.658290       -17.9130
 158   2.0000      -0.655302       -17.8317
 159   2.0000      -0.646694       -17.5974
 160   2.0000      -0.646137       -17.5823
 161   2.0000      -0.641627       -17.4595
 162   2.0000      -0.639649       -17.4057
 163   2.0000      -0.638700       -17.3799
 164   2.0000      -0.629055       -17.1174
 165   2.0000      -0.624781       -17.0012
 166   2.0000      -0.620474       -16.8839
 167   2.0000      -0.615690       -16.7538
 168   2.0000      -0.612839       -16.6762
 169   2.0000      -0.603390       -16.4191
 170   2.0000      -0.602717       -16.4008
 171   2.0000      -0.592014       -16.1095
 172   2.0000      -0.588939       -16.0258
 173   2.0000      -0.585939       -15.9442
 174   2.0000      -0.583930       -15.8895
 175   2.0000      -0.580834       -15.8053
 176   2.0000      -0.579987       -15.7823
 177   2.0000      -0.578905       -15.7528
 178   2.0000      -0.577707       -15.7202
 179   2.0000      -0.576294       -15.6818
 180   2.0000      -0.562050       -15.2941
 181   2.0000      -0.559849       -15.2343
 182   2.0000      -0.556962       -15.1557
 183   2.0000      -0.553083       -15.0501
 184   2.0000      -0.551963       -15.0197
 185   2.0000      -0.550480       -14.9793
 186   2.0000      -0.545685       -14.8488
 187   2.0000      -0.545661       -14.8482
 188   2.0000      -0.544262       -14.8101
 189   2.0000      -0.536502       -14.5990
 190   2.0000      -0.536080       -14.5875
 191   2.0000      -0.534418       -14.5423
 192   2.0000      -0.533905       -14.5283
 193   2.0000      -0.531823       -14.4716
 194   2.0000      -0.531241       -14.4558
 195   2.0000      -0.527370       -14.3505
 196   2.0000      -0.526008       -14.3134
 197   2.0000      -0.523611       -14.2482
 198   2.0000      -0.522370       -14.2144
 199   2.0000      -0.520283       -14.1576
 200   2.0000      -0.518867       -14.1191
 201   2.0000      -0.515968       -14.0402
 202   2.0000      -0.513304       -13.9677
 203   2.0000      -0.512467       -13.9449
 204   2.0000      -0.507300       -13.8043
 205   2.0000      -0.504964       -13.7408
 206   2.0000      -0.502984       -13.6869
 207   2.0000      -0.501781       -13.6541
 208   2.0000      -0.500895       -13.6301
 209   2.0000      -0.498853       -13.5745
 210   2.0000      -0.497741       -13.5442
 211   2.0000      -0.495023       -13.4703
 212   2.0000      -0.491709       -13.3801
 213   2.0000      -0.490144       -13.3375
 214   2.0000      -0.487383       -13.2624
 215   2.0000      -0.482338       -13.1251
 216   2.0000      -0.480085       -13.0638
 217   2.0000      -0.473734       -12.8909
 218   2.0000      -0.468983       -12.7617
 219   2.0000      -0.468531       -12.7494
 220   2.0000      -0.466308       -12.6889
 221   2.0000      -0.463017       -12.5993
 222   2.0000      -0.461389       -12.5550
 223   2.0000      -0.460482       -12.5304
 224   2.0000      -0.454339       -12.3632
 225   2.0000      -0.453481       -12.3398
 226   2.0000      -0.451065       -12.2741
 227   2.0000      -0.449946       -12.2437
 228   2.0000      -0.449032       -12.2188
 229   2.0000      -0.448179       -12.1956
 230   2.0000      -0.445890       -12.1333
 231   2.0000      -0.442622       -12.0444
 232   2.0000      -0.440302       -11.9812
 233   2.0000      -0.436565       -11.8796
 234   2.0000      -0.434176       -11.8145
 235   2.0000      -0.431302       -11.7363
 236   2.0000      -0.428766       -11.6673
 237   2.0000      -0.427584       -11.6352
 238   2.0000      -0.426470       -11.6048
 239   2.0000      -0.424501       -11.5513
 240   2.0000      -0.422333       -11.4923
 241   2.0000      -0.415419       -11.3041
 242   2.0000      -0.414406       -11.2765
 243   2.0000      -0.413145       -11.2423
 244   2.0000      -0.408112       -11.1053
 245   2.0000      -0.400715       -10.9040
 246   2.0000      -0.394853       -10.7445
 247   2.0000      -0.391832       -10.6623
 248   2.0000      -0.383984       -10.4487
 249   2.0000      -0.381986       -10.3944
 250   2.0000      -0.375028       -10.2050
 251   2.0000      -0.372446       -10.1348
 252   2.0000      -0.363965        -9.9040
 253   2.0000      -0.357466        -9.7271
 254   2.0000      -0.352381        -9.5888
 255   2.0000      -0.352072        -9.5804
 256   2.0000      -0.347814        -9.4645
 257   2.0000      -0.347215        -9.4482
 258   2.0000      -0.335335        -9.1249
 259   2.0000      -0.327771        -8.9191
 260   2.0000      -0.322032        -8.7629
 261   2.0000      -0.315461        -8.5841
 262   2.0000      -0.309571        -8.4239
 263   2.0000      -0.301754        -8.2111
 264   2.0000      -0.297569        -8.0973
 265   2.0000      -0.291186        -7.9236
 266   2.0000      -0.280282        -7.6269
 267   2.0000      -0.252919        -6.8823
 268   0.0000      -0.131749        -3.5851
 269   0.0000      -0.093800        -2.5524
 270   0.0000      -0.086225        -2.3463
 271   0.0000      -0.065121        -1.7720
 272   0.0000      -0.054641        -1.4869

MULLIKEN ATOMIC CHARGES
-----------------------
   0 C :   -0.106362
   1 C :    0.242004
   2 F :   -0.170192
   3 C :    0.239483
   4 F :   -0.170205
   5 C :   -0.103487
   6 C :    0.116324
   7 C :    0.113259
   8 C :   -0.081607
   9 C :    0.049498
  10 C :    0.005911
  11 C :   -0.083301
  12 C :    0.161743
  13 O :   -0.155537
  14 C :   -0.086350
  15 C :    0.308192
  16 C :   -0.350218
  17 C :   -0.196496
  18 N :    0.160159
  19 C :   -0.183767
  20 N :    0.150059
  21 C :    0.058780
  22 C :   -0.066451
  23 C :   -0.035934
  24 C :    0.041193
  25 S :    0.004389
  26 C :   -0.084532
  27 C :   -0.223461
  28 S :    0.195732
  29 C :    0.167361
  30 C :   -0.056485
  31 C :   -0.048593
  32 N :   -0.053674
  33 C :    0.166909
  34 C :    0.167012
  35 N :   -0.024056
  36 F :   -0.133945
  37 F :   -0.133092
  38 C :    0.202766
  39 C :   -0.013160
  40 C :   -0.022414
  41 N :   -0.306074
  42 S :    0.565928
  43 N :   -0.283797
  44 C :   -0.142238
  45 C :   -0.000644
  46 C :    0.047433
  47 S :   -0.009224
  48 C :   -0.104874
  49 C :   -0.140285
  50 S :    0.157311
  51 C :    0.043116
  52 C :   -0.141304
  53 C :    0.145429
  54 O :   -0.141524
  55 C :    0.011441
  56 C :   -0.087347
  57 C :    0.113756
  58 C :    0.114184
  59 C :   -0.110950
  60 C :    0.243482
  61 C :    0.238679
  62 C :   -0.106147
  63 F :   -0.173273
  64 F :   -0.172575
  65 C :   -0.081120
  66 C :    0.040138
  67 C :    0.242409
  68 C :   -0.315032
  69 C :   -0.159335
  70 N :    0.140291
  71 C :   -0.180527
  72 N :    0.151226
  73 H :    0.007446
  74 H :   -0.000433
  75 H :   -0.005314
  76 H :   -0.011485
  77 H :    0.009356
  78 H :    0.005137
  79 H :    0.054840
  80 H :    0.062903
  81 H :    0.078009
  82 H :   -0.002904
  83 H :    0.064680
  84 H :    0.064327
  85 H :    0.088807
  86 H :    0.027268
  87 H :   -0.008976
  88 H :    0.004776
  89 H :   -0.000744
  90 H :   -0.003699
Sum of atomic charges:   -0.0000000

LOEWDIN ATOMIC CHARGES
----------------------
   0 C :   -0.028820
   1 C :    0.067320
   2 F :   -0.047574
   3 C :    0.068015
   4 F :   -0.048220
   5 C :   -0.033214
   6 C :   -0.008511
   7 C :   -0.005952
   8 C :    0.018203
   9 C :   -0.023140
  10 C :   -0.052118
  11 C :    0.030177
  12 C :    0.090305
  13 O :   -0.142010
  14 C :   -0.091817
  15 C :    0.076057
  16 C :   -0.138467
  17 C :   -0.025753
  18 N :   -0.047941
  19 C :   -0.017197
  20 N :   -0.051912
  21 C :    0.051203
  22 C :   -0.177446
  23 C :   -0.037298
  24 C :   -0.174691
  25 S :    0.328448
  26 C :   -0.163409
  27 C :   -0.170143
  28 S :    0.500778
  29 C :   -0.041200
  30 C :   -0.007840
  31 C :   -0.007866
  32 N :   -0.058462
  33 C :    0.073597
  34 C :    0.062610
  35 N :   -0.041181
  36 F :   -0.021207
  37 F :   -0.021624
  38 C :   -0.040289
  39 C :   -0.036449
  40 C :   -0.046870
  41 N :   -0.293957
  42 S :    0.688713
  43 N :   -0.275248
  44 C :   -0.142298
  45 C :   -0.050376
  46 C :   -0.159227
  47 S :    0.296777
  48 C :   -0.150487
  49 C :   -0.212376
  50 S :    0.497260
  51 C :    0.053176
  52 C :   -0.102154
  53 C :    0.081837
  54 O :   -0.144892
  55 C :   -0.051925
  56 C :    0.028323
  57 C :   -0.009699
  58 C :   -0.006041
  59 C :   -0.031275
  60 C :    0.066259
  61 C :    0.065932
  62 C :   -0.033197
  63 F :   -0.050897
  64 F :   -0.050096
  65 C :    0.013085
  66 C :   -0.018190
  67 C :    0.060738
  68 C :   -0.148144
  69 C :   -0.017869
  70 N :   -0.057450
  71 C :   -0.020808
  72 N :   -0.056554
  73 H :    0.048037
  74 H :    0.044912
  75 H :    0.040216
  76 H :    0.039756
  77 H :    0.043634
  78 H :    0.029707
  79 H :    0.030618
  80 H :    0.027712
  81 H :    0.027670
  82 H :    0.032050
  83 H :    0.032184
  84 H :    0.022300
  85 H :    0.034787
  86 H :    0.048010
  87 H :    0.040344
  88 H :    0.046711
  89 H :    0.044650
  90 H :    0.039666

  Mayer bond orders larger than 0.100000
B(  0-C ,  1-C ) :   1.4416 B(  0-C ,  5-C ) :   0.1085 B(  0-C ,  7-C ) :   1.1881
B(  0-C , 73-H ) :   1.0063 B(  1-C ,  2-F ) :   1.1353 B(  1-C ,  3-C ) :   1.1916
B(  3-C ,  4-F ) :   1.1354 B(  3-C ,  5-C ) :   1.4435 B(  5-C ,  6-C ) :   1.1917
B(  5-C , 74-H ) :   1.0065 B(  6-C ,  7-C ) :   1.2574 B(  6-C , 11-C ) :   1.1899
B(  7-C ,  8-C ) :   1.2178 B(  8-C ,  9-C ) :   1.4492 B(  8-C , 75-H ) :   0.9899
B(  9-C , 10-C ) :   1.2245 B(  9-C , 15-C ) :   0.9811 B( 10-C , 11-C ) :   1.4670
B( 10-C , 12-C ) :   0.9522 B( 11-C , 76-H ) :   1.0162 B( 12-C , 13-O ) :   2.1579
B( 12-C , 14-C ) :   0.9371 B( 13-O , 78-H ) :   0.1042 B( 14-C , 15-C ) :   1.0739
B( 14-C , 21-C ) :   1.5869 B( 15-C , 16-C ) :   1.6296 B( 16-C , 17-C ) :   1.1373
B( 16-C , 19-C ) :   1.1485 B( 17-C , 18-N ) :   2.9829 B( 19-C , 20-N ) :   2.9652
B( 21-C , 22-C ) :   1.2137 B( 21-C , 77-H ) :   0.9162 B( 22-C , 23-C ) :   1.4230
B( 22-C , 28-S ) :   1.0871 B( 23-C , 24-C ) :   1.2711 B( 23-C , 78-H ) :   0.9725
B( 24-C , 25-S ) :   1.0395 B( 24-C , 27-C ) :   1.4238 B( 25-S , 26-C ) :   0.9843
B( 26-C , 79-H ) :   0.9691 B( 26-C , 80-H ) :   0.9691 B( 26-C , 81-H ) :   0.9655
B( 27-C , 28-S ) :   1.1698 B( 27-C , 29-C ) :   1.1435 B( 29-C , 30-C ) :   1.3146
B( 29-C , 38-C ) :   0.1243 B( 29-C , 40-C ) :   1.1972 B( 30-C , 31-C ) :   1.1169
B( 30-C , 35-N ) :   1.3994 B( 31-C , 32-N ) :   1.3665 B( 31-C , 38-C ) :   1.3009
B( 32-N , 33-C ) :   1.6504 B( 33-C , 34-C ) :   1.1078 B( 33-C , 37-F ) :   1.1874
B( 34-C , 35-N ) :   1.6282 B( 34-C , 36-F ) :   1.1828 B( 38-C , 39-C ) :   1.1984
B( 38-C , 44-C ) :   1.1659 B( 39-C , 40-C ) :   1.1148 B( 39-C , 43-N ) :   1.5160
B( 40-C , 41-N ) :   1.4874 B( 41-N , 42-S ) :   1.2798 B( 41-N , 43-N ) :   0.1500
B( 42-S , 43-N ) :   1.2827 B( 44-C , 45-C ) :   1.4614 B( 44-C , 50-S ) :   1.1313
B( 45-C , 46-C ) :   1.2632 B( 45-C , 82-H ) :   0.9867 B( 46-C , 47-S ) :   1.0507
B( 46-C , 49-C ) :   1.4149 B( 47-S , 48-C ) :   0.9918 B( 48-C , 83-H ) :   0.9681
B( 48-C , 84-H ) :   0.9702 B( 48-C , 85-H ) :   0.9545 B( 49-C , 50-S ) :   1.0628
B( 49-C , 51-C ) :   1.1588 B( 51-C , 52-C ) :   1.6091 B( 51-C , 86-H ) :   0.9488
B( 52-C , 53-C ) :   0.9475 B( 52-C , 67-C ) :   1.0508 B( 53-C , 54-O ) :   2.2800
B( 53-C , 55-C ) :   0.9104 B( 55-C , 56-C ) :   1.4766 B( 55-C , 66-C ) :   1.2209
B( 56-C , 57-C ) :   1.1918 B( 56-C , 87-H ) :   1.0161 B( 57-C , 58-C ) :   1.2592
B( 57-C , 62-C ) :   1.1938 B( 58-C , 59-C ) :   1.1893 B( 58-C , 65-C ) :   1.2090
B( 59-C , 60-C ) :   1.4388 B( 59-C , 62-C ) :   0.1095 B( 59-C , 88-H ) :   1.0078
B( 60-C , 61-C ) :   1.1938 B( 60-C , 64-F ) :   1.1333 B( 61-C , 62-C ) :   1.4413
B( 61-C , 63-F ) :   1.1322 B( 62-C , 89-H ) :   1.0072 B( 65-C , 66-C ) :   1.4617
B( 65-C , 90-H ) :   0.9957 B( 66-C , 67-C ) :   1.0033 B( 67-C , 68-C ) :   1.6437
B( 68-C , 69-C ) :   1.1611 B( 68-C , 71-C ) :   1.1402 B( 69-C , 70-N ) :   2.9345
B( 71-C , 72-N ) :   2.9894

-----------------------------------------------------------------------------
         ABSORPTION SPECTRUM VIA TRANSITION ELECTRIC DIPOLE MOMENTS
-----------------------------------------------------------------------------
State   Energy  Wavelength   fosc         T2         TX        TY        TZ
        (cm-1)    (nm)                  (au**2)     (au)      (au)      (au)
-----------------------------------------------------------------------------
   0   10874.7    919.6   0.833549483  25.23418  -2.06066  -4.38871   1.31417
   1   16668.8    599.9   0.076271327   1.50637  -0.65436   0.44856   0.93648
   2   18504.6    540.4   0.098798142   1.75770  -0.59745  -1.12502   0.36753
   3   19966.3    500.8   0.161814821   2.66807   0.47361  -0.10534  -1.55970
   4   20499.2    487.8   0.425625264   6.83543  -1.63399  -1.95060   0.60057
   5   21002.1    476.1   0.112917910   1.77001   1.07410   0.77130  -0.14635
   6   23652.4    422.8   0.012740029   0.17733  -0.10329  -0.33171   0.23797
   7   25205.1    396.7   0.137114034   1.79089   0.49322  -0.94491  -0.80918
   8   25486.1    392.4   0.005641834   0.07288  -0.09284  -0.18838  -0.16962
   9   26474.2    377.7   0.015491509   0.19264  -0.21848  -0.07163   0.37386
  10   26784.1    373.4   0.043132125   0.53015  -0.61370   0.06084   0.38707
  11   27265.2    366.8   0.133893786   1.61669  -0.25109  -1.22256  -0.24287
  12   27381.9    365.2   0.005582495   0.06712   0.01812  -0.19542  -0.16912
  13   27645.3    361.7   0.025312773   0.30144  -0.36340  -0.39384   0.11942
  14   27837.2    359.2   0.071500882   0.84559   0.75612   0.46255  -0.24480
  15   27925.3    358.1   0.035345465   0.41669  -0.49809   0.01519   0.41033
  16   27971.5    357.5   0.011338220   0.13345  -0.10464   0.06091   0.34465
  17   28284.7    353.5   0.048247606   0.56157   0.53127   0.03479  -0.52736
  18   28513.2    350.7   0.026459786   0.30550   0.50585  -0.20754   0.08088
  19   28763.2    347.7   0.179804897   2.05798   1.11474   0.87254  -0.23235
  20   29448.7    339.6   0.021753398   0.24319   0.33122   0.34428  -0.12228
  21   30084.3    332.4   0.147220300   1.61103   0.41016  -0.64089  -1.01590
  22   30422.3    328.7   0.050573519   0.54728  -0.48834   0.13154   0.53991
  23   30576.9    327.0   0.086846562   0.93505  -0.65133   0.28555   0.65520
  24   30980.4    322.8   0.181671008   1.93052  -1.16227   0.23218   0.72507
  25   31628.9    316.2   0.039461543   0.41074   0.49367   0.26074  -0.31470
  26   32141.0    311.1   0.317656593   3.25368  -0.24283  -1.70354  -0.54098
  27   32472.4    308.0   0.061179132   0.62025  -0.06183  -0.66243  -0.42144
  28   33034.6    302.7   0.084887710   0.84596   0.00609   0.82356   0.40948
  29   33134.4    301.8   0.144746671   1.43815  -0.99789  -0.65379  -0.12216
  30   33196.8    301.2   0.060768870   0.60264  -0.36727  -0.65381   0.20073
  31   33473.8    298.7   0.026388874   0.25953   0.41958   0.27094  -0.10038
  32   33618.8    297.5   0.084570378   0.82816   0.07983   0.90253  -0.08497
  33   33915.7    294.8   0.018581144   0.18036  -0.04481  -0.39006  -0.16190
  34   34124.6    293.0   0.050088718   0.48322   0.18858   0.65642   0.12952
  35   34177.7    292.6   0.001387324   0.01336  -0.06245  -0.09028   0.03624
  36   34480.9    290.0   0.007304903   0.06974   0.19037  -0.01286  -0.18259
  37   34732.3    287.9   0.034029640   0.32255  -0.09580   0.52742  -0.18763
  38   35114.2    284.8   0.024896082   0.23341  -0.07596  -0.38319  -0.28427
  39   35537.1    281.4   0.056430008   0.52276   0.43920   0.43866  -0.37074
  40   35751.9    279.7   0.383751452   3.53368   1.75900   0.61216  -0.25465
  41   35934.0    278.3   0.476053635   4.36140   1.16646  -1.15350  -1.29237
  42   36077.7    277.2   0.529488042   4.83163   1.70492  -0.68250  -1.20792
  43   36282.8    275.6   0.127425004   1.15619  -0.00877   0.96621   0.47175
  44   37137.2    269.3   0.005642205   0.05002   0.20696   0.00763  -0.08442
  45   37184.0    268.9   0.067609884   0.59859  -0.67500  -0.02855   0.37704
  46   37316.2    268.0   0.010905292   0.09621  -0.15720  -0.15915   0.21487
  47   37664.4    265.5   0.121065956   1.05820   0.34394   0.08013  -0.96617
  48   37722.6    265.1   0.076645496   0.66890   0.32538  -0.29680  -0.68915
  49   37954.1    263.5   0.021569509   0.18709   0.01294  -0.42353   0.08686
  50   38223.2    261.6   0.069769152   0.60091  -0.58401   0.29661   0.41457
  51   38451.1    260.1   0.058056080   0.49707   0.37569   0.49816  -0.32826
  52   38794.8    257.8   0.078616664   0.66714   0.01632  -0.73574  -0.35433
  53   39505.7    253.1   0.040537152   0.33781   0.21292   0.53384  -0.08655
  54   39544.3    252.9   0.162899595   1.35616  -0.86909  -0.77441   0.03370
  55   39729.0    251.7   0.011806240   0.09783  -0.20870  -0.23297   0.00135
  56   39919.7    250.5   0.223984374   1.84717  -0.40952   0.97333   0.85562
  57   40104.5    249.3   0.079020482   0.64867   0.32185   0.48634   0.55548

FINAL SINGLE POINT ENERGY     -5166.267303070090

DIPOLE MOMENT
-------------
                                X             Y             Z
Electronic contribution:     -2.71251      17.28549      15.73721
Nuclear contribution   :      1.27983     -16.30971     -16.04971
                        -----------------------------------------
Total Dipole Moment    :     -1.43268       0.97578      -0.31250
                        -----------------------------------------
Magnitude (a.u.)       :      1.76135
Magnitude (Debye)      :      4.47701

Rotational constants in cm-1:     0.001555     0.000281     0.000245
Rotational constants in MHz :    46.610889     8.417046     7.351033

                             ****ORCA TERMINATED NORMALLY****
TOTAL RUN TIME: 0 days 0 hours 9 minutes 37 seconds 483 msec
