                         Program Version 4.2.0 -  RELEASE  -
|  1> # ORCA input file
|  2> # SCF done       -193.551168570853          0.000388876167
|  3> ! CAM-B3LYP def2-SVP def2/J RIJCOSX Grid4 TightSCF
|  4> %maxcore 5000
|  5> %tddft
|  6>     Mode sTDDFT
|  7>     Ethresh 5.0
|  8>     maxcore 5000
|  9> end
| 10>
| 11> %pal
| 12>   nprocs 6
| 13>   end
| 14> * xyz 0 1
| 15>    C        2.14804         2.77912        -0.94711
| 16>    C        1.23128         2.98943        -1.94386
| 17>    C        1.56611         3.08290        -3.30865
| 18>    N        1.79322         3.18556        -4.42927
| 19>    C       -0.15854         3.03319        -1.70863
| 20>    N       -1.29572         3.01541        -1.55252
| 21>    C        3.54472         2.40861        -1.14359
| 22>    C        4.00684         1.75584         0.03718
| 23>    C        5.27393         1.25690         0.12950
| 24>    C        6.15287         1.40015        -0.96805
| 25>    C        5.70064         2.06424        -2.14498
| 26>    C        4.38001         2.56488        -2.21595
| 27>    C        6.59011         2.20408        -3.22952
| 28>    C        7.86427         1.71033        -3.15868
| 29>    C        8.30854         1.05636        -1.99988
| 30>    C        7.47098         0.90431        -0.92838
| 31>    C        2.93144         1.75139         1.04633
| 32>    O        2.93532         1.24050         2.14274
| 33>    C        1.84425         2.58219         0.45424
| 34>    C        0.87924         3.09491         1.26337
| 35>    C        0.03799         4.21531         1.06610
| 36>    C       -1.07448         4.52543         1.82856
| 37>    C       -1.65128         5.73393         1.45373
| 38>    C       -0.96425         6.38684         0.41844
| 39>    S        0.39881         5.47998        -0.10475
| 40>    C       -1.54433         7.61013         0.08074
| 41>    C       -2.67661         7.88835         0.86070
| 42>    S       -3.03238         6.63458         2.01495
| 43>    C       -3.27761         9.10754         0.55673
| 44>    C       -2.61493         9.76358        -0.46190
| 45>    S       -1.23052         8.86881        -1.05439
| 46>    C       -2.94786        11.03630        -1.01581
| 47>    C       -2.25289        11.59173        -2.08745
| 48>    O       -1.21929        10.85674        -2.61434
| 49>    C       -1.37635        10.44252        -3.96581
| 50>    C       -2.53833        12.88388        -2.60428
| 51>    O       -1.77964        13.39913        -3.62526
| 52>    C       -0.40495        13.62411        -3.34087
| 53>    C       -3.60023        13.66159        -2.14764
| 54>    C       -4.36016        13.09706        -1.08837
| 55>    C       -4.02344        11.81722        -0.51455
| 56>    N       -4.88671        11.58726         0.45399
| 57>    O       -5.70114        12.63814         0.48827
| 58>    N       -5.40323        13.55597        -0.42680
| 59>    C       -3.88546        14.95747        -2.67429
| 60>    C       -4.86334        15.82958        -2.23704
| 61>    C       -4.84100        17.02789        -2.94688
| 62>    C       -3.85094        17.07315        -3.93972
| 63>    S       -2.93531        15.61307        -3.99079
| 64>    C       -3.84275        18.29204        -4.61900
| 65>    C       -4.82389        19.17982        -4.13898
| 66>    S       -5.77465        18.49435        -2.84788
| 67>    C       -4.83266        20.41316        -4.77586
| 68>    C       -3.85888        20.49700        -5.75860
| 69>    S       -2.93292        18.99468        -5.89170
| 70>    C       -3.49615        21.51586        -6.66180
| 71>    C       -3.87490        22.82754        -6.74740
| 72>    C       -3.39043        23.73200        -7.77940
| 73>    C       -2.78286        23.38618        -8.95882
| 74>    C       -2.35025        24.31940        -9.92449
| 75>    N       -1.96952        25.02287       -10.74819
| 76>    C       -2.53729        22.07219        -9.41065
| 77>    N       -2.31765        21.04044        -9.86577
| 78>    C       -3.73356        25.09139        -7.38068
| 79>    C       -4.50865        25.02669        -6.18939
| 80>    C       -4.67515        23.62069        -5.78236
| 81>    O       -5.32828        23.23084        -4.83600
| 82>    C       -4.98324        26.14840        -5.57332
| 83>    C       -4.69300        27.41401        -6.13006
| 84>    C       -3.91411        27.48843        -7.32071
| 85>    C       -3.43969        26.30794        -7.93750
| 86>    C       -3.62822        28.75640        -7.86648
| 87>    C       -4.08791        29.89689        -7.26622
| 88>    C       -4.85343        29.82242        -6.09302
| 89>    C       -5.15012        28.60737        -5.53748
| 90>    H        5.60356         0.75816         1.02882
| 91>    H        4.06272         3.07164        -3.11426
| 92>    H        6.24244         2.70551        -4.12082
| 93>    H        8.53711         1.82047        -3.99594
| 94>    H        9.31743         0.67366        -1.96045
| 95>    H        7.80742         0.40142        -0.03350
| 96>    H        0.80763         2.63292         2.24394
| 97>    H       -1.45304         3.88101         2.60047
| 98>    H       -4.14681         9.51157         1.04012
| 99>    H       -0.46048         9.91220        -4.21712
|100>    H       -1.51323        11.29202        -4.63722
|101>    H       -2.22879         9.76391        -4.06059
|102>    H        0.10584        12.70674        -3.04427
|103>    H       -0.29644        14.37148        -2.54968
|104>    H        0.02323        14.00780        -4.26428
|105>    H       -5.54253        15.58996        -1.44100
|106>    H       -5.49900        21.22262        -4.54242
|107>    H       -2.76265        21.18592        -7.38906
|108>    H       -5.57084        26.07073        -4.67053
|109>    H       -2.84732        26.39908        -8.83389
|110>    H       -3.03914        28.80847        -8.77039
|111>    H       -3.86386        30.86334        -7.69237
|112>    H       -5.20675        30.73246        -5.63159
|113>    H       -5.73925        28.54362        -4.63424
|114> *
|115>
|116>                          ****END OF INPUT****

CARTESIAN COORDINATES (ANGSTROEM)
---------------------------------
  C      2.148040    2.779120   -0.947110
  C      1.231280    2.989430   -1.943860
  C      1.566110    3.082900   -3.308650
  N      1.793220    3.185560   -4.429270
  C     -0.158540    3.033190   -1.708630
  N     -1.295720    3.015410   -1.552520
  C      3.544720    2.408610   -1.143590
  C      4.006840    1.755840    0.037180
  C      5.273930    1.256900    0.129500
  C      6.152870    1.400150   -0.968050
  C      5.700640    2.064240   -2.144980
  C      4.380010    2.564880   -2.215950
  C      6.590110    2.204080   -3.229520
  C      7.864270    1.710330   -3.158680
  C      8.308540    1.056360   -1.999880
  C      7.470980    0.904310   -0.928380
  C      2.931440    1.751390    1.046330
  O      2.935320    1.240500    2.142740
  C      1.844250    2.582190    0.454240
  C      0.879240    3.094910    1.263370
  C      0.037990    4.215310    1.066100
  C     -1.074480    4.525430    1.828560
  C     -1.651280    5.733930    1.453730
  C     -0.964250    6.386840    0.418440
  S      0.398810    5.479980   -0.104750
  C     -1.544330    7.610130    0.080740
  C     -2.676610    7.888350    0.860700
  S     -3.032380    6.634580    2.014950
  C     -3.277610    9.107540    0.556730
  C     -2.614930    9.763580   -0.461900
  S     -1.230520    8.868810   -1.054390
  C     -2.947860   11.036300   -1.015810
  C     -2.252890   11.591730   -2.087450
  O     -1.219290   10.856740   -2.614340
  C     -1.376350   10.442520   -3.965810
  C     -2.538330   12.883880   -2.604280
  O     -1.779640   13.399130   -3.625260
  C     -0.404950   13.624110   -3.340870
  C     -3.600230   13.661590   -2.147640
  C     -4.360160   13.097060   -1.088370
  C     -4.023440   11.817220   -0.514550
  N     -4.886710   11.587260    0.453990
  O     -5.701140   12.638140    0.488270
  N     -5.403230   13.555970   -0.426800
  C     -3.885460   14.957470   -2.674290
  C     -4.863340   15.829580   -2.237040
  C     -4.841000   17.027890   -2.946880
  C     -3.850940   17.073150   -3.939720
  S     -2.935310   15.613070   -3.990790
  C     -3.842750   18.292040   -4.619000
  C     -4.823890   19.179820   -4.138980
  S     -5.774650   18.494350   -2.847880
  C     -4.832660   20.413160   -4.775860
  C     -3.858880   20.497000   -5.758600
  S     -2.932920   18.994680   -5.891700
  C     -3.496150   21.515860   -6.661800
  C     -3.874900   22.827540   -6.747400
  C     -3.390430   23.732000   -7.779400
  C     -2.782860   23.386180   -8.958820
  C     -2.350250   24.319400   -9.924490
  N     -1.969520   25.022870  -10.748190
  C     -2.537290   22.072190   -9.410650
  N     -2.317650   21.040440   -9.865770
  C     -3.733560   25.091390   -7.380680
  C     -4.508650   25.026690   -6.189390
  C     -4.675150   23.620690   -5.782360
  O     -5.328280   23.230840   -4.836000
  C     -4.983240   26.148400   -5.573320
  C     -4.693000   27.414010   -6.130060
  C     -3.914110   27.488430   -7.320710
  C     -3.439690   26.307940   -7.937500
  C     -3.628220   28.756400   -7.866480
  C     -4.087910   29.896890   -7.266220
  C     -4.853430   29.822420   -6.093020
  C     -5.150120   28.607370   -5.537480
  H      5.603560    0.758160    1.028820
  H      4.062720    3.071640   -3.114260
  H      6.242440    2.705510   -4.120820
  H      8.537110    1.820470   -3.995940
  H      9.317430    0.673660   -1.960450
  H      7.807420    0.401420   -0.033500
  H      0.807630    2.632920    2.243940
  H     -1.453040    3.881010    2.600470
  H     -4.146810    9.511570    1.040120
  H     -0.460480    9.912200   -4.217120
  H     -1.513230   11.292020   -4.637220
  H     -2.228790    9.763910   -4.060590
  H      0.105840   12.706740   -3.044270
  H     -0.296440   14.371480   -2.549680
  H      0.023230   14.007800   -4.264280
  H     -5.542530   15.589960   -1.441000
  H     -5.499000   21.222620   -4.542420
  H     -2.762650   21.185920   -7.389060
  H     -5.570840   26.070730   -4.670530
  H     -2.847320   26.399080   -8.833890
  H     -3.039140   28.808470   -8.770390
  H     -3.863860   30.863340   -7.692370
  H     -5.206750   30.732460   -5.631590
  H     -5.739250   28.543620   -4.634240

 Total Charge           Charge          ....    0
 Multiplicity           Mult            ....    1
 Number of Electrons    NEL             ....  550
 Basis Dimension        Dim             .... 1194

ORBITAL ENERGIES
----------------

  NO   OCC          E(Eh)            E(eV)
   0   2.0000     -88.971587     -2421.0400
   1   2.0000     -88.970331     -2421.0058
   2   2.0000     -88.969892     -2420.9938
   3   2.0000     -88.969344     -2420.9789
   4   2.0000     -88.965705     -2420.8799
   5   2.0000     -88.964461     -2420.8461
   6   2.0000     -19.366008      -526.9759
   7   2.0000     -19.275802      -524.5212
   8   2.0000     -19.274766      -524.4930
   9   2.0000     -19.214876      -522.8634
  10   2.0000     -19.210108      -522.7336
  11   2.0000     -14.492815      -394.3695
  12   2.0000     -14.492579      -394.3631
  13   2.0000     -14.413063      -392.1994
  14   2.0000     -14.411322      -392.1520
  15   2.0000     -14.409214      -392.0946
  16   2.0000     -14.408553      -392.0767
  17   2.0000     -10.370718      -282.2016
  18   2.0000     -10.369878      -282.1787
  19   2.0000     -10.366065      -282.0750
  20   2.0000     -10.362191      -281.9696
  21   2.0000     -10.341814      -281.4151
  22   2.0000     -10.341565      -281.4083
  23   2.0000     -10.339272      -281.3459
  24   2.0000     -10.339073      -281.3405
  25   2.0000     -10.338243      -281.3179
  26   2.0000     -10.337642      -281.3015
  27   2.0000     -10.336187      -281.2619
  28   2.0000     -10.335598      -281.2459
  29   2.0000     -10.325250      -280.9643
  30   2.0000     -10.324813      -280.9524
  31   2.0000     -10.324142      -280.9342
  32   2.0000     -10.323297      -280.9112
  33   2.0000     -10.323198      -280.9085
  34   2.0000     -10.321825      -280.8711
  35   2.0000     -10.321349      -280.8582
  36   2.0000     -10.319547      -280.8092
  37   2.0000     -10.319046      -280.7955
  38   2.0000     -10.317391      -280.7505
  39   2.0000     -10.315685      -280.7041
  40   2.0000     -10.314477      -280.6712
  41   2.0000     -10.313588      -280.6470
  42   2.0000     -10.312939      -280.6294
  43   2.0000     -10.312841      -280.6267
  44   2.0000     -10.312638      -280.6212
  45   2.0000     -10.311665      -280.5947
  46   2.0000     -10.310832      -280.5720
  47   2.0000     -10.310489      -280.5627
  48   2.0000     -10.310399      -280.5602
  49   2.0000     -10.304911      -280.4109
  50   2.0000     -10.300865      -280.3008
  51   2.0000     -10.298508      -280.2366
  52   2.0000     -10.295810      -280.1632
  53   2.0000     -10.295719      -280.1608
  54   2.0000     -10.295340      -280.1504
  55   2.0000     -10.294555      -280.1291
  56   2.0000     -10.294505      -280.1277
  57   2.0000     -10.294458      -280.1264
  58   2.0000     -10.294291      -280.1219
  59   2.0000     -10.294129      -280.1175
  60   2.0000     -10.293359      -280.0965
  61   2.0000     -10.293020      -280.0873
  62   2.0000     -10.292832      -280.0822
  63   2.0000     -10.290521      -280.0193
  64   2.0000     -10.290450      -280.0174
  65   2.0000     -10.286845      -279.9193
  66   2.0000     -10.284746      -279.8622
  67   2.0000     -10.284713      -279.8613
  68   2.0000     -10.284433      -279.8537
  69   2.0000     -10.284112      -279.8449
  70   2.0000     -10.283933      -279.8400
  71   2.0000     -10.283720      -279.8343
  72   2.0000     -10.283352      -279.8242
  73   2.0000     -10.283037      -279.8157
  74   2.0000     -10.282509      -279.8013
  75   2.0000      -8.066345      -219.4964
  76   2.0000      -8.065723      -219.4795
  77   2.0000      -8.063612      -219.4220
  78   2.0000      -8.063038      -219.4064
  79   2.0000      -8.060933      -219.3491
  80   2.0000      -8.059748      -219.3169
  81   2.0000      -6.035929      -164.2460
  82   2.0000      -6.035146      -164.2247
  83   2.0000      -6.033348      -164.1757
  84   2.0000      -6.032783      -164.1604
  85   2.0000      -6.031822      -164.1342
  86   2.0000      -6.031137      -164.1156
  87   2.0000      -6.030688      -164.1034
  88   2.0000      -6.029493      -164.0709
  89   2.0000      -6.028859      -164.0536
  90   2.0000      -6.028283      -164.0379
  91   2.0000      -6.027870      -164.0267
  92   2.0000      -6.027380      -164.0133
  93   2.0000      -6.026817      -163.9980
  94   2.0000      -6.025629      -163.9657
  95   2.0000      -6.025278      -163.9561
  96   2.0000      -6.024706      -163.9406
  97   2.0000      -6.021836      -163.8625
  98   2.0000      -6.020633      -163.8298
  99   2.0000      -1.321009       -35.9465
 100   2.0000      -1.190126       -32.3850
 101   2.0000      -1.164919       -31.6991
 102   2.0000      -1.129561       -30.7369
 103   2.0000      -1.125490       -30.6261
 104   2.0000      -1.029946       -28.0262
 105   2.0000      -1.029143       -28.0044
 106   2.0000      -1.024362       -27.8743
 107   2.0000      -1.016075       -27.6488
 108   2.0000      -1.014067       -27.5942
 109   2.0000      -1.013531       -27.5796
 110   2.0000      -0.995115       -27.0785
 111   2.0000      -0.994745       -27.0684
 112   2.0000      -0.991156       -26.9707
 113   2.0000      -0.989073       -26.9140
 114   2.0000      -0.987548       -26.8725
 115   2.0000      -0.984647       -26.7936
 116   2.0000      -0.968733       -26.3606
 117   2.0000      -0.967790       -26.3349
 118   2.0000      -0.942924       -25.6583
 119   2.0000      -0.939934       -25.5769
 120   2.0000      -0.926053       -25.1992
 121   2.0000      -0.920442       -25.0465
 122   2.0000      -0.919158       -25.0116
 123   2.0000      -0.901239       -24.5240
 124   2.0000      -0.898113       -24.4389
 125   2.0000      -0.896186       -24.3865
 126   2.0000      -0.880247       -23.9527
 127   2.0000      -0.878937       -23.9171
 128   2.0000      -0.876995       -23.8642
 129   2.0000      -0.875439       -23.8219
 130   2.0000      -0.862544       -23.4710
 131   2.0000      -0.853893       -23.2356
 132   2.0000      -0.844420       -22.9778
 133   2.0000      -0.843484       -22.9524
 134   2.0000      -0.828468       -22.5437
 135   2.0000      -0.826005       -22.4768
 136   2.0000      -0.824879       -22.4461
 137   2.0000      -0.821032       -22.3414
 138   2.0000      -0.812434       -22.1075
 139   2.0000      -0.807304       -21.9678
 140   2.0000      -0.802534       -21.8381
 141   2.0000      -0.794702       -21.6249
 142   2.0000      -0.782671       -21.2975
 143   2.0000      -0.766389       -20.8545
 144   2.0000      -0.758156       -20.6305
 145   2.0000      -0.756788       -20.5932
 146   2.0000      -0.748920       -20.3792
 147   2.0000      -0.746950       -20.3256
 148   2.0000      -0.731501       -19.9051
 149   2.0000      -0.720335       -19.6013
 150   2.0000      -0.706961       -19.2374
 151   2.0000      -0.701124       -19.0786
 152   2.0000      -0.700333       -19.0570
 153   2.0000      -0.696157       -18.9434
 154   2.0000      -0.693662       -18.8755
 155   2.0000      -0.678558       -18.4645
 156   2.0000      -0.673916       -18.3382
 157   2.0000      -0.673410       -18.3244
 158   2.0000      -0.669605       -18.2209
 159   2.0000      -0.659578       -17.9480
 160   2.0000      -0.658298       -17.9132
 161   2.0000      -0.651763       -17.7354
 162   2.0000      -0.647098       -17.6084
 163   2.0000      -0.644548       -17.5390
 164   2.0000      -0.639369       -17.3981
 165   2.0000      -0.637632       -17.3509
 166   2.0000      -0.630502       -17.1568
 167   2.0000      -0.627092       -17.0640
 168   2.0000      -0.623601       -16.9690
 169   2.0000      -0.619727       -16.8636
 170   2.0000      -0.616379       -16.7725
 171   2.0000      -0.605205       -16.4685
 172   2.0000      -0.604185       -16.4407
 173   2.0000      -0.603679       -16.4269
 174   2.0000      -0.601268       -16.3613
 175   2.0000      -0.593341       -16.1456
 176   2.0000      -0.585110       -15.9217
 177   2.0000      -0.582096       -15.8396
 178   2.0000      -0.576505       -15.6875
 179   2.0000      -0.575442       -15.6586
 180   2.0000      -0.569717       -15.5028
 181   2.0000      -0.568446       -15.4682
 182   2.0000      -0.562167       -15.2974
 183   2.0000      -0.555201       -15.1078
 184   2.0000      -0.551441       -15.0055
 185   2.0000      -0.546903       -14.8820
 186   2.0000      -0.544393       -14.8137
 187   2.0000      -0.544037       -14.8040
 188   2.0000      -0.543158       -14.7801
 189   2.0000      -0.540193       -14.6994
 190   2.0000      -0.536140       -14.5891
 191   2.0000      -0.534540       -14.5456
 192   2.0000      -0.531834       -14.4719
 193   2.0000      -0.530892       -14.4463
 194   2.0000      -0.527906       -14.3651
 195   2.0000      -0.526809       -14.3352
 196   2.0000      -0.525556       -14.3011
 197   2.0000      -0.524364       -14.2687
 198   2.0000      -0.519558       -14.1379
 199   2.0000      -0.515997       -14.0410
 200   2.0000      -0.513987       -13.9863
 201   2.0000      -0.512464       -13.9449
 202   2.0000      -0.509968       -13.8769
 203   2.0000      -0.506774       -13.7900
 204   2.0000      -0.506270       -13.7763
 205   2.0000      -0.503348       -13.6968
 206   2.0000      -0.501928       -13.6582
 207   2.0000      -0.500138       -13.6095
 208   2.0000      -0.495390       -13.4802
 209   2.0000      -0.493009       -13.4154
 210   2.0000      -0.489937       -13.3319
 211   2.0000      -0.486464       -13.2374
 212   2.0000      -0.485741       -13.2177
 213   2.0000      -0.483053       -13.1445
 214   2.0000      -0.482186       -13.1210
 215   2.0000      -0.481429       -13.1004
 216   2.0000      -0.479163       -13.0387
 217   2.0000      -0.468702       -12.7540
 218   2.0000      -0.465606       -12.6698
 219   2.0000      -0.463313       -12.6074
 220   2.0000      -0.461900       -12.5689
 221   2.0000      -0.461567       -12.5599
 222   2.0000      -0.460516       -12.5313
 223   2.0000      -0.454780       -12.3752
 224   2.0000      -0.451500       -12.2859
 225   2.0000      -0.448184       -12.1957
 226   2.0000      -0.446812       -12.1584
 227   2.0000      -0.443792       -12.0762
 228   2.0000      -0.443329       -12.0636
 229   2.0000      -0.440010       -11.9733
 230   2.0000      -0.439749       -11.9662
 231   2.0000      -0.437612       -11.9080
 232   2.0000      -0.436779       -11.8853
 233   2.0000      -0.435803       -11.8588
 234   2.0000      -0.430811       -11.7230
 235   2.0000      -0.430051       -11.7023
 236   2.0000      -0.429513       -11.6876
 237   2.0000      -0.429049       -11.6750
 238   2.0000      -0.427168       -11.6238
 239   2.0000      -0.424496       -11.5511
 240   2.0000      -0.422595       -11.4994
 241   2.0000      -0.421207       -11.4616
 242   2.0000      -0.420522       -11.4430
 243   2.0000      -0.418980       -11.4010
 244   2.0000      -0.415138       -11.2965
 245   2.0000      -0.413908       -11.2630
 246   2.0000      -0.413321       -11.2470
 247   2.0000      -0.412580       -11.2269
 248   2.0000      -0.403417       -10.9775
 249   2.0000      -0.402510       -10.9529
 250   2.0000      -0.402154       -10.9432
 251   2.0000      -0.397403       -10.8139
 252   2.0000      -0.396689       -10.7945
 253   2.0000      -0.391813       -10.6618
 254   2.0000      -0.380362       -10.3502
 255   2.0000      -0.379157       -10.3174
 256   2.0000      -0.373024       -10.1505
 257   2.0000      -0.369813       -10.0631
 258   2.0000      -0.369015       -10.0414
 259   2.0000      -0.355831        -9.6826
 260   2.0000      -0.351749        -9.5716
 261   2.0000      -0.342058        -9.3079
 262   2.0000      -0.339959        -9.2508
 263   2.0000      -0.336443        -9.1551
 264   2.0000      -0.334101        -9.0914
 265   2.0000      -0.328171        -8.9300
 266   2.0000      -0.315291        -8.5795
 267   2.0000      -0.313106        -8.5201
 268   2.0000      -0.305748        -8.3198
 269   2.0000      -0.293036        -7.9739
 270   2.0000      -0.291615        -7.9352
 271   2.0000      -0.291093        -7.9211
 272   2.0000      -0.289021        -7.8647
 273   2.0000      -0.269066        -7.3216
 274   2.0000      -0.245519        -6.6809
 275   0.0000      -0.103812        -2.8249
 276   0.0000      -0.090748        -2.4694
 277   0.0000      -0.074699        -2.0327
 278   0.0000      -0.054299        -1.4775
 279   0.0000      -0.051685        -1.4064

MULLIKEN ATOMIC CHARGES
-----------------------
   0 C :    0.250612
   1 C :   -0.319458
   2 C :   -0.171835
   3 N :    0.147374
   4 C :   -0.210030
   5 N :    0.170724
   6 C :    0.039341
   7 C :    0.012511
   8 C :   -0.085239
   9 C :    0.094343
  10 C :    0.096624
  11 C :   -0.084329
  12 C :   -0.018282
  13 C :    0.034736
  14 C :    0.036109
  15 C :   -0.014693
  16 C :    0.143227
  17 O :   -0.145642
  18 C :   -0.142964
  19 C :    0.048684
  20 C :   -0.084171
  21 C :    0.001219
  22 C :   -0.012165
  23 C :   -0.071724
  24 S :    0.167171
  25 C :   -0.051371
  26 C :   -0.010347
  27 S :    0.170288
  28 C :   -0.059822
  29 C :   -0.155524
  30 S :    0.161468
  31 C :    0.179041
  32 C :    0.036545
  33 O :   -0.360400
  34 C :    0.178939
  35 C :    0.041315
  36 O :   -0.358071
  37 C :    0.179076
  38 C :    0.175738
  39 C :   -0.062124
  40 C :   -0.065553
  41 N :    0.040595
  42 O :   -0.086397
  43 N :    0.039724
  44 C :   -0.151922
  45 C :   -0.064890
  46 C :   -0.004640
  47 C :   -0.055700
  48 S :    0.160886
  49 C :   -0.067182
  50 C :   -0.035807
  51 S :    0.171133
  52 C :   -0.002399
  53 C :   -0.108490
  54 S :    0.161461
  55 C :    0.038110
  56 C :   -0.094121
  57 C :    0.311394
  58 C :   -0.356755
  59 C :   -0.182937
  60 N :    0.143995
  61 C :   -0.200217
  62 N :    0.155047
  63 C :    0.044276
  64 C :   -0.000654
  65 C :    0.157694
  66 O :   -0.161412
  67 C :   -0.081257
  68 C :    0.096796
  69 C :    0.094022
  70 C :   -0.079721
  71 C :   -0.017928
  72 C :    0.034810
  73 C :    0.036887
  74 C :   -0.016970
  75 H :   -0.012633
  76 H :   -0.007019
  77 H :   -0.012847
  78 H :   -0.005185
  79 H :   -0.006474
  80 H :   -0.018356
  81 H :    0.025166
  82 H :    0.000828
  83 H :    0.006653
  84 H :    0.047251
  85 H :    0.049324
  86 H :    0.033162
  87 H :    0.050116
  88 H :    0.029840
  89 H :    0.046128
  90 H :    0.007343
  91 H :    0.018607
  92 H :    0.014170
  93 H :   -0.015354
  94 H :   -0.008612
  95 H :   -0.009334
  96 H :   -0.006181
  97 H :   -0.006585
  98 H :   -0.018776
Sum of atomic charges:   -0.0000000

LOEWDIN ATOMIC CHARGES
----------------------
   0 C :    0.060857
   1 C :   -0.143977
   2 C :   -0.018477
   3 N :   -0.055846
   4 C :   -0.037316
   5 N :   -0.049054
   6 C :   -0.021772
   7 C :   -0.056199
   8 C :    0.031459
   9 C :   -0.009618
  10 C :   -0.005673
  11 C :    0.013722
  12 C :   -0.007341
  13 C :   -0.014011
  14 C :   -0.014204
  15 C :   -0.009415
  16 C :    0.083256
  17 O :   -0.146623
  18 C :   -0.101299
  19 C :    0.051991
  20 C :   -0.173854
  21 C :   -0.016961
  22 C :   -0.193494
  23 C :   -0.192697
  24 S :    0.458079
  25 C :   -0.224261
  26 C :   -0.180251
  27 S :    0.415043
  28 C :   -0.054369
  29 C :   -0.156688
  30 S :    0.455735
  31 C :   -0.055160
  32 C :    0.032588
  33 O :   -0.123305
  34 C :    0.079960
  35 C :    0.034891
  36 O :   -0.121440
  37 C :    0.078833
  38 C :   -0.057650
  39 C :   -0.042568
  40 C :   -0.043056
  41 N :   -0.020428
  42 O :    0.078190
  43 N :   -0.020703
  44 C :   -0.154343
  45 C :   -0.056636
  46 C :   -0.178527
  47 C :   -0.228400
  48 S :    0.456643
  49 C :   -0.196459
  50 C :   -0.194529
  51 S :    0.414771
  52 C :   -0.012586
  53 C :   -0.174065
  54 S :    0.442321
  55 C :    0.046856
  56 C :   -0.099501
  57 C :    0.077428
  58 C :   -0.145705
  59 C :   -0.017093
  60 N :   -0.058268
  61 C :   -0.026077
  62 N :   -0.054870
  63 C :   -0.025926
  64 C :   -0.054199
  65 C :    0.087501
  66 O :   -0.147125
  67 C :    0.029975
  68 C :   -0.008770
  69 C :   -0.006827
  70 C :    0.018719
  71 C :   -0.005634
  72 C :   -0.014603
  73 C :   -0.013251
  74 C :   -0.010442
  75 H :    0.039017
  76 H :    0.038034
  77 H :    0.033542
  78 H :    0.032731
  79 H :    0.032340
  80 H :    0.031521
  81 H :    0.051898
  82 H :    0.041234
  83 H :    0.036226
  84 H :    0.030847
  85 H :    0.019589
  86 H :    0.020984
  87 H :    0.019231
  88 H :    0.019164
  89 H :    0.030371
  90 H :    0.036238
  91 H :    0.039069
  92 H :    0.043367
  93 H :    0.037891
  94 H :    0.038745
  95 H :    0.034572
  96 H :    0.032627
  97 H :    0.032193
  98 H :    0.031297

  Mayer bond orders larger than 0.100000
B(  0-C ,  1-C ) :   1.6542 B(  0-C ,  6-C ) :   1.0021 B(  0-C , 18-C ) :   1.0368
B(  1-C ,  2-C ) :   1.1374 B(  1-C ,  4-C ) :   1.1472 B(  2-C ,  3-N ) :   2.9878
B(  4-C ,  5-N ) :   3.0292 B(  6-C ,  7-C ) :   1.2161 B(  6-C , 11-C ) :   1.4614
B(  7-C ,  8-C ) :   1.4776 B(  7-C , 16-C ) :   0.9197 B(  8-C ,  9-C ) :   1.1838
B(  8-C , 75-H ) :   1.0156 B(  9-C , 10-C ) :   1.2594 B(  9-C , 15-C ) :   1.2462
B( 10-C , 11-C ) :   1.2007 B( 10-C , 12-C ) :   1.2423 B( 11-C , 76-H ) :   0.9942
B( 12-C , 13-C ) :   1.4895 B( 12-C , 77-H ) :   0.9968 B( 13-C , 14-C ) :   1.2622
B( 13-C , 78-H ) :   0.9882 B( 14-C , 15-C ) :   1.4889 B( 14-C , 79-H ) :   0.9881
B( 15-C , 80-H ) :   0.9971 B( 16-C , 17-O ) :   2.2680 B( 16-C , 18-C ) :   0.9403
B( 18-C , 19-C ) :   1.6315 B( 19-C , 20-C ) :   1.1574 B( 19-C , 81-H ) :   0.9466
B( 20-C , 21-C ) :   1.4426 B( 20-C , 24-S ) :   1.0782 B( 21-C , 22-C ) :   1.2931
B( 21-C , 82-H ) :   1.0054 B( 22-C , 23-C ) :   1.4219 B( 22-C , 27-S ) :   1.0412
B( 23-C , 24-S ) :   1.0953 B( 23-C , 25-C ) :   1.3230 B( 25-C , 26-C ) :   1.4384
B( 25-C , 30-S ) :   1.0331 B( 26-C , 27-S ) :   1.0568 B( 26-C , 28-C ) :   1.2489
B( 28-C , 29-C ) :   1.5151 B( 28-C , 83-H ) :   0.9877 B( 29-C , 30-S ) :   1.0858
B( 29-C , 31-C ) :   1.1500 B( 31-C , 32-C ) :   1.4475 B( 31-C , 38-C ) :   0.1141
B( 31-C , 40-C ) :   1.1175 B( 32-C , 33-O ) :   1.1172 B( 32-C , 35-C ) :   1.1497
B( 33-O , 34-C ) :   0.8909 B( 34-C , 84-H ) :   0.9824 B( 34-C , 85-H ) :   0.9693
B( 34-C , 86-H ) :   0.9680 B( 35-C , 36-O ) :   1.1225 B( 35-C , 38-C ) :   1.4441
B( 36-O , 37-C ) :   0.8918 B( 37-C , 87-H ) :   0.9687 B( 37-C , 88-H ) :   0.9678
B( 37-C , 89-H ) :   0.9824 B( 38-C , 39-C ) :   1.1188 B( 38-C , 44-C ) :   1.1489
B( 39-C , 40-C ) :   1.1323 B( 39-C , 43-N ) :   1.6076 B( 40-C , 41-N ) :   1.6092
B( 41-N , 42-O ) :   1.0613 B( 41-N , 43-N ) :   0.1764 B( 42-O , 43-N ) :   1.0596
B( 44-C , 45-C ) :   1.5125 B( 44-C , 48-S ) :   1.0888 B( 45-C , 46-C ) :   1.2481
B( 45-C , 90-H ) :   0.9882 B( 46-C , 47-C ) :   1.4424 B( 46-C , 51-S ) :   1.0542
B( 47-C , 48-S ) :   1.0330 B( 47-C , 49-C ) :   1.3103 B( 49-C , 50-C ) :   1.4060
B( 49-C , 54-S ) :   1.1048 B( 50-C , 51-S ) :   1.0429 B( 50-C , 52-C ) :   1.2967
B( 52-C , 53-C ) :   1.4423 B( 52-C , 91-H ) :   0.9789 B( 53-C , 54-S ) :   1.0620
B( 53-C , 55-C ) :   1.2303 B( 55-C , 56-C ) :   1.5784 B( 55-C , 92-H ) :   0.9171
B( 56-C , 57-C ) :   1.0789 B( 56-C , 65-C ) :   0.9434 B( 57-C , 58-C ) :   1.6218
B( 57-C , 63-C ) :   0.9829 B( 58-C , 59-C ) :   1.1493 B( 58-C , 61-C ) :   1.1370
B( 59-C , 60-N ) :   2.9653 B( 61-C , 62-N ) :   2.9873 B( 63-C , 64-C ) :   1.2165
B( 63-C , 70-C ) :   1.4538 B( 64-C , 65-C ) :   0.9536 B( 64-C , 67-C ) :   1.4721
B( 65-C , 66-O ) :   2.1675 B( 67-C , 68-C ) :   1.1782 B( 67-C , 93-H ) :   1.0156
B( 68-C , 69-C ) :   1.2578 B( 68-C , 74-C ) :   1.2446 B( 69-C , 70-C ) :   1.2043
B( 69-C , 71-C ) :   1.2413 B( 70-C , 94-H ) :   0.9894 B( 71-C , 72-C ) :   1.4876
B( 71-C , 95-H ) :   0.9971 B( 72-C , 73-C ) :   1.2605 B( 72-C , 96-H ) :   0.9889
B( 73-C , 74-C ) :   1.4882 B( 73-C , 97-H ) :   0.9890 B( 74-C , 98-H ) :   0.9973

-----------------------------------------------------------------------------
         ABSORPTION SPECTRUM VIA TRANSITION ELECTRIC DIPOLE MOMENTS
-----------------------------------------------------------------------------
State   Energy  Wavelength   fosc         T2         TX        TY        TZ
        (cm-1)    (nm)                  (au**2)     (au)      (au)      (au)
-----------------------------------------------------------------------------
   0   16208.4    617.0   2.461173798  49.98942   1.92362  -6.52664   1.92147
   1   19985.5    500.4   0.579908724   9.55255   1.51171   1.27336  -2.37610
   2   22798.6    438.6   0.041543471   0.59989  -0.26485  -0.71564   0.13268
   3   23984.2    416.9   0.002322236   0.03188   0.16950   0.03950  -0.03983
   4   25208.0    396.7   0.068333405   0.89242  -0.80758   0.04328   0.48822
   5   25879.3    386.4   0.071687147   0.91193   0.73326  -0.40871  -0.45522
   6   26539.7    376.8   0.019439910   0.24114   0.44811  -0.16194   0.11881
   7   26701.0    374.5   0.044253042   0.54562   0.40388   0.59921  -0.15313
   8   27939.1    357.9   0.132512041   1.56142   0.35766  -1.17547  -0.22751
   9   28089.7    356.0   0.047325084   0.55465   0.11596   0.10728   0.72780
  10   28235.5    354.2   0.049799905   0.58064  -0.51273   0.55031   0.12211
  11   28669.4    348.8   0.025114132   0.28839  -0.05805   0.03214   0.53290
  12   29107.1    343.6   0.201154240   2.27513   1.11320  -0.94020   0.38979
  13   29391.3    340.2   0.124390308   1.39330  -0.28020   1.06561  -0.42340
  14   29810.5    335.5   0.089610724   0.98962  -0.65844   0.57728   0.47204
  15   29944.2    334.0   0.075877826   0.83421   0.17547  -0.89101  -0.09759
  16   30181.1    331.3   0.055872033   0.60945  -0.75259   0.19440  -0.07256
  17   30950.0    323.1   0.053198175   0.56586   0.45170   0.21945  -0.56006
  18   31722.5    315.2   0.066000278   0.68494  -0.45272   0.61364   0.32162
  19   33501.6    298.5   1.001035025   9.83694   1.66506  -2.65770   0.03368
  20   33636.8    297.3   0.292966908   2.86734  -1.09052  -0.62920  -1.13235
  21   33938.0    294.7   0.191442733   1.85707   1.23071  -0.16789  -0.56058
  22   34097.4    293.3   0.057872268   0.55876   0.31221   0.67594  -0.06625
  23   34423.7    290.5   0.301749649   2.88579   1.31858   0.11649  -1.06469
  24   34702.2    288.2   0.024987181   0.23705  -0.38459   0.29288   0.05795
  25   35003.4    285.7   0.116152459   1.09243   0.91748   0.48775  -0.11298
  26   35465.5    282.0   0.018367269   0.17050   0.18127  -0.27517  -0.24883
  27   35525.9    281.5   0.047107601   0.43654  -0.08924  -0.65206  -0.05820
  28   35995.7    277.8   0.020147833   0.18427  -0.38434   0.19088  -0.01084
  29   36240.0    275.9   0.001741093   0.01582  -0.09388  -0.05793  -0.06039
  30   36643.8    272.9   0.044020272   0.39548  -0.03178   0.47741  -0.40811
  31   36754.3    272.1   0.003167142   0.02837  -0.00959   0.13114   0.10526
  32   36934.2    270.8   0.010767188   0.09597  -0.22508   0.03750   0.20954
  33   37077.7    269.7   0.026395158   0.23436  -0.39195   0.26813   0.09402
  34   37282.6    268.2   0.004180146   0.03691  -0.03366   0.12844   0.13886
  35   37430.1    267.2   0.006547754   0.05759   0.03594  -0.21655   0.09697
  36   37671.9    265.4   0.033017049   0.28853  -0.06839  -0.47633  -0.23868
  37   38038.7    262.9   0.145671129   1.26073  -1.01648   0.30133   0.36974
  38   38452.7    260.1   0.034447241   0.29492  -0.28019  -0.06666  -0.46040
  39   38682.7    258.5   0.159479380   1.35726  -0.71321   0.13951   0.91057
  40   38731.8    258.2   0.035714101   0.30356  -0.12210  -0.10198   0.52750
  41   39320.3    254.3   0.090438254   0.75720   0.56677  -0.43615  -0.49572
  42   39467.7    253.4   0.107220584   0.89436   0.54019  -0.36188   0.68672
  43   39812.9    251.2   0.031004964   0.25638   0.37812  -0.17179  -0.28964
  44   40080.4    249.5   0.027513474   0.22599   0.41964  -0.20274   0.09376
  45   40290.0    248.2   0.069405025   0.56711   0.20875   0.24086  -0.68229

FINAL SINGLE POINT ENERGY     -5313.840420309974

DIPOLE MOMENT
-------------
                                X             Y             Z
Electronic contribution:    -26.27927     -12.88695      12.86328
Nuclear contribution   :     27.97745      13.91006     -10.86129
                        -----------------------------------------
Total Dipole Moment    :      1.69817       1.02311       2.00199
                        -----------------------------------------
Magnitude (a.u.)       :      2.81753
Magnitude (Debye)      :      7.16160

Rotational constants in cm-1:     0.001777     0.000170     0.000159
Rotational constants in MHz :    53.271190     5.103146     4.760298

                             ****ORCA TERMINATED NORMALLY****
TOTAL RUN TIME: 0 days 0 hours 10 minutes 27 seconds 86 msec
