                         Program Version 4.2.0 -  RELEASE  -
|  1> # ORCA input file
|  2> # SCF done       -213.805374335045          0.000595586170
|  3> ! CAM-B3LYP def2-SVP def2/J RIJCOSX Grid4 TightSCF
|  4> %maxcore 5000
|  5> %tddft
|  6>     Mode sTDDFT
|  7>     Ethresh 5.0
|  8>     maxcore 5000
|  9> end
| 10>
| 11> %pal
| 12>   nprocs 6
| 13>   end
| 14> * xyz 0 1
| 15>    C       -6.84421         2.72320        -2.19365
| 16>    C       -7.58485         3.69827        -1.58025
| 17>    C       -8.80124         4.19371        -2.09183
| 18>    N       -9.78569         4.63858        -2.47890
| 19>    C       -7.25725         4.23919        -0.31947
| 20>    N       -7.04118         4.66121         0.72581
| 21>    C       -7.27872         1.91565        -3.32651
| 22>    C       -6.53576         0.69803        -3.32421
| 23>    C       -6.76467        -0.28117        -4.24772
| 24>    C       -7.75403        -0.07878        -5.23625
| 25>    C       -8.48649         1.14382        -5.25393
| 26>    C       -8.23379         2.13801        -4.28118
| 27>    C       -9.46573         1.33450        -6.24987
| 28>    C       -9.71452         0.36418        -7.18192
| 29>    C       -8.99449        -0.83972        -7.16281
| 30>    C       -8.03551        -1.05649        -6.21089
| 31>    C       -5.55371         0.72403        -2.22539
| 32>    O       -4.79064        -0.14635        -1.88003
| 33>    C       -5.64724         2.10405        -1.65930
| 34>    C       -4.63813         2.58743        -0.89337
| 35>    C       -4.31234         3.93788        -0.60276
| 36>    C       -3.50647         4.36137         0.44136
| 37>    F       -3.00102         3.51367         1.33559
| 38>    C       -3.30661         5.74441         0.47624
| 39>    C       -3.93656         6.39279        -0.59369
| 40>    S       -4.78115         5.29408        -1.61426
| 41>    C       -3.73761         7.77575        -0.56047
| 42>    C       -2.96168         8.16243         0.53934
| 43>    S       -2.46081         6.83095         1.53788
| 44>    C       -2.77547         9.55018         0.59594
| 45>    F       -1.99355        10.13209         1.50471
| 46>    C       -3.39341        10.22485        -0.43982
| 47>    S       -4.19210         9.12167        -1.53592
| 48>    C       -3.45299        11.63511        -0.69615
| 49>    C       -3.48696        12.60500         0.32140
| 50>    C       -3.52143        14.00767         0.01921
| 51>    N       -3.49048        14.89665         1.03368
| 52>    C       -3.47904        14.47957         2.25555
| 53>    C       -3.54678        13.08641         2.54927
| 54>    N       -3.54808        12.20331         1.61050
| 55>    F       -3.63621        12.66743         3.80469
| 56>    F       -3.42231        15.38427         3.22428
| 57>    C       -3.60954        14.51144        -1.29776
| 58>    C       -3.55285        13.53755        -2.31884
| 59>    C       -3.49722        12.12481        -2.01383
| 60>    N       -3.43906        11.37985        -3.12029
| 61>    S       -3.43270        12.34687        -4.39846
| 62>    N       -3.50250        13.74514        -3.63493
| 63>    C       -3.74632        15.91595        -1.52775
| 64>    C       -4.16440        16.58237        -2.67289
| 65>    F       -4.60794        15.99282        -3.78258
| 66>    C       -4.16727        17.97323        -2.53926
| 67>    C       -3.74857        18.38910        -1.27019
| 68>    S       -3.39740        17.04994        -0.23749
| 69>    C       -3.78623        19.78150        -1.14795
| 70>    C       -4.22454        20.40304        -2.32643
| 71>    S       -4.59375        19.28315        -3.60320
| 72>    C       -4.29965        21.79246        -2.19973
| 73>    F       -4.57734        22.60272        -3.21723
| 74>    C       -3.93092        22.25024        -0.94432
| 75>    S       -3.42967        20.92517         0.08850
| 76>    C       -3.89145        23.58870        -0.46855
| 77>    C       -4.78336        24.55366        -0.82266
| 78>    C       -4.70830        25.96880        -0.51049
| 79>    C       -3.59505        26.63961        -0.07735
| 80>    C       -3.55863        28.02615         0.17936
| 81>    N       -3.47054        29.14705         0.41017
| 82>    C       -2.33582        26.04287         0.14274
| 83>    N       -1.28332        25.62199         0.32466
| 84>    C       -5.99851        26.56434        -0.83146
| 85>    C       -6.84689        25.55326        -1.36729
| 86>    C       -6.13358        24.26699        -1.39151
| 87>    O       -6.58786        23.18788        -1.69879
| 88>    C       -8.12469        25.81964        -1.76704
| 89>    C       -8.62081        27.13733        -1.65343
| 90>    C       -7.78134        28.15385        -1.11211
| 91>    C       -6.46409        27.84649        -0.70126
| 92>    C       -8.28982        29.46381        -0.99758
| 93>    C       -9.56417        29.75772        -1.40006
| 94>    C      -10.38887        28.75648        -1.93453
| 95>    C       -9.92706        27.47423        -2.05901
| 96>    H       -6.19912        -1.20075        -4.22426
| 97>    H       -8.79475         3.05888        -4.31998
| 98>    H      -10.01989         2.26152        -6.25803
| 99>    H      -10.46862         0.51859        -7.93898
|100>    H       -9.20358        -1.59445        -7.90599
|101>    H       -7.47827        -1.98156        -6.19128
|102>    H       -3.94298         1.84899        -0.50337
|103>    H       -3.11116        23.81007         0.24868
|104>    H       -8.74691        25.03465        -2.17042
|105>    H       -5.85598        28.63547        -0.28785
|106>    H       -7.65086        30.23175        -0.58702
|107>    H       -9.94403        30.76422        -1.30903
|108>    H      -11.39187        29.00610        -2.24661
|109>    H      -10.55714        26.69886        -2.46955
|110> *
|111>
|112>                          ****END OF INPUT****

CARTESIAN COORDINATES (ANGSTROEM)
---------------------------------
  C     -6.844210    2.723200   -2.193650
  C     -7.584850    3.698270   -1.580250
  C     -8.801240    4.193710   -2.091830
  N     -9.785690    4.638580   -2.478900
  C     -7.257250    4.239190   -0.319470
  N     -7.041180    4.661210    0.725810
  C     -7.278720    1.915650   -3.326510
  C     -6.535760    0.698030   -3.324210
  C     -6.764670   -0.281170   -4.247720
  C     -7.754030   -0.078780   -5.236250
  C     -8.486490    1.143820   -5.253930
  C     -8.233790    2.138010   -4.281180
  C     -9.465730    1.334500   -6.249870
  C     -9.714520    0.364180   -7.181920
  C     -8.994490   -0.839720   -7.162810
  C     -8.035510   -1.056490   -6.210890
  C     -5.553710    0.724030   -2.225390
  O     -4.790640   -0.146350   -1.880030
  C     -5.647240    2.104050   -1.659300
  C     -4.638130    2.587430   -0.893370
  C     -4.312340    3.937880   -0.602760
  C     -3.506470    4.361370    0.441360
  F     -3.001020    3.513670    1.335590
  C     -3.306610    5.744410    0.476240
  C     -3.936560    6.392790   -0.593690
  S     -4.781150    5.294080   -1.614260
  C     -3.737610    7.775750   -0.560470
  C     -2.961680    8.162430    0.539340
  S     -2.460810    6.830950    1.537880
  C     -2.775470    9.550180    0.595940
  F     -1.993550   10.132090    1.504710
  C     -3.393410   10.224850   -0.439820
  S     -4.192100    9.121670   -1.535920
  C     -3.452990   11.635110   -0.696150
  C     -3.486960   12.605000    0.321400
  C     -3.521430   14.007670    0.019210
  N     -3.490480   14.896650    1.033680
  C     -3.479040   14.479570    2.255550
  C     -3.546780   13.086410    2.549270
  N     -3.548080   12.203310    1.610500
  F     -3.636210   12.667430    3.804690
  F     -3.422310   15.384270    3.224280
  C     -3.609540   14.511440   -1.297760
  C     -3.552850   13.537550   -2.318840
  C     -3.497220   12.124810   -2.013830
  N     -3.439060   11.379850   -3.120290
  S     -3.432700   12.346870   -4.398460
  N     -3.502500   13.745140   -3.634930
  C     -3.746320   15.915950   -1.527750
  C     -4.164400   16.582370   -2.672890
  F     -4.607940   15.992820   -3.782580
  C     -4.167270   17.973230   -2.539260
  C     -3.748570   18.389100   -1.270190
  S     -3.397400   17.049940   -0.237490
  C     -3.786230   19.781500   -1.147950
  C     -4.224540   20.403040   -2.326430
  S     -4.593750   19.283150   -3.603200
  C     -4.299650   21.792460   -2.199730
  F     -4.577340   22.602720   -3.217230
  C     -3.930920   22.250240   -0.944320
  S     -3.429670   20.925170    0.088500
  C     -3.891450   23.588700   -0.468550
  C     -4.783360   24.553660   -0.822660
  C     -4.708300   25.968800   -0.510490
  C     -3.595050   26.639610   -0.077350
  C     -3.558630   28.026150    0.179360
  N     -3.470540   29.147050    0.410170
  C     -2.335820   26.042870    0.142740
  N     -1.283320   25.621990    0.324660
  C     -5.998510   26.564340   -0.831460
  C     -6.846890   25.553260   -1.367290
  C     -6.133580   24.266990   -1.391510
  O     -6.587860   23.187880   -1.698790
  C     -8.124690   25.819640   -1.767040
  C     -8.620810   27.137330   -1.653430
  C     -7.781340   28.153850   -1.112110
  C     -6.464090   27.846490   -0.701260
  C     -8.289820   29.463810   -0.997580
  C     -9.564170   29.757720   -1.400060
  C    -10.388870   28.756480   -1.934530
  C     -9.927060   27.474230   -2.059010
  H     -6.199120   -1.200750   -4.224260
  H     -8.794750    3.058880   -4.319980
  H    -10.019890    2.261520   -6.258030
  H    -10.468620    0.518590   -7.938980
  H     -9.203580   -1.594450   -7.905990
  H     -7.478270   -1.981560   -6.191280
  H     -3.942980    1.848990   -0.503370
  H     -3.111160   23.810070    0.248680
  H     -8.746910   25.034650   -2.170420
  H     -5.855980   28.635470   -0.287850
  H     -7.650860   30.231750   -0.587020
  H     -9.944030   30.764220   -1.309030
  H    -11.391870   29.006100   -2.246610
  H    -10.557140   26.698860   -2.469550

 Total Charge           Charge          ....    0
 Multiplicity           Mult            ....    1
 Number of Electrons    NEL             ....  600
 Basis Dimension        Dim             .... 1232

ORBITAL ENERGIES
----------------

  NO   OCC          E(Eh)            E(eV)
   0   2.0000     -89.046738     -2423.0849
   1   2.0000     -88.981402     -2421.3070
   2   2.0000     -88.980480     -2421.2820
   3   2.0000     -88.979384     -2421.2521
   4   2.0000     -88.977769     -2421.2082
   5   2.0000     -88.977061     -2421.1889
   6   2.0000     -88.974190     -2421.1108
   7   2.0000     -24.824367      -675.5054
   8   2.0000     -24.818308      -675.3405
   9   2.0000     -24.813417      -675.2074
  10   2.0000     -24.805908      -675.0031
  11   2.0000     -24.800508      -674.8561
  12   2.0000     -24.799136      -674.8188
  13   2.0000     -19.213852      -522.8355
  14   2.0000     -19.213352      -522.8219
  15   2.0000     -14.463808      -393.5802
  16   2.0000     -14.456965      -393.3940
  17   2.0000     -14.453446      -393.2983
  18   2.0000     -14.452364      -393.2688
  19   2.0000     -14.415537      -392.2667
  20   2.0000     -14.414116      -392.2280
  21   2.0000     -14.413576      -392.2133
  22   2.0000     -14.412083      -392.1727
  23   2.0000     -10.440463      -284.0994
  24   2.0000     -10.435276      -283.9583
  25   2.0000     -10.392603      -282.7971
  26   2.0000     -10.388515      -282.6859
  27   2.0000     -10.383873      -282.5595
  28   2.0000     -10.381906      -282.5060
  29   2.0000     -10.365299      -282.0541
  30   2.0000     -10.364874      -282.0426
  31   2.0000     -10.352878      -281.7161
  32   2.0000     -10.352603      -281.7086
  33   2.0000     -10.346661      -281.5470
  34   2.0000     -10.345401      -281.5127
  35   2.0000     -10.343102      -281.4501
  36   2.0000     -10.340979      -281.3923
  37   2.0000     -10.340948      -281.3915
  38   2.0000     -10.338974      -281.3378
  39   2.0000     -10.334647      -281.2200
  40   2.0000     -10.332290      -281.1559
  41   2.0000     -10.329767      -281.0872
  42   2.0000     -10.328380      -281.0495
  43   2.0000     -10.326912      -281.0096
  44   2.0000     -10.326701      -281.0038
  45   2.0000     -10.325053      -280.9590
  46   2.0000     -10.325026      -280.9582
  47   2.0000     -10.324771      -280.9513
  48   2.0000     -10.324042      -280.9315
  49   2.0000     -10.323691      -280.9219
  50   2.0000     -10.323364      -280.9130
  51   2.0000     -10.322853      -280.8991
  52   2.0000     -10.321697      -280.8677
  53   2.0000     -10.320839      -280.8443
  54   2.0000     -10.320452      -280.8338
  55   2.0000     -10.317910      -280.7646
  56   2.0000     -10.316837      -280.7354
  57   2.0000     -10.316287      -280.7204
  58   2.0000     -10.314446      -280.6703
  59   2.0000     -10.303463      -280.3715
  60   2.0000     -10.301649      -280.3221
  61   2.0000     -10.299784      -280.2714
  62   2.0000     -10.298038      -280.2239
  63   2.0000     -10.297974      -280.2221
  64   2.0000     -10.297539      -280.2103
  65   2.0000     -10.296921      -280.1935
  66   2.0000     -10.296742      -280.1886
  67   2.0000     -10.296659      -280.1863
  68   2.0000     -10.296493      -280.1818
  69   2.0000     -10.295760      -280.1619
  70   2.0000     -10.295115      -280.1443
  71   2.0000     -10.289364      -279.9878
  72   2.0000     -10.287260      -279.9306
  73   2.0000     -10.286572      -279.9118
  74   2.0000     -10.286251      -279.9031
  75   2.0000     -10.285971      -279.8955
  76   2.0000     -10.285866      -279.8927
  77   2.0000     -10.285504      -279.8828
  78   2.0000     -10.285225      -279.8752
  79   2.0000     -10.284971      -279.8683
  80   2.0000     -10.284487      -279.8551
  81   2.0000      -8.138098      -221.4489
  82   2.0000      -8.075927      -219.7571
  83   2.0000      -8.074882      -219.7287
  84   2.0000      -8.074640      -219.7221
  85   2.0000      -8.072308      -219.6587
  86   2.0000      -8.071563      -219.6384
  87   2.0000      -8.067536      -219.5288
  88   2.0000      -6.109108      -166.2373
  89   2.0000      -6.101261      -166.0238
  90   2.0000      -6.101075      -166.0187
  91   2.0000      -6.045658      -164.5107
  92   2.0000      -6.044816      -164.4878
  93   2.0000      -6.044299      -164.4737
  94   2.0000      -6.042247      -164.4179
  95   2.0000      -6.041624      -164.4010
  96   2.0000      -6.041297      -164.3920
  97   2.0000      -6.040771      -164.3777
  98   2.0000      -6.040259      -164.3638
  99   2.0000      -6.038200      -164.3078
 100   2.0000      -6.037484      -164.2883
 101   2.0000      -6.037092      -164.2776
 102   2.0000      -6.037079      -164.2773
 103   2.0000      -6.035854      -164.2439
 104   2.0000      -6.035670      -164.2389
 105   2.0000      -6.033050      -164.1676
 106   2.0000      -6.032940      -164.1646
 107   2.0000      -6.032822      -164.1614
 108   2.0000      -6.028706      -164.0494
 109   2.0000      -1.351402       -36.7735
 110   2.0000      -1.336279       -36.3620
 111   2.0000      -1.328776       -36.1578
 112   2.0000      -1.321851       -35.9694
 113   2.0000      -1.316670       -35.8284
 114   2.0000      -1.316415       -35.8215
 115   2.0000      -1.145353       -31.1666
 116   2.0000      -1.129557       -30.7368
 117   2.0000      -1.129267       -30.7289
 118   2.0000      -1.121516       -30.5180
 119   2.0000      -1.048035       -28.5185
 120   2.0000      -1.040560       -28.3151
 121   2.0000      -1.036864       -28.2145
 122   2.0000      -1.018350       -27.7107
 123   2.0000      -1.016752       -27.6672
 124   2.0000      -1.005484       -27.3606
 125   2.0000      -1.001409       -27.2497
 126   2.0000      -0.997681       -27.1483
 127   2.0000      -0.996951       -27.1284
 128   2.0000      -0.993960       -27.0470
 129   2.0000      -0.992457       -27.0061
 130   2.0000      -0.990752       -26.9597
 131   2.0000      -0.978997       -26.6399
 132   2.0000      -0.971326       -26.4311
 133   2.0000      -0.970093       -26.3976
 134   2.0000      -0.949894       -25.8479
 135   2.0000      -0.943253       -25.6672
 136   2.0000      -0.923587       -25.1321
 137   2.0000      -0.923032       -25.1170
 138   2.0000      -0.903749       -24.5923
 139   2.0000      -0.902847       -24.5677
 140   2.0000      -0.898085       -24.4381
 141   2.0000      -0.890562       -24.2334
 142   2.0000      -0.882957       -24.0265
 143   2.0000      -0.881570       -23.9887
 144   2.0000      -0.879838       -23.9416
 145   2.0000      -0.878033       -23.8925
 146   2.0000      -0.867296       -23.6003
 147   2.0000      -0.856885       -23.3170
 148   2.0000      -0.848084       -23.0775
 149   2.0000      -0.846597       -23.0371
 150   2.0000      -0.828419       -22.5424
 151   2.0000      -0.827596       -22.5200
 152   2.0000      -0.827028       -22.5046
 153   2.0000      -0.816383       -22.2149
 154   2.0000      -0.814123       -22.1534
 155   2.0000      -0.812064       -22.0974
 156   2.0000      -0.804254       -21.8849
 157   2.0000      -0.790573       -21.5126
 158   2.0000      -0.782373       -21.2895
 159   2.0000      -0.768943       -20.9240
 160   2.0000      -0.761174       -20.7126
 161   2.0000      -0.759869       -20.6771
 162   2.0000      -0.757683       -20.6176
 163   2.0000      -0.744200       -20.2507
 164   2.0000      -0.731428       -19.9032
 165   2.0000      -0.713331       -19.4107
 166   2.0000      -0.707480       -19.2515
 167   2.0000      -0.703028       -19.1304
 168   2.0000      -0.702014       -19.1028
 169   2.0000      -0.696751       -18.9596
 170   2.0000      -0.693665       -18.8756
 171   2.0000      -0.692063       -18.8320
 172   2.0000      -0.685552       -18.6548
 173   2.0000      -0.683304       -18.5936
 174   2.0000      -0.680044       -18.5050
 175   2.0000      -0.678059       -18.4509
 176   2.0000      -0.677577       -18.4378
 177   2.0000      -0.674088       -18.3429
 178   2.0000      -0.672184       -18.2911
 179   2.0000      -0.668479       -18.1902
 180   2.0000      -0.667017       -18.1505
 181   2.0000      -0.652233       -17.7482
 182   2.0000      -0.647931       -17.6311
 183   2.0000      -0.640537       -17.4299
 184   2.0000      -0.635206       -17.2848
 185   2.0000      -0.634722       -17.2717
 186   2.0000      -0.627457       -17.0740
 187   2.0000      -0.625359       -17.0169
 188   2.0000      -0.621334       -16.9074
 189   2.0000      -0.616146       -16.7662
 190   2.0000      -0.607650       -16.5350
 191   2.0000      -0.607272       -16.5247
 192   2.0000      -0.605635       -16.4802
 193   2.0000      -0.602121       -16.3845
 194   2.0000      -0.597673       -16.2635
 195   2.0000      -0.594460       -16.1761
 196   2.0000      -0.590522       -16.0689
 197   2.0000      -0.585510       -15.9325
 198   2.0000      -0.584086       -15.8938
 199   2.0000      -0.580996       -15.8097
 200   2.0000      -0.577359       -15.7107
 201   2.0000      -0.576445       -15.6859
 202   2.0000      -0.573667       -15.6103
 203   2.0000      -0.571067       -15.5395
 204   2.0000      -0.567097       -15.4315
 205   2.0000      -0.565261       -15.3815
 206   2.0000      -0.559091       -15.2136
 207   2.0000      -0.554139       -15.0789
 208   2.0000      -0.553307       -15.0563
 209   2.0000      -0.549163       -14.9435
 210   2.0000      -0.548523       -14.9261
 211   2.0000      -0.546506       -14.8712
 212   2.0000      -0.545080       -14.8324
 213   2.0000      -0.544238       -14.8095
 214   2.0000      -0.537473       -14.6254
 215   2.0000      -0.535283       -14.5658
 216   2.0000      -0.533727       -14.5234
 217   2.0000      -0.530492       -14.4354
 218   2.0000      -0.527294       -14.3484
 219   2.0000      -0.524865       -14.2823
 220   2.0000      -0.524509       -14.2726
 221   2.0000      -0.520598       -14.1662
 222   2.0000      -0.518343       -14.1048
 223   2.0000      -0.517168       -14.0728
 224   2.0000      -0.516502       -14.0547
 225   2.0000      -0.515148       -14.0179
 226   2.0000      -0.513247       -13.9661
 227   2.0000      -0.512081       -13.9344
 228   2.0000      -0.511224       -13.9111
 229   2.0000      -0.510420       -13.8892
 230   2.0000      -0.506587       -13.7849
 231   2.0000      -0.506272       -13.7764
 232   2.0000      -0.504888       -13.7387
 233   2.0000      -0.498681       -13.5698
 234   2.0000      -0.495694       -13.4885
 235   2.0000      -0.494332       -13.4515
 236   2.0000      -0.494084       -13.4447
 237   2.0000      -0.487643       -13.2694
 238   2.0000      -0.486687       -13.2434
 239   2.0000      -0.483663       -13.1611
 240   2.0000      -0.482540       -13.1306
 241   2.0000      -0.479214       -13.0401
 242   2.0000      -0.478315       -13.0156
 243   2.0000      -0.474370       -12.9083
 244   2.0000      -0.470533       -12.8038
 245   2.0000      -0.465370       -12.6634
 246   2.0000      -0.464378       -12.6364
 247   2.0000      -0.463086       -12.6012
 248   2.0000      -0.461411       -12.5556
 249   2.0000      -0.453382       -12.3372
 250   2.0000      -0.452947       -12.3253
 251   2.0000      -0.448180       -12.1956
 252   2.0000      -0.447426       -12.1751
 253   2.0000      -0.443105       -12.0575
 254   2.0000      -0.442937       -12.0529
 255   2.0000      -0.441712       -12.0196
 256   2.0000      -0.439989       -11.9727
 257   2.0000      -0.439432       -11.9576
 258   2.0000      -0.437610       -11.9080
 259   2.0000      -0.433423       -11.7940
 260   2.0000      -0.433039       -11.7836
 261   2.0000      -0.431336       -11.7372
 262   2.0000      -0.430929       -11.7262
 263   2.0000      -0.430216       -11.7068
 264   2.0000      -0.428990       -11.6734
 265   2.0000      -0.427595       -11.6354
 266   2.0000      -0.425372       -11.5750
 267   2.0000      -0.424683       -11.5562
 268   2.0000      -0.418882       -11.3983
 269   2.0000      -0.418628       -11.3915
 270   2.0000      -0.415893       -11.3170
 271   2.0000      -0.413439       -11.2502
 272   2.0000      -0.412616       -11.2279
 273   2.0000      -0.407713       -11.0944
 274   2.0000      -0.405774       -11.0417
 275   2.0000      -0.400266       -10.8918
 276   2.0000      -0.399250       -10.8641
 277   2.0000      -0.397080       -10.8051
 278   2.0000      -0.380110       -10.3433
 279   2.0000      -0.378965       -10.3122
 280   2.0000      -0.377557       -10.2738
 281   2.0000      -0.371008       -10.0956
 282   2.0000      -0.368884       -10.0378
 283   2.0000      -0.367568       -10.0020
 284   2.0000      -0.350642        -9.5415
 285   2.0000      -0.347360        -9.4522
 286   2.0000      -0.342855        -9.3296
 287   2.0000      -0.338457        -9.2099
 288   2.0000      -0.336525        -9.1573
 289   2.0000      -0.335756        -9.1364
 290   2.0000      -0.331087        -9.0093
 291   2.0000      -0.316792        -8.6203
 292   2.0000      -0.315439        -8.5835
 293   2.0000      -0.304134        -8.2759
 294   2.0000      -0.295937        -8.0528
 295   2.0000      -0.294704        -8.0193
 296   2.0000      -0.293965        -7.9992
 297   2.0000      -0.291767        -7.9394
 298   2.0000      -0.277003        -7.5376
 299   2.0000      -0.250601        -6.8192
 300   0.0000      -0.118901        -3.2354
 301   0.0000      -0.093913        -2.5555
 302   0.0000      -0.089781        -2.4431
 303   0.0000      -0.056437        -1.5357
 304   0.0000      -0.055369        -1.5067

MULLIKEN ATOMIC CHARGES
-----------------------
   0 C :    0.245387
   1 C :   -0.325016
   2 C :   -0.174040
   3 N :    0.155432
   4 C :   -0.202968
   5 N :    0.174312
   6 C :    0.038866
   7 C :    0.008006
   8 C :   -0.078585
   9 C :    0.092117
  10 C :    0.093774
  11 C :   -0.079980
  12 C :   -0.016748
  13 C :    0.034284
  14 C :    0.034269
  15 C :   -0.012674
  16 C :    0.144009
  17 O :   -0.140084
  18 C :   -0.133431
  19 C :    0.053768
  20 C :   -0.200914
  21 C :    0.245190
  22 F :   -0.154794
  23 C :   -0.061856
  24 C :   -0.073120
  25 S :    0.189970
  26 C :   -0.069134
  27 C :   -0.084540
  28 S :    0.218083
  29 C :    0.237502
  30 F :   -0.160809
  31 C :   -0.261493
  32 S :    0.224336
  33 C :    0.136882
  34 C :   -0.078800
  35 C :   -0.046878
  36 N :   -0.052035
  37 C :    0.150036
  38 C :    0.132621
  39 N :    0.034236
  40 F :   -0.133330
  41 F :   -0.132352
  42 C :    0.181624
  43 C :   -0.033689
  44 C :   -0.022099
  45 N :   -0.292621
  46 S :    0.547613
  47 N :   -0.266020
  48 C :   -0.254637
  49 C :    0.210808
  50 F :   -0.153200
  51 C :   -0.083944
  52 C :   -0.042825
  53 S :    0.199503
  54 C :   -0.082734
  55 C :   -0.092648
  56 S :    0.212417
  57 C :    0.268820
  58 F :   -0.152629
  59 C :   -0.191782
  60 S :    0.194532
  61 C :    0.025770
  62 C :   -0.101114
  63 C :    0.304263
  64 C :   -0.339988
  65 C :   -0.181992
  66 N :    0.148930
  67 C :   -0.205889
  68 N :    0.161106
  69 C :    0.050994
  70 C :   -0.007841
  71 C :    0.149673
  72 O :   -0.144558
  73 C :   -0.078340
  74 C :    0.097095
  75 C :    0.095788
  76 C :   -0.084416
  77 C :   -0.017846
  78 C :    0.036023
  79 C :    0.038177
  80 C :   -0.016844
  81 H :   -0.011125
  82 H :   -0.006444
  83 H :   -0.011377
  84 H :   -0.004286
  85 H :   -0.004706
  86 H :   -0.017496
  87 H :    0.035521
  88 H :    0.036083
  89 H :   -0.014105
  90 H :   -0.008606
  91 H :   -0.009188
  92 H :   -0.005318
  93 H :   -0.005994
  94 H :   -0.017939
Sum of atomic charges:   -0.0000000

LOEWDIN ATOMIC CHARGES
----------------------
   0 C :    0.060220
   1 C :   -0.141116
   2 C :   -0.018869
   3 N :   -0.051678
   4 C :   -0.035338
   5 N :   -0.048992
   6 C :   -0.022526
   7 C :   -0.057138
   8 C :    0.032696
   9 C :   -0.009308
  10 C :   -0.005382
  11 C :    0.014991
  12 C :   -0.006969
  13 C :   -0.013110
  14 C :   -0.013554
  15 C :   -0.008899
  16 C :    0.083567
  17 O :   -0.141025
  18 C :   -0.095290
  19 C :    0.053026
  20 C :   -0.214810
  21 C :    0.074528
  22 F :   -0.035192
  23 C :   -0.217709
  24 C :   -0.187218
  25 S :    0.467537
  26 C :   -0.212420
  27 C :   -0.207483
  28 S :    0.445623
  29 C :    0.045965
  30 F :   -0.039785
  31 C :   -0.190547
  32 S :    0.479466
  33 C :   -0.048463
  34 C :   -0.007149
  35 C :   -0.015717
  36 N :   -0.060206
  37 C :    0.065717
  38 C :    0.056935
  39 N :   -0.027913
  40 F :   -0.022794
  41 F :   -0.021450
  42 C :   -0.034230
  43 C :   -0.047095
  44 C :   -0.048785
  45 N :   -0.302173
  46 S :    0.682422
  47 N :   -0.273343
  48 C :   -0.196668
  49 C :    0.049491
  50 F :   -0.032939
  51 C :   -0.212379
  52 C :   -0.214812
  53 S :    0.480493
  54 C :   -0.195165
  55 C :   -0.212943
  56 S :    0.440415
  57 C :    0.072624
  58 F :   -0.028430
  59 C :   -0.212178
  60 S :    0.453398
  61 C :    0.047648
  62 C :   -0.087631
  63 C :    0.074261
  64 C :   -0.137780
  65 C :   -0.017414
  66 N :   -0.053241
  67 C :   -0.023621
  68 N :   -0.050908
  69 C :   -0.025900
  70 C :   -0.053934
  71 C :    0.079783
  72 O :   -0.137214
  73 C :    0.031871
  74 C :   -0.008065
  75 C :   -0.006516
  76 C :    0.019525
  77 C :   -0.005297
  78 C :   -0.013716
  79 C :   -0.012227
  80 C :   -0.009799
  81 H :    0.039568
  82 H :    0.038380
  83 H :    0.034045
  84 H :    0.033116
  85 H :    0.032807
  86 H :    0.031912
  87 H :    0.054332
  88 H :    0.046304
  89 H :    0.038849
  90 H :    0.038894
  91 H :    0.034715
  92 H :    0.033031
  93 H :    0.032543
  94 H :    0.031759

  Mayer bond orders larger than 0.100000
B(  0-C ,  1-C ) :   1.6613 B(  0-C ,  6-C ) :   1.0034 B(  0-C , 18-C ) :   1.0322
B(  1-C ,  2-C ) :   1.1364 B(  1-C ,  4-C ) :   1.1516 B(  2-C ,  3-N ) :   2.9916
B(  4-C ,  5-N ) :   3.0276 B(  6-C ,  7-C ) :   1.2146 B(  6-C , 11-C ) :   1.4575
B(  7-C ,  8-C ) :   1.4785 B(  7-C , 16-C ) :   0.9201 B(  8-C ,  9-C ) :   1.1852
B(  8-C , 81-H ) :   1.0147 B(  9-C , 10-C ) :   1.2565 B(  9-C , 15-C ) :   1.2467
B( 10-C , 11-C ) :   1.2050 B( 10-C , 12-C ) :   1.2402 B( 11-C , 82-H ) :   0.9944
B( 12-C , 13-C ) :   1.4904 B( 12-C , 83-H ) :   0.9973 B( 13-C , 14-C ) :   1.2604
B( 13-C , 84-H ) :   0.9889 B( 14-C , 15-C ) :   1.4892 B( 14-C , 85-H ) :   0.9886
B( 15-C , 86-H ) :   0.9970 B( 16-C , 17-O ) :   2.2767 B( 16-C , 18-C ) :   0.9344
B( 18-C , 19-C ) :   1.6520 B( 19-C , 20-C ) :   1.1177 B( 19-C , 87-H ) :   0.9475
B( 20-C , 21-C ) :   1.4429 B( 20-C , 25-S ) :   1.0632 B( 21-C , 22-F ) :   1.2120
B( 21-C , 23-C ) :   1.2769 B( 23-C , 24-C ) :   1.4621 B( 23-C , 28-S ) :   1.0254
B( 24-C , 25-S ) :   1.0903 B( 24-C , 26-C ) :   1.3315 B( 26-C , 27-C ) :   1.4719
B( 26-C , 31-C ) :   0.1031 B( 26-C , 32-S ) :   1.0715 B( 27-C , 28-S ) :   1.0343
B( 27-C , 29-C ) :   1.2620 B( 29-C , 30-F ) :   1.1981 B( 29-C , 31-C ) :   1.4856
B( 31-C , 32-S ) :   1.0932 B( 31-C , 33-C ) :   1.0582 B( 33-C , 34-C ) :   1.3568
B( 33-C , 42-C ) :   0.1258 B( 33-C , 44-C ) :   1.2257 B( 34-C , 35-C ) :   1.1134
B( 34-C , 39-N ) :   1.4190 B( 35-C , 36-N ) :   1.3619 B( 35-C , 42-C ) :   1.3164
B( 36-N , 37-C ) :   1.6649 B( 37-C , 38-C ) :   1.0895 B( 37-C , 41-F ) :   1.1889
B( 38-C , 39-N ) :   1.7003 B( 38-C , 40-F ) :   1.1838 B( 42-C , 43-C ) :   1.2001
B( 42-C , 48-C ) :   1.1368 B( 43-C , 44-C ) :   1.1088 B( 43-C , 47-N ) :   1.5211
B( 44-C , 45-N ) :   1.5059 B( 45-N , 46-S ) :   1.2786 B( 45-N , 47-N ) :   0.1539
B( 46-S , 47-N ) :   1.3036 B( 48-C , 49-C ) :   1.4378 B( 48-C , 53-S ) :   1.0826
B( 49-C , 50-F ) :   1.2051 B( 49-C , 51-C ) :   1.2826 B( 51-C , 52-C ) :   1.4751
B( 51-C , 56-S ) :   1.0274 B( 52-C , 53-S ) :   1.0325 B( 52-C , 54-C ) :   1.3272
B( 54-C , 55-C ) :   1.4636 B( 54-C , 60-S ) :   1.0899 B( 55-C , 56-S ) :   1.0284
B( 55-C , 57-C ) :   1.2901 B( 57-C , 58-F ) :   1.1961 B( 57-C , 59-C ) :   1.4498
B( 59-C , 60-S ) :   1.0561 B( 59-C , 61-C ) :   1.1348 B( 61-C , 62-C ) :   1.6394
B( 61-C , 88-H ) :   0.9369 B( 62-C , 63-C ) :   1.0652 B( 62-C , 71-C ) :   0.9392
B( 63-C , 64-C ) :   1.6442 B( 63-C , 69-C ) :   0.9927 B( 64-C , 65-C ) :   1.1435
B( 64-C , 67-C ) :   1.1406 B( 65-C , 66-N ) :   2.9673 B( 67-C , 68-N ) :   2.9927
B( 69-C , 70-C ) :   1.2151 B( 69-C , 76-C ) :   1.4498 B( 70-C , 71-C ) :   0.9436
B( 70-C , 73-C ) :   1.4748 B( 71-C , 72-O ) :   2.2208 B( 73-C , 74-C ) :   1.1786
B( 73-C , 89-H ) :   1.0156 B( 74-C , 75-C ) :   1.2572 B( 74-C , 80-C ) :   1.2441
B( 75-C , 76-C ) :   1.2065 B( 75-C , 77-C ) :   1.2402 B( 76-C , 90-H ) :   0.9889
B( 77-C , 78-C ) :   1.4895 B( 77-C , 91-H ) :   0.9966 B( 78-C , 79-C ) :   1.2604
B( 78-C , 92-H ) :   0.9884 B( 79-C , 80-C ) :   1.4898 B( 79-C , 93-H ) :   0.9880
B( 80-C , 94-H ) :   0.9968

-----------------------------------------------------------------------------
         ABSORPTION SPECTRUM VIA TRANSITION ELECTRIC DIPOLE MOMENTS
-----------------------------------------------------------------------------
State   Energy  Wavelength   fosc         T2         TX        TY        TZ
        (cm-1)    (nm)                  (au**2)     (au)      (au)      (au)
-----------------------------------------------------------------------------
   0   13215.2    756.7   1.280984210  31.91145  -0.08121  -5.64614   0.16126
   1   19931.5    501.7   0.158480392   2.61765  -1.51890   0.36334  -0.42259
   2   20705.2    483.0   0.829387874  13.18725   0.94164   3.36042   1.00407
   3   21518.6    464.7   0.109612173   1.67695   0.52168  -1.15629  -0.26037
   4   22227.1    449.9   0.040292792   0.59679   0.32751  -0.40466   0.57077
   5   22991.6    434.9   0.027264003   0.39039   0.34445   0.33080   0.40289
   6   25680.6    389.4   0.052788380   0.67672   0.64931  -0.46607   0.19467
   7   26146.0    382.5   0.070533981   0.88812   0.40415   0.01259   0.85125
   8   26480.8    377.6   0.029733486   0.36965  -0.09322   0.10802   0.59101
   9   26838.7    372.6   0.001072077   0.01315  -0.04126   0.10600  -0.01454
  10   27410.5    364.8   0.070196570   0.84309  -0.63915  -0.52135  -0.40345
  11   27790.3    359.8   0.276426630   3.27463   0.89972  -1.50274   0.45487
  12   27959.5    357.7   0.014906775   0.17552   0.21497  -0.18668   0.30734
  13   28298.7    353.4   0.005970292   0.06946  -0.18081   0.01985  -0.19071
  14   28471.4    351.2   0.030353078   0.35097   0.40640  -0.38879  -0.18616
  15   29407.3    340.1   0.051570653   0.57733  -0.65841   0.20457  -0.31935
  16   29615.9    337.7   0.014404366   0.16012  -0.30958  -0.25238  -0.02416
  17   29728.4    336.4   0.115953519   1.28407   0.42981   0.97589   0.38337
  18   30041.8    332.9   0.279574731   3.06371  -0.18297  -1.59692  -0.69288
  19   30663.2    326.1   0.073943514   0.79389   0.10149  -0.84775   0.25477
  20   30841.5    324.2   0.117907076   1.25858   0.70458  -0.66370  -0.56714
  21   31056.0    322.0   0.068359833   0.72465   0.66067  -0.03832   0.53544
  22   31252.0    320.0   0.388572661   4.09327   0.11641   1.26053   1.57822
  23   31570.0    316.8   0.014220709   0.14829  -0.31546   0.22020  -0.01710
  24   31766.3    314.8   0.183317809   1.89983  -1.11645   0.77779  -0.22002
  25   32608.5    306.7   0.068919337   0.69580   0.34160   0.75714   0.07652
  26   32719.5    305.6   0.260154022   2.61758   0.05510  -1.39407   0.81922
  27   33008.3    303.0   0.034748945   0.34657   0.01541  -0.57497  -0.12550
  28   33592.5    297.7   0.356960300   3.49826   1.39738  -1.18740  -0.36834
  29   33735.5    296.4   0.380179092   3.71002   0.86207   0.93245   1.44824
  30   34091.9    293.3   0.049447381   0.47749  -0.28694  -0.33899  -0.52938
  31   34236.4    292.1   0.032271239   0.31031  -0.46795   0.20492  -0.22213
  32   34471.2    290.1   0.183226297   1.74987  -0.95382   0.03178  -0.91602
  33   34962.3    286.0   0.060049051   0.56543  -0.55334   0.32149  -0.39484
  34   34981.4    285.9   0.048400925   0.45550  -0.66459  -0.08382   0.08245
  35   35390.5    282.6   0.119023046   1.10718  -0.67842   0.44776   0.66816
  36   35545.5    281.3   0.020697397   0.19169   0.09784  -0.42669   0.00772
  37   35893.5    278.6   0.152852748   1.40195   0.08801   0.51576   1.06216
  38   35951.6    278.2   0.060821381   0.55695  -0.21161  -0.53788  -0.47207
  39   36300.9    275.5   0.218605027   1.98253  -1.20579  -0.38947  -0.61392
  40   36694.5    272.5   0.088800702   0.79669  -0.66683   0.59206  -0.03871
  41   36791.1    271.8   0.017417283   0.15585   0.15404   0.06541   0.35755
  42   37101.4    269.5   0.088725951   0.78729   0.13425   0.83320   0.27396
  43   37205.3    268.8   0.023098895   0.20439  -0.28427   0.33842  -0.09513
  44   37347.8    267.8   0.005829681   0.05139   0.16834  -0.14602  -0.04155
  45   37679.5    265.4   0.020506424   0.17917   0.24118  -0.12192   0.32578
  46   37908.3    263.8   0.028524866   0.24772   0.11151  -0.47927  -0.07474
  47   38523.3    259.6   0.051704144   0.44185   0.16431   0.50616   0.39831
  48   38693.3    258.4   0.011557677   0.09834   0.17900  -0.00535  -0.25742
  49   38733.7    258.2   0.500150596   4.25097   0.16208   0.65936   1.94678
  50   39070.5    255.9   0.023412502   0.19728   0.31220  -0.12524   0.29003
  51   39182.8    255.2   0.014982605   0.12588   0.15973  -0.29999   0.10186
  52   39223.3    255.0   0.073277087   0.61504   0.25147  -0.07845  -0.73868
  53   39477.7    253.3   0.006274842   0.05233   0.01805   0.10981   0.19986
  54   39530.2    253.0   0.079995638   0.66621   0.43857  -0.59484  -0.34646
  55   39939.3    250.4   0.166145123   1.36950   0.69192   0.83068   0.44803
  56   40217.6    248.6   0.134160083   1.09820   0.34409   0.36574   0.91981

FINAL SINGLE POINT ENERGY     -6188.356452485514

DIPOLE MOMENT
-------------
                                X             Y             Z
Electronic contribution:     47.72319      -8.80205      33.16273
Nuclear contribution   :    -49.05533       7.76499     -35.84976
                        -----------------------------------------
Total Dipole Moment    :     -1.33214      -1.03706      -2.68702
                        -----------------------------------------
Magnitude (a.u.)       :      3.17335
Magnitude (Debye)      :      8.06603

Rotational constants in cm-1:     0.001536     0.000162     0.000153
Rotational constants in MHz :    46.046574     4.862873     4.594402

                             ****ORCA TERMINATED NORMALLY****
TOTAL RUN TIME: 0 days 0 hours 11 minutes 33 seconds 430 msec
