                         Program Version 4.2.0 -  RELEASE  -
|  1> # ORCA input file
|  2> # SCF done       -210.412186016005          0.000889837986
|  3> ! CAM-B3LYP def2-SVP def2/J RIJCOSX Grid4 TightSCF
|  4> %maxcore 5000
|  5> %tddft
|  6>     Mode sTDDFT
|  7>     Ethresh 5.0
|  8>     maxcore 5000
|  9> end
| 10>
| 11> %pal
| 12>   nprocs 6
| 13>   end
| 14> * xyz 0 1
| 15>    C        5.73849         7.50148         3.05180
| 16>    C        5.78589         8.38303         2.00511
| 17>    C        6.50345         9.59647         2.03890
| 18>    N        7.06757        10.59569         2.02329
| 19>    C        5.20720         8.12369         0.74536
| 20>    N        4.78449         7.92383        -0.30311
| 21>    C        6.54829         7.57903         4.26086
| 22>    C        6.64632         6.27217         4.82408
| 23>    C        7.38961         6.03021         5.94365
| 24>    C        8.06821         7.10234         6.56568
| 25>    C        7.95634         8.41377         6.01849
| 26>    C        7.18635         8.63469         4.85381
| 27>    C        8.63126         9.47529         6.65477
| 28>    C        9.38531         9.25398         7.77486
| 29>    C        9.49752         7.96245         8.31125
| 30>    C        8.85332         6.90987         7.71972
| 31>    C        5.84169         5.33135         4.02469
| 32>    O        5.72495         4.13693         4.16302
| 33>    C        5.12616         6.18678         3.02923
| 34>    C        4.03978         5.70487         2.37842
| 35>    C        3.01000         6.43480         1.72539
| 36>    C        2.17682         5.94642         0.73485
| 37>    F        2.30080         4.71368         0.24502
| 38>    C        1.23210         6.87454         0.28520
| 39>    C        1.30865         8.08414         0.98485
| 40>    S        2.56178         8.07426         2.16443
| 41>    C        0.35492         9.00831         0.54469
| 42>    C       -0.42059         8.49230        -0.49846
| 43>    S       -0.00147         6.86372        -0.93921
| 44>    C       -1.36650         9.41673        -0.96126
| 45>    F       -2.17232         9.16042        -1.99570
| 46>    C       -1.34019        10.61861        -0.27902
| 47>    S       -0.08078        10.63003         0.93751
| 48>    C       -2.12177        11.80967        -0.49434
| 49>    C       -3.39595        11.85889        -1.04935
| 50>    O       -4.12852        10.72797        -1.28934
| 51>    C       -4.45378         9.93476        -0.16274
| 52>    C       -4.02031        13.10204        -1.39590
| 53>    O       -5.19818        13.17097        -2.05142
| 54>    C       -5.63436        12.15917        -2.94151
| 55>    C       -3.49542        14.33841        -1.01307
| 56>    C       -2.23582        14.30719        -0.36496
| 57>    C       -1.55731        13.05948        -0.13542
| 58>    N       -0.39282        13.33758         0.41198
| 59>    O       -0.34021        14.66392         0.51168
| 60>    N       -1.42808        15.26304         0.04810
| 61>    C       -4.18135        15.56497        -1.30721
| 62>    C       -4.02335        16.80330        -0.71378
| 63>    F       -3.28005        17.02867         0.36940
| 64>    C       -4.79095        17.81088        -1.31433
| 65>    C       -5.55090        17.33211        -2.38564
| 66>    S       -5.35613        15.63215        -2.60245
| 67>    C       -6.30272        18.34863        -2.98331
| 68>    C       -6.10994        19.58518        -2.35328
| 69>    S       -4.99393        19.51279        -1.02089
| 70>    C       -6.87114        20.60364        -2.93528
| 71>    F       -6.76805        21.88129        -2.58204
| 72>    C       -7.63945        20.17320        -4.00540
| 73>    S       -7.38477        18.46567        -4.31635
| 74>    C       -8.49781        20.92995        -4.84565
| 75>    C       -9.26381        21.97464        -4.42737
| 76>    C      -10.02289        22.88435        -5.26338
| 77>    C       -9.85076        23.07298        -6.60962
| 78>    C      -10.58988        23.99570        -7.37845
| 79>    N      -11.16585        24.72161        -8.05618
| 80>    C       -8.89718        22.39321        -7.39612
| 81>    N       -8.13264        21.88501        -8.08576
| 82>    C      -10.93082        23.62792        -4.40043
| 83>    C      -10.70719        23.22792        -3.05161
| 84>    C       -9.65686        22.19729        -3.00615
| 85>    O       -9.28399        21.57929        -2.03430
| 86>    C      -11.41636        23.76098        -2.01431
| 87>    C      -12.39708        24.74193        -2.28280
| 88>    C      -12.63162        25.14301        -3.62993
| 89>    C      -11.88435        24.56981        -4.68422
| 90>    C      -13.61843        26.11666        -3.88614
| 91>    C      -14.33836        26.67002        -2.86245
| 92>    C      -14.10538        26.27564        -1.53646
| 93>    C      -13.15490        25.33269        -1.25276
| 94>    H        7.46095         5.03223         6.34991
| 95>    H        7.10929         9.63743         4.46301
| 96>    H        8.54478        10.46687         6.23558
| 97>    H        9.90054        10.07315         8.25352
| 98>    H       10.09683         7.80590         9.19559
| 99>    H        8.93613         5.91351         8.12848
|100>    H        3.90290         4.62758         2.40902
|101>    H       -5.18415        10.45267         0.46838
|102>    H       -3.58129         9.67983         0.44254
|103>    H       -4.89464         9.02501        -0.56464
|104>    H       -6.20751        11.39341        -2.41683
|105>    H       -4.79939        11.69163        -3.46298
|106>    H       -6.27906        12.67243        -3.65549
|107>    H       -8.54835        20.60470        -5.87731
|108>    H      -11.22730        23.44134        -1.00030
|109>    H      -12.09046        24.88682        -5.69434
|110>    H      -13.79310        26.41824        -4.90850
|111>    H      -15.09149        27.41557        -3.06894
|112>    H      -14.68296        26.72230        -0.74099
|113>    H      -12.97098        25.02487        -0.23384
|114> *
|115>
|116>                          ****END OF INPUT****

CARTESIAN COORDINATES (ANGSTROEM)
---------------------------------
  C      5.738490    7.501480    3.051800
  C      5.785890    8.383030    2.005110
  C      6.503450    9.596470    2.038900
  N      7.067570   10.595690    2.023290
  C      5.207200    8.123690    0.745360
  N      4.784490    7.923830   -0.303110
  C      6.548290    7.579030    4.260860
  C      6.646320    6.272170    4.824080
  C      7.389610    6.030210    5.943650
  C      8.068210    7.102340    6.565680
  C      7.956340    8.413770    6.018490
  C      7.186350    8.634690    4.853810
  C      8.631260    9.475290    6.654770
  C      9.385310    9.253980    7.774860
  C      9.497520    7.962450    8.311250
  C      8.853320    6.909870    7.719720
  C      5.841690    5.331350    4.024690
  O      5.724950    4.136930    4.163020
  C      5.126160    6.186780    3.029230
  C      4.039780    5.704870    2.378420
  C      3.010000    6.434800    1.725390
  C      2.176820    5.946420    0.734850
  F      2.300800    4.713680    0.245020
  C      1.232100    6.874540    0.285200
  C      1.308650    8.084140    0.984850
  S      2.561780    8.074260    2.164430
  C      0.354920    9.008310    0.544690
  C     -0.420590    8.492300   -0.498460
  S     -0.001470    6.863720   -0.939210
  C     -1.366500    9.416730   -0.961260
  F     -2.172320    9.160420   -1.995700
  C     -1.340190   10.618610   -0.279020
  S     -0.080780   10.630030    0.937510
  C     -2.121770   11.809670   -0.494340
  C     -3.395950   11.858890   -1.049350
  O     -4.128520   10.727970   -1.289340
  C     -4.453780    9.934760   -0.162740
  C     -4.020310   13.102040   -1.395900
  O     -5.198180   13.170970   -2.051420
  C     -5.634360   12.159170   -2.941510
  C     -3.495420   14.338410   -1.013070
  C     -2.235820   14.307190   -0.364960
  C     -1.557310   13.059480   -0.135420
  N     -0.392820   13.337580    0.411980
  O     -0.340210   14.663920    0.511680
  N     -1.428080   15.263040    0.048100
  C     -4.181350   15.564970   -1.307210
  C     -4.023350   16.803300   -0.713780
  F     -3.280050   17.028670    0.369400
  C     -4.790950   17.810880   -1.314330
  C     -5.550900   17.332110   -2.385640
  S     -5.356130   15.632150   -2.602450
  C     -6.302720   18.348630   -2.983310
  C     -6.109940   19.585180   -2.353280
  S     -4.993930   19.512790   -1.020890
  C     -6.871140   20.603640   -2.935280
  F     -6.768050   21.881290   -2.582040
  C     -7.639450   20.173200   -4.005400
  S     -7.384770   18.465670   -4.316350
  C     -8.497810   20.929950   -4.845650
  C     -9.263810   21.974640   -4.427370
  C    -10.022890   22.884350   -5.263380
  C     -9.850760   23.072980   -6.609620
  C    -10.589880   23.995700   -7.378450
  N    -11.165850   24.721610   -8.056180
  C     -8.897180   22.393210   -7.396120
  N     -8.132640   21.885010   -8.085760
  C    -10.930820   23.627920   -4.400430
  C    -10.707190   23.227920   -3.051610
  C     -9.656860   22.197290   -3.006150
  O     -9.283990   21.579290   -2.034300
  C    -11.416360   23.760980   -2.014310
  C    -12.397080   24.741930   -2.282800
  C    -12.631620   25.143010   -3.629930
  C    -11.884350   24.569810   -4.684220
  C    -13.618430   26.116660   -3.886140
  C    -14.338360   26.670020   -2.862450
  C    -14.105380   26.275640   -1.536460
  C    -13.154900   25.332690   -1.252760
  H      7.460950    5.032230    6.349910
  H      7.109290    9.637430    4.463010
  H      8.544780   10.466870    6.235580
  H      9.900540   10.073150    8.253520
  H     10.096830    7.805900    9.195590
  H      8.936130    5.913510    8.128480
  H      3.902900    4.627580    2.409020
  H     -5.184150   10.452670    0.468380
  H     -3.581290    9.679830    0.442540
  H     -4.894640    9.025010   -0.564640
  H     -6.207510   11.393410   -2.416830
  H     -4.799390   11.691630   -3.462980
  H     -6.279060   12.672430   -3.655490
  H     -8.548350   20.604700   -5.877310
  H    -11.227300   23.441340   -1.000300
  H    -12.090460   24.886820   -5.694340
  H    -13.793100   26.418240   -4.908500
  H    -15.091490   27.415570   -3.068940
  H    -14.682960   26.722300   -0.740990
  H    -12.970980   25.024870   -0.233840

 Total Charge           Charge          ....    0
 Multiplicity           Mult            ....    1
 Number of Electrons    NEL             ....  582
 Basis Dimension        Dim             .... 1230

ORBITAL ENERGIES
----------------

  NO   OCC          E(Eh)            E(eV)
   0   2.0000     -88.983708     -2421.3698
   1   2.0000     -88.983163     -2421.3550
   2   2.0000     -88.981226     -2421.3023
   3   2.0000     -88.977246     -2421.1940
   4   2.0000     -88.975195     -2421.1381
   5   2.0000     -88.973752     -2421.0989
   6   2.0000     -24.814043      -675.2245
   7   2.0000     -24.809225      -675.0933
   8   2.0000     -24.803424      -674.9355
   9   2.0000     -24.793786      -674.6732
  10   2.0000     -19.355835      -526.6990
  11   2.0000     -19.276924      -524.5518
  12   2.0000     -19.265194      -524.2326
  13   2.0000     -19.214805      -522.8614
  14   2.0000     -19.211428      -522.7695
  15   2.0000     -14.482107      -394.0782
  16   2.0000     -14.478692      -393.9853
  17   2.0000     -14.415418      -392.2635
  18   2.0000     -14.413221      -392.2037
  19   2.0000     -14.412011      -392.1707
  20   2.0000     -14.411717      -392.1628
  21   2.0000     -10.393081      -282.8101
  22   2.0000     -10.386756      -282.6380
  23   2.0000     -10.386356      -282.6271
  24   2.0000     -10.376086      -282.3476
  25   2.0000     -10.373403      -282.2746
  26   2.0000     -10.373108      -282.2666
  27   2.0000     -10.366506      -282.0870
  28   2.0000     -10.362565      -281.9797
  29   2.0000     -10.344025      -281.4752
  30   2.0000     -10.341547      -281.4078
  31   2.0000     -10.339231      -281.3448
  32   2.0000     -10.338696      -281.3302
  33   2.0000     -10.336833      -281.2795
  34   2.0000     -10.336515      -281.2709
  35   2.0000     -10.336097      -281.2595
  36   2.0000     -10.333411      -281.1864
  37   2.0000     -10.333266      -281.1825
  38   2.0000     -10.332255      -281.1550
  39   2.0000     -10.330233      -281.0999
  40   2.0000     -10.329308      -281.0748
  41   2.0000     -10.327436      -281.0238
  42   2.0000     -10.327027      -281.0127
  43   2.0000     -10.326412      -280.9960
  44   2.0000     -10.326111      -280.9878
  45   2.0000     -10.324910      -280.9551
  46   2.0000     -10.324088      -280.9327
  47   2.0000     -10.322595      -280.8921
  48   2.0000     -10.319898      -280.8187
  49   2.0000     -10.319411      -280.8054
  50   2.0000     -10.319151      -280.7984
  51   2.0000     -10.318826      -280.7895
  52   2.0000     -10.318681      -280.7856
  53   2.0000     -10.317574      -280.7555
  54   2.0000     -10.315539      -280.7001
  55   2.0000     -10.314848      -280.6813
  56   2.0000     -10.314547      -280.6731
  57   2.0000     -10.303895      -280.3832
  58   2.0000     -10.299998      -280.2772
  59   2.0000     -10.299830      -280.2726
  60   2.0000     -10.298182      -280.2278
  61   2.0000     -10.297846      -280.2186
  62   2.0000     -10.297429      -280.2073
  63   2.0000     -10.296957      -280.1945
  64   2.0000     -10.296767      -280.1893
  65   2.0000     -10.295189      -280.1463
  66   2.0000     -10.294942      -280.1396
  67   2.0000     -10.294148      -280.1180
  68   2.0000     -10.293455      -280.0991
  69   2.0000     -10.289916      -280.0028
  70   2.0000     -10.286689      -279.9150
  71   2.0000     -10.286271      -279.9037
  72   2.0000     -10.286025      -279.8970
  73   2.0000     -10.285616      -279.8858
  74   2.0000     -10.285426      -279.8807
  75   2.0000     -10.284539      -279.8565
  76   2.0000     -10.283933      -279.8400
  77   2.0000     -10.283698      -279.8336
  78   2.0000     -10.283223      -279.8207
  79   2.0000      -8.078017      -219.8140
  80   2.0000      -8.077576      -219.8020
  81   2.0000      -8.075359      -219.7417
  82   2.0000      -8.072432      -219.6621
  83   2.0000      -8.069575      -219.5843
  84   2.0000      -8.067450      -219.5265
  85   2.0000      -6.047963      -164.5734
  86   2.0000      -6.047307      -164.5556
  87   2.0000      -6.045080      -164.4950
  88   2.0000      -6.043905      -164.4630
  89   2.0000      -6.043257      -164.4454
  90   2.0000      -6.042092      -164.4137
  91   2.0000      -6.040856      -164.3801
  92   2.0000      -6.039513      -164.3435
  93   2.0000      -6.038843      -164.3253
  94   2.0000      -6.038800      -164.3241
  95   2.0000      -6.038075      -164.3044
  96   2.0000      -6.037291      -164.2830
  97   2.0000      -6.036677      -164.2663
  98   2.0000      -6.035460      -164.2332
  99   2.0000      -6.033663      -164.1843
 100   2.0000      -6.032967      -164.1654
 101   2.0000      -6.030363      -164.0945
 102   2.0000      -6.028745      -164.0505
 103   2.0000      -1.329275       -36.1714
 104   2.0000      -1.324043       -36.0290
 105   2.0000      -1.319483       -35.9050
 106   2.0000      -1.312315       -35.7099
 107   2.0000      -1.310241       -35.6535
 108   2.0000      -1.189889       -32.3785
 109   2.0000      -1.163442       -31.6589
 110   2.0000      -1.130466       -30.7616
 111   2.0000      -1.127000       -30.6672
 112   2.0000      -1.043780       -28.4027
 113   2.0000      -1.035329       -28.1727
 114   2.0000      -1.020832       -27.7783
 115   2.0000      -1.017712       -27.6933
 116   2.0000      -1.014821       -27.6147
 117   2.0000      -1.011491       -27.5241
 118   2.0000      -0.999217       -27.1901
 119   2.0000      -0.998015       -27.1574
 120   2.0000      -0.995391       -27.0860
 121   2.0000      -0.992707       -27.0129
 122   2.0000      -0.991084       -26.9688
 123   2.0000      -0.990160       -26.9436
 124   2.0000      -0.972131       -26.4530
 125   2.0000      -0.968806       -26.3625
 126   2.0000      -0.952857       -25.9286
 127   2.0000      -0.946118       -25.7452
 128   2.0000      -0.924585       -25.1592
 129   2.0000      -0.923771       -25.1371
 130   2.0000      -0.921101       -25.0644
 131   2.0000      -0.905153       -24.6305
 132   2.0000      -0.903109       -24.5748
 133   2.0000      -0.899555       -24.4781
 134   2.0000      -0.883789       -24.0491
 135   2.0000      -0.880631       -23.9632
 136   2.0000      -0.879810       -23.9408
 137   2.0000      -0.876429       -23.8489
 138   2.0000      -0.868708       -23.6387
 139   2.0000      -0.857472       -23.3330
 140   2.0000      -0.851062       -23.1586
 141   2.0000      -0.844668       -22.9846
 142   2.0000      -0.835408       -22.7326
 143   2.0000      -0.828530       -22.5454
 144   2.0000      -0.825803       -22.4712
 145   2.0000      -0.825152       -22.4535
 146   2.0000      -0.816716       -22.2240
 147   2.0000      -0.812324       -22.1044
 148   2.0000      -0.807963       -21.9858
 149   2.0000      -0.802316       -21.8321
 150   2.0000      -0.788263       -21.4497
 151   2.0000      -0.775737       -21.1089
 152   2.0000      -0.761143       -20.7118
 153   2.0000      -0.757990       -20.6260
 154   2.0000      -0.752251       -20.4698
 155   2.0000      -0.744859       -20.2686
 156   2.0000      -0.730613       -19.8810
 157   2.0000      -0.727967       -19.8090
 158   2.0000      -0.711453       -19.3596
 159   2.0000      -0.705460       -19.1966
 160   2.0000      -0.701742       -19.0954
 161   2.0000      -0.701316       -19.0838
 162   2.0000      -0.694852       -18.9079
 163   2.0000      -0.690943       -18.8015
 164   2.0000      -0.688767       -18.7423
 165   2.0000      -0.680736       -18.5238
 166   2.0000      -0.678986       -18.4761
 167   2.0000      -0.677259       -18.4292
 168   2.0000      -0.675212       -18.3735
 169   2.0000      -0.672066       -18.2878
 170   2.0000      -0.668976       -18.2038
 171   2.0000      -0.667108       -18.1529
 172   2.0000      -0.651143       -17.7185
 173   2.0000      -0.648426       -17.6446
 174   2.0000      -0.644833       -17.5468
 175   2.0000      -0.635524       -17.2935
 176   2.0000      -0.631448       -17.1826
 177   2.0000      -0.625603       -17.0235
 178   2.0000      -0.623304       -16.9610
 179   2.0000      -0.618208       -16.8223
 180   2.0000      -0.615093       -16.7375
 181   2.0000      -0.609089       -16.5742
 182   2.0000      -0.607601       -16.5337
 183   2.0000      -0.604258       -16.4427
 184   2.0000      -0.602320       -16.3900
 185   2.0000      -0.598738       -16.2925
 186   2.0000      -0.596085       -16.2203
 187   2.0000      -0.594848       -16.1866
 188   2.0000      -0.589617       -16.0443
 189   2.0000      -0.586738       -15.9660
 190   2.0000      -0.584744       -15.9117
 191   2.0000      -0.580921       -15.8077
 192   2.0000      -0.578110       -15.7312
 193   2.0000      -0.573466       -15.6048
 194   2.0000      -0.569778       -15.5045
 195   2.0000      -0.567810       -15.4509
 196   2.0000      -0.564175       -15.3520
 197   2.0000      -0.561690       -15.2844
 198   2.0000      -0.558463       -15.1965
 199   2.0000      -0.552194       -15.0260
 200   2.0000      -0.549837       -14.9618
 201   2.0000      -0.547627       -14.9017
 202   2.0000      -0.546510       -14.8713
 203   2.0000      -0.544821       -14.8253
 204   2.0000      -0.543500       -14.7894
 205   2.0000      -0.537014       -14.6129
 206   2.0000      -0.535694       -14.5770
 207   2.0000      -0.535170       -14.5627
 208   2.0000      -0.533012       -14.5040
 209   2.0000      -0.529675       -14.4132
 210   2.0000      -0.525386       -14.2965
 211   2.0000      -0.522867       -14.2279
 212   2.0000      -0.522070       -14.2063
 213   2.0000      -0.519236       -14.1291
 214   2.0000      -0.517054       -14.0698
 215   2.0000      -0.515546       -14.0287
 216   2.0000      -0.514257       -13.9937
 217   2.0000      -0.512788       -13.9537
 218   2.0000      -0.511615       -13.9217
 219   2.0000      -0.509779       -13.8718
 220   2.0000      -0.506866       -13.7925
 221   2.0000      -0.505928       -13.7670
 222   2.0000      -0.504635       -13.7318
 223   2.0000      -0.498856       -13.5746
 224   2.0000      -0.497494       -13.5375
 225   2.0000      -0.494784       -13.4637
 226   2.0000      -0.493799       -13.4370
 227   2.0000      -0.492411       -13.3992
 228   2.0000      -0.491088       -13.3632
 229   2.0000      -0.487243       -13.2586
 230   2.0000      -0.486856       -13.2480
 231   2.0000      -0.480663       -13.0795
 232   2.0000      -0.479489       -13.0476
 233   2.0000      -0.473455       -12.8834
 234   2.0000      -0.471002       -12.8166
 235   2.0000      -0.470454       -12.8017
 236   2.0000      -0.464553       -12.6411
 237   2.0000      -0.463831       -12.6215
 238   2.0000      -0.462174       -12.5764
 239   2.0000      -0.459183       -12.4950
 240   2.0000      -0.452763       -12.3203
 241   2.0000      -0.449862       -12.2414
 242   2.0000      -0.446401       -12.1472
 243   2.0000      -0.445644       -12.1266
 244   2.0000      -0.443260       -12.0617
 245   2.0000      -0.442230       -12.0337
 246   2.0000      -0.441361       -12.0101
 247   2.0000      -0.440092       -11.9755
 248   2.0000      -0.439340       -11.9550
 249   2.0000      -0.437886       -11.9155
 250   2.0000      -0.433604       -11.7990
 251   2.0000      -0.432790       -11.7768
 252   2.0000      -0.431619       -11.7450
 253   2.0000      -0.430571       -11.7164
 254   2.0000      -0.429858       -11.6970
 255   2.0000      -0.428340       -11.6557
 256   2.0000      -0.426595       -11.6082
 257   2.0000      -0.425120       -11.5681
 258   2.0000      -0.423542       -11.5252
 259   2.0000      -0.420378       -11.4391
 260   2.0000      -0.417032       -11.3480
 261   2.0000      -0.416086       -11.3223
 262   2.0000      -0.411469       -11.1966
 263   2.0000      -0.407707       -11.0943
 264   2.0000      -0.406208       -11.0535
 265   2.0000      -0.405976       -11.0472
 266   2.0000      -0.402596       -10.9552
 267   2.0000      -0.398733       -10.8501
 268   2.0000      -0.397264       -10.8101
 269   2.0000      -0.390421       -10.6239
 270   2.0000      -0.387770       -10.5518
 271   2.0000      -0.380015       -10.3407
 272   2.0000      -0.376030       -10.2323
 273   2.0000      -0.369736       -10.0610
 274   2.0000      -0.366931        -9.9847
 275   2.0000      -0.351558        -9.5664
 276   2.0000      -0.343504        -9.3472
 277   2.0000      -0.341353        -9.2887
 278   2.0000      -0.336416        -9.1544
 279   2.0000      -0.335733        -9.1358
 280   2.0000      -0.334000        -9.0886
 281   2.0000      -0.325894        -8.8680
 282   2.0000      -0.316383        -8.6092
 283   2.0000      -0.314370        -8.5544
 284   2.0000      -0.303680        -8.2636
 285   2.0000      -0.299181        -8.1411
 286   2.0000      -0.294749        -8.0205
 287   2.0000      -0.291900        -7.9430
 288   2.0000      -0.290393        -7.9020
 289   2.0000      -0.275919        -7.5081
 290   2.0000      -0.252448        -6.8695
 291   0.0000      -0.101153        -2.7525
 292   0.0000      -0.092479        -2.5165
 293   0.0000      -0.073228        -1.9926
 294   0.0000      -0.055523        -1.5109
 295   0.0000      -0.053253        -1.4491

MULLIKEN ATOMIC CHARGES
-----------------------
   0 C :    0.245593
   1 C :   -0.320120
   2 C :   -0.175343
   3 N :    0.156369
   4 C :   -0.196508
   5 N :    0.170957
   6 C :    0.037711
   7 C :    0.010234
   8 C :   -0.080158
   9 C :    0.093883
  10 C :    0.094357
  11 C :   -0.078385
  12 C :   -0.017156
  13 C :    0.037664
  14 C :    0.034115
  15 C :   -0.014464
  16 C :    0.141237
  17 O :   -0.139427
  18 C :   -0.131432
  19 C :    0.055346
  20 C :   -0.212663
  21 C :    0.253145
  22 F :   -0.155056
  23 C :   -0.061160
  24 C :   -0.081587
  25 S :    0.195067
  26 C :   -0.058465
  27 C :   -0.086249
  28 S :    0.214770
  29 C :    0.202969
  30 F :   -0.163820
  31 C :   -0.274174
  32 S :    0.227780
  33 C :    0.164807
  34 C :    0.012618
  35 O :   -0.346409
  36 C :    0.187336
  37 C :    0.130901
  38 O :   -0.329259
  39 C :    0.208623
  40 C :    0.067514
  41 C :   -0.040573
  42 C :   -0.092392
  43 N :    0.026177
  44 O :   -0.091301
  45 N :    0.053098
  46 C :   -0.206706
  47 C :    0.202284
  48 F :   -0.155416
  49 C :   -0.082974
  50 C :   -0.059333
  51 S :    0.187295
  52 C :   -0.077707
  53 C :   -0.097713
  54 S :    0.215788
  55 C :    0.269719
  56 F :   -0.152044
  57 C :   -0.190087
  58 S :    0.185734
  59 C :    0.022679
  60 C :   -0.096376
  61 C :    0.299366
  62 C :   -0.341485
  63 C :   -0.180647
  64 N :    0.147760
  65 C :   -0.205909
  66 N :    0.159685
  67 C :    0.052124
  68 C :   -0.011672
  69 C :    0.147178
  70 O :   -0.144728
  71 C :   -0.076818
  72 C :    0.097406
  73 C :    0.094567
  74 C :   -0.083206
  75 C :   -0.017096
  76 C :    0.033391
  77 C :    0.036045
  78 C :   -0.015350
  79 H :   -0.011516
  80 H :   -0.005027
  81 H :   -0.010477
  82 H :   -0.004237
  83 H :   -0.004789
  84 H :   -0.017515
  85 H :    0.036549
  86 H :    0.023985
  87 H :    0.044700
  88 H :    0.042249
  89 H :    0.030952
  90 H :    0.036461
  91 H :    0.032801
  92 H :    0.035995
  93 H :   -0.014068
  94 H :   -0.008953
  95 H :   -0.010033
  96 H :   -0.004813
  97 H :   -0.005654
  98 H :   -0.018529
Sum of atomic charges:   -0.0000000

LOEWDIN ATOMIC CHARGES
----------------------
   0 C :    0.059530
   1 C :   -0.138122
   2 C :   -0.019111
   3 N :   -0.048245
   4 C :   -0.032828
   5 N :   -0.049223
   6 C :   -0.022852
   7 C :   -0.057708
   8 C :    0.033075
   9 C :   -0.009216
  10 C :   -0.005057
  11 C :    0.016057
  12 C :   -0.006317
  13 C :   -0.012191
  14 C :   -0.013101
  15 C :   -0.008989
  16 C :    0.083631
  17 O :   -0.140232
  18 C :   -0.092112
  19 C :    0.051767
  20 C :   -0.214903
  21 C :    0.072967
  22 F :   -0.036242
  23 C :   -0.216641
  24 C :   -0.188928
  25 S :    0.468897
  26 C :   -0.212836
  27 C :   -0.211377
  28 S :    0.442965
  29 C :    0.035100
  30 F :   -0.042696
  31 C :   -0.201173
  32 S :    0.489405
  33 C :   -0.071423
  34 C :    0.038161
  35 O :   -0.110176
  36 C :    0.081534
  37 C :    0.051035
  38 O :   -0.096775
  39 C :    0.085982
  40 C :   -0.069824
  41 C :   -0.053487
  42 C :   -0.059216
  43 N :   -0.045767
  44 O :    0.078775
  45 N :   -0.018604
  46 C :   -0.191880
  47 C :    0.039962
  48 F :   -0.034574
  49 C :   -0.207987
  50 C :   -0.220073
  51 S :    0.465045
  52 C :   -0.193679
  53 C :   -0.216783
  54 S :    0.443597
  55 C :    0.075164
  56 F :   -0.027354
  57 C :   -0.214397
  58 S :    0.447468
  59 C :    0.047883
  60 C :   -0.090009
  61 C :    0.074475
  62 C :   -0.139302
  63 C :   -0.017463
  64 N :   -0.054577
  65 C :   -0.023693
  66 N :   -0.052222
  67 C :   -0.025757
  68 C :   -0.053615
  69 C :    0.079097
  70 O :   -0.138127
  71 C :    0.031163
  72 C :   -0.008239
  73 C :   -0.006851
  74 C :    0.019129
  75 C :   -0.005400
  76 C :   -0.014483
  77 C :   -0.012871
  78 C :   -0.009968
  79 H :    0.039495
  80 H :    0.038895
  81 H :    0.034468
  82 H :    0.033336
  83 H :    0.032851
  84 H :    0.031860
  85 H :    0.054262
  86 H :    0.018287
  87 H :    0.018288
  88 H :    0.030400
  89 H :    0.020304
  90 H :    0.023510
  91 H :    0.022324
  92 H :    0.045995
  93 H :    0.038630
  94 H :    0.038636
  95 H :    0.034376
  96 H :    0.032939
  97 H :    0.032486
  98 H :    0.031474

  Mayer bond orders larger than 0.100000
B(  0-C ,  1-C ) :   1.6639 B(  0-C ,  6-C ) :   1.0005 B(  0-C , 18-C ) :   1.0296
B(  1-C ,  2-C ) :   1.1370 B(  1-C ,  4-C ) :   1.1514 B(  2-C ,  3-N ) :   2.9912
B(  4-C ,  5-N ) :   3.0222 B(  6-C ,  7-C ) :   1.2166 B(  6-C , 11-C ) :   1.4562
B(  7-C ,  8-C ) :   1.4733 B(  7-C , 16-C ) :   0.9218 B(  8-C ,  9-C ) :   1.1850
B(  8-C , 79-H ) :   1.0161 B(  9-C , 10-C ) :   1.2571 B(  9-C , 15-C ) :   1.2452
B( 10-C , 11-C ) :   1.2052 B( 10-C , 12-C ) :   1.2398 B( 11-C , 80-H ) :   0.9948
B( 12-C , 13-C ) :   1.4888 B( 12-C , 81-H ) :   0.9981 B( 13-C , 14-C ) :   1.2609
B( 13-C , 82-H ) :   0.9891 B( 14-C , 15-C ) :   1.4880 B( 14-C , 83-H ) :   0.9892
B( 15-C , 84-H ) :   0.9979 B( 16-C , 17-O ) :   2.2787 B( 16-C , 18-C ) :   0.9323
B( 18-C , 19-C ) :   1.6682 B( 19-C , 20-C ) :   1.0995 B( 19-C , 85-H ) :   0.9482
B( 20-C , 21-C ) :   1.4491 B( 20-C , 25-S ) :   1.0683 B( 21-C , 22-F ) :   1.2153
B( 21-C , 23-C ) :   1.2714 B( 23-C , 24-C ) :   1.4700 B( 23-C , 28-S ) :   1.0242
B( 24-C , 25-S ) :   1.0898 B( 24-C , 26-C ) :   1.3269 B( 26-C , 27-C ) :   1.4809
B( 26-C , 31-C ) :   0.1032 B( 26-C , 32-S ) :   1.0636 B( 27-C , 28-S ) :   1.0356
B( 27-C , 29-C ) :   1.2692 B( 29-C , 30-F ) :   1.1897 B( 29-C , 31-C ) :   1.4737
B( 31-C , 32-S ) :   1.1029 B( 31-C , 33-C ) :   1.0445 B( 33-C , 34-C ) :   1.4344
B( 33-C , 40-C ) :   0.1062 B( 33-C , 42-C ) :   1.1246 B( 34-C , 35-O ) :   1.1505
B( 34-C , 37-C ) :   1.1326 B( 35-O , 36-C ) :   0.9202 B( 36-C , 86-H ) :   0.9691
B( 36-C , 87-H ) :   0.9664 B( 36-C , 88-H ) :   0.9825 B( 37-C , 38-O ) :   1.1886
B( 37-C , 40-C ) :   1.4621 B( 38-O , 39-C ) :   0.9057 B( 39-C , 89-H ) :   0.9802
B( 39-C , 90-H ) :   0.9745 B( 39-C , 91-H ) :   0.9733 B( 40-C , 41-C ) :   1.1557
B( 40-C , 46-C ) :   1.0942 B( 41-C , 42-C ) :   1.1477 B( 41-C , 45-N ) :   1.6065
B( 42-C , 43-N ) :   1.5953 B( 43-N , 44-O ) :   1.0620 B( 43-N , 45-N ) :   0.1776
B( 44-O , 45-N ) :   1.0614 B( 46-C , 47-C ) :   1.4838 B( 46-C , 51-S ) :   1.0802
B( 47-C , 48-F ) :   1.2048 B( 47-C , 49-C ) :   1.2605 B( 49-C , 50-C ) :   1.4885
B( 49-C , 54-S ) :   1.0332 B( 50-C , 51-S ) :   1.0460 B( 50-C , 52-C ) :   1.3213
B( 52-C , 53-C ) :   1.4700 B( 52-C , 58-S ) :   1.0903 B( 53-C , 54-S ) :   1.0266
B( 53-C , 55-C ) :   1.2878 B( 55-C , 56-F ) :   1.1967 B( 55-C , 57-C ) :   1.4482
B( 57-C , 58-S ) :   1.0520 B( 57-C , 59-C ) :   1.1433 B( 59-C , 60-C ) :   1.6319
B( 59-C , 92-H ) :   0.9368 B( 60-C , 61-C ) :   1.0683 B( 60-C , 69-C ) :   0.9406
B( 61-C , 62-C ) :   1.6427 B( 61-C , 67-C ) :   0.9943 B( 62-C , 63-C ) :   1.1429
B( 62-C , 65-C ) :   1.1409 B( 63-C , 64-N ) :   2.9681 B( 65-C , 66-N ) :   2.9950
B( 67-C , 68-C ) :   1.2142 B( 67-C , 74-C ) :   1.4511 B( 68-C , 69-C ) :   0.9435
B( 68-C , 71-C ) :   1.4765 B( 69-C , 70-O ) :   2.2222 B( 71-C , 72-C ) :   1.1794
B( 71-C , 93-H ) :   1.0163 B( 72-C , 73-C ) :   1.2577 B( 72-C , 78-C ) :   1.2431
B( 73-C , 74-C ) :   1.2045 B( 73-C , 75-C ) :   1.2416 B( 74-C , 94-H ) :   0.9909
B( 75-C , 76-C ) :   1.4882 B( 75-C , 95-H ) :   0.9976 B( 76-C , 77-C ) :   1.2601
B( 76-C , 96-H ) :   0.9892 B( 77-C , 78-C ) :   1.4886 B( 77-C , 97-H ) :   0.9887
B( 78-C , 98-H ) :   0.9981

-----------------------------------------------------------------------------
         ABSORPTION SPECTRUM VIA TRANSITION ELECTRIC DIPOLE MOMENTS
-----------------------------------------------------------------------------
State   Energy  Wavelength   fosc         T2         TX        TY        TZ
        (cm-1)    (nm)                  (au**2)     (au)      (au)      (au)
-----------------------------------------------------------------------------
   0   18276.6    547.1   2.412955737  43.46410  -4.43564   4.35417  -2.19781
   1   20812.2    480.5   0.147792336   2.33782   0.49617   1.43669  -0.16603
   2   23903.3    418.4   0.211208434   2.90890   0.69234   1.45502   0.55898
   3   25733.2    388.6   0.067757989   0.86685  -0.40374   0.69080   0.47607
   4   26256.3    380.9   0.062837228   0.78788   0.60365  -0.17791   0.62597
   5   26659.2    375.1   0.181662146   2.24333  -0.75141  -0.89039  -0.94123
   6   26743.7    373.9   0.007918717   0.09748  -0.02893   0.20784  -0.23118
   7   26786.4    373.3   0.020098877   0.24702   0.44349  -0.14725  -0.16929
   8   27585.5    362.5   0.029963453   0.35759   0.30481  -0.23788  -0.45617
   9   28362.6    352.6   0.038208500   0.44350  -0.08102   0.58354   0.31050
  10   28484.0    351.1   0.015769476   0.18226   0.21460  -0.13821  -0.34221
  11   29168.8    342.8   0.027683441   0.31245   0.18245   0.37750  -0.36967
  12   29722.5    336.4   0.089714871   0.99370   0.05751  -0.09221   0.99090
  13   29918.1    334.2   0.027390091   0.30139  -0.46898   0.14079   0.24825
  14   30427.2    328.7   0.098426397   1.06494   0.79097  -0.60686   0.26650
  15   30722.6    325.5   0.378834877   4.05945   1.45819  -0.65197   1.22804
  16   31357.8    318.9   0.067561982   0.70930   0.57760  -0.56492  -0.23780
  17   32018.0    312.3   0.134304685   1.38093   1.09297  -0.40270   0.15554
  18   32586.1    306.9   0.058483476   0.59085  -0.44160  -0.62554  -0.06736
  19   33614.3    297.5   0.482361648   4.72415  -1.66452   0.87432  -1.09046
  20   33887.5    295.1   0.434999610   4.22596  -1.08969   1.18819   1.27544
  21   34054.0    293.7   0.333901570   3.22794  -0.62863   0.07592  -1.68137
  22   34114.1    293.1   0.309285241   2.98470  -0.53959   0.14137   1.63510
  23   34629.2    288.8   0.104933327   0.99758   0.43481  -0.89903   0.01609
  24   34753.7    287.7   0.125050529   1.18457   0.53416   0.23682   0.91824
  25   35159.1    284.4   0.126000782   1.17981   0.33124  -0.18810  -1.01720
  26   35573.7    281.1   0.040751849   0.37713   0.01635  -0.61353   0.02120
  27   35800.8    279.3   0.054815665   0.50407   0.49529   0.19622   0.46931
  28   35946.7    278.2   0.017803039   0.16305  -0.26092  -0.28985  -0.10466
  29   36352.8    275.1   0.072726094   0.65861  -0.05538  -0.48278  -0.64997
  30   36628.6    273.0   0.014565553   0.13091  -0.05732   0.18447  -0.30594
  31   36754.7    272.1   0.028660063   0.25671   0.43347  -0.13578   0.22445
  32   36984.9    270.4   0.007924946   0.07054   0.11004   0.13136   0.20293
  33   37231.3    268.6   0.050744393   0.44870  -0.33612   0.54826  -0.18744
  34   37615.2    265.8   0.042955541   0.37595  -0.47912   0.15079  -0.35164
  35   38114.6    262.4   0.070946345   0.61279  -0.14288  -0.60880  -0.47090
  36   38583.5    259.2   0.068218458   0.58207   0.56505  -0.07760  -0.50673
  37   38618.5    258.9   0.119363351   1.01754   0.22486   0.46051   0.86885
  38   38901.2    257.1   0.016066506   0.13597   0.06119   0.19890  -0.30440
  39   39016.5    256.3   0.078500990   0.66237  -0.11427   0.16158  -0.78943
  40   39303.2    254.4   0.183053358   1.53329   0.08307   0.96109  -0.77633
  41   39572.8    252.7   0.004154128   0.03456  -0.02415  -0.08860  -0.16163
  42   40125.2    249.2   0.047992423   0.39376  -0.08209   0.20083  -0.58880
  43   40198.1    248.8   0.031630179   0.25904  -0.30809  -0.14075  -0.37988

FINAL SINGLE POINT ENERGY     -5710.354778260755

DIPOLE MOMENT
-------------
                                X             Y             Z
Electronic contribution:     11.85151     -13.68698     -21.26345
Nuclear contribution   :    -13.87866      11.83962      24.87338
                        -----------------------------------------
Total Dipole Moment    :     -2.02714      -1.84736       3.60993
                        -----------------------------------------
Magnitude (a.u.)       :      4.53361
Magnitude (Debye)      :     11.52353

Rotational constants in cm-1:     0.001958     0.000158     0.000152
Rotational constants in MHz :    58.712982     4.749579     4.548369

                             ****ORCA TERMINATED NORMALLY****
TOTAL RUN TIME: 0 days 0 hours 10 minutes 43 seconds 29 msec
