                         Program Version 4.2.0 -  RELEASE  -
|  1> # ORCA input file
|  2> # SCF done       -165.814198134968          0.000580817428
|  3> ! CAM-B3LYP def2-SVP def2/J RIJCOSX Grid4 TightSCF
|  4> %maxcore 5000
|  5> %tddft
|  6>     Mode sTDDFT
|  7>     Ethresh 5.0
|  8>     maxcore 5000
|  9> end
| 10>
| 11> %pal
| 12>   nprocs 6
| 13>   end
| 14> * xyz 0 1
| 15>    C        1.10212         1.33782        -1.51469
| 16>    C       -0.14687         1.66389        -1.97963
| 17>    C       -0.59187         1.39437        -3.28921
| 18>    N       -0.99416         1.21955        -4.35047
| 19>    C       -1.16286         2.22655        -1.18375
| 20>    N       -2.05220         2.63396        -0.58170
| 21>    C        2.07715         0.51386        -2.22409
| 22>    C        3.03712         0.03537        -1.28434
| 23>    C        4.05023        -0.80075        -1.65404
| 24>    C        4.15598        -1.20042        -3.00553
| 25>    C        3.20989        -0.71374        -3.95308
| 26>    C        2.16938         0.15081        -3.54085
| 27>    C        3.32762        -1.11793        -5.29838
| 28>    C        4.32824        -1.96518        -5.69008
| 29>    C        5.25867        -2.44448        -4.75611
| 30>    C        5.17440        -2.07001        -3.44245
| 31>    C        2.73252         0.59120         0.04636
| 32>    O        3.29817         0.37502         1.09469
| 33>    C        1.60284         1.53421        -0.17270
| 34>    C        1.28637         2.43491         0.79977
| 35>    C        0.47511         3.59077         0.72867
| 36>    C        0.47078         4.47525        -0.32180
| 37>    C       -0.42210         5.57053        -0.21628
| 38>    C       -1.16667         5.61184         0.94146
| 39>   Si       -0.71384         4.20093         2.08055
| 40>    C       -2.15733         6.57192         1.24349
| 41>    C       -2.80723         6.47953         2.49999
| 42>    C       -3.84550         7.37055         2.93502
| 43>    N       -4.39583         7.17830         4.15042
| 44>    C       -3.98186         6.20553         4.89564
| 45>    C       -2.94861         5.33289         4.47268
| 46>    N       -2.39681         5.48789         3.31179
| 47>    F       -2.50815         4.34512         5.24650
| 48>    F       -4.55659         6.05129         6.08622
| 49>    C       -4.28614         8.44053         2.11204
| 50>    C       -3.62364         8.54014         0.86281
| 51>    C       -2.59091         7.63859         0.42112
| 52>    N       -2.14609         7.96092        -0.79412
| 53>    S       -2.93692         9.24992        -1.32666
| 54>    N       -3.88496         9.47665        -0.04645
| 55>    C       -5.28509         9.40104         2.40384
| 56>    C       -6.07671         9.43460         3.53844
| 57>    C       -6.98741        10.51068         3.63069
| 58>    C       -6.96972        11.41558         2.57934
| 59>   Si       -5.72843        10.83890         1.28638
| 60>    C       -7.76666        12.56999         2.42469
| 61>    C       -8.63869        13.24695         3.24554
| 62>    C       -9.36605        14.43060         2.81442
| 63>    C       -9.43504        14.95115         1.54487
| 64>    C      -10.16634        16.10962         1.20760
| 65>    N      -10.72901        17.04763         0.85736
| 66>    C       -8.82952        14.43629         0.37962
| 67>    N       -8.40017        14.10624        -0.63461
| 68>    C      -10.07182        14.97776         3.96863
| 69>    C       -9.82544        14.13170         5.08416
| 70>    C       -8.95073        13.01817         4.67807
| 71>    O       -8.57853        12.12246         5.40901
| 72>    C      -10.36057        14.37759         6.31518
| 73>    C      -11.18741        15.50931         6.49182
| 74>    C      -11.43802        16.36550         5.38139
| 75>    C      -10.86743        16.08298         4.11854
| 76>    C      -12.26454        17.49231         5.56700
| 77>    C      -12.81833        17.76104         6.78915
| 78>    C      -12.57057        16.91692         7.88182
| 79>    C      -11.77224        15.81487         7.73621
| 80>    H        4.76130        -1.15714        -0.92362
| 81>    H        1.47241         0.51025        -4.28170
| 82>    H        2.60676        -0.74917        -6.01330
| 83>    H        4.40766        -2.27172        -6.72232
| 84>    H        6.04219        -3.11197        -5.08237
| 85>    H        5.88760        -2.43611        -2.71843
| 86>    H        1.73741         2.22794         1.76691
| 87>    H        1.13586         4.38408        -1.17053
| 88>    H       -0.50813         6.30778        -0.99908
| 89>    H       -1.69146         3.15124         2.31724
| 90>    H        0.12909         4.60747         3.20452
| 91>    H       -6.01842         8.69267         4.31712
| 92>    H       -7.64260        10.59988         4.48170
| 93>    H       -4.66306        11.82274         1.11350
| 94>    H       -6.42415        10.46241         0.06115
| 95>    H       -7.63423        13.02117         1.44832
| 96>    H      -10.15653        13.71491         7.14320
| 97>    H      -11.07695        16.75487         3.30200
| 98>    H      -12.45313        18.13906         4.72259
| 99>    H      -13.45110        18.62605         6.92063
|100>    H      -13.01548        17.14399         8.83918
|101>    H      -11.57778        15.16073         8.57367
|102> *
|103>
|104>                          ****END OF INPUT****

CARTESIAN COORDINATES (ANGSTROEM)
---------------------------------
  C      1.102120    1.337820   -1.514690
  C     -0.146870    1.663890   -1.979630
  C     -0.591870    1.394370   -3.289210
  N     -0.994160    1.219550   -4.350470
  C     -1.162860    2.226550   -1.183750
  N     -2.052200    2.633960   -0.581700
  C      2.077150    0.513860   -2.224090
  C      3.037120    0.035370   -1.284340
  C      4.050230   -0.800750   -1.654040
  C      4.155980   -1.200420   -3.005530
  C      3.209890   -0.713740   -3.953080
  C      2.169380    0.150810   -3.540850
  C      3.327620   -1.117930   -5.298380
  C      4.328240   -1.965180   -5.690080
  C      5.258670   -2.444480   -4.756110
  C      5.174400   -2.070010   -3.442450
  C      2.732520    0.591200    0.046360
  O      3.298170    0.375020    1.094690
  C      1.602840    1.534210   -0.172700
  C      1.286370    2.434910    0.799770
  C      0.475110    3.590770    0.728670
  C      0.470780    4.475250   -0.321800
  C     -0.422100    5.570530   -0.216280
  C     -1.166670    5.611840    0.941460
  Si    -0.713840    4.200930    2.080550
  C     -2.157330    6.571920    1.243490
  C     -2.807230    6.479530    2.499990
  C     -3.845500    7.370550    2.935020
  N     -4.395830    7.178300    4.150420
  C     -3.981860    6.205530    4.895640
  C     -2.948610    5.332890    4.472680
  N     -2.396810    5.487890    3.311790
  F     -2.508150    4.345120    5.246500
  F     -4.556590    6.051290    6.086220
  C     -4.286140    8.440530    2.112040
  C     -3.623640    8.540140    0.862810
  C     -2.590910    7.638590    0.421120
  N     -2.146090    7.960920   -0.794120
  S     -2.936920    9.249920   -1.326660
  N     -3.884960    9.476650   -0.046450
  C     -5.285090    9.401040    2.403840
  C     -6.076710    9.434600    3.538440
  C     -6.987410   10.510680    3.630690
  C     -6.969720   11.415580    2.579340
  Si    -5.728430   10.838900    1.286380
  C     -7.766660   12.569990    2.424690
  C     -8.638690   13.246950    3.245540
  C     -9.366050   14.430600    2.814420
  C     -9.435040   14.951150    1.544870
  C    -10.166340   16.109620    1.207600
  N    -10.729010   17.047630    0.857360
  C     -8.829520   14.436290    0.379620
  N     -8.400170   14.106240   -0.634610
  C    -10.071820   14.977760    3.968630
  C     -9.825440   14.131700    5.084160
  C     -8.950730   13.018170    4.678070
  O     -8.578530   12.122460    5.409010
  C    -10.360570   14.377590    6.315180
  C    -11.187410   15.509310    6.491820
  C    -11.438020   16.365500    5.381390
  C    -10.867430   16.082980    4.118540
  C    -12.264540   17.492310    5.567000
  C    -12.818330   17.761040    6.789150
  C    -12.570570   16.916920    7.881820
  C    -11.772240   15.814870    7.736210
  H      4.761300   -1.157140   -0.923620
  H      1.472410    0.510250   -4.281700
  H      2.606760   -0.749170   -6.013300
  H      4.407660   -2.271720   -6.722320
  H      6.042190   -3.111970   -5.082370
  H      5.887600   -2.436110   -2.718430
  H      1.737410    2.227940    1.766910
  H      1.135860    4.384080   -1.170530
  H     -0.508130    6.307780   -0.999080
  H     -1.691460    3.151240    2.317240
  H      0.129090    4.607470    3.204520
  H     -6.018420    8.692670    4.317120
  H     -7.642600   10.599880    4.481700
  H     -4.663060   11.822740    1.113500
  H     -6.424150   10.462410    0.061150
  H     -7.634230   13.021170    1.448320
  H    -10.156530   13.714910    7.143200
  H    -11.076950   16.754870    3.302000
  H    -12.453130   18.139060    4.722590
  H    -13.451100   18.626050    6.920630
  H    -13.015480   17.143990    8.839180
  H    -11.577780   15.160730    8.573670

 Total Charge           Charge          ....    0
 Multiplicity           Mult            ....    1
 Number of Electrons    NEL             ....  456
 Basis Dimension        Dim             .... 1032

ORBITAL ENERGIES
----------------

  NO   OCC          E(Eh)            E(eV)
   0   2.0000     -89.052499     -2423.2417
   1   2.0000     -66.199556     -1801.3815
   2   2.0000     -66.192206     -1801.1815
   3   2.0000     -24.832708      -675.7323
   4   2.0000     -24.824978      -675.5220
   5   2.0000     -19.210787      -522.7521
   6   2.0000     -19.208423      -522.6878
   7   2.0000     -14.478938      -393.9919
   8   2.0000     -14.464937      -393.6109
   9   2.0000     -14.463682      -393.5768
  10   2.0000     -14.462832      -393.5537
  11   2.0000     -14.414017      -392.2254
  12   2.0000     -14.413625      -392.2147
  13   2.0000     -14.406830      -392.0298
  14   2.0000     -14.404194      -391.9580
  15   2.0000     -10.447774      -284.2984
  16   2.0000     -10.442826      -284.1637
  17   2.0000     -10.361629      -281.9543
  18   2.0000     -10.359037      -281.8837
  19   2.0000     -10.355855      -281.7971
  20   2.0000     -10.353912      -281.7443
  21   2.0000     -10.346885      -281.5531
  22   2.0000     -10.345821      -281.5241
  23   2.0000     -10.340026      -281.3664
  24   2.0000     -10.339107      -281.3414
  25   2.0000     -10.330581      -281.1094
  26   2.0000     -10.329958      -281.0924
  27   2.0000     -10.320301      -280.8297
  28   2.0000     -10.317510      -280.7537
  29   2.0000     -10.316619      -280.7295
  30   2.0000     -10.314746      -280.6785
  31   2.0000     -10.312717      -280.6233
  32   2.0000     -10.310730      -280.5692
  33   2.0000     -10.308038      -280.4960
  34   2.0000     -10.304629      -280.4032
  35   2.0000     -10.302176      -280.3365
  36   2.0000     -10.296952      -280.1943
  37   2.0000     -10.296635      -280.1857
  38   2.0000     -10.295776      -280.1623
  39   2.0000     -10.295433      -280.1530
  40   2.0000     -10.294375      -280.1242
  41   2.0000     -10.293459      -280.0992
  42   2.0000     -10.293246      -280.0935
  43   2.0000     -10.293228      -280.0930
  44   2.0000     -10.290101      -280.0079
  45   2.0000     -10.289727      -279.9977
  46   2.0000     -10.288215      -279.9566
  47   2.0000     -10.287973      -279.9500
  48   2.0000     -10.287829      -279.9461
  49   2.0000     -10.287553      -279.9385
  50   2.0000     -10.287261      -279.9306
  51   2.0000     -10.285924      -279.8942
  52   2.0000     -10.285441      -279.8811
  53   2.0000     -10.285246      -279.8758
  54   2.0000     -10.284780      -279.8631
  55   2.0000     -10.284261      -279.8490
  56   2.0000     -10.280966      -279.7593
  57   2.0000     -10.280250      -279.7398
  58   2.0000     -10.279579      -279.7216
  59   2.0000     -10.279242      -279.7124
  60   2.0000     -10.279106      -279.7087
  61   2.0000     -10.278694      -279.6975
  62   2.0000     -10.274864      -279.5933
  63   2.0000     -10.272382      -279.5257
  64   2.0000     -10.262910      -279.2680
  65   2.0000      -8.143655      -221.6001
  66   2.0000      -6.114761      -166.3911
  67   2.0000      -6.106989      -166.1796
  68   2.0000      -6.106350      -166.1622
  69   2.0000      -5.366195      -146.0216
  70   2.0000      -5.360888      -145.8772
  71   2.0000      -3.730069      -101.5003
  72   2.0000      -3.728061      -101.4457
  73   2.0000      -3.726890      -101.4138
  74   2.0000      -3.724102      -101.3380
  75   2.0000      -3.722767      -101.3016
  76   2.0000      -3.721831      -101.2762
  77   2.0000      -1.357458       -36.9383
  78   2.0000      -1.341755       -36.5110
  79   2.0000      -1.149806       -31.2878
  80   2.0000      -1.129086       -30.7240
  81   2.0000      -1.125489       -30.6261
  82   2.0000      -1.122902       -30.5557
  83   2.0000      -1.053859       -28.6769
  84   2.0000      -1.016630       -27.6639
  85   2.0000      -1.008700       -27.4481
  86   2.0000      -1.005152       -27.3516
  87   2.0000      -0.996941       -27.1282
  88   2.0000      -0.992666       -27.0118
  89   2.0000      -0.989797       -26.9338
  90   2.0000      -0.983882       -26.7728
  91   2.0000      -0.982406       -26.7326
  92   2.0000      -0.970278       -26.4026
  93   2.0000      -0.962901       -26.2019
  94   2.0000      -0.940943       -25.6044
  95   2.0000      -0.932300       -25.3692
  96   2.0000      -0.921392       -25.0724
  97   2.0000      -0.915023       -24.8990
  98   2.0000      -0.902347       -24.5541
  99   2.0000      -0.895959       -24.3803
 100   2.0000      -0.892365       -24.2825
 101   2.0000      -0.884756       -24.0754
 102   2.0000      -0.880165       -23.9505
 103   2.0000      -0.873198       -23.7609
 104   2.0000      -0.868773       -23.6405
 105   2.0000      -0.859290       -23.3825
 106   2.0000      -0.829895       -22.5826
 107   2.0000      -0.827192       -22.5091
 108   2.0000      -0.820530       -22.3278
 109   2.0000      -0.819642       -22.3036
 110   2.0000      -0.810422       -22.0527
 111   2.0000      -0.794562       -21.6211
 112   2.0000      -0.785744       -21.3812
 113   2.0000      -0.764390       -20.8001
 114   2.0000      -0.757815       -20.6212
 115   2.0000      -0.756977       -20.5984
 116   2.0000      -0.753109       -20.4931
 117   2.0000      -0.741053       -20.1651
 118   2.0000      -0.729750       -19.8575
 119   2.0000      -0.710392       -19.3307
 120   2.0000      -0.701518       -19.0893
 121   2.0000      -0.697034       -18.9673
 122   2.0000      -0.696138       -18.9429
 123   2.0000      -0.696050       -18.9405
 124   2.0000      -0.689631       -18.7658
 125   2.0000      -0.689231       -18.7549
 126   2.0000      -0.682731       -18.5781
 127   2.0000      -0.678180       -18.4542
 128   2.0000      -0.673853       -18.3365
 129   2.0000      -0.671283       -18.2665
 130   2.0000      -0.661856       -18.0100
 131   2.0000      -0.648657       -17.6508
 132   2.0000      -0.637420       -17.3451
 133   2.0000      -0.633705       -17.2440
 134   2.0000      -0.632179       -17.2025
 135   2.0000      -0.627392       -17.0722
 136   2.0000      -0.620831       -16.8937
 137   2.0000      -0.616371       -16.7723
 138   2.0000      -0.615534       -16.7495
 139   2.0000      -0.609713       -16.5911
 140   2.0000      -0.605923       -16.4880
 141   2.0000      -0.598670       -16.2906
 142   2.0000      -0.590844       -16.0777
 143   2.0000      -0.587502       -15.9867
 144   2.0000      -0.583367       -15.8742
 145   2.0000      -0.579168       -15.7600
 146   2.0000      -0.576097       -15.6764
 147   2.0000      -0.574358       -15.6291
 148   2.0000      -0.564962       -15.3734
 149   2.0000      -0.559101       -15.2139
 150   2.0000      -0.552391       -15.0313
 151   2.0000      -0.550263       -14.9734
 152   2.0000      -0.545509       -14.8441
 153   2.0000      -0.542645       -14.7661
 154   2.0000      -0.539746       -14.6872
 155   2.0000      -0.538651       -14.6574
 156   2.0000      -0.532866       -14.5000
 157   2.0000      -0.531468       -14.4620
 158   2.0000      -0.528771       -14.3886
 159   2.0000      -0.528140       -14.3714
 160   2.0000      -0.527417       -14.3517
 161   2.0000      -0.525857       -14.3093
 162   2.0000      -0.519565       -14.1381
 163   2.0000      -0.516848       -14.0641
 164   2.0000      -0.512760       -13.9529
 165   2.0000      -0.512260       -13.9393
 166   2.0000      -0.510613       -13.8945
 167   2.0000      -0.503837       -13.7101
 168   2.0000      -0.502683       -13.6787
 169   2.0000      -0.499585       -13.5944
 170   2.0000      -0.498406       -13.5623
 171   2.0000      -0.495806       -13.4916
 172   2.0000      -0.493045       -13.4164
 173   2.0000      -0.488211       -13.2849
 174   2.0000      -0.487424       -13.2635
 175   2.0000      -0.484181       -13.1752
 176   2.0000      -0.481947       -13.1144
 177   2.0000      -0.478153       -13.0112
 178   2.0000      -0.475324       -12.9342
 179   2.0000      -0.474190       -12.9034
 180   2.0000      -0.464186       -12.6312
 181   2.0000      -0.461285       -12.5522
 182   2.0000      -0.456103       -12.4112
 183   2.0000      -0.453039       -12.3278
 184   2.0000      -0.449951       -12.2438
 185   2.0000      -0.448507       -12.2045
 186   2.0000      -0.443970       -12.0810
 187   2.0000      -0.441233       -12.0066
 188   2.0000      -0.440360       -11.9828
 189   2.0000      -0.439553       -11.9609
 190   2.0000      -0.437679       -11.9098
 191   2.0000      -0.435765       -11.8578
 192   2.0000      -0.432076       -11.7574
 193   2.0000      -0.431925       -11.7533
 194   2.0000      -0.429669       -11.6919
 195   2.0000      -0.428463       -11.6591
 196   2.0000      -0.425896       -11.5892
 197   2.0000      -0.425288       -11.5727
 198   2.0000      -0.424700       -11.5567
 199   2.0000      -0.417034       -11.3481
 200   2.0000      -0.416333       -11.3290
 201   2.0000      -0.415311       -11.3012
 202   2.0000      -0.413747       -11.2586
 203   2.0000      -0.410482       -11.1698
 204   2.0000      -0.408742       -11.1224
 205   2.0000      -0.405126       -11.0240
 206   2.0000      -0.402841       -10.9619
 207   2.0000      -0.396641       -10.7932
 208   2.0000      -0.395367       -10.7585
 209   2.0000      -0.392709       -10.6861
 210   2.0000      -0.386732       -10.5235
 211   2.0000      -0.384097       -10.4518
 212   2.0000      -0.376888       -10.2556
 213   2.0000      -0.371406       -10.1065
 214   2.0000      -0.367149        -9.9906
 215   2.0000      -0.359221        -9.7749
 216   2.0000      -0.355727        -9.6798
 217   2.0000      -0.352838        -9.6012
 218   2.0000      -0.347259        -9.4494
 219   2.0000      -0.331259        -9.0140
 220   2.0000      -0.328251        -8.9322
 221   2.0000      -0.321553        -8.7499
 222   2.0000      -0.313502        -8.5308
 223   2.0000      -0.308793        -8.4027
 224   2.0000      -0.295301        -8.0355
 225   2.0000      -0.289915        -7.8890
 226   2.0000      -0.281225        -7.6525
 227   2.0000      -0.243129        -6.6159
 228   0.0000      -0.132393        -3.6026
 229   0.0000      -0.086900        -2.3647
 230   0.0000      -0.082215        -2.2372
 231   0.0000      -0.053770        -1.4632
 232   0.0000      -0.050816        -1.3828

MULLIKEN ATOMIC CHARGES
-----------------------
   0 C :    0.287233
   1 C :   -0.355064
   2 C :   -0.178861
   3 N :    0.148029
   4 C :   -0.165219
   5 N :    0.154742
   6 C :    0.032988
   7 C :    0.010626
   8 C :   -0.080951
   9 C :    0.094954
  10 C :    0.093057
  11 C :   -0.080417
  12 C :   -0.018727
  13 C :    0.036661
  14 C :    0.035162
  15 C :   -0.015070
  16 C :    0.136520
  17 O :   -0.145774
  18 C :   -0.132188
  19 C :    0.055784
  20 C :   -0.191235
  21 C :    0.036463
  22 C :    0.001177
  23 C :   -0.276099
  24 Si:    0.580202
  25 C :    0.187392
  26 C :    0.016097
  27 C :   -0.067944
  28 N :    0.019733
  29 C :    0.153103
  30 C :    0.181465
  31 N :   -0.114775
  32 F :   -0.135345
  33 F :   -0.136931
  34 C :    0.187286
  35 C :    0.055499
  36 C :   -0.002576
  37 N :   -0.276583
  38 S :    0.563588
  39 N :   -0.364450
  40 C :   -0.283005
  41 C :   -0.004839
  42 C :    0.036060
  43 C :   -0.185784
  44 Si:    0.549752
  45 C :    0.012701
  46 C :   -0.067247
  47 C :    0.323453
  48 C :   -0.367133
  49 C :   -0.186744
  50 N :    0.139962
  51 C :   -0.192485
  52 N :    0.149949
  53 C :    0.046327
  54 C :    0.005316
  55 C :    0.151353
  56 O :   -0.161107
  57 C :   -0.087865
  58 C :    0.099278
  59 C :    0.095961
  60 C :   -0.084643
  61 C :   -0.019815
  62 C :    0.034392
  63 C :    0.037335
  64 C :   -0.019588
  65 H :   -0.012621
  66 H :   -0.007553
  67 H :   -0.010834
  68 H :   -0.005481
  69 H :   -0.005533
  70 H :   -0.017304
  71 H :    0.028243
  72 H :   -0.003429
  73 H :    0.005112
  74 H :   -0.058173
  75 H :   -0.077359
  76 H :    0.007323
  77 H :    0.017769
  78 H :   -0.075063
  79 H :   -0.060719
  80 H :   -0.002611
  81 H :   -0.017214
  82 H :   -0.010513
  83 H :   -0.010128
  84 H :   -0.006823
  85 H :   -0.008429
  86 H :   -0.019797
Sum of atomic charges:   -0.0000000

LOEWDIN ATOMIC CHARGES
----------------------
   0 C :    0.072536
   1 C :   -0.143401
   2 C :   -0.019127
   3 N :   -0.057023
   4 C :   -0.007370
   5 N :   -0.053732
   6 C :   -0.023963
   7 C :   -0.056250
   8 C :    0.031348
   9 C :   -0.008832
  10 C :   -0.006244
  11 C :    0.016084
  12 C :   -0.006431
  13 C :   -0.013680
  14 C :   -0.013166
  15 C :   -0.009675
  16 C :    0.081536
  17 O :   -0.146004
  18 C :   -0.094538
  19 C :    0.066435
  20 C :   -0.159109
  21 C :    0.002873
  22 C :    0.022728
  23 C :   -0.158279
  24 Si:    0.533830
  25 C :   -0.017278
  26 C :   -0.004076
  27 C :   -0.002085
  28 N :   -0.022766
  29 C :    0.063230
  30 C :    0.074373
  31 N :   -0.020878
  32 F :   -0.020738
  33 F :   -0.025862
  34 C :   -0.042169
  35 C :   -0.031024
  36 C :   -0.042277
  37 N :   -0.268912
  38 S :    0.684639
  39 N :   -0.270537
  40 C :   -0.143465
  41 C :   -0.003170
  42 C :    0.048313
  43 C :   -0.194483
  44 Si:    0.544207
  45 C :    0.056619
  46 C :   -0.096299
  47 C :    0.077057
  48 C :   -0.147337
  49 C :   -0.016138
  50 N :   -0.062438
  51 C :   -0.024913
  52 N :   -0.060135
  53 C :   -0.025949
  54 C :   -0.053346
  55 C :    0.085475
  56 O :   -0.147071
  57 C :    0.027979
  58 C :   -0.008939
  59 C :   -0.007226
  60 C :    0.017383
  61 C :   -0.005959
  62 C :   -0.016252
  63 C :   -0.014473
  64 C :   -0.011394
  65 H :    0.039157
  66 H :    0.038401
  67 H :    0.034230
  68 H :    0.032921
  69 H :    0.032603
  70 H :    0.031854
  71 H :    0.046953
  72 H :    0.026375
  73 H :    0.028978
  74 H :   -0.080106
  75 H :   -0.086840
  76 H :    0.026697
  77 H :    0.028883
  78 H :   -0.086700
  79 H :   -0.079980
  80 H :    0.040182
  81 H :    0.037069
  82 H :    0.038303
  83 H :    0.034290
  84 H :    0.032175
  85 H :    0.031495
  86 H :    0.030828

  Mayer bond orders larger than 0.100000
B(  0-C ,  1-C ) :   1.6469 B(  0-C ,  6-C ) :   0.9991 B(  0-C , 18-C ) :   1.0326
B(  1-C ,  2-C ) :   1.1307 B(  1-C ,  4-C ) :   1.1793 B(  2-C ,  3-N ) :   2.9805
B(  4-C ,  5-N ) :   2.9468 B(  6-C ,  7-C ) :   1.2146 B(  6-C , 11-C ) :   1.4568
B(  7-C ,  8-C ) :   1.4767 B(  7-C , 16-C ) :   0.9182 B(  8-C ,  9-C ) :   1.1834
B(  8-C , 65-H ) :   1.0151 B(  9-C , 10-C ) :   1.2569 B(  9-C , 15-C ) :   1.2448
B( 10-C , 11-C ) :   1.2053 B( 10-C , 12-C ) :   1.2409 B( 11-C , 66-H ) :   0.9917
B( 12-C , 13-C ) :   1.4906 B( 12-C , 67-H ) :   0.9968 B( 13-C , 14-C ) :   1.2603
B( 13-C , 68-H ) :   0.9884 B( 14-C , 15-C ) :   1.4890 B( 14-C , 69-H ) :   0.9889
B( 15-C , 70-H ) :   0.9972 B( 16-C , 17-O ) :   2.2678 B( 16-C , 18-C ) :   0.9381
B( 18-C , 19-C ) :   1.6801 B( 19-C , 20-C ) :   1.1006 B( 19-C , 71-H ) :   0.9289
B( 20-C , 21-C ) :   1.6428 B( 20-C , 24-Si) :   0.8053 B( 21-C , 22-C ) :   1.1187
B( 21-C , 72-H ) :   0.9965 B( 22-C , 23-C ) :   1.5935 B( 22-C , 73-H ) :   0.9887
B( 23-C , 24-Si) :   0.8736 B( 23-C , 25-C ) :   1.2364 B( 24-Si, 31-N ) :   0.1599
B( 24-Si, 74-H ) :   0.9644 B( 24-Si, 75-H ) :   0.9472 B( 25-C , 26-C ) :   1.2702
B( 25-C , 34-C ) :   0.1263 B( 25-C , 36-C ) :   1.1410 B( 26-C , 27-C ) :   1.1274
B( 26-C , 31-N ) :   1.3271 B( 27-C , 28-N ) :   1.4362 B( 27-C , 34-C ) :   1.2403
B( 28-N , 29-C ) :   1.6595 B( 29-C , 30-C ) :   1.1170 B( 29-C , 33-F ) :   1.1807
B( 30-C , 31-N ) :   1.6038 B( 30-C , 32-F ) :   1.1734 B( 34-C , 35-C ) :   1.1796
B( 34-C , 40-C ) :   1.2094 B( 35-C , 36-C ) :   1.1111 B( 35-C , 39-N ) :   1.4200
B( 36-C , 37-N ) :   1.5184 B( 37-N , 38-S ) :   1.2914 B( 37-N , 39-N ) :   0.1524
B( 38-S , 39-N ) :   1.2611 B( 39-N , 44-Si) :   0.1207 B( 40-C , 41-C ) :   1.5531
B( 40-C , 44-Si) :   0.8847 B( 41-C , 42-C ) :   1.1344 B( 41-C , 76-H ) :   0.9910
B( 42-C , 43-C ) :   1.5328 B( 42-C , 77-H ) :   0.9755 B( 43-C , 44-Si) :   0.8713
B( 43-C , 45-C ) :   1.2608 B( 44-Si, 78-H ) :   0.9589 B( 44-Si, 79-H ) :   0.9612
B( 45-C , 46-C ) :   1.5055 B( 45-C , 80-H ) :   0.9320 B( 46-C , 47-C ) :   1.0969
B( 46-C , 55-C ) :   0.9398 B( 47-C , 48-C ) :   1.5979 B( 47-C , 53-C ) :   0.9749
B( 48-C , 49-C ) :   1.1566 B( 48-C , 51-C ) :   1.1411 B( 49-C , 50-N ) :   2.9569
B( 51-C , 52-N ) :   2.9789 B( 53-C , 54-C ) :   1.2173 B( 53-C , 60-C ) :   1.4520
B( 54-C , 55-C ) :   0.9514 B( 54-C , 57-C ) :   1.4719 B( 55-C , 56-O ) :   2.1656
B( 57-C , 58-C ) :   1.1753 B( 57-C , 81-H ) :   1.0158 B( 58-C , 59-C ) :   1.2583
B( 58-C , 64-C ) :   1.2442 B( 59-C , 60-C ) :   1.2041 B( 59-C , 61-C ) :   1.2415
B( 60-C , 82-H ) :   0.9883 B( 61-C , 62-C ) :   1.4881 B( 61-C , 83-H ) :   0.9965
B( 62-C , 63-C ) :   1.2611 B( 62-C , 84-H ) :   0.9882 B( 63-C , 64-C ) :   1.4893
B( 63-C , 85-H ) :   0.9880 B( 64-C , 86-H ) :   0.9969

-----------------------------------------------------------------------------
         ABSORPTION SPECTRUM VIA TRANSITION ELECTRIC DIPOLE MOMENTS
-----------------------------------------------------------------------------
State   Energy  Wavelength   fosc         T2         TX        TY        TZ
        (cm-1)    (nm)                  (au**2)     (au)      (au)      (au)
-----------------------------------------------------------------------------
   0    9373.4   1066.9   0.890105462  31.26231  -3.59933   4.00650   1.50171
   1   18071.0    553.4   0.055005772   1.00208   0.26233  -0.62313  -0.73822
   2   18638.2    536.5   0.459982728   8.12480   1.46287  -2.30118  -0.83027
   3   19495.3    512.9   0.309121371   5.22006   1.65032  -1.53967   0.35486
   4   22357.3    447.3   0.014232940   0.20958  -0.39571   0.02412   0.22894
   5   23182.4    431.4   0.005981746   0.08495   0.09550   0.26517   0.07425
   6   24916.4    401.3   0.001853427   0.02449  -0.03244  -0.08456  -0.12761
   7   25349.4    394.5   0.051248567   0.66556  -0.35083   0.59369   0.43591
   8   25827.0    387.2   0.004730656   0.06030   0.24292  -0.02878  -0.02146
   9   26354.4    379.4   0.004419916   0.05521   0.04217  -0.09515   0.21067
  10   26881.2    372.0   0.100144335   1.22646   0.77293  -0.23807  -0.75655
  11   27458.9    364.2   0.076982270   0.92296   0.54714  -0.53964   0.57652
  12   27798.8    359.7   0.215938717   2.55729  -1.05366   0.86597   0.83498
  13   27874.2    358.8   0.030719925   0.36282  -0.45588   0.39369  -0.00147
  14   28421.6    351.8   0.049544221   0.57388   0.22480  -0.56388  -0.45320
  15   29101.5    343.6   0.045026398   0.50936  -0.58612   0.25373  -0.31851
  16   29398.5    340.2   0.174195388   1.95069   0.69898   0.36083  -1.15409
  17   29653.6    337.2   0.027857205   0.30927  -0.03188  -0.55030   0.07364
  18   29798.8    335.6   0.149921805   1.65631  -0.80319   0.99673  -0.13315
  19   30547.2    327.4   0.119514402   1.28802  -0.44102   0.67840   0.79580
  20   31066.0    321.9   0.142864680   1.51396   0.59388  -0.56454  -0.91791
  21   31420.6    318.3   0.050139473   0.52534  -0.29771   0.41633   0.51320
  22   31718.2    315.3   0.003573985   0.03710  -0.08045   0.17496  -0.00351
  23   32192.3    310.6   0.026167982   0.26760   0.25433  -0.36618  -0.26237
  24   32487.7    307.8   0.066610431   0.67499   0.12146  -0.25012   0.77310
  25   32979.0    303.2   0.043153107   0.43078   0.06566  -0.40539   0.51198
  26   33125.0    301.9   0.081683281   0.81181   0.86470  -0.25316  -0.00294
  27   33433.0    299.1   0.002798514   0.02756   0.14056   0.08234  -0.03193
  28   34317.2    291.4   0.020654884   0.19815  -0.22750   0.08918   0.37207
  29   34647.9    288.6   0.003498858   0.03324   0.14648   0.04552   0.09857
  30   34833.9    287.1   0.086538781   0.81787   0.41847   0.13246  -0.79070
  31   35106.1    284.9   0.597660897   5.60465  -0.70262   0.25538   2.24628
  32   35534.7    281.4   0.288078409   2.66891   1.00625  -0.67285  -1.09710
  33   35658.4    280.4   0.624607289   5.76661   1.83188  -1.45807  -0.53371
  34   36148.1    276.6   0.048930751   0.44563  -0.03383   0.28455   0.60292
  35   36290.6    275.6   0.022662071   0.20558  -0.28183  -0.14307   0.32509
  36   36535.3    273.7   0.173587210   1.56416   0.09051   0.72509  -1.01499
  37   37095.1    269.6   0.058674880   0.52073  -0.44456   0.56338  -0.07551
  38   37584.6    266.1   0.014803613   0.12967  -0.21507   0.06108   0.28228
  39   37694.3    265.3   0.007313774   0.06388  -0.00403   0.14548   0.20663
  40   37759.8    264.8   0.145727231   1.27054   0.34837   0.23321  -1.04632
  41   38029.9    263.0   0.014175887   0.12272  -0.01480   0.24994  -0.24501
  42   38271.2    261.3   0.001702488   0.01464   0.01944  -0.11880  -0.01241
  43   38831.3    257.5   0.023164229   0.19639   0.30964  -0.31684  -0.01079
  44   39127.6    255.6   0.038334909   0.32254   0.18799  -0.34494   0.41015
  45   39863.4    250.9   0.108727485   0.89793  -0.04273   0.02503  -0.94630
  46   39925.6    250.5   0.040831995   0.33669   0.21484  -0.18273  -0.50709
  47   40119.0    249.3   0.048654421   0.39925   0.19291   0.57395  -0.18062
  48   40321.7    248.0   0.090297968   0.73725  -0.21837   0.78901  -0.25890

FINAL SINGLE POINT ENERGY     -3680.088223748461

DIPOLE MOMENT
-------------
                                X             Y             Z
Electronic contribution:     -0.44964      -5.40986       8.82363
Nuclear contribution   :      2.75860       4.38660      -7.77481
                        -----------------------------------------
Total Dipole Moment    :      2.30896      -1.02326       1.04882
                        -----------------------------------------
Magnitude (a.u.)       :      2.73466
Magnitude (Debye)      :      6.95096

Rotational constants in cm-1:     0.003582     0.000284     0.000267
Rotational constants in MHz :   107.380098     8.510235     8.011813

                             ****ORCA TERMINATED NORMALLY****
TOTAL RUN TIME: 0 days 0 hours 7 minutes 56 seconds 541 msec
