                         Program Version 4.2.0 -  RELEASE  -
|  1> # ORCA input file
|  2> # SCF done       -191.638179361371          0.000824418173
|  3> ! CAM-B3LYP def2-SVP def2/J RIJCOSX Grid4 TightSCF
|  4> %maxcore 5000
|  5> %tddft
|  6>     Mode sTDDFT
|  7>     Ethresh 5.0
|  8>     maxcore 5000
|  9> end
| 10>
| 11> %pal
| 12>   nprocs 6
| 13>   end
| 14> * xyz 0 1
| 15>    C       -5.97166        -2.29316         3.83003
| 16>    O       -5.76522        -3.49101         3.87592
| 17>    C       -5.74472        -1.32748         4.92592
| 18>    C       -6.10410        -0.03896         4.49412
| 19>    C       -5.96593         1.03376         5.36298
| 20>    C       -5.47823         0.80118         6.64070
| 21>    C       -5.13447        -0.48157         7.04515
| 22>    C       -5.26053        -1.57121         6.19368
| 23>   Br       -4.47584        -0.75094         8.80657
| 24>    C       -6.58473        -0.12261         3.11480
| 25>    C       -7.06508         0.93469         2.38447
| 26>    C       -7.13675         2.25942         2.86456
| 27>    N       -7.22366         3.35638         3.19171
| 28>    C       -7.56595         0.86995         1.06774
| 29>    N       -7.98970         0.90908         0.00038
| 30>    C       -6.47978        -1.50756         2.70145
| 31>    C       -6.78052        -1.99629         1.45284
| 32>    C       -6.72970        -3.29886         0.94220
| 33>    C       -7.07911        -3.56700        -0.38966
| 34>    C       -6.97579        -4.90833        -0.69225
| 35>    C       -6.54391        -5.69771         0.41402
| 36>    S       -6.26155        -4.75358         1.82404
| 37>    C       -6.49126        -7.01060        -0.04150
| 38>    C       -6.88805        -6.99010        -1.40542
| 39>    N       -7.18798        -5.70925        -1.78471
| 40>    C       -7.58961        -5.26654        -3.09102
| 41>    C       -6.88473        -8.24282        -2.00258
| 42>    C       -6.49253        -9.23639        -1.11404
| 43>    S       -6.12011        -8.60874         0.48880
| 44>    C       -6.37526       -10.63464        -1.35210
| 45>    C       -6.62772       -11.27156        -2.59352
| 46>    C       -6.51359       -12.69917        -2.77039
| 47>    N       -6.76145       -13.22475        -3.98882
| 48>    C       -7.09943       -12.45829        -4.97268
| 49>    C       -7.21983       -11.06117        -4.79724
| 50>    N       -6.98816       -10.51309        -3.65016
| 51>    F       -7.57345       -10.25678        -5.80156
| 52>    F       -7.32524       -13.03811        -6.15306
| 53>    C       -6.14905       -13.57084        -1.71374
| 54>    C       -5.87857       -12.92903        -0.48485
| 55>    C       -5.98692       -11.50580        -0.30953
| 56>    N       -5.68447       -11.14128         0.93633
| 57>    S       -5.30454       -12.44002         1.79678
| 58>    N       -5.50234       -13.53464         0.64150
| 59>    C       -6.05648       -14.98748        -1.81957
| 60>    C       -6.30974       -15.78431        -2.92765
| 61>    C       -6.13178       -17.13230        -2.64580
| 62>    C       -5.73550       -17.38192        -1.30464
| 63>    S       -5.58422       -15.92039        -0.40185
| 64>    C       -5.61459       -18.76035        -1.17929
| 65>    C       -5.94209       -19.31676        -2.44796
| 66>    N       -6.23940       -18.31327        -3.32949
| 67>    C       -6.68444       -18.49329        -4.68358
| 68>    C       -5.90836       -20.70166        -2.47493
| 69>    C       -5.55821       -21.23352        -1.23737
| 70>    S       -5.22752       -19.98098        -0.03747
| 71>    C       -5.38520       -22.57272        -0.85054
| 72>    C       -5.79102       -23.73033        -1.45802
| 73>    C       -5.10910       -24.99678        -1.08659
| 74>    O       -4.35131       -25.17241        -0.16120
| 75>    C       -5.51890       -25.97547        -2.12004
| 76>    C       -6.46296       -25.38119        -2.97646
| 77>    C       -6.74840       -24.02847        -2.49490
| 78>    C       -7.87756       -23.31424        -2.81082
| 79>    C       -8.80625       -23.70304        -3.79682
| 80>    N       -9.58177       -23.95016        -4.60682
| 81>    C       -8.28994       -22.14611        -2.14092
| 82>    N       -8.69592       -21.20800        -1.61795
| 83>    C       -6.97067       -26.10264        -4.04609
| 84>    C       -6.53514       -27.40536        -4.23867
| 85>    C       -5.61356       -27.97791        -3.37226
| 86>    C       -5.08671       -27.27288        -2.29770
| 87>   Br       -5.05809       -29.77047        -3.66835
| 88>    H       -6.22440         2.03837         5.07212
| 89>    H       -5.36473         1.62533         7.32809
| 90>    H       -4.99426        -2.57066         6.50074
| 91>    H       -7.11321        -1.27044         0.72056
| 92>    H       -7.38763        -2.79086        -1.06680
| 93>    H       -7.90211        -6.12652        -3.67912
| 94>    H       -6.76457        -4.76561        -3.60518
| 95>    H       -8.42440        -4.56931        -3.00674
| 96>    H       -7.14458        -8.45781        -3.02015
| 97>    H       -6.60965       -15.37075        -3.87012
| 98>    H       -5.95475       -19.07928        -5.24637
| 99>    H       -6.79615       -17.51948        -5.15401
|100>    H       -7.64571       -19.01301        -4.70560
|101>    H       -6.08100       -21.30486        -3.34754
|102>    H       -4.77776       -22.72847         0.03658
|103>    H       -7.68308       -25.67404        -4.73210
|104>    H       -6.91638       -27.98102        -5.06805
|105>    H       -4.36920       -27.71392        -1.62340
|106> *
|107>
|108>                          ****END OF INPUT****

CARTESIAN COORDINATES (ANGSTROEM)
---------------------------------
  C     -5.971660   -2.293160    3.830030
  O     -5.765220   -3.491010    3.875920
  C     -5.744720   -1.327480    4.925920
  C     -6.104100   -0.038960    4.494120
  C     -5.965930    1.033760    5.362980
  C     -5.478230    0.801180    6.640700
  C     -5.134470   -0.481570    7.045150
  C     -5.260530   -1.571210    6.193680
  Br    -4.475840   -0.750940    8.806570
  C     -6.584730   -0.122610    3.114800
  C     -7.065080    0.934690    2.384470
  C     -7.136750    2.259420    2.864560
  N     -7.223660    3.356380    3.191710
  C     -7.565950    0.869950    1.067740
  N     -7.989700    0.909080    0.000380
  C     -6.479780   -1.507560    2.701450
  C     -6.780520   -1.996290    1.452840
  C     -6.729700   -3.298860    0.942200
  C     -7.079110   -3.567000   -0.389660
  C     -6.975790   -4.908330   -0.692250
  C     -6.543910   -5.697710    0.414020
  S     -6.261550   -4.753580    1.824040
  C     -6.491260   -7.010600   -0.041500
  C     -6.888050   -6.990100   -1.405420
  N     -7.187980   -5.709250   -1.784710
  C     -7.589610   -5.266540   -3.091020
  C     -6.884730   -8.242820   -2.002580
  C     -6.492530   -9.236390   -1.114040
  S     -6.120110   -8.608740    0.488800
  C     -6.375260  -10.634640   -1.352100
  C     -6.627720  -11.271560   -2.593520
  C     -6.513590  -12.699170   -2.770390
  N     -6.761450  -13.224750   -3.988820
  C     -7.099430  -12.458290   -4.972680
  C     -7.219830  -11.061170   -4.797240
  N     -6.988160  -10.513090   -3.650160
  F     -7.573450  -10.256780   -5.801560
  F     -7.325240  -13.038110   -6.153060
  C     -6.149050  -13.570840   -1.713740
  C     -5.878570  -12.929030   -0.484850
  C     -5.986920  -11.505800   -0.309530
  N     -5.684470  -11.141280    0.936330
  S     -5.304540  -12.440020    1.796780
  N     -5.502340  -13.534640    0.641500
  C     -6.056480  -14.987480   -1.819570
  C     -6.309740  -15.784310   -2.927650
  C     -6.131780  -17.132300   -2.645800
  C     -5.735500  -17.381920   -1.304640
  S     -5.584220  -15.920390   -0.401850
  C     -5.614590  -18.760350   -1.179290
  C     -5.942090  -19.316760   -2.447960
  N     -6.239400  -18.313270   -3.329490
  C     -6.684440  -18.493290   -4.683580
  C     -5.908360  -20.701660   -2.474930
  C     -5.558210  -21.233520   -1.237370
  S     -5.227520  -19.980980   -0.037470
  C     -5.385200  -22.572720   -0.850540
  C     -5.791020  -23.730330   -1.458020
  C     -5.109100  -24.996780   -1.086590
  O     -4.351310  -25.172410   -0.161200
  C     -5.518900  -25.975470   -2.120040
  C     -6.462960  -25.381190   -2.976460
  C     -6.748400  -24.028470   -2.494900
  C     -7.877560  -23.314240   -2.810820
  C     -8.806250  -23.703040   -3.796820
  N     -9.581770  -23.950160   -4.606820
  C     -8.289940  -22.146110   -2.140920
  N     -8.695920  -21.208000   -1.617950
  C     -6.970670  -26.102640   -4.046090
  C     -6.535140  -27.405360   -4.238670
  C     -5.613560  -27.977910   -3.372260
  C     -5.086710  -27.272880   -2.297700
  Br    -5.058090  -29.770470   -3.668350
  H     -6.224400    2.038370    5.072120
  H     -5.364730    1.625330    7.328090
  H     -4.994260   -2.570660    6.500740
  H     -7.113210   -1.270440    0.720560
  H     -7.387630   -2.790860   -1.066800
  H     -7.902110   -6.126520   -3.679120
  H     -6.764570   -4.765610   -3.605180
  H     -8.424400   -4.569310   -3.006740
  H     -7.144580   -8.457810   -3.020150
  H     -6.609650  -15.370750   -3.870120
  H     -5.954750  -19.079280   -5.246370
  H     -6.796150  -17.519480   -5.154010
  H     -7.645710  -19.013010   -4.705600
  H     -6.081000  -21.304860   -3.347540
  H     -4.777760  -22.728470    0.036580
  H     -7.683080  -25.674040   -4.732100
  H     -6.916380  -27.981020   -5.068050
  H     -4.369200  -27.713920   -1.623400

 Total Charge           Charge          ....    0
 Multiplicity           Mult            ....    1
 Number of Electrons    NEL             ....  584
 Basis Dimension        Dim             .... 1168

ORBITAL ENERGIES
----------------

  NO   OCC          E(Eh)            E(eV)
   0   2.0000    -482.870872    -13139.5844
   1   2.0000    -482.869179    -13139.5384
   2   2.0000     -89.050016     -2423.1741
   3   2.0000     -88.967578     -2420.9309
   4   2.0000     -88.960222     -2420.7307
   5   2.0000     -88.959649     -2420.7151
   6   2.0000     -88.958965     -2420.6965
   7   2.0000     -62.548587     -1702.0336
   8   2.0000     -62.546884     -1701.9872
   9   2.0000     -56.382419     -1534.2436
  10   2.0000     -56.380713     -1534.1972
  11   2.0000     -56.379899     -1534.1750
  12   2.0000     -56.379898     -1534.1750
  13   2.0000     -56.378203     -1534.1289
  14   2.0000     -56.378192     -1534.1286
  15   2.0000     -24.824060      -675.4970
  16   2.0000     -24.823849      -675.4913
  17   2.0000     -19.218741      -522.9685
  18   2.0000     -19.214967      -522.8658
  19   2.0000     -14.476107      -393.9149
  20   2.0000     -14.473870      -393.8540
  21   2.0000     -14.462537      -393.5456
  22   2.0000     -14.462368      -393.5410
  23   2.0000     -14.457917      -393.4199
  24   2.0000     -14.457678      -393.4134
  25   2.0000     -14.415791      -392.2736
  26   2.0000     -14.415215      -392.2579
  27   2.0000     -14.415140      -392.2559
  28   2.0000     -14.410265      -392.1233
  29   2.0000     -10.438859      -284.0558
  30   2.0000     -10.438526      -284.0467
  31   2.0000     -10.366927      -282.0984
  32   2.0000     -10.365711      -282.0653
  33   2.0000     -10.354424      -281.7582
  34   2.0000     -10.354142      -281.7505
  35   2.0000     -10.345016      -281.5022
  36   2.0000     -10.344744      -281.4948
  37   2.0000     -10.343202      -281.4528
  38   2.0000     -10.342663      -281.4382
  39   2.0000     -10.341749      -281.4133
  40   2.0000     -10.341006      -281.3931
  41   2.0000     -10.338629      -281.3284
  42   2.0000     -10.337734      -281.3041
  43   2.0000     -10.327605      -281.0284
  44   2.0000     -10.327553      -281.0270
  45   2.0000     -10.322102      -280.8787
  46   2.0000     -10.321757      -280.8693
  47   2.0000     -10.321521      -280.8629
  48   2.0000     -10.320700      -280.8405
  49   2.0000     -10.320549      -280.8364
  50   2.0000     -10.320478      -280.8345
  51   2.0000     -10.320208      -280.8271
  52   2.0000     -10.320169      -280.8261
  53   2.0000     -10.319118      -280.7975
  54   2.0000     -10.318518      -280.7812
  55   2.0000     -10.318486      -280.7803
  56   2.0000     -10.318428      -280.7787
  57   2.0000     -10.317329      -280.7488
  58   2.0000     -10.316704      -280.7318
  59   2.0000     -10.315017      -280.6859
  60   2.0000     -10.313882      -280.6550
  61   2.0000     -10.312603      -280.6202
  62   2.0000     -10.309374      -280.5323
  63   2.0000     -10.305792      -280.4349
  64   2.0000     -10.303861      -280.3823
  65   2.0000     -10.303775      -280.3800
  66   2.0000     -10.302950      -280.3575
  67   2.0000     -10.302607      -280.3482
  68   2.0000     -10.301540      -280.3192
  69   2.0000     -10.300546      -280.2921
  70   2.0000     -10.300272      -280.2847
  71   2.0000     -10.299690      -280.2688
  72   2.0000     -10.299461      -280.2626
  73   2.0000     -10.298255      -280.2298
  74   2.0000     -10.297479      -280.2087
  75   2.0000     -10.297222      -280.2017
  76   2.0000     -10.294693      -280.1328
  77   2.0000     -10.293422      -280.0983
  78   2.0000     -10.290904      -280.0297
  79   2.0000     -10.285893      -279.8934
  80   2.0000     -10.285053      -279.8705
  81   2.0000      -8.777868      -238.8579
  82   2.0000      -8.776160      -238.8115
  83   2.0000      -8.140877      -221.5245
  84   2.0000      -8.062554      -219.3932
  85   2.0000      -8.053267      -219.1405
  86   2.0000      -8.053097      -219.1359
  87   2.0000      -8.052458      -219.1185
  88   2.0000      -6.613694      -179.9678
  89   2.0000      -6.611975      -179.9210
  90   2.0000      -6.599972      -179.5944
  91   2.0000      -6.599572      -179.5835
  92   2.0000      -6.598286      -179.5485
  93   2.0000      -6.597859      -179.5369
  94   2.0000      -6.111984      -166.3155
  95   2.0000      -6.104271      -166.1057
  96   2.0000      -6.103597      -166.0873
  97   2.0000      -6.032159      -164.1434
  98   2.0000      -6.028117      -164.0334
  99   2.0000      -6.023981      -163.9209
 100   2.0000      -6.023151      -163.8983
 101   2.0000      -6.022925      -163.8921
 102   2.0000      -6.022295      -163.8750
 103   2.0000      -6.018676      -163.7765
 104   2.0000      -6.018347      -163.7675
 105   2.0000      -6.017842      -163.7538
 106   2.0000      -6.014561      -163.6645
 107   2.0000      -6.014545      -163.6641
 108   2.0000      -6.013869      -163.6457
 109   2.0000      -2.729639       -74.2773
 110   2.0000      -2.727915       -74.2303
 111   2.0000      -2.725874       -74.1748
 112   2.0000      -2.725558       -74.1662
 113   2.0000      -2.724169       -74.1284
 114   2.0000      -2.723843       -74.1195
 115   2.0000      -2.714660       -73.8696
 116   2.0000      -2.714650       -73.8694
 117   2.0000      -2.712965       -73.8235
 118   2.0000      -2.712961       -73.8234
 119   2.0000      -1.350425       -36.7469
 120   2.0000      -1.336938       -36.3799
 121   2.0000      -1.147813       -31.2336
 122   2.0000      -1.134639       -30.8751
 123   2.0000      -1.130497       -30.7624
 124   2.0000      -1.121425       -30.5155
 125   2.0000      -1.104671       -30.0596
 126   2.0000      -1.102053       -29.9884
 127   2.0000      -1.045918       -28.4609
 128   2.0000      -1.019794       -27.7500
 129   2.0000      -1.016796       -27.6684
 130   2.0000      -1.007831       -27.4245
 131   2.0000      -1.000627       -27.2284
 132   2.0000      -0.998988       -27.1838
 133   2.0000      -0.995310       -27.0838
 134   2.0000      -0.993916       -27.0458
 135   2.0000      -0.991079       -26.9686
 136   2.0000      -0.987174       -26.8624
 137   2.0000      -0.982949       -26.7474
 138   2.0000      -0.975717       -26.5506
 139   2.0000      -0.963867       -26.2281
 140   2.0000      -0.961809       -26.1722
 141   2.0000      -0.959628       -26.1128
 142   2.0000      -0.914824       -24.8936
 143   2.0000      -0.910445       -24.7745
 144   2.0000      -0.908346       -24.7174
 145   2.0000      -0.906057       -24.6551
 146   2.0000      -0.897840       -24.4315
 147   2.0000      -0.893356       -24.3095
 148   2.0000      -0.889096       -24.1935
 149   2.0000      -0.880800       -23.9678
 150   2.0000      -0.869381       -23.6571
 151   2.0000      -0.863107       -23.4863
 152   2.0000      -0.852627       -23.2012
 153   2.0000      -0.851122       -23.1602
 154   2.0000      -0.850091       -23.1321
 155   2.0000      -0.846445       -23.0329
 156   2.0000      -0.841028       -22.8855
 157   2.0000      -0.839997       -22.8575
 158   2.0000      -0.823997       -22.4221
 159   2.0000      -0.809795       -22.0356
 160   2.0000      -0.801366       -21.8063
 161   2.0000      -0.794046       -21.6071
 162   2.0000      -0.786618       -21.4050
 163   2.0000      -0.769130       -20.9291
 164   2.0000      -0.766973       -20.8704
 165   2.0000      -0.766368       -20.8539
 166   2.0000      -0.765732       -20.8366
 167   2.0000      -0.759102       -20.6562
 168   2.0000      -0.754273       -20.5248
 169   2.0000      -0.732967       -19.9450
 170   2.0000      -0.716733       -19.5033
 171   2.0000      -0.707632       -19.2557
 172   2.0000      -0.698199       -18.9990
 173   2.0000      -0.693282       -18.8652
 174   2.0000      -0.689800       -18.7704
 175   2.0000      -0.686375       -18.6772
 176   2.0000      -0.684298       -18.6207
 177   2.0000      -0.682354       -18.5678
 178   2.0000      -0.677692       -18.4409
 179   2.0000      -0.671690       -18.2776
 180   2.0000      -0.659543       -17.9471
 181   2.0000      -0.658745       -17.9254
 182   2.0000      -0.651842       -17.7375
 183   2.0000      -0.648857       -17.6563
 184   2.0000      -0.646969       -17.6049
 185   2.0000      -0.643370       -17.5070
 186   2.0000      -0.630724       -17.1629
 187   2.0000      -0.627635       -17.0788
 188   2.0000      -0.626448       -17.0465
 189   2.0000      -0.618566       -16.8320
 190   2.0000      -0.615671       -16.7532
 191   2.0000      -0.612959       -16.6795
 192   2.0000      -0.609168       -16.5763
 193   2.0000      -0.606756       -16.5107
 194   2.0000      -0.595717       -16.2103
 195   2.0000      -0.593848       -16.1594
 196   2.0000      -0.587842       -15.9960
 197   2.0000      -0.583032       -15.8651
 198   2.0000      -0.578859       -15.7516
 199   2.0000      -0.576787       -15.6952
 200   2.0000      -0.575706       -15.6658
 201   2.0000      -0.573968       -15.6185
 202   2.0000      -0.571690       -15.5565
 203   2.0000      -0.567651       -15.4466
 204   2.0000      -0.561100       -15.2683
 205   2.0000      -0.558242       -15.1905
 206   2.0000      -0.557582       -15.1726
 207   2.0000      -0.546637       -14.8747
 208   2.0000      -0.542925       -14.7737
 209   2.0000      -0.540616       -14.7109
 210   2.0000      -0.539121       -14.6702
 211   2.0000      -0.538221       -14.6457
 212   2.0000      -0.535805       -14.5800
 213   2.0000      -0.535125       -14.5615
 214   2.0000      -0.533190       -14.5088
 215   2.0000      -0.527480       -14.3535
 216   2.0000      -0.526597       -14.3294
 217   2.0000      -0.523627       -14.2486
 218   2.0000      -0.521763       -14.1979
 219   2.0000      -0.520490       -14.1632
 220   2.0000      -0.518452       -14.1078
 221   2.0000      -0.515641       -14.0313
 222   2.0000      -0.509942       -13.8762
 223   2.0000      -0.506904       -13.7936
 224   2.0000      -0.504212       -13.7203
 225   2.0000      -0.499787       -13.5999
 226   2.0000      -0.498850       -13.5744
 227   2.0000      -0.497890       -13.5483
 228   2.0000      -0.496262       -13.5040
 229   2.0000      -0.494813       -13.4646
 230   2.0000      -0.489002       -13.3064
 231   2.0000      -0.488466       -13.2918
 232   2.0000      -0.483996       -13.1702
 233   2.0000      -0.482799       -13.1376
 234   2.0000      -0.480535       -13.0760
 235   2.0000      -0.478533       -13.0215
 236   2.0000      -0.477590       -12.9959
 237   2.0000      -0.474281       -12.9059
 238   2.0000      -0.469076       -12.7642
 239   2.0000      -0.465810       -12.6753
 240   2.0000      -0.464484       -12.6392
 241   2.0000      -0.462183       -12.5766
 242   2.0000      -0.461044       -12.5457
 243   2.0000      -0.456448       -12.4206
 244   2.0000      -0.452046       -12.3008
 245   2.0000      -0.451463       -12.2849
 246   2.0000      -0.449190       -12.2231
 247   2.0000      -0.448147       -12.1947
 248   2.0000      -0.447534       -12.1780
 249   2.0000      -0.443471       -12.0675
 250   2.0000      -0.442941       -12.0530
 251   2.0000      -0.441704       -12.0194
 252   2.0000      -0.440213       -11.9788
 253   2.0000      -0.433550       -11.7975
 254   2.0000      -0.431855       -11.7514
 255   2.0000      -0.427924       -11.6444
 256   2.0000      -0.426759       -11.6127
 257   2.0000      -0.425341       -11.5741
 258   2.0000      -0.423595       -11.5266
 259   2.0000      -0.422095       -11.4858
 260   2.0000      -0.419569       -11.4171
 261   2.0000      -0.412933       -11.2365
 262   2.0000      -0.412706       -11.2303
 263   2.0000      -0.410127       -11.1601
 264   2.0000      -0.409501       -11.1431
 265   2.0000      -0.408352       -11.1118
 266   2.0000      -0.402272       -10.9464
 267   2.0000      -0.391801       -10.6615
 268   2.0000      -0.391348       -10.6491
 269   2.0000      -0.390351       -10.6220
 270   2.0000      -0.375879       -10.2282
 271   2.0000      -0.371078       -10.0975
 272   2.0000      -0.366203        -9.9649
 273   2.0000      -0.365073        -9.9342
 274   2.0000      -0.364195        -9.9102
 275   2.0000      -0.363302        -9.8859
 276   2.0000      -0.350817        -9.5462
 277   2.0000      -0.349732        -9.5167
 278   2.0000      -0.348436        -9.4814
 279   2.0000      -0.347982        -9.4691
 280   2.0000      -0.337295        -9.1783
 281   2.0000      -0.336473        -9.1559
 282   2.0000      -0.333845        -9.0844
 283   2.0000      -0.332790        -9.0557
 284   2.0000      -0.328813        -8.9475
 285   2.0000      -0.309487        -8.4216
 286   2.0000      -0.306752        -8.3472
 287   2.0000      -0.297371        -8.0919
 288   2.0000      -0.281095        -7.6490
 289   2.0000      -0.278664        -7.5828
 290   2.0000      -0.262960        -7.1555
 291   2.0000      -0.231366        -6.2958
 292   0.0000      -0.125528        -3.4158
 293   0.0000      -0.087661        -2.3854
 294   0.0000      -0.083313        -2.2671
 295   0.0000      -0.061061        -1.6615
 296   0.0000      -0.060807        -1.6546

MULLIKEN ATOMIC CHARGES
-----------------------
   0 C :    0.159380
   1 O :   -0.172108
   2 C :   -0.019952
   3 C :    0.030639
   4 C :   -0.029838
   5 C :    0.047661
   6 C :   -0.001306
   7 C :   -0.016315
   8 Br:   -0.024150
   9 C :    0.323964
  10 C :   -0.360994
  11 C :   -0.187944
  12 N :    0.146874
  13 C :   -0.183939
  14 N :    0.138750
  15 C :   -0.096435
  16 C :   -0.023934
  17 C :   -0.053883
  18 C :   -0.121770
  19 C :    0.208610
  20 C :   -0.093867
  21 S :    0.200505
  22 C :   -0.101226
  23 C :    0.202557
  24 N :   -0.167236
  25 C :    0.123845
  26 C :   -0.121312
  27 C :   -0.172574
  28 S :    0.167645
  29 C :    0.195150
  30 C :   -0.070145
  31 C :   -0.075299
  32 N :   -0.004803
  33 C :    0.145651
  34 C :    0.145884
  35 N :   -0.006545
  36 F :   -0.146106
  37 F :   -0.146269
  38 C :    0.197326
  39 C :   -0.019523
  40 C :   -0.020507
  41 N :   -0.323672
  42 S :    0.565840
  43 N :   -0.323789
  44 C :   -0.171190
  45 C :   -0.120889
  46 C :    0.201880
  47 C :   -0.094513
  48 S :    0.165514
  49 C :   -0.093627
  50 C :    0.147582
  51 N :   -0.168472
  52 C :    0.123890
  53 C :   -0.032175
  54 C :   -0.116102
  55 S :    0.164410
  56 C :    0.082919
  57 C :   -0.146414
  58 C :    0.135471
  59 O :   -0.142179
  60 C :   -0.003712
  61 C :    0.016536
  62 C :    0.272166
  63 C :   -0.350030
  64 C :   -0.181217
  65 N :    0.149504
  66 C :   -0.209161
  67 N :    0.177720
  68 C :   -0.028529
  69 C :    0.048139
  70 C :   -0.004622
  71 C :   -0.017551
  72 Br:   -0.022793
  73 H :    0.006582
  74 H :    0.004088
  75 H :    0.000686
  76 H :    0.003978
  77 H :   -0.003119
  78 H :    0.044251
  79 H :    0.044421
  80 H :    0.043939
  81 H :   -0.007564
  82 H :   -0.004878
  83 H :    0.040962
  84 H :    0.044505
  85 H :    0.051469
  86 H :   -0.005599
  87 H :    0.022631
  88 H :    0.008416
  89 H :    0.004567
  90 H :    0.003269
Sum of atomic charges:   -0.0000000

LOEWDIN ATOMIC CHARGES
----------------------
   0 C :    0.082419
   1 O :   -0.160682
   2 C :   -0.036156
   3 C :   -0.015486
   4 C :    0.007284
   5 C :   -0.015602
   6 C :   -0.099283
   7 C :   -0.002176
   8 Br:    0.112106
   9 C :    0.077634
  10 C :   -0.147304
  11 C :   -0.019001
  12 N :   -0.057493
  13 C :   -0.019793
  14 N :   -0.060354
  15 C :   -0.121277
  16 C :    0.053216
  17 C :   -0.175967
  18 C :   -0.034758
  19 C :   -0.017196
  20 C :   -0.200431
  21 S :    0.483823
  22 C :   -0.227268
  23 C :    0.000197
  24 N :    0.021546
  25 C :    0.040336
  26 C :   -0.065087
  27 C :   -0.146385
  28 S :    0.456314
  29 C :   -0.045343
  30 C :   -0.006244
  31 C :   -0.007112
  32 N :   -0.029816
  33 C :    0.056506
  34 C :    0.056800
  35 N :   -0.030101
  36 F :   -0.034898
  37 F :   -0.034809
  38 C :   -0.043250
  39 C :   -0.047366
  40 C :   -0.046877
  41 N :   -0.295808
  42 S :    0.683214
  43 N :   -0.295881
  44 C :   -0.148025
  45 C :   -0.061499
  46 C :   -0.001098
  47 C :   -0.223379
  48 S :    0.453779
  49 C :   -0.195261
  50 C :   -0.006910
  51 N :    0.028182
  52 C :    0.040921
  53 C :   -0.026432
  54 C :   -0.175575
  55 S :    0.439824
  56 C :    0.049721
  57 C :   -0.110661
  58 C :    0.082456
  59 O :   -0.141339
  60 C :   -0.038743
  61 C :   -0.013901
  62 C :    0.065802
  63 C :   -0.150228
  64 C :   -0.022522
  65 N :   -0.057765
  66 C :   -0.020760
  67 N :   -0.044358
  68 C :    0.002981
  69 C :   -0.014539
  70 C :   -0.100236
  71 C :   -0.000458
  72 Br:    0.112894
  73 H :    0.042496
  74 H :    0.039639
  75 H :    0.043079
  76 H :    0.049522
  77 H :    0.038597
  78 H :    0.038061
  79 H :    0.030635
  80 H :    0.033967
  81 H :    0.027751
  82 H :    0.028345
  83 H :    0.031633
  84 H :    0.038952
  85 H :    0.035226
  86 H :    0.035549
  87 H :    0.045995
  88 H :    0.041834
  89 H :    0.039604
  90 H :    0.044049

  Mayer bond orders larger than 0.100000
B(  0-C ,  1-O ) :   2.1447 B(  0-C ,  2-C ) :   0.9526 B(  0-C , 15-C ) :   0.9835
B(  2-C ,  3-C ) :   1.3358 B(  2-C ,  7-C ) :   1.3815 B(  3-C ,  4-C ) :   1.3684
B(  3-C ,  9-C ) :   0.9831 B(  4-C ,  5-C ) :   1.3781 B(  4-C , 73-H ) :   0.9838
B(  5-C ,  6-C ) :   1.3932 B(  5-C , 74-H ) :   0.9851 B(  6-C ,  7-C ) :   1.3304
B(  6-C ,  8-Br) :   0.9900 B(  7-C , 75-H ) :   1.0081 B(  9-C , 10-C ) :   1.6093
B(  9-C , 15-C ) :   1.1007 B( 10-C , 11-C ) :   1.1462 B( 10-C , 13-C ) :   1.1464
B( 11-C , 12-N ) :   2.9710 B( 13-C , 14-N ) :   2.9568 B( 15-C , 16-C ) :   1.4526
B( 16-C , 17-C ) :   1.3123 B( 16-C , 76-H ) :   0.9351 B( 17-C , 18-C ) :   1.3037
B( 17-C , 21-S ) :   1.0679 B( 18-C , 19-C ) :   1.2784 B( 18-C , 77-H ) :   1.0315
B( 19-C , 20-C ) :   1.3016 B( 19-C , 24-N ) :   1.1325 B( 20-C , 21-S ) :   1.0192
B( 20-C , 22-C ) :   1.4165 B( 22-C , 23-C ) :   1.3454 B( 22-C , 28-S ) :   0.9964
B( 23-C , 24-N ) :   1.1484 B( 23-C , 26-C ) :   1.2056 B( 24-N , 25-C ) :   0.9669
B( 25-C , 78-H ) :   0.9729 B( 25-C , 79-H ) :   0.9731 B( 25-C , 80-H ) :   0.9709
B( 26-C , 27-C ) :   1.4202 B( 26-C , 81-H ) :   1.0023 B( 27-C , 28-S ) :   1.1019
B( 27-C , 29-C ) :   1.2029 B( 29-C , 30-C ) :   1.2803 B( 29-C , 38-C ) :   0.1230
B( 29-C , 40-C ) :   1.1855 B( 30-C , 31-C ) :   1.1104 B( 30-C , 35-N ) :   1.4329
B( 31-C , 32-N ) :   1.4338 B( 31-C , 38-C ) :   1.2808 B( 32-N , 33-C ) :   1.6585
B( 33-C , 34-C ) :   1.1153 B( 33-C , 37-F ) :   1.1694 B( 34-C , 35-N ) :   1.6590
B( 34-C , 36-F ) :   1.1689 B( 38-C , 39-C ) :   1.1859 B( 38-C , 44-C ) :   1.2048
B( 39-C , 40-C ) :   1.1235 B( 39-C , 43-N ) :   1.4743 B( 40-C , 41-N ) :   1.4759
B( 41-N , 42-S ) :   1.2764 B( 41-N , 43-N ) :   0.1530 B( 42-S , 43-N ) :   1.2776
B( 44-C , 45-C ) :   1.4247 B( 44-C , 48-S ) :   1.0970 B( 45-C , 46-C ) :   1.2030
B( 45-C , 82-H ) :   1.0014 B( 46-C , 47-C ) :   1.3468 B( 46-C , 51-N ) :   1.1491
B( 47-C , 48-S ) :   0.9971 B( 47-C , 49-C ) :   1.4172 B( 49-C , 50-C ) :   1.3330
B( 49-C , 55-S ) :   1.0566 B( 50-C , 51-N ) :   1.1445 B( 50-C , 53-C ) :   1.3261
B( 51-N , 52-C ) :   0.9652 B( 52-C , 83-H ) :   0.9712 B( 52-C , 84-H ) :   0.9729
B( 52-C , 85-H ) :   0.9719 B( 53-C , 54-C ) :   1.3649 B( 53-C , 86-H ) :   0.9954
B( 54-C , 55-S ) :   1.0740 B( 54-C , 56-C ) :   1.1989 B( 56-C , 57-C ) :   1.5970
B( 56-C , 87-H ) :   0.9263 B( 57-C , 58-C ) :   0.9598 B( 57-C , 62-C ) :   1.0672
B( 58-C , 59-O ) :   2.2610 B( 58-C , 60-C ) :   0.9160 B( 60-C , 61-C ) :   1.3362
B( 60-C , 71-C ) :   1.3839 B( 61-C , 62-C ) :   0.9998 B( 61-C , 68-C ) :   1.3713
B( 62-C , 63-C ) :   1.6202 B( 63-C , 64-C ) :   1.1299 B( 63-C , 66-C ) :   1.1710
B( 64-C , 65-N ) :   2.9887 B( 66-C , 67-N ) :   2.9993 B( 68-C , 69-C ) :   1.3752
B( 68-C , 88-H ) :   0.9864 B( 69-C , 70-C ) :   1.3950 B( 69-C , 89-H ) :   0.9856
B( 70-C , 71-C ) :   1.3359 B( 70-C , 72-Br) :   0.9909 B( 71-C , 90-H ) :   1.0086

-----------------------------------------------------------------------------
         ABSORPTION SPECTRUM VIA TRANSITION ELECTRIC DIPOLE MOMENTS
-----------------------------------------------------------------------------
State   Energy  Wavelength   fosc         T2         TX        TY        TZ
        (cm-1)    (nm)                  (au**2)     (au)      (au)      (au)
-----------------------------------------------------------------------------
   0    8846.3   1130.4   1.299709076  48.36840   0.14463  -6.82419  -1.33338
   1   16607.7    602.1   0.061606847   1.22123  -0.26858  -0.65763   0.84653
   2   17848.6    560.3   0.201990503   3.72566   0.11669   1.91413   0.21940
   3   17963.6    556.7   0.431563652   7.90909  -0.51162  -2.68826  -0.64851
   4   18254.1    547.8   0.054787942   0.98810  -0.24093  -0.59745  -0.75704
   5   19304.0    518.0   0.723033533  12.33065   0.12394  -3.10209  -1.64083
   6   23591.9    423.9   0.198493753   2.76987  -0.02981  -1.47761  -0.76528
   7   24136.8    414.3   0.249696338   3.40571  -0.46403   1.62008  -0.75214
   8   24407.8    409.7   0.060421106   0.81496   0.35689   0.62033   0.55025
   9   24577.0    406.9   0.008413684   0.11270  -0.09104   0.21949  -0.23714
  10   25356.7    394.4   0.018602547   0.24152  -0.19781   0.36675  -0.26055
  11   25938.2    385.5   0.028372664   0.36011   0.16167   0.52928   0.23202
  12   27050.5    369.7   0.028931168   0.35210  -0.54519  -0.09619  -0.21359
  13   27882.6    358.6   0.022528042   0.26599  -0.08971   0.41591   0.29148
  14   28515.3    350.7   0.120747976   1.39404   0.58498  -0.96860   0.33713
  15   28873.0    346.3   0.016321960   0.18610  -0.04092  -0.35250  -0.24530
  16   29121.1    343.4   0.133254239   1.50643   0.16146   0.56678   1.07662
  17   29579.4    338.1   0.041344748   0.46016   0.01249  -0.31919  -0.59843
  18   29861.6    334.9   0.000568367   0.00627   0.02722  -0.02286  -0.07073
  19   30489.9    328.0   0.001258206   0.01359  -0.03293   0.10545  -0.03718
  20   30568.8    327.1   0.049650315   0.53471  -0.19734   0.62498   0.32430
  21   31012.0    322.5   0.056604733   0.60089   0.38418  -0.62433   0.25201
  22   31302.7    319.5   0.016886644   0.17760  -0.00114  -0.41516  -0.07237
  23   31613.9    316.3   0.004267213   0.04444   0.12909  -0.04369   0.16082
  24   31706.8    315.4   0.000922448   0.00958   0.07150   0.01543   0.06502
  25   31768.6    314.8   0.063203487   0.65497  -0.24979   0.67942   0.36188
  26   31920.2    313.3   0.280809306   2.89616   0.46225  -1.49427   0.67055
  27   32053.2    312.0   0.033706973   0.34620   0.30514   0.31223   0.39446
  28   32606.6    306.7   0.055122560   0.55654  -0.08424  -0.49779  -0.54923
  29   33018.1    302.9   0.027311306   0.27231  -0.24466   0.42883  -0.16899
  30   33555.6    298.0   0.058523277   0.57417  -0.04746   0.72661   0.20965
  31   33807.6    295.8   0.222534215   2.16700  -0.85519   1.19810  -0.01412
  32   33942.4    294.6   0.004296204   0.04167   0.04706  -0.17286  -0.09785
  33   34103.2    293.2   0.370367590   3.57531  -0.66937   0.50880  -1.69363
  34   34487.4    290.0   0.487239742   4.65112   0.69569  -0.67623   1.92610
  35   34708.0    288.1   0.079948971   0.75833   0.08190   0.75563   0.42502
  36   34899.8    286.5   0.071782304   0.67713  -0.34700   0.52546  -0.52972
  37   34982.2    285.9   0.027236457   0.25632  -0.18811   0.46245   0.08412
  38   35227.8    283.9   0.239782680   2.24082   0.74820  -1.29303  -0.09537
  39   35440.6    282.2   0.046184269   0.42901  -0.07633   0.26179  -0.59553
  40   35718.5    280.0   0.252968379   2.33157   0.31296   0.03088   1.49421
  41   35929.1    278.3   0.035778116   0.32783   0.21511   0.06532   0.52658
  42   36351.4    275.1   0.000350290   0.00317   0.00212  -0.02037  -0.05247
  43   36864.9    271.3   0.003164896   0.02826  -0.02778   0.16504   0.01596
  44   37209.3    268.7   0.067462740   0.59688  -0.30003  -0.02687  -0.71143
  45   37402.5    267.4   0.043745170   0.38504  -0.27654   0.29895  -0.46818
  46   37592.5    266.0   0.156653641   1.37188  -0.38956   0.74463  -0.81587
  47   37613.3    265.9   0.000600814   0.00526   0.07063   0.00022   0.01644
  48   37897.9    263.9   0.016772098   0.14570  -0.04622  -0.12403  -0.35802
  49   38008.0    263.1   0.015519951   0.13443  -0.10270  -0.34997   0.03746
  50   38051.4    262.8   0.312034337   2.69965   0.97180  -1.18357   0.59533
  51   38901.2    257.1   0.009730236   0.08234  -0.12734   0.15478  -0.20536
  52   39464.2    253.4   0.010780874   0.08993   0.17837  -0.00291  -0.24106
  53   40075.1    249.5   0.007434390   0.06107   0.21359  -0.12370  -0.01221
  54   40237.0    248.5   0.004197296   0.03434  -0.14016  -0.02141  -0.11933

FINAL SINGLE POINT ENERGY    -10024.612872743091

DIPOLE MOMENT
-------------
                                X             Y             Z
Electronic contribution:     31.70893     -51.89334      62.25241
Nuclear contribution   :    -30.45457      50.73392     -64.11863
                        -----------------------------------------
Total Dipole Moment    :      1.25436      -1.15942      -1.86622
                        -----------------------------------------
Magnitude (a.u.)       :      2.52991
Magnitude (Debye)      :      6.43052

Rotational constants in cm-1:     0.001834     0.000138     0.000130
Rotational constants in MHz :    54.976310     4.143214     3.885123

                             ****ORCA TERMINATED NORMALLY****
TOTAL RUN TIME: 0 days 0 hours 9 minutes 34 seconds 746 msec
