                         Program Version 4.2.0 -  RELEASE  -
|  1> # ORCA input file
|  2> # SCF done       -200.667643788312          0.000835958484
|  3> ! CAM-B3LYP def2-SVP def2/J RIJCOSX Grid4 TightSCF
|  4> %maxcore 5000
|  5> %tddft
|  6>     Mode sTDDFT
|  7>     Ethresh 5.0
|  8>     maxcore 5000
|  9> end
| 10>
| 11> %pal
| 12>   nprocs 6
| 13>   end
| 14> * xyz 0 1
| 15>    C        7.87418        -5.34674         8.24798
| 16>    C        7.62552        -6.06094         9.38711
| 17>    F        7.40438        -5.40824        10.54224
| 18>    C        7.59212        -7.46190         9.40357
| 19>    C        7.81657        -8.14240         8.23917
| 20>    C        8.07965        -7.45652         7.03575
| 21>    C        8.10658        -6.03125         7.03950
| 22>    C        8.35989        -5.32052         5.84258
| 23>    C        8.58495        -6.01553         4.68625
| 24>    C        8.57398        -7.44067         4.69139
| 25>    C        8.32197        -8.15106         5.82910
| 26>    C        8.88604        -7.93446         3.33632
| 27>    O        8.91861        -9.07978         2.94670
| 28>    C        9.22451        -6.71818         2.54886
| 29>    C        8.83358        -5.56304         3.31972
| 30>    C        8.48165        -4.33534         2.81671
| 31>    C        8.45300        -4.05467         1.43665
| 32>    N        8.38232        -3.82058         0.31455
| 33>    C        8.02524        -3.26410         3.60839
| 34>    N        7.67686        -2.35453         4.21622
| 35>    C        9.89131        -6.86446         1.36454
| 36>    C       10.70403        -5.95680         0.66696
| 37>    S       11.37046        -4.52446         1.37517
| 38>    C       12.29964        -4.11749        -0.02501
| 39>    C       12.11249        -5.08452        -1.03425
| 40>    C       11.21558        -6.12362        -0.63636
| 41>    C       10.89764        -7.16836        -1.52099
| 42>    C       11.47729        -7.18868        -2.75789
| 43>    F       11.19591        -8.17708        -3.61564
| 44>    C       12.38320        -6.17941        -3.14740
| 45>    F       12.94692        -6.24055        -4.36351
| 46>    C       12.70005        -5.14640        -2.31145
| 47>    C       13.06307        -2.92749         0.06797
| 48>    C       13.78891        -2.29142        -0.88405
| 49>    C       14.48940        -1.08117        -0.59879
| 50>    C       15.23896        -0.35722        -1.45225
| 51>    C       15.51730        -0.69915        -2.87804
| 52>    C       15.93274         0.88942        -0.95625
| 53>    N       17.31888         0.59424        -0.65922
| 54>    C       18.37998         0.84140        -1.45079
| 55>    C       18.41529         1.59385        -2.58315
| 56>    C       19.60509         1.84741        -3.30006
| 57>    S       21.12492         1.15211        -2.85999
| 58>    C       21.98912         1.97047        -4.13228
| 59>    C       21.10095         2.75762        -4.88905
| 60>    C       19.75369         2.68320        -4.42542
| 61>    C       18.74660         3.41263        -5.08185
| 62>    C       19.08096         4.18271        -6.15922
| 63>    F       18.12894         4.88059        -6.80105
| 64>    C       20.41436         4.25841        -6.61618
| 65>    F       20.69340         5.02578        -7.68004
| 66>    C       21.41467         3.56219        -5.99814
| 67>    C       23.37530         1.86344        -4.26391
| 68>    C       24.17014         1.02104        -3.53113
| 69>    C       25.56544         0.92487        -3.63539
| 70>    C       26.48287         1.80715        -4.15444
| 71>    C       27.81217         1.28339        -4.55563
| 72>    O       28.25653         0.17893        -4.32530
| 73>    C       28.44973         2.36902        -5.32648
| 74>    C       29.63409         2.36537        -6.00329
| 75>    C       30.03477         3.52965        -6.69763
| 76>    C       29.18842         4.67566        -6.68237
| 77>    C       29.58990         5.83136        -7.37971
| 78>    C       30.78129         5.83060        -8.05011
| 79>    C       31.62810         4.71475        -8.07626
| 80>    C       31.25182         3.58343        -7.40664
| 81>    F       31.16868         6.93590        -8.71469
| 82>    C       27.96706         4.65065        -5.96797
| 83>    C       27.60837         3.51707        -5.29168
| 84>    C       26.44777         3.21549        -4.45153
| 85>    C       25.64680         4.17255        -3.87202
| 86>    C       24.68686         3.91235        -2.87780
| 87>    N       23.90665         3.76898        -2.04654
| 88>    C       25.74087         5.55043        -4.14620
| 89>    N       25.75090         6.68146        -4.34792
| 90>    H        7.88795        -4.26828         8.27184
| 91>    H        7.39057        -7.97149        10.33239
| 92>    H        7.79600        -9.22173         8.22674
| 93>    H        8.38050        -4.24245         5.87276
| 94>    H        8.30816        -9.23048         5.81049
| 95>    H        9.86541        -7.87312         0.96312
| 96>    H       10.20721        -7.94748        -1.24352
| 97>    H       13.40243        -4.40792        -2.65316
| 98>    H       13.02504        -2.46603         1.04889
| 99>    H       13.83504        -2.67069        -1.88969
|100>    H       14.38164        -0.71585         0.41593
|101>    H       15.26864        -1.72810        -3.11493
|102>    H       16.57076        -0.53554        -3.10315
|103>    H       14.93697        -0.04760        -3.53293
|104>    H       15.45704         1.25478        -0.04147
|105>    H       15.89132         1.67792        -1.70713
|106>    H       17.45683        -0.05099         0.10290
|107>    H       19.30822         0.41162        -1.09645
|108>    H       17.52119         2.05754        -2.96877
|109>    H       17.72016         3.37873        -4.75616
|110>    H       22.42280         3.64008        -6.37040
|111>    H       23.83014         2.47295        -5.03327
|112>    H       23.68273         0.31965        -2.86568
|113>    H       26.00433        -0.01601        -3.31534
|114>    H       30.26033         1.48582        -6.00877
|115>    H       28.96438         6.71038        -7.37784
|116>    H       32.55629         4.77239        -8.62239
|117>    H       31.88759         2.71076        -7.41212
|118>    H       27.34426         5.53095        -5.98144
|119> *
|120>
|121>                          ****END OF INPUT****

CARTESIAN COORDINATES (ANGSTROEM)
---------------------------------
  C      7.874180   -5.346740    8.247980
  C      7.625520   -6.060940    9.387110
  F      7.404380   -5.408240   10.542240
  C      7.592120   -7.461900    9.403570
  C      7.816570   -8.142400    8.239170
  C      8.079650   -7.456520    7.035750
  C      8.106580   -6.031250    7.039500
  C      8.359890   -5.320520    5.842580
  C      8.584950   -6.015530    4.686250
  C      8.573980   -7.440670    4.691390
  C      8.321970   -8.151060    5.829100
  C      8.886040   -7.934460    3.336320
  O      8.918610   -9.079780    2.946700
  C      9.224510   -6.718180    2.548860
  C      8.833580   -5.563040    3.319720
  C      8.481650   -4.335340    2.816710
  C      8.453000   -4.054670    1.436650
  N      8.382320   -3.820580    0.314550
  C      8.025240   -3.264100    3.608390
  N      7.676860   -2.354530    4.216220
  C      9.891310   -6.864460    1.364540
  C     10.704030   -5.956800    0.666960
  S     11.370460   -4.524460    1.375170
  C     12.299640   -4.117490   -0.025010
  C     12.112490   -5.084520   -1.034250
  C     11.215580   -6.123620   -0.636360
  C     10.897640   -7.168360   -1.520990
  C     11.477290   -7.188680   -2.757890
  F     11.195910   -8.177080   -3.615640
  C     12.383200   -6.179410   -3.147400
  F     12.946920   -6.240550   -4.363510
  C     12.700050   -5.146400   -2.311450
  C     13.063070   -2.927490    0.067970
  C     13.788910   -2.291420   -0.884050
  C     14.489400   -1.081170   -0.598790
  C     15.238960   -0.357220   -1.452250
  C     15.517300   -0.699150   -2.878040
  C     15.932740    0.889420   -0.956250
  N     17.318880    0.594240   -0.659220
  C     18.379980    0.841400   -1.450790
  C     18.415290    1.593850   -2.583150
  C     19.605090    1.847410   -3.300060
  S     21.124920    1.152110   -2.859990
  C     21.989120    1.970470   -4.132280
  C     21.100950    2.757620   -4.889050
  C     19.753690    2.683200   -4.425420
  C     18.746600    3.412630   -5.081850
  C     19.080960    4.182710   -6.159220
  F     18.128940    4.880590   -6.801050
  C     20.414360    4.258410   -6.616180
  F     20.693400    5.025780   -7.680040
  C     21.414670    3.562190   -5.998140
  C     23.375300    1.863440   -4.263910
  C     24.170140    1.021040   -3.531130
  C     25.565440    0.924870   -3.635390
  C     26.482870    1.807150   -4.154440
  C     27.812170    1.283390   -4.555630
  O     28.256530    0.178930   -4.325300
  C     28.449730    2.369020   -5.326480
  C     29.634090    2.365370   -6.003290
  C     30.034770    3.529650   -6.697630
  C     29.188420    4.675660   -6.682370
  C     29.589900    5.831360   -7.379710
  C     30.781290    5.830600   -8.050110
  C     31.628100    4.714750   -8.076260
  C     31.251820    3.583430   -7.406640
  F     31.168680    6.935900   -8.714690
  C     27.967060    4.650650   -5.967970
  C     27.608370    3.517070   -5.291680
  C     26.447770    3.215490   -4.451530
  C     25.646800    4.172550   -3.872020
  C     24.686860    3.912350   -2.877800
  N     23.906650    3.768980   -2.046540
  C     25.740870    5.550430   -4.146200
  N     25.750900    6.681460   -4.347920
  H      7.887950   -4.268280    8.271840
  H      7.390570   -7.971490   10.332390
  H      7.796000   -9.221730    8.226740
  H      8.380500   -4.242450    5.872760
  H      8.308160   -9.230480    5.810490
  H      9.865410   -7.873120    0.963120
  H     10.207210   -7.947480   -1.243520
  H     13.402430   -4.407920   -2.653160
  H     13.025040   -2.466030    1.048890
  H     13.835040   -2.670690   -1.889690
  H     14.381640   -0.715850    0.415930
  H     15.268640   -1.728100   -3.114930
  H     16.570760   -0.535540   -3.103150
  H     14.936970   -0.047600   -3.532930
  H     15.457040    1.254780   -0.041470
  H     15.891320    1.677920   -1.707130
  H     17.456830   -0.050990    0.102900
  H     19.308220    0.411620   -1.096450
  H     17.521190    2.057540   -2.968770
  H     17.720160    3.378730   -4.756160
  H     22.422800    3.640080   -6.370400
  H     23.830140    2.472950   -5.033270
  H     23.682730    0.319650   -2.865680
  H     26.004330   -0.016010   -3.315340
  H     30.260330    1.485820   -6.008770
  H     28.964380    6.710380   -7.377840
  H     32.556290    4.772390   -8.622390
  H     31.887590    2.710760   -7.412120
  H     27.344260    5.530950   -5.981440

 Total Charge           Charge          ....    0
 Multiplicity           Mult            ....    1
 Number of Electrons    NEL             ....  526
 Basis Dimension        Dim             .... 1203

ORBITAL ENERGIES
----------------

  NO   OCC          E(Eh)            E(eV)
   0   2.0000     -88.993230     -2421.6289
   1   2.0000     -88.972597     -2421.0675
   2   2.0000     -24.804641      -674.9686
   3   2.0000     -24.803377      -674.9342
   4   2.0000     -24.792102      -674.6274
   5   2.0000     -24.789293      -674.5510
   6   2.0000     -24.787972      -674.5150
   7   2.0000     -24.775282      -674.1697
   8   2.0000     -19.214665      -522.8576
   9   2.0000     -19.193558      -522.2833
  10   2.0000     -14.474950      -393.8834
  11   2.0000     -14.418009      -392.3340
  12   2.0000     -14.417420      -392.3179
  13   2.0000     -14.399495      -391.8302
  14   2.0000     -14.398094      -391.7921
  15   2.0000     -10.389268      -282.7064
  16   2.0000     -10.386096      -282.6200
  17   2.0000     -10.376139      -282.3491
  18   2.0000     -10.371608      -282.2258
  19   2.0000     -10.370674      -282.2004
  20   2.0000     -10.366641      -282.0907
  21   2.0000     -10.357832      -281.8509
  22   2.0000     -10.353297      -281.7275
  23   2.0000     -10.345274      -281.5092
  24   2.0000     -10.344593      -281.4907
  25   2.0000     -10.344442      -281.4866
  26   2.0000     -10.343930      -281.4727
  27   2.0000     -10.341327      -281.4018
  28   2.0000     -10.335208      -281.2353
  29   2.0000     -10.327869      -281.0356
  30   2.0000     -10.326218      -280.9907
  31   2.0000     -10.324652      -280.9481
  32   2.0000     -10.321064      -280.8504
  33   2.0000     -10.320908      -280.8462
  34   2.0000     -10.319894      -280.8186
  35   2.0000     -10.319324      -280.8031
  36   2.0000     -10.317097      -280.7425
  37   2.0000     -10.313196      -280.6363
  38   2.0000     -10.312969      -280.6301
  39   2.0000     -10.310969      -280.5757
  40   2.0000     -10.310545      -280.5642
  41   2.0000     -10.308210      -280.5006
  42   2.0000     -10.308133      -280.4986
  43   2.0000     -10.307429      -280.4794
  44   2.0000     -10.304206      -280.3917
  45   2.0000     -10.303903      -280.3835
  46   2.0000     -10.303043      -280.3600
  47   2.0000     -10.302948      -280.3575
  48   2.0000     -10.302520      -280.3458
  49   2.0000     -10.301952      -280.3304
  50   2.0000     -10.301772      -280.3255
  51   2.0000     -10.300347      -280.2867
  52   2.0000     -10.299694      -280.2689
  53   2.0000     -10.299204      -280.2556
  54   2.0000     -10.299058      -280.2516
  55   2.0000     -10.298429      -280.2345
  56   2.0000     -10.297842      -280.2185
  57   2.0000     -10.297024      -280.1963
  58   2.0000     -10.296391      -280.1790
  59   2.0000     -10.293879      -280.1107
  60   2.0000     -10.292947      -280.0853
  61   2.0000     -10.292947      -280.0853
  62   2.0000     -10.291838      -280.0551
  63   2.0000     -10.291147      -280.0363
  64   2.0000     -10.290797      -280.0268
  65   2.0000     -10.289441      -279.9899
  66   2.0000     -10.288019      -279.9512
  67   2.0000     -10.286292      -279.9042
  68   2.0000     -10.285328      -279.8780
  69   2.0000     -10.283687      -279.8333
  70   2.0000     -10.283104      -279.8175
  71   2.0000     -10.277675      -279.6697
  72   2.0000     -10.274260      -279.5768
  73   2.0000     -10.272801      -279.5371
  74   2.0000     -10.272512      -279.5293
  75   2.0000      -8.088013      -220.0860
  76   2.0000      -8.067899      -219.5387
  77   2.0000      -6.056919      -164.8171
  78   2.0000      -6.052791      -164.7048
  79   2.0000      -6.050925      -164.6540
  80   2.0000      -6.036965      -164.2742
  81   2.0000      -6.032992      -164.1660
  82   2.0000      -6.030340      -164.0939
  83   2.0000      -1.326849       -36.1054
  84   2.0000      -1.313064       -35.7303
  85   2.0000      -1.311816       -35.6963
  86   2.0000      -1.302982       -35.4559
  87   2.0000      -1.297851       -35.3163
  88   2.0000      -1.289848       -35.0985
  89   2.0000      -1.130105       -30.7517
  90   2.0000      -1.108457       -30.1626
  91   2.0000      -1.071517       -29.1575
  92   2.0000      -1.030108       -28.0307
  93   2.0000      -1.019429       -27.7401
  94   2.0000      -1.012223       -27.5440
  95   2.0000      -1.002536       -27.2804
  96   2.0000      -1.002018       -27.2663
  97   2.0000      -0.996318       -27.1112
  98   2.0000      -0.985784       -26.8245
  99   2.0000      -0.978775       -26.6338
 100   2.0000      -0.977837       -26.6083
 101   2.0000      -0.965964       -26.2852
 102   2.0000      -0.961364       -26.1600
 103   2.0000      -0.952823       -25.9276
 104   2.0000      -0.949226       -25.8297
 105   2.0000      -0.933589       -25.4042
 106   2.0000      -0.925917       -25.1955
 107   2.0000      -0.921445       -25.0738
 108   2.0000      -0.911201       -24.7950
 109   2.0000      -0.901451       -24.5297
 110   2.0000      -0.893294       -24.3078
 111   2.0000      -0.889190       -24.1961
 112   2.0000      -0.885686       -24.1007
 113   2.0000      -0.877439       -23.8763
 114   2.0000      -0.870848       -23.6970
 115   2.0000      -0.870414       -23.6852
 116   2.0000      -0.866636       -23.5824
 117   2.0000      -0.858087       -23.3497
 118   2.0000      -0.844112       -22.9694
 119   2.0000      -0.838908       -22.8278
 120   2.0000      -0.837110       -22.7789
 121   2.0000      -0.833052       -22.6685
 122   2.0000      -0.822086       -22.3701
 123   2.0000      -0.819472       -22.2990
 124   2.0000      -0.809976       -22.0406
 125   2.0000      -0.798748       -21.7350
 126   2.0000      -0.780061       -21.2265
 127   2.0000      -0.769349       -20.9350
 128   2.0000      -0.762131       -20.7386
 129   2.0000      -0.756745       -20.5921
 130   2.0000      -0.746928       -20.3249
 131   2.0000      -0.742715       -20.2103
 132   2.0000      -0.739255       -20.1162
 133   2.0000      -0.731170       -19.8962
 134   2.0000      -0.727356       -19.7924
 135   2.0000      -0.712735       -19.3945
 136   2.0000      -0.711582       -19.3631
 137   2.0000      -0.711155       -19.3515
 138   2.0000      -0.700482       -19.0611
 139   2.0000      -0.695827       -18.9344
 140   2.0000      -0.686784       -18.6883
 141   2.0000      -0.682118       -18.5614
 142   2.0000      -0.680404       -18.5147
 143   2.0000      -0.675193       -18.3729
 144   2.0000      -0.667400       -18.1609
 145   2.0000      -0.662280       -18.0216
 146   2.0000      -0.660907       -17.9842
 147   2.0000      -0.655017       -17.8239
 148   2.0000      -0.650980       -17.7141
 149   2.0000      -0.643206       -17.5025
 150   2.0000      -0.636623       -17.3234
 151   2.0000      -0.634723       -17.2717
 152   2.0000      -0.630733       -17.1631
 153   2.0000      -0.628032       -17.0896
 154   2.0000      -0.624822       -17.0023
 155   2.0000      -0.623371       -16.9628
 156   2.0000      -0.618223       -16.8227
 157   2.0000      -0.615651       -16.7527
 158   2.0000      -0.613843       -16.7035
 159   2.0000      -0.612503       -16.6670
 160   2.0000      -0.606564       -16.5054
 161   2.0000      -0.597085       -16.2475
 162   2.0000      -0.592917       -16.1341
 163   2.0000      -0.592150       -16.1132
 164   2.0000      -0.591425       -16.0935
 165   2.0000      -0.582248       -15.8438
 166   2.0000      -0.580597       -15.7989
 167   2.0000      -0.577963       -15.7272
 168   2.0000      -0.573306       -15.6005
 169   2.0000      -0.569849       -15.5064
 170   2.0000      -0.568211       -15.4618
 171   2.0000      -0.561226       -15.2717
 172   2.0000      -0.560522       -15.2526
 173   2.0000      -0.560340       -15.2476
 174   2.0000      -0.558311       -15.1924
 175   2.0000      -0.552970       -15.0471
 176   2.0000      -0.551808       -15.0155
 177   2.0000      -0.550429       -14.9779
 178   2.0000      -0.547656       -14.9025
 179   2.0000      -0.546980       -14.8841
 180   2.0000      -0.545775       -14.8513
 181   2.0000      -0.541790       -14.7429
 182   2.0000      -0.539709       -14.6862
 183   2.0000      -0.539488       -14.6802
 184   2.0000      -0.536389       -14.5959
 185   2.0000      -0.535328       -14.5670
 186   2.0000      -0.529918       -14.4198
 187   2.0000      -0.527536       -14.3550
 188   2.0000      -0.525844       -14.3089
 189   2.0000      -0.525551       -14.3010
 190   2.0000      -0.523591       -14.2476
 191   2.0000      -0.518020       -14.0960
 192   2.0000      -0.517387       -14.0788
 193   2.0000      -0.515280       -14.0215
 194   2.0000      -0.512099       -13.9349
 195   2.0000      -0.511206       -13.9106
 196   2.0000      -0.509387       -13.8611
 197   2.0000      -0.508342       -13.8327
 198   2.0000      -0.504031       -13.7154
 199   2.0000      -0.501002       -13.6330
 200   2.0000      -0.499463       -13.5911
 201   2.0000      -0.495676       -13.4880
 202   2.0000      -0.493166       -13.4197
 203   2.0000      -0.490712       -13.3529
 204   2.0000      -0.489958       -13.3324
 205   2.0000      -0.486576       -13.2404
 206   2.0000      -0.484016       -13.1707
 207   2.0000      -0.483591       -13.1592
 208   2.0000      -0.479455       -13.0466
 209   2.0000      -0.478458       -13.0195
 210   2.0000      -0.477041       -12.9810
 211   2.0000      -0.473388       -12.8815
 212   2.0000      -0.471316       -12.8252
 213   2.0000      -0.468828       -12.7575
 214   2.0000      -0.467716       -12.7272
 215   2.0000      -0.466408       -12.6916
 216   2.0000      -0.459272       -12.4974
 217   2.0000      -0.455383       -12.3916
 218   2.0000      -0.454090       -12.3564
 219   2.0000      -0.453310       -12.3352
 220   2.0000      -0.450744       -12.2654
 221   2.0000      -0.448556       -12.2058
 222   2.0000      -0.447102       -12.1663
 223   2.0000      -0.445425       -12.1206
 224   2.0000      -0.445200       -12.1145
 225   2.0000      -0.443375       -12.0648
 226   2.0000      -0.442335       -12.0365
 227   2.0000      -0.441394       -12.0109
 228   2.0000      -0.438952       -11.9445
 229   2.0000      -0.437299       -11.8995
 230   2.0000      -0.435102       -11.8397
 231   2.0000      -0.429520       -11.6878
 232   2.0000      -0.427860       -11.6427
 233   2.0000      -0.426930       -11.6174
 234   2.0000      -0.424418       -11.5490
 235   2.0000      -0.420470       -11.4416
 236   2.0000      -0.420262       -11.4359
 237   2.0000      -0.413871       -11.2620
 238   2.0000      -0.410410       -11.1678
 239   2.0000      -0.410282       -11.1643
 240   2.0000      -0.409889       -11.1536
 241   2.0000      -0.403208       -10.9718
 242   2.0000      -0.401653       -10.9295
 243   2.0000      -0.391962       -10.6658
 244   2.0000      -0.387139       -10.5346
 245   2.0000      -0.383962       -10.4481
 246   2.0000      -0.380192       -10.3456
 247   2.0000      -0.368102       -10.0166
 248   2.0000      -0.354116        -9.6360
 249   2.0000      -0.351061        -9.5528
 250   2.0000      -0.338139        -9.2012
 251   2.0000      -0.333100        -9.0641
 252   2.0000      -0.331319        -9.0157
 253   2.0000      -0.325331        -8.8527
 254   2.0000      -0.320403        -8.7186
 255   2.0000      -0.317980        -8.6527
 256   2.0000      -0.315348        -8.5810
 257   2.0000      -0.303938        -8.2706
 258   2.0000      -0.300865        -8.1869
 259   2.0000      -0.295472        -8.0402
 260   2.0000      -0.284483        -7.7412
 261   2.0000      -0.260936        -7.1004
 262   2.0000      -0.228655        -6.2220
 263   0.0000      -0.113385        -3.0854
 264   0.0000      -0.090388        -2.4596
 265   0.0000      -0.065640        -1.7861
 266   0.0000      -0.052501        -1.4286
 267   0.0000      -0.049128        -1.3368

MULLIKEN ATOMIC CHARGES
-----------------------
   0 C :   -0.101077
   1 C :    0.303291
   2 F :   -0.189982
   3 C :   -0.029769
   4 C :   -0.012282
   5 C :    0.101220
   6 C :    0.103872
   7 C :   -0.088458
   8 C :    0.041822
   9 C :    0.011032
  10 C :   -0.083529
  11 C :    0.142063
  12 O :   -0.150426
  13 C :   -0.144039
  14 C :    0.253410
  15 C :   -0.329335
  16 C :   -0.215376
  17 N :    0.172422
  18 C :   -0.174653
  19 N :    0.151063
  20 C :    0.019437
  21 C :   -0.125868
  22 S :    0.195292
  23 C :   -0.093005
  24 C :    0.135812
  25 C :    0.162012
  26 C :   -0.115940
  27 C :    0.237704
  28 F :   -0.167051
  29 C :    0.224477
  30 F :   -0.172326
  31 C :   -0.114667
  32 C :    0.046149
  33 C :    0.008732
  34 C :    0.006364
  35 C :   -0.193065
  36 C :    0.094373
  37 C :    0.202408
  38 N :   -0.131747
  39 C :    0.071715
  40 C :   -0.079293
  41 C :   -0.052764
  42 S :    0.131144
  43 C :   -0.110932
  44 C :    0.158451
  45 C :    0.101767
  46 C :   -0.107107
  47 C :    0.217661
  48 F :   -0.180378
  49 C :    0.234558
  50 F :   -0.172328
  51 C :   -0.117941
  52 C :    0.036380
  53 C :   -0.019615
  54 C :    0.047475
  55 C :   -0.147693
  56 C :    0.131587
  57 O :   -0.157961
  58 C :    0.017889
  59 C :   -0.093261
  60 C :    0.104729
  61 C :    0.103300
  62 C :   -0.101553
  63 C :    0.301781
  64 C :   -0.031382
  65 C :   -0.014108
  66 F :   -0.194345
  67 C :   -0.094265
  68 C :    0.033016
  69 C :    0.282088
  70 C :   -0.366857
  71 C :   -0.202013
  72 N :    0.155264
  73 C :   -0.177256
  74 N :    0.137859
  75 H :   -0.001793
  76 H :    0.003735
  77 H :   -0.007187
  78 H :   -0.004390
  79 H :   -0.010387
  80 H :    0.021244
  81 H :    0.004818
  82 H :   -0.023750
  83 H :   -0.010830
  84 H :   -0.012324
  85 H :   -0.023964
  86 H :    0.016453
  87 H :    0.035850
  88 H :    0.038953
  89 H :    0.025490
  90 H :    0.030109
  91 H :    0.131876
  92 H :    0.027467
  93 H :   -0.023699
  94 H :   -0.016068
  95 H :   -0.006974
  96 H :    0.012137
  97 H :   -0.009638
  98 H :    0.018337
  99 H :   -0.016512
 100 H :   -0.004469
 101 H :   -0.000943
 102 H :   -0.011942
 103 H :   -0.007567
Sum of atomic charges:   -0.0000000

LOEWDIN ATOMIC CHARGES
----------------------
   0 C :   -0.043129
   1 C :    0.093048
   2 F :   -0.064587
   3 C :   -0.037097
   4 C :    0.004462
   5 C :   -0.019017
   6 C :    0.003222
   7 C :    0.008712
   8 C :   -0.016480
   9 C :   -0.058780
  10 C :    0.033442
  11 C :    0.081602
  12 O :   -0.150378
  13 C :   -0.105768
  14 C :    0.060487
  15 C :   -0.150517
  16 C :   -0.037638
  17 N :   -0.051868
  18 C :   -0.020740
  19 N :   -0.055087
  20 C :    0.045450
  21 C :   -0.195826
  22 S :    0.535096
  23 C :   -0.135819
  24 C :   -0.047963
  25 C :   -0.011796
  26 C :   -0.035805
  27 C :    0.074396
  28 F :   -0.045189
  29 C :    0.063680
  30 F :   -0.052814
  31 C :   -0.035195
  32 C :   -0.047790
  33 C :   -0.005105
  34 C :   -0.050982
  35 C :   -0.024822
  36 C :   -0.049017
  37 C :    0.051471
  38 N :    0.021533
  39 C :    0.061823
  40 C :   -0.149480
  41 C :   -0.115648
  42 S :    0.469939
  43 C :   -0.198734
  44 C :   -0.014797
  45 C :   -0.067063
  46 C :   -0.031975
  47 C :    0.053341
  48 F :   -0.058968
  49 C :    0.074493
  50 F :   -0.049951
  51 C :   -0.040973
  52 C :    0.029964
  53 C :   -0.078822
  54 C :    0.065518
  55 C :   -0.120871
  56 C :    0.078118
  57 O :   -0.160393
  58 C :   -0.056607
  59 C :    0.027940
  60 C :   -0.020358
  61 C :    0.001626
  62 C :   -0.043583
  63 C :    0.090099
  64 C :   -0.041309
  65 C :    0.002325
  66 F :   -0.068717
  67 C :    0.005490
  68 C :   -0.015840
  69 C :    0.064145
  70 C :   -0.163360
  71 C :   -0.015932
  72 N :   -0.059556
  73 C :   -0.022042
  74 N :   -0.069891
  75 H :    0.042937
  76 H :    0.041996
  77 H :    0.036048
  78 H :    0.038748
  79 H :    0.039916
  80 H :    0.048376
  81 H :    0.046258
  82 H :    0.037661
  83 H :    0.030631
  84 H :    0.025232
  85 H :    0.026622
  86 H :    0.029773
  87 H :    0.039173
  88 H :    0.044232
  89 H :    0.033542
  90 H :    0.034983
  91 H :    0.085855
  92 H :    0.029304
  93 H :    0.024936
  94 H :    0.037837
  95 H :    0.042071
  96 H :    0.038638
  97 H :    0.022499
  98 H :    0.043803
  99 H :    0.037520
 100 H :    0.042101
 101 H :    0.039987
 102 H :    0.034243
 103 H :    0.037735

  Mayer bond orders larger than 0.100000
B(  0-C ,  1-C ) :   1.4400 B(  0-C ,  6-C ) :   1.2040 B(  0-C , 75-H ) :   1.0066
B(  1-C ,  2-F ) :   1.0894 B(  1-C ,  3-C ) :   1.2557 B(  3-C ,  4-C ) :   1.4595
B(  3-C , 76-H ) :   0.9931 B(  4-C ,  5-C ) :   1.2350 B(  4-C , 77-H ) :   0.9975
B(  5-C ,  6-C ) :   1.2557 B(  5-C , 10-C ) :   1.1895 B(  6-C ,  7-C ) :   1.2000
B(  7-C ,  8-C ) :   1.4671 B(  7-C , 78-H ) :   0.9952 B(  8-C ,  9-C ) :   1.2161
B(  8-C , 14-C ) :   0.9977 B(  9-C , 10-C ) :   1.4763 B(  9-C , 11-C ) :   0.9216
B( 10-C , 79-H ) :   1.0155 B( 11-C , 12-O ) :   2.2516 B( 11-C , 13-C ) :   0.9501
B( 13-C , 14-C ) :   1.0546 B( 13-C , 20-C ) :   1.5936 B( 14-C , 15-C ) :   1.6336
B( 15-C , 16-C ) :   1.1587 B( 15-C , 18-C ) :   1.1372 B( 16-C , 17-N ) :   3.0224
B( 18-C , 19-N ) :   2.9860 B( 20-C , 21-C ) :   1.2114 B( 20-C , 80-H ) :   0.9331
B( 21-C , 22-S ) :   1.1228 B( 21-C , 25-C ) :   1.2755 B( 22-S , 23-C ) :   1.2117
B( 23-C , 24-C ) :   1.3074 B( 23-C , 32-C ) :   1.1382 B( 24-C , 25-C ) :   1.2361
B( 24-C , 31-C ) :   1.1584 B( 25-C , 26-C ) :   1.1916 B( 26-C , 27-C ) :   1.4791
B( 26-C , 31-C ) :   0.1110 B( 26-C , 81-H ) :   0.9987 B( 27-C , 28-F ) :   1.1399
B( 27-C , 29-C ) :   1.1655 B( 29-C , 30-F ) :   1.1450 B( 29-C , 31-C ) :   1.4998
B( 31-C , 82-H ) :   1.0002 B( 32-C , 33-C ) :   1.6729 B( 32-C , 83-H ) :   0.9523
B( 33-C , 34-C ) :   1.1247 B( 33-C , 84-H ) :   0.9719 B( 34-C , 35-C ) :   1.7377
B( 34-C , 85-H ) :   0.9761 B( 35-C , 36-C ) :   1.0794 B( 35-C , 37-C ) :   1.0440
B( 36-C , 86-H ) :   0.9512 B( 36-C , 87-H ) :   0.9446 B( 36-C , 88-H ) :   0.9419
B( 37-C , 38-N ) :   0.9844 B( 37-C , 89-H ) :   0.9393 B( 37-C , 90-H ) :   0.9280
B( 38-N , 39-C ) :   1.2791 B( 38-N , 91-H ) :   0.9336 B( 39-C , 40-C ) :   1.5509
B( 39-C , 92-H ) :   0.9605 B( 40-C , 41-C ) :   1.2440 B( 40-C , 93-H ) :   0.9543
B( 41-C , 42-S ) :   1.1838 B( 41-C , 45-C ) :   1.2957 B( 42-S , 43-C ) :   1.0658
B( 43-C , 44-C ) :   1.2818 B( 43-C , 52-C ) :   1.3428 B( 44-C , 45-C ) :   1.2301
B( 44-C , 51-C ) :   1.1881 B( 45-C , 46-C ) :   1.1672 B( 46-C , 47-C ) :   1.5007
B( 46-C , 51-C ) :   0.1107 B( 46-C , 94-H ) :   0.9964 B( 47-C , 48-F ) :   1.1277
B( 47-C , 49-C ) :   1.1671 B( 49-C , 50-F ) :   1.1350 B( 49-C , 51-C ) :   1.4836
B( 51-C , 95-H ) :   0.9989 B( 52-C , 53-C ) :   1.4685 B( 52-C , 96-H ) :   0.9535
B( 53-C , 54-C ) :   1.2797 B( 53-C , 97-H ) :   0.9592 B( 54-C , 55-C ) :   1.5209
B( 54-C , 98-H ) :   0.9316 B( 55-C , 56-C ) :   0.9679 B( 55-C , 69-C ) :   1.0919
B( 56-C , 57-O ) :   2.2525 B( 56-C , 58-C ) :   0.9136 B( 58-C , 59-C ) :   1.4779
B( 58-C , 68-C ) :   1.2219 B( 59-C , 60-C ) :   1.1820 B( 59-C , 99-H ) :   1.0154
B( 60-C , 61-C ) :   1.2602 B( 60-C , 65-C ) :   1.2380 B( 61-C , 62-C ) :   1.2040
B( 61-C , 67-C ) :   1.1975 B( 62-C , 63-C ) :   1.4406 B( 62-C ,100-H ) :   1.0061
B( 63-C , 64-C ) :   1.2579 B( 63-C , 66-F ) :   1.0846 B( 64-C , 65-C ) :   1.4568
B( 64-C ,101-H ) :   0.9924 B( 65-C ,102-H ) :   0.9964 B( 67-C , 68-C ) :   1.4678
B( 67-C ,103-H ) :   0.9934 B( 68-C , 69-C ) :   0.9870 B( 69-C , 70-C ) :   1.5886
B( 70-C , 71-C ) :   1.1807 B( 70-C , 73-C ) :   1.1360 B( 71-C , 72-N ) :   2.9838
B( 73-C , 74-N ) :   2.9769

-----------------------------------------------------------------------------
         ABSORPTION SPECTRUM VIA TRANSITION ELECTRIC DIPOLE MOMENTS
-----------------------------------------------------------------------------
State   Energy  Wavelength   fosc         T2         TX        TY        TZ
        (cm-1)    (nm)                  (au**2)     (au)      (au)      (au)
-----------------------------------------------------------------------------
   0   13391.5    746.7   1.240863992  30.50508   5.06747   1.60216  -1.50295
   1   15591.9    641.4   0.300775638   6.35066  -1.17389  -1.03448   1.97548
   2   17009.2    587.9   0.181507996   3.51307   1.29201   0.39388  -1.29947
   3   22160.6    451.3   0.135030429   2.00598  -1.22492   0.23891   0.66968
   4   24625.4    406.1   0.030388244   0.40625  -0.23508  -0.48935  -0.33395
   5   25834.7    387.1   0.166747172   2.12486  -0.45535  -1.16400   0.75009
   6   26179.2    382.0   0.034413945   0.43277  -0.32664   0.14493  -0.55233
   7   26684.3    374.8   0.209700859   2.58714   1.36631   0.31520  -0.78803
   8   27002.3    370.3   0.220913195   2.69337  -0.18292   1.60646  -0.28142
   9   27762.2    360.2   0.008933356   0.10593   0.10495  -0.23658  -0.19736
  10   27984.3    357.3   0.025063509   0.29485   0.21805  -0.49051   0.08186
  11   28189.3    354.7   0.009480322   0.11072   0.28633  -0.06833  -0.15511
  12   28610.1    349.5   0.126798629   1.45905   0.14346   0.82119  -0.87414
  13   28963.5    345.3   0.044215917   0.50258   0.14822  -0.22866  -0.65447
  14   29435.6    339.7   0.036011262   0.40276  -0.38457  -0.30925   0.39903
  15   29763.8    336.0   0.118159786   1.30694   0.43332  -0.73044  -0.76527
  16   30208.6    331.0   0.277316135   3.02218  -0.02171   0.73913   1.57334
  17   30500.1    327.9   0.015250830   0.16461  -0.23649  -0.27350   0.18408
  18   31336.4    319.1   0.030437978   0.31977   0.37962   0.22055  -0.35640
  19   31968.7    312.8   0.048550183   0.49997   0.49626   0.38800  -0.32117
  20   32307.7    309.5   0.082247853   0.83810   0.85235  -0.15393  -0.29649
  21   32489.2    307.8   0.176878615   1.79230   0.94350  -0.78998   0.52730
  22   32740.7    305.4   0.092525511   0.93036   0.29821   0.23953  -0.88547
  23   32833.8    304.6   0.103369283   1.03644  -0.01521  -0.51053   0.88067
  24   33104.8    302.1   0.018884736   0.18780   0.30275   0.30736  -0.04087
  25   33944.2    294.6   0.578198163   5.60773   0.43282   0.07575  -2.32694
  26   34106.1    293.2   0.120953641   1.16752  -0.74301   0.02047   0.78424
  27   34142.8    292.9   0.037374587   0.36037   0.02144   0.53943   0.26254
  28   34495.3    289.9   0.409388531   3.90707  -1.39877  -0.79440   1.14867
  29   34741.6    287.8   0.199448446   1.88998  -0.89107  -0.98904   0.34321
  30   35188.7    284.2   0.164105424   1.53531   0.48491  -1.13310  -0.12748
  31   35532.9    281.4   0.001614649   0.01496   0.09514   0.07419  -0.02008
  32   36109.6    276.9   0.133440503   1.21658  -0.62346  -0.86725  -0.27524
  33   36608.2    273.2   0.137241698   1.23419   0.05851  -0.38542   1.04030
  34   36672.6    272.7   0.000922651   0.00828  -0.02702  -0.07877  -0.03672
  35   37334.8    267.8   0.136501983   1.20365   0.65101  -0.03805  -0.88226
  36   37649.5    265.6   0.152017776   1.32926   0.37729  -1.03408   0.34291
  37   37673.3    265.4   0.104103377   0.90972  -0.17522  -0.11962   0.92990
  38   37861.2    264.1   0.012039568   0.10469   0.04031   0.31546   0.05956
  39   38205.4    261.7   0.036462733   0.31420   0.21407   0.14532  -0.49724
  40   38887.1    257.2   0.088575704   0.74987  -0.64843   0.44400   0.36368
  41   39020.0    256.3   0.180973837   1.52688  -0.21033  -1.14691   0.40894
  42   39050.5    256.1   0.216162559   1.82234   0.74240  -1.07895  -0.32719
  43   39239.4    254.8   0.011664974   0.09787   0.10653  -0.15731   0.24854
  44   40102.3    249.4   0.004083092   0.03352   0.11509  -0.13143  -0.05477
  45   40145.6    249.1   0.014988472   0.12291   0.02903   0.31721   0.14645

FINAL SINGLE POINT ENERGY     -4119.021144905191

DIPOLE MOMENT
-------------
                                X             Y             Z
Electronic contribution:    -12.24284      -2.95063     -12.21622
Nuclear contribution   :     10.78945       0.12891      13.77229
                        -----------------------------------------
Total Dipole Moment    :     -1.45339      -2.82172       1.55607
                        -----------------------------------------
Magnitude (a.u.)       :      3.53494
Magnitude (Debye)      :      8.98511

Rotational constants in cm-1:     0.001690     0.000161     0.000158
Rotational constants in MHz :    50.679553     4.827547     4.740109

                             ****ORCA TERMINATED NORMALLY****
TOTAL RUN TIME: 0 days 0 hours 11 minutes 34 seconds 701 msec
