                         Program Version 4.2.0 -  RELEASE  -
|  1> # ORCA input file
|  2> # SCF done       -202.486780151913          0.000864201956
|  3> ! CAM-B3LYP def2-SVP def2/J RIJCOSX Grid4 TightSCF
|  4> %maxcore 5000
|  5> %tddft
|  6>     Mode sTDDFT
|  7>     Ethresh 5.0
|  8>     maxcore 5000
|  9> end
| 10>
| 11> %pal
| 12>   nprocs 6
| 13>   end
| 14> * xyz 0 1
| 15>    C       -9.56652         9.77263         1.81009
| 16>    C      -10.03040         9.95312         3.08635
| 17>    C      -10.28807        11.21231         3.66649
| 18>    N      -10.51309        12.21018         4.18667
| 19>    C      -10.32037         8.89566         3.97311
| 20>    N      -10.57274         8.06153         4.72002
| 21>    C       -9.27425        10.82877         0.84466
| 22>    C       -8.86154        10.23665        -0.37811
| 23>    C       -8.50752        10.97907        -1.47930
| 24>    C       -8.56025        12.37226        -1.37058
| 25>    C       -8.97391        12.95473        -0.14803
| 26>    C       -9.33389        12.20354         0.96520
| 27>    S       -8.96239        14.68859        -0.23062
| 28>    C       -8.40832        14.61140        -1.88236
| 29>    C       -8.24104        13.35105        -2.35033
| 30>   Br       -8.10367        16.19891        -2.83193
| 31>    C       -8.87055         8.77912        -0.22529
| 32>    O       -8.57967         7.93471        -1.06825
| 33>    C       -9.28628         8.51332         1.15665
| 34>    C       -9.31229         7.23767         1.66160
| 35>    N       -8.98861         6.20500         0.87324
| 36>    C       -8.85576         4.90345         1.22830
| 37>    S       -9.11865         4.34941         2.84978
| 38>    C       -8.64812         2.75542         2.35395
| 39>    N       -8.67914         1.73997         3.32404
| 40>    O       -8.36076         0.62034         2.97852
| 41>    O       -9.03329         2.06816         4.44130
| 42>    C       -8.30546         2.66360         1.03252
| 43>    C       -8.42953         3.89350         0.35751
| 44>    C       -8.19195         4.10382        -1.04681
| 45>    C       -7.38544         3.33593        -1.80279
| 46>    C       -7.20197         3.51661        -3.20527
| 47>    C       -6.19920         2.94692        -3.97677
| 48>    C       -5.21179         2.13512        -3.39328
| 49>    N       -4.43282         1.48388        -2.86131
| 50>    C       -6.30028         3.29684        -5.34952
| 51>    C       -7.40264         4.11423        -5.57786
| 52>    S       -8.29333         4.49773        -4.15764
| 53>    S       -7.65149         4.57037        -7.23294
| 54>    C       -6.23219         3.65945        -7.63844
| 55>    C       -5.59818         3.04543        -6.56410
| 56>    C       -4.42409         2.36128        -6.97790
| 57>    C       -3.66079         1.50911        -6.16342
| 58>    N       -3.05791         0.76275        -5.53545
| 59>    C       -4.19354         2.47549        -8.34361
| 60>    S       -5.45779         3.38632        -9.15110
| 61>    C       -3.09757         1.96611        -9.09236
| 62>    C       -1.79872         1.97846        -8.67010
| 63>    C       -0.68504         1.39243        -9.33577
| 64>    C        0.51115         1.64589        -8.74583
| 65>    C        0.42108         2.47605        -7.60020
| 66>    S       -1.24273         2.87447        -7.26340
| 67>    C        1.45243         2.98532        -6.83553
| 68>    C        2.83523         2.70760        -6.93567
| 69>    C        3.59958         3.41519        -6.05857
| 70>    C        2.86334         4.30051        -5.23369
| 71>    S        1.15712         4.17241        -5.58554
| 72>    C        3.38645         5.20097        -4.32954
| 73>    C        2.60561         6.09285        -3.59667
| 74>    C        3.02144         7.12652        -2.79012
| 75>    C        4.30057         7.76175        -2.61522
| 76>    C        5.32423         7.83764        -3.53116
| 77>    C        6.53926         8.51090        -3.29668
| 78>    N        7.55629         9.02531        -3.15434
| 79>    C        5.24998         7.36381        -4.85570
| 80>    N        5.23619         7.04726        -5.95993
| 81>    C        4.24017         8.52820        -1.37021
| 82>    C        2.90040         8.53518        -0.90768
| 83>    C        2.07359         7.70827        -1.81142
| 84>    O        0.87810         7.51760        -1.75273
| 85>    C        2.51095         9.21948         0.21696
| 86>    C        3.49147         9.92207         0.92644
| 87>    C        4.82867         9.89438         0.46655
| 88>    C        5.22203         9.20773        -0.67671
| 89>    S        5.87801        10.82076         1.49604
| 90>    C        4.52269        11.23286         2.51277
| 91>    C        3.34527        10.70224         2.10638
| 92>   Br        4.79030        12.32440         4.01466
| 93>    H       -8.19520        10.50079        -2.39431
| 94>    H       -9.63847        12.69404         1.87454
| 95>    H       -7.90489        13.12038        -3.34465
| 96>    H       -9.56925         7.01928         2.69017
| 97>    H       -8.74145         6.48629        -0.09468
| 98>    H       -8.00405         1.73837         0.57661
| 99>    H       -8.70115         4.93879        -1.51225
|100>    H       -6.80062         2.54221        -1.35765
|101>    H       -3.30492         1.60160       -10.08966
|102>    H       -0.81730         0.79694       -10.22148
|103>    H        1.45565         1.28547        -9.11134
|104>    H        3.22361         1.99423        -7.63986
|105>    H        4.67050         3.34893        -5.98907
|106>    H        4.45936         5.19653        -4.20575
|107>    H        1.53115         5.93119        -3.60468
|108>    H        1.48174         9.21557         0.53988
|109>    H        6.25421         9.21395        -0.98515
|110>    H        2.41108        10.85356         2.61567
|111> *
|112>
|113>                          ****END OF INPUT****

CARTESIAN COORDINATES (ANGSTROEM)
---------------------------------
  C     -9.566520    9.772630    1.810090
  C    -10.030400    9.953120    3.086350
  C    -10.288070   11.212310    3.666490
  N    -10.513090   12.210180    4.186670
  C    -10.320370    8.895660    3.973110
  N    -10.572740    8.061530    4.720020
  C     -9.274250   10.828770    0.844660
  C     -8.861540   10.236650   -0.378110
  C     -8.507520   10.979070   -1.479300
  C     -8.560250   12.372260   -1.370580
  C     -8.973910   12.954730   -0.148030
  C     -9.333890   12.203540    0.965200
  S     -8.962390   14.688590   -0.230620
  C     -8.408320   14.611400   -1.882360
  C     -8.241040   13.351050   -2.350330
  Br    -8.103670   16.198910   -2.831930
  C     -8.870550    8.779120   -0.225290
  O     -8.579670    7.934710   -1.068250
  C     -9.286280    8.513320    1.156650
  C     -9.312290    7.237670    1.661600
  N     -8.988610    6.205000    0.873240
  C     -8.855760    4.903450    1.228300
  S     -9.118650    4.349410    2.849780
  C     -8.648120    2.755420    2.353950
  N     -8.679140    1.739970    3.324040
  O     -8.360760    0.620340    2.978520
  O     -9.033290    2.068160    4.441300
  C     -8.305460    2.663600    1.032520
  C     -8.429530    3.893500    0.357510
  C     -8.191950    4.103820   -1.046810
  C     -7.385440    3.335930   -1.802790
  C     -7.201970    3.516610   -3.205270
  C     -6.199200    2.946920   -3.976770
  C     -5.211790    2.135120   -3.393280
  N     -4.432820    1.483880   -2.861310
  C     -6.300280    3.296840   -5.349520
  C     -7.402640    4.114230   -5.577860
  S     -8.293330    4.497730   -4.157640
  S     -7.651490    4.570370   -7.232940
  C     -6.232190    3.659450   -7.638440
  C     -5.598180    3.045430   -6.564100
  C     -4.424090    2.361280   -6.977900
  C     -3.660790    1.509110   -6.163420
  N     -3.057910    0.762750   -5.535450
  C     -4.193540    2.475490   -8.343610
  S     -5.457790    3.386320   -9.151100
  C     -3.097570    1.966110   -9.092360
  C     -1.798720    1.978460   -8.670100
  C     -0.685040    1.392430   -9.335770
  C      0.511150    1.645890   -8.745830
  C      0.421080    2.476050   -7.600200
  S     -1.242730    2.874470   -7.263400
  C      1.452430    2.985320   -6.835530
  C      2.835230    2.707600   -6.935670
  C      3.599580    3.415190   -6.058570
  C      2.863340    4.300510   -5.233690
  S      1.157120    4.172410   -5.585540
  C      3.386450    5.200970   -4.329540
  C      2.605610    6.092850   -3.596670
  C      3.021440    7.126520   -2.790120
  C      4.300570    7.761750   -2.615220
  C      5.324230    7.837640   -3.531160
  C      6.539260    8.510900   -3.296680
  N      7.556290    9.025310   -3.154340
  C      5.249980    7.363810   -4.855700
  N      5.236190    7.047260   -5.959930
  C      4.240170    8.528200   -1.370210
  C      2.900400    8.535180   -0.907680
  C      2.073590    7.708270   -1.811420
  O      0.878100    7.517600   -1.752730
  C      2.510950    9.219480    0.216960
  C      3.491470    9.922070    0.926440
  C      4.828670    9.894380    0.466550
  C      5.222030    9.207730   -0.676710
  S      5.878010   10.820760    1.496040
  C      4.522690   11.232860    2.512770
  C      3.345270   10.702240    2.106380
  Br     4.790300   12.324400    4.014660
  H     -8.195200   10.500790   -2.394310
  H     -9.638470   12.694040    1.874540
  H     -7.904890   13.120380   -3.344650
  H     -9.569250    7.019280    2.690170
  H     -8.741450    6.486290   -0.094680
  H     -8.004050    1.738370    0.576610
  H     -8.701150    4.938790   -1.512250
  H     -6.800620    2.542210   -1.357650
  H     -3.304920    1.601600  -10.089660
  H     -0.817300    0.796940  -10.221480
  H      1.455650    1.285470   -9.111340
  H      3.223610    1.994230   -7.639860
  H      4.670500    3.348930   -5.989070
  H      4.459360    5.196530   -4.205750
  H      1.531150    5.931190   -3.604680
  H      1.481740    9.215570    0.539880
  H      6.254210    9.213950   -0.985150
  H      2.411080   10.853560    2.615670

 Total Charge           Charge          ....    0
 Multiplicity           Mult            ....    1
 Number of Electrons    NEL             ....  640
 Basis Dimension        Dim             .... 1250

ORBITAL ENERGIES
----------------

  NO   OCC          E(Eh)            E(eV)
   0   2.0000    -482.893066    -13140.1883
   1   2.0000    -482.880757    -13139.8534
   2   2.0000     -88.998197     -2421.7640
   3   2.0000     -88.997029     -2421.7323
   4   2.0000     -88.994120     -2421.6531
   5   2.0000     -88.993413     -2421.6339
   6   2.0000     -88.985326     -2421.4138
   7   2.0000     -88.969641     -2420.9870
   8   2.0000     -88.965599     -2420.8770
   9   2.0000     -88.964525     -2420.8478
  10   2.0000     -62.570802     -1702.6381
  11   2.0000     -62.558485     -1702.3029
  12   2.0000     -56.404763     -1534.8516
  13   2.0000     -56.402024     -1534.7771
  14   2.0000     -56.401994     -1534.7763
  15   2.0000     -56.392428     -1534.5160
  16   2.0000     -56.389726     -1534.4425
  17   2.0000     -56.389688     -1534.4414
  18   2.0000     -19.244212      -523.6616
  19   2.0000     -19.243830      -523.6512
  20   2.0000     -19.242785      -523.6228
  21   2.0000     -19.204551      -522.5824
  22   2.0000     -14.656033      -398.8109
  23   2.0000     -14.503776      -394.6678
  24   2.0000     -14.427140      -392.5824
  25   2.0000     -14.422720      -392.4622
  26   2.0000     -14.409996      -392.1159
  27   2.0000     -14.408032      -392.0625
  28   2.0000     -14.407565      -392.0498
  29   2.0000     -14.405853      -392.0032
  30   2.0000     -10.389284      -282.7068
  31   2.0000     -10.380971      -282.4806
  32   2.0000     -10.378691      -282.4186
  33   2.0000     -10.367834      -282.1231
  34   2.0000     -10.355142      -281.7777
  35   2.0000     -10.354738      -281.7668
  36   2.0000     -10.354358      -281.7564
  37   2.0000     -10.352821      -281.7146
  38   2.0000     -10.351076      -281.6671
  39   2.0000     -10.347472      -281.5690
  40   2.0000     -10.347321      -281.5649
  41   2.0000     -10.344232      -281.4809
  42   2.0000     -10.342050      -281.4215
  43   2.0000     -10.337305      -281.2924
  44   2.0000     -10.336252      -281.2637
  45   2.0000     -10.336133      -281.2605
  46   2.0000     -10.333463      -281.1878
  47   2.0000     -10.333412      -281.1864
  48   2.0000     -10.332872      -281.1717
  49   2.0000     -10.331310      -281.1292
  50   2.0000     -10.331202      -281.1263
  51   2.0000     -10.330768      -281.1145
  52   2.0000     -10.329295      -281.0744
  53   2.0000     -10.325632      -280.9747
  54   2.0000     -10.320204      -280.8270
  55   2.0000     -10.319310      -280.8027
  56   2.0000     -10.319000      -280.7943
  57   2.0000     -10.318782      -280.7883
  58   2.0000     -10.318507      -280.7809
  59   2.0000     -10.318063      -280.7688
  60   2.0000     -10.316643      -280.7301
  61   2.0000     -10.316014      -280.7130
  62   2.0000     -10.314529      -280.6726
  63   2.0000     -10.312721      -280.6234
  64   2.0000     -10.312129      -280.6073
  65   2.0000     -10.311408      -280.5877
  66   2.0000     -10.310874      -280.5732
  67   2.0000     -10.310064      -280.5511
  68   2.0000     -10.309999      -280.5493
  69   2.0000     -10.309268      -280.5295
  70   2.0000     -10.309142      -280.5260
  71   2.0000     -10.308984      -280.5217
  72   2.0000     -10.308539      -280.5096
  73   2.0000     -10.307111      -280.4707
  74   2.0000     -10.306638      -280.4579
  75   2.0000     -10.306582      -280.4564
  76   2.0000     -10.305888      -280.4375
  77   2.0000     -10.301008      -280.3047
  78   2.0000     -10.300433      -280.2890
  79   2.0000     -10.299907      -280.2747
  80   2.0000     -10.298040      -280.2239
  81   2.0000     -10.293996      -280.1139
  82   2.0000     -10.291111      -280.0354
  83   2.0000     -10.289312      -279.9864
  84   2.0000     -10.285189      -279.8742
  85   2.0000     -10.284597      -279.8581
  86   2.0000      -8.800258      -239.4672
  87   2.0000      -8.787923      -239.1315
  88   2.0000      -8.093351      -220.2313
  89   2.0000      -8.092081      -220.1967
  90   2.0000      -8.089315      -220.1214
  91   2.0000      -8.088949      -220.1115
  92   2.0000      -8.081288      -219.9030
  93   2.0000      -8.065631      -219.4770
  94   2.0000      -8.061655      -219.3688
  95   2.0000      -8.060918      -219.3487
  96   2.0000      -6.636623      -180.5917
  97   2.0000      -6.624200      -180.2536
  98   2.0000      -6.621961      -180.1927
  99   2.0000      -6.621749      -180.1869
 100   2.0000      -6.609651      -179.8577
 101   2.0000      -6.609491      -179.8534
 102   2.0000      -6.062970      -164.9818
 103   2.0000      -6.062048      -164.9567
 104   2.0000      -6.058868      -164.8702
 105   2.0000      -6.058598      -164.8628
 106   2.0000      -6.058543      -164.8613
 107   2.0000      -6.057824      -164.8418
 108   2.0000      -6.054903      -164.7623
 109   2.0000      -6.054671      -164.7560
 110   2.0000      -6.054333      -164.7468
 111   2.0000      -6.052911      -164.7081
 112   2.0000      -6.050941      -164.6545
 113   2.0000      -6.050940      -164.6545
 114   2.0000      -6.050439      -164.6408
 115   2.0000      -6.046682      -164.5386
 116   2.0000      -6.042563      -164.4265
 117   2.0000      -6.035338      -164.2299
 118   2.0000      -6.031426      -164.1234
 119   2.0000      -6.031043      -164.1130
 120   2.0000      -6.030559      -164.0998
 121   2.0000      -6.027307      -164.0114
 122   2.0000      -6.026858      -163.9991
 123   2.0000      -6.026519      -163.9899
 124   2.0000      -6.022459      -163.8794
 125   2.0000      -6.021940      -163.8653
 126   2.0000      -2.752461       -74.8983
 127   2.0000      -2.748386       -74.7874
 128   2.0000      -2.748209       -74.7826
 129   2.0000      -2.740064       -74.5609
 130   2.0000      -2.736563       -74.4657
 131   2.0000      -2.736549       -74.4653
 132   2.0000      -2.736010       -74.4506
 133   2.0000      -2.735849       -74.4462
 134   2.0000      -2.724302       -74.1320
 135   2.0000      -2.724288       -74.1316
 136   2.0000      -1.326552       -36.0973
 137   2.0000      -1.157688       -31.5023
 138   2.0000      -1.145997       -31.1842
 139   2.0000      -1.118871       -30.4460
 140   2.0000      -1.112054       -30.2605
 141   2.0000      -1.050354       -28.5816
 142   2.0000      -1.033999       -28.1365
 143   2.0000      -1.023559       -27.8524
 144   2.0000      -1.021238       -27.7893
 145   2.0000      -1.018529       -27.7156
 146   2.0000      -1.015694       -27.6384
 147   2.0000      -1.014514       -27.6063
 148   2.0000      -1.005609       -27.3640
 149   2.0000      -1.004317       -27.3289
 150   2.0000      -1.000361       -27.2212
 151   2.0000      -0.997636       -27.1471
 152   2.0000      -0.993144       -27.0248
 153   2.0000      -0.986038       -26.8314
 154   2.0000      -0.985480       -26.8163
 155   2.0000      -0.981367       -26.7043
 156   2.0000      -0.961844       -26.1731
 157   2.0000      -0.952552       -25.9202
 158   2.0000      -0.936980       -25.4965
 159   2.0000      -0.933349       -25.3977
 160   2.0000      -0.919569       -25.0227
 161   2.0000      -0.918574       -24.9957
 162   2.0000      -0.912470       -24.8296
 163   2.0000      -0.905266       -24.6335
 164   2.0000      -0.901157       -24.5217
 165   2.0000      -0.898698       -24.4548
 166   2.0000      -0.896818       -24.4037
 167   2.0000      -0.889772       -24.2119
 168   2.0000      -0.881023       -23.9738
 169   2.0000      -0.878876       -23.9154
 170   2.0000      -0.873272       -23.7630
 171   2.0000      -0.868228       -23.6257
 172   2.0000      -0.866538       -23.5797
 173   2.0000      -0.859668       -23.3927
 174   2.0000      -0.845693       -23.0125
 175   2.0000      -0.842499       -22.9256
 176   2.0000      -0.840336       -22.8667
 177   2.0000      -0.828060       -22.5327
 178   2.0000      -0.822607       -22.3843
 179   2.0000      -0.816968       -22.2308
 180   2.0000      -0.804888       -21.9021
 181   2.0000      -0.792898       -21.5759
 182   2.0000      -0.775188       -21.0939
 183   2.0000      -0.772206       -21.0128
 184   2.0000      -0.762701       -20.7541
 185   2.0000      -0.753269       -20.4975
 186   2.0000      -0.745632       -20.2897
 187   2.0000      -0.737962       -20.0810
 188   2.0000      -0.730459       -19.8768
 189   2.0000      -0.715202       -19.4616
 190   2.0000      -0.713022       -19.4023
 191   2.0000      -0.706533       -19.2257
 192   2.0000      -0.701391       -19.0858
 193   2.0000      -0.696839       -18.9619
 194   2.0000      -0.693116       -18.8606
 195   2.0000      -0.683983       -18.6121
 196   2.0000      -0.683893       -18.6097
 197   2.0000      -0.679279       -18.4841
 198   2.0000      -0.669027       -18.2052
 199   2.0000      -0.664596       -18.0846
 200   2.0000      -0.660742       -17.9797
 201   2.0000      -0.654590       -17.8123
 202   2.0000      -0.652493       -17.7552
 203   2.0000      -0.647161       -17.6101
 204   2.0000      -0.642869       -17.4934
 205   2.0000      -0.638667       -17.3790
 206   2.0000      -0.637629       -17.3508
 207   2.0000      -0.636966       -17.3327
 208   2.0000      -0.634103       -17.2548
 209   2.0000      -0.629499       -17.1295
 210   2.0000      -0.625727       -17.0269
 211   2.0000      -0.623491       -16.9661
 212   2.0000      -0.615698       -16.7540
 213   2.0000      -0.613499       -16.6942
 214   2.0000      -0.603846       -16.4315
 215   2.0000      -0.594886       -16.1877
 216   2.0000      -0.590876       -16.0786
 217   2.0000      -0.589283       -16.0352
 218   2.0000      -0.587559       -15.9883
 219   2.0000      -0.577739       -15.7211
 220   2.0000      -0.571389       -15.5483
 221   2.0000      -0.568452       -15.4684
 222   2.0000      -0.567340       -15.4381
 223   2.0000      -0.561145       -15.2695
 224   2.0000      -0.557526       -15.1710
 225   2.0000      -0.555544       -15.1171
 226   2.0000      -0.552178       -15.0255
 227   2.0000      -0.548195       -14.9171
 228   2.0000      -0.545182       -14.8351
 229   2.0000      -0.544154       -14.8072
 230   2.0000      -0.541644       -14.7389
 231   2.0000      -0.536883       -14.6093
 232   2.0000      -0.535172       -14.5628
 233   2.0000      -0.531921       -14.4743
 234   2.0000      -0.530332       -14.4311
 235   2.0000      -0.529124       -14.3982
 236   2.0000      -0.528395       -14.3784
 237   2.0000      -0.524966       -14.2851
 238   2.0000      -0.522223       -14.2104
 239   2.0000      -0.518926       -14.1207
 240   2.0000      -0.516699       -14.0601
 241   2.0000      -0.514906       -14.0113
 242   2.0000      -0.510815       -13.9000
 243   2.0000      -0.509416       -13.8619
 244   2.0000      -0.507925       -13.8213
 245   2.0000      -0.507443       -13.8082
 246   2.0000      -0.502633       -13.6774
 247   2.0000      -0.501234       -13.6393
 248   2.0000      -0.497702       -13.5432
 249   2.0000      -0.496291       -13.5048
 250   2.0000      -0.490990       -13.3605
 251   2.0000      -0.489110       -13.3094
 252   2.0000      -0.487254       -13.2589
 253   2.0000      -0.486936       -13.2502
 254   2.0000      -0.485258       -13.2046
 255   2.0000      -0.481283       -13.0964
 256   2.0000      -0.477407       -12.9909
 257   2.0000      -0.476970       -12.9790
 258   2.0000      -0.475236       -12.9318
 259   2.0000      -0.469375       -12.7723
 260   2.0000      -0.467741       -12.7279
 261   2.0000      -0.464076       -12.6282
 262   2.0000      -0.463209       -12.6046
 263   2.0000      -0.461402       -12.5554
 264   2.0000      -0.459388       -12.5006
 265   2.0000      -0.458220       -12.4688
 266   2.0000      -0.455320       -12.3899
 267   2.0000      -0.452541       -12.3143
 268   2.0000      -0.452460       -12.3121
 269   2.0000      -0.449691       -12.2367
 270   2.0000      -0.448899       -12.2152
 271   2.0000      -0.444364       -12.0918
 272   2.0000      -0.441504       -12.0139
 273   2.0000      -0.440439       -11.9850
 274   2.0000      -0.439677       -11.9642
 275   2.0000      -0.437362       -11.9012
 276   2.0000      -0.436837       -11.8869
 277   2.0000      -0.436503       -11.8778
 278   2.0000      -0.435422       -11.8484
 279   2.0000      -0.433395       -11.7933
 280   2.0000      -0.432603       -11.7717
 281   2.0000      -0.431115       -11.7312
 282   2.0000      -0.427688       -11.6380
 283   2.0000      -0.425864       -11.5883
 284   2.0000      -0.422279       -11.4908
 285   2.0000      -0.419724       -11.4213
 286   2.0000      -0.418952       -11.4003
 287   2.0000      -0.415716       -11.3122
 288   2.0000      -0.412351       -11.2206
 289   2.0000      -0.405409       -11.0317
 290   2.0000      -0.401434       -10.9236
 291   2.0000      -0.398646       -10.8477
 292   2.0000      -0.395443       -10.7606
 293   2.0000      -0.394262       -10.7284
 294   2.0000      -0.390896       -10.6368
 295   2.0000      -0.383822       -10.4443
 296   2.0000      -0.383496       -10.4355
 297   2.0000      -0.382461       -10.4073
 298   2.0000      -0.381667       -10.3857
 299   2.0000      -0.380600       -10.3567
 300   2.0000      -0.373977       -10.1764
 301   2.0000      -0.373129       -10.1534
 302   2.0000      -0.370290       -10.0761
 303   2.0000      -0.365288        -9.9400
 304   2.0000      -0.359481        -9.7820
 305   2.0000      -0.353459        -9.6181
 306   2.0000      -0.351207        -9.5568
 307   2.0000      -0.347114        -9.4454
 308   2.0000      -0.339371        -9.2348
 309   2.0000      -0.330455        -8.9921
 310   2.0000      -0.328488        -8.9386
 311   2.0000      -0.327780        -8.9193
 312   2.0000      -0.317814        -8.6482
 313   2.0000      -0.308566        -8.3965
 314   2.0000      -0.306146        -8.3307
 315   2.0000      -0.301093        -8.1931
 316   2.0000      -0.293817        -7.9952
 317   2.0000      -0.287255        -7.8166
 318   2.0000      -0.272878        -7.4254
 319   2.0000      -0.237678        -6.4676
 320   0.0000      -0.113279        -3.0825
 321   0.0000      -0.097056        -2.6410
 322   0.0000      -0.078474        -2.1354
 323   0.0000      -0.066001        -1.7960
 324   0.0000      -0.061361        -1.6697

MULLIKEN ATOMIC CHARGES
-----------------------
   0 C :    0.329772
   1 C :   -0.338984
   2 C :   -0.182590
   3 N :    0.152198
   4 C :   -0.196854
   5 N :    0.146613
   6 C :    0.007859
   7 C :   -0.006914
   8 C :   -0.065481
   9 C :    0.115629
  10 C :   -0.093088
  11 C :   -0.017285
  12 S :    0.194671
  13 C :   -0.125873
  14 C :    0.042144
  15 Br:    0.031251
  16 C :    0.171404
  17 O :   -0.224275
  18 C :   -0.133283
  19 C :    0.034150
  20 N :   -0.014067
  21 C :   -0.110541
  22 S :    0.185768
  23 C :    0.000611
  24 N :    0.274793
  25 O :   -0.239185
  26 O :   -0.254092
  27 C :    0.013969
  28 C :    0.116946
  29 C :   -0.055749
  30 C :   -0.002030
  31 C :   -0.091750
  32 C :   -0.009857
  33 C :   -0.322186
  34 N :    0.211855
  35 C :    0.162389
  36 C :   -0.235261
  37 S :    0.166833
  38 S :    0.192631
  39 C :   -0.235466
  40 C :    0.128437
  41 C :   -0.002212
  42 C :   -0.329835
  43 N :    0.217940
  44 C :   -0.123689
  45 S :    0.175361
  46 C :   -0.015059
  47 C :   -0.026721
  48 C :    0.046344
  49 C :    0.043585
  50 C :   -0.045596
  51 S :    0.133595
  52 C :   -0.053186
  53 C :    0.043721
  54 C :    0.044464
  55 C :   -0.017683
  56 S :    0.116858
  57 C :    0.001675
  58 C :    0.017541
  59 C :   -0.120933
  60 C :    0.287245
  61 C :   -0.345814
  62 C :   -0.175098
  63 N :    0.138381
  64 C :   -0.218064
  65 N :    0.158124
  66 C :    0.006257
  67 C :   -0.003703
  68 C :    0.136196
  69 O :   -0.152163
  70 C :   -0.074763
  71 C :    0.114902
  72 C :   -0.090269
  73 C :   -0.023633
  74 S :    0.182134
  75 C :   -0.124422
  76 C :    0.038053
  77 Br:    0.018813
  78 H :   -0.009773
  79 H :   -0.003413
  80 H :   -0.002015
  81 H :    0.046971
  82 H :    0.179209
  83 H :    0.020075
  84 H :    0.014178
  85 H :    0.026619
  86 H :    0.010182
  87 H :    0.000654
  88 H :   -0.001879
  89 H :   -0.000847
  90 H :    0.007116
  91 H :    0.012709
  92 H :    0.020328
  93 H :   -0.012936
  94 H :   -0.005481
  95 H :   -0.005156
Sum of atomic charges:   -0.0000000

LOEWDIN ATOMIC CHARGES
----------------------
   0 C :    0.078451
   1 C :   -0.145070
   2 C :   -0.019934
   3 N :   -0.050270
   4 C :   -0.020553
   5 N :   -0.050255
   6 C :   -0.018123
   7 C :   -0.052378
   8 C :    0.025528
   9 C :   -0.033151
  10 C :   -0.143193
  11 C :   -0.006359
  12 S :    0.440231
  13 C :   -0.270445
  14 C :   -0.069495
  15 Br:    0.142253
  16 C :    0.097857
  17 O :   -0.176880
  18 C :   -0.143542
  19 C :    0.113098
  20 N :    0.076723
  21 C :   -0.110857
  22 S :    0.478532
  23 C :   -0.198957
  24 N :    0.272470
  25 O :   -0.205876
  26 O :   -0.220945
  27 C :    0.005505
  28 C :   -0.089175
  29 C :   -0.023503
  30 C :   -0.027463
  31 C :   -0.130028
  32 C :   -0.093205
  33 C :   -0.042227
  34 N :   -0.028704
  35 C :   -0.062390
  36 C :   -0.330584
  37 S :    0.453764
  38 S :    0.426705
  39 C :   -0.332502
  40 C :   -0.061380
  41 C :   -0.105189
  42 C :   -0.057739
  43 N :   -0.027001
  44 C :   -0.139489
  45 S :    0.448124
  46 C :   -0.078103
  47 C :   -0.123006
  48 C :   -0.018376
  49 C :   -0.019015
  50 C :   -0.155824
  51 S :    0.423683
  52 C :   -0.176843
  53 C :   -0.007348
  54 C :   -0.025317
  55 C :   -0.100661
  56 S :    0.407926
  57 C :   -0.062190
  58 C :    0.052825
  59 C :   -0.100445
  60 C :    0.069575
  61 C :   -0.149879
  62 C :   -0.019678
  63 N :   -0.060556
  64 C :   -0.023738
  65 N :   -0.060803
  66 C :   -0.016587
  67 C :   -0.051269
  68 C :    0.079328
  69 O :   -0.152181
  70 C :    0.019642
  71 C :   -0.035606
  72 C :   -0.144347
  73 C :   -0.014987
  74 S :    0.429424
  75 C :   -0.273924
  76 C :   -0.070641
  77 Br:    0.132807
  78 H :    0.041696
  79 H :    0.042565
  80 H :    0.039439
  81 H :    0.037161
  82 H :    0.084269
  83 H :    0.049266
  84 H :    0.025033
  85 H :    0.046057
  86 H :    0.039528
  87 H :    0.038585
  88 H :    0.036873
  89 H :    0.037185
  90 H :    0.042085
  91 H :    0.039042
  92 H :    0.036731
  93 H :    0.039927
  94 H :    0.040256
  95 H :    0.038031

  Mayer bond orders larger than 0.100000
B(  0-C ,  1-C ) :   1.6344 B(  0-C ,  6-C ) :   1.0053 B(  0-C , 18-C ) :   1.0924
B(  1-C ,  2-C ) :   1.1398 B(  1-C ,  4-C ) :   1.1469 B(  2-C ,  3-N ) :   2.9698
B(  4-C ,  5-N ) :   2.9574 B(  6-C ,  7-C ) :   1.2705 B(  6-C , 11-C ) :   1.4248
B(  7-C ,  8-C ) :   1.4218 B(  7-C , 16-C ) :   0.9868 B(  8-C ,  9-C ) :   1.2441
B(  8-C , 78-H ) :   1.0174 B(  9-C , 10-C ) :   1.3054 B(  9-C , 14-C ) :   1.1658
B( 10-C , 11-C ) :   1.3220 B( 10-C , 12-S ) :   1.0921 B( 11-C , 79-H ) :   0.9793
B( 12-S , 13-C ) :   1.0887 B( 13-C , 14-C ) :   1.6160 B( 13-C , 15-Br) :   1.0232
B( 14-C , 80-H ) :   0.9995 B( 16-C , 17-O ) :   2.0241 B( 16-C , 18-C ) :   1.0008
B( 17-O , 82-H ) :   0.1522 B( 18-C , 19-C ) :   1.4679 B( 19-C , 20-N ) :   1.3309
B( 19-C , 81-H ) :   0.9311 B( 20-N , 21-C ) :   1.1925 B( 20-N , 82-H ) :   0.8197
B( 21-C , 22-S ) :   1.1408 B( 21-C , 28-C ) :   1.3847 B( 22-S , 23-C ) :   1.0849
B( 23-C , 24-N ) :   0.9597 B( 23-C , 27-C ) :   1.5045 B( 24-N , 25-O ) :   1.5435
B( 24-N , 26-O ) :   1.5175 B( 25-O , 26-O ) :   0.2644 B( 27-C , 28-C ) :   1.2277
B( 27-C , 83-H ) :   1.0011 B( 28-C , 29-C ) :   1.0639 B( 29-C , 30-C ) :   1.7126
B( 29-C , 84-H ) :   0.9598 B( 30-C , 31-C ) :   1.1633 B( 30-C , 85-H ) :   0.9650
B( 31-C , 32-C ) :   1.4936 B( 31-C , 37-S ) :   1.1215 B( 32-C , 33-C ) :   1.1736
B( 32-C , 35-C ) :   1.2461 B( 33-C , 34-N ) :   2.9874 B( 35-C , 36-C ) :   1.4110
B( 35-C , 40-C ) :   1.0727 B( 36-C , 37-S ) :   1.0950 B( 36-C , 38-S ) :   1.0854
B( 38-S , 39-C ) :   1.0849 B( 39-C , 40-C ) :   1.4107 B( 39-C , 45-S ) :   1.0915
B( 40-C , 41-C ) :   1.2565 B( 41-C , 42-C ) :   1.1569 B( 41-C , 44-C ) :   1.4903
B( 42-C , 43-N ) :   3.0087 B( 44-C , 45-S ) :   1.1229 B( 44-C , 46-C ) :   1.1089
B( 46-C , 47-C ) :   1.6494 B( 46-C , 86-H ) :   0.9477 B( 47-C , 48-C ) :   1.1222
B( 47-C , 51-S ) :   1.0531 B( 48-C , 49-C ) :   1.6191 B( 48-C , 87-H ) :   0.9979
B( 49-C , 50-C ) :   1.1678 B( 49-C , 88-H ) :   0.9936 B( 50-C , 51-S ) :   1.0779
B( 50-C , 52-C ) :   1.5056 B( 52-C , 53-C ) :   1.1924 B( 52-C , 56-S ) :   1.0488
B( 53-C , 54-C ) :   1.5745 B( 53-C , 89-H ) :   0.9945 B( 54-C , 55-C ) :   1.1607
B( 54-C , 90-H ) :   0.9992 B( 55-C , 56-S ) :   1.0797 B( 55-C , 57-C ) :   1.5295
B( 57-C , 58-C ) :   1.1928 B( 57-C , 91-H ) :   0.9606 B( 58-C , 59-C ) :   1.5599
B( 58-C , 92-H ) :   0.9394 B( 59-C , 60-C ) :   1.0760 B( 59-C , 68-C ) :   0.9597
B( 60-C , 61-C ) :   1.6040 B( 60-C , 66-C ) :   1.0065 B( 61-C , 62-C ) :   1.1321
B( 61-C , 64-C ) :   1.1675 B( 62-C , 63-N ) :   2.9759 B( 64-C , 65-N ) :   3.0103
B( 66-C , 67-C ) :   1.2769 B( 66-C , 73-C ) :   1.4175 B( 67-C , 68-C ) :   0.9205
B( 67-C , 70-C ) :   1.4315 B( 68-C , 69-O ) :   2.2496 B( 70-C , 71-C ) :   1.2440
B( 70-C , 93-H ) :   1.0167 B( 71-C , 72-C ) :   1.3146 B( 71-C , 76-C ) :   1.1620
B( 72-C , 73-C ) :   1.3211 B( 72-C , 74-S ) :   1.0845 B( 73-C , 94-H ) :   0.9821
B( 74-S , 75-C ) :   1.0856 B( 75-C , 76-C ) :   1.6202 B( 75-C , 77-Br) :   1.0158
B( 76-C , 95-H ) :   1.0001

-----------------------------------------------------------------------------
         ABSORPTION SPECTRUM VIA TRANSITION ELECTRIC DIPOLE MOMENTS
-----------------------------------------------------------------------------
State   Energy  Wavelength   fosc         T2         TX        TY        TZ
        (cm-1)    (nm)                  (au**2)     (au)      (au)      (au)
-----------------------------------------------------------------------------
   0   12968.8    771.1   1.272926398  32.31324  -4.22512  -2.71530  -2.66247
   1   21969.4    455.2   0.252270706   3.78029  -0.96291   1.60030   0.54048
   2   22244.4    449.6   0.850700080  12.59016  -0.53924   3.33224   1.09341
   3   22447.6    445.5   0.000254612   0.00373  -0.05191  -0.00103  -0.03222
   4   23866.5    419.0   0.034447356   0.47516  -0.29361   0.21092   0.58691
   5   24308.4    411.4   0.028681384   0.38844  -0.34795   0.51399   0.05643
   6   24454.5    408.9   0.036184808   0.48713   0.45749   0.01459   0.52690
   7   25382.2    394.0   0.070418127   0.91334  -0.06330   0.94168  -0.15024
   8   26254.4    380.9   0.043252481   0.54236   0.36529  -0.38702  -0.50906
   9   26442.3    378.2   0.662358491   8.24649  -1.31877   1.37614   2.14792
  10   27283.9    366.5   0.038341499   0.46263   0.51181  -0.14521  -0.42379
  11   27746.6    360.4   0.002007409   0.02382  -0.09936   0.08312   0.08388
  12   28295.6    353.4   0.316363459   3.68080   0.41712  -0.05984  -1.87169
  13   28383.6    352.3   0.020593410   0.23886  -0.21436   0.05271   0.43604
  14   28801.5    347.2   0.001009647   0.01154   0.08704  -0.05910  -0.02171
  15   28969.9    345.2   0.084466482   0.95987  -0.30398  -0.87697   0.31368
  16   30018.7    333.1   0.795402267   8.72310  -0.47895  -1.81762   2.27815
  17   30451.2    328.4   0.316242245   3.41893  -0.19989  -1.28764   1.31185
  18   30771.4    325.0   0.177115028   1.89489  -0.06270   1.03480   0.90562
  19   30946.4    323.1   0.008690949   0.09246  -0.07579   0.28831  -0.05990
  20   31869.2    313.8   0.146638920   1.51479   0.34824  -0.29597  -1.14277
  21   32464.8    308.0   0.423284230   4.29235  -0.38090   1.00648   1.77038
  22   32883.3    304.1   0.009015749   0.09026  -0.23489   0.13487  -0.12999
  23   33024.5    302.8   0.034088358   0.33982   0.14824   0.41771   0.37863
  24   33074.0    302.4   0.159329618   1.58593  -0.15838  -0.76560   0.98727
  25   33330.7    300.0   0.022610898   0.22333  -0.32303   0.19199   0.28656
  26   33815.3    295.7   0.001284480   0.01251  -0.04309   0.09593   0.03803
  27   33914.9    294.9   0.355169463   3.44763  -0.55357  -0.66945   1.64104
  28   33973.4    294.3   0.029365297   0.28456  -0.16430  -0.14467   0.48645
  29   34129.7    293.0   0.009557658   0.09219  -0.04097  -0.11489   0.27805
  30   34175.1    292.6   0.342476972   3.29911   0.63458   0.27978  -1.67873
  31   34388.3    290.8   0.001734687   0.01661  -0.12535  -0.00368  -0.02968
  32   35013.0    285.6   0.008707640   0.08187  -0.27730   0.07055   0.00008
  33   35268.3    283.5   0.012153316   0.11345   0.23486  -0.09437  -0.22222
  34   35393.0    282.5   0.047440783   0.44128  -0.49861  -0.12518   0.42070
  35   35588.4    281.0   0.035122342   0.32490   0.16572  -0.22853  -0.49519
  36   35701.5    280.1   0.080647283   0.74367   0.84050  -0.18729  -0.04629
  37   35928.8    278.3   0.003513801   0.03220   0.06962  -0.16424   0.01934
  38   36249.9    275.9   0.001102519   0.01001  -0.00428  -0.09731   0.02293
  39   36634.0    273.0   0.020760721   0.18657   0.19692  -0.02351   0.38372
  40   36729.7    272.3   0.102549612   0.91916  -0.36205   0.52792   0.71371
  41   36748.9    272.1   0.027502663   0.24638   0.28689  -0.04502  -0.40255
  42   37653.5    265.6   0.019534321   0.17079  -0.25288   0.17169   0.27815
  43   37843.5    264.2   0.035188837   0.30612  -0.02916  -0.06910  -0.54817
  44   37990.4    263.2   0.026130917   0.22644  -0.15229   0.27098   0.36031
  45   38119.2    262.3   0.205168658   1.77191  -0.31791   1.24880   0.33369
  46   38388.4    260.5   0.005677097   0.04869  -0.15340  -0.07769   0.13827
  47   38446.2    260.1   0.196057383   1.67882  -1.04291  -0.17535   0.74860
  48   38589.9    259.1   0.005479700   0.04675  -0.10201  -0.02487   0.18900
  49   38937.8    256.8   0.061971908   0.52396   0.71271   0.01912  -0.12507
  50   39197.0    255.1   0.050869411   0.42725  -0.40951   0.09566  -0.50040
  51   39350.9    254.1   0.023179023   0.19392   0.13343   0.15218  -0.39110
  52   39375.8    254.0   0.003096380   0.02589   0.10019   0.05754   0.11197
  53   39675.2    252.0   0.010729459   0.08903  -0.06997   0.28191   0.06827

FINAL SINGLE POINT ENERGY    -11212.331854609576

DIPOLE MOMENT
-------------
                                X             Y             Z
Electronic contribution:     16.59833     151.42625      57.98709
Nuclear contribution   :    -18.29919    -150.75790     -62.69899
                        -----------------------------------------
Total Dipole Moment    :     -1.70086       0.66835      -4.71191
                        -----------------------------------------
Magnitude (a.u.)       :      5.05388
Magnitude (Debye)      :     12.84594

Rotational constants in cm-1:     0.000370     0.000303     0.000218
Rotational constants in MHz :    11.081793     9.074174     6.520749

                             ****ORCA TERMINATED NORMALLY****
TOTAL RUN TIME: 0 days 0 hours 10 minutes 43 seconds 6 msec
