                         Program Version 4.2.0 -  RELEASE  -
|  1> # ORCA input file
|  2> # SCF done       -146.182789609714          0.000321501374
|  3> ! CAM-B3LYP def2-SVP def2/J RIJCOSX Grid4 TightSCF
|  4> %maxcore 5000
|  5> %tddft
|  6>     Mode sTDDFT
|  7>     Ethresh 5.0
|  8>     maxcore 5000
|  9> end
| 10>
| 11> %pal
| 12>   nprocs 6
| 13>   end
| 14> * xyz 0 1
| 15>    C        9.68652       -14.44523         8.04610
| 16>    C        9.84595       -14.21881         6.73521
| 17>    C       10.80789       -14.81310         5.85125
| 18>    C       10.72588       -14.39163         4.57026
| 19>    C        9.70013       -13.43496         4.33030
| 20>    S        8.83707       -13.08803         5.81782
| 21>    C        9.37092       -12.84016         3.13749
| 22>    C        9.97444       -13.03325         1.86800
| 23>    C        9.40778       -12.31003         0.86969
| 24>    C        8.31678       -11.49685         1.27953
| 25>    S        8.05526       -11.68954         3.01037
| 26>    C        7.49801       -10.76597         0.46469
| 27>    C        6.40066        -9.98930         0.91149
| 28>    S        4.86258       -10.20518         0.10525
| 29>    C        4.02946        -9.31210         1.32194
| 30>    C        4.90331        -8.77871         2.27371
| 31>    C        6.26397        -9.14566         2.01678
| 32>    C        7.28198        -8.52357         2.78638
| 33>    S        8.97121        -8.67881         2.30493
| 34>    C        6.92987        -7.72021         3.84168
| 35>    C        5.58414        -7.46205         4.14840
| 36>    C        4.57715        -7.95295         3.36820
| 37>    N        2.67492        -9.18526         1.38577
| 38>    C        1.70856        -9.72774         0.61470
| 39>    S        2.03749       -10.60269        -0.84259
| 40>    C        0.34348       -10.98843        -0.97210
| 41>    N       -0.04909       -11.74675        -2.06683
| 42>    O       -1.23183       -12.03126        -2.17768
| 43>    O        0.83207       -12.07850        -2.85024
| 44>    C       -0.41173       -10.47854         0.05410
| 45>    C        0.34309        -9.72637         0.96527
| 46>    C       -0.19035        -9.10838         2.14777
| 47>    C        0.27588        -7.96143         2.70320
| 48>    C       -0.15399        -7.43809         3.94400
| 49>    S       -1.15596        -8.41574         4.97426
| 50>    C       -1.24988        -7.19814         6.20337
| 51>    C       -0.53191        -6.04395         5.80767
| 52>    C        0.12275        -6.19554         4.54496
| 53>    C        0.93525        -5.12968         4.08444
| 54>    S        1.87364        -5.25344         2.58558
| 55>    C        1.02831        -3.97553         4.82588
| 56>    C        0.34769        -3.83098         6.03912
| 57>    C       -0.41433        -4.85300         6.53736
| 58>    C       -1.90875        -7.40102         7.41482
| 59>    C       -2.46793        -8.57336         7.87213
| 60>    C       -3.06670        -8.76349         9.14115
| 61>    C       -3.46817       -10.04007         9.39008
| 62>    C       -3.21464       -10.93573         8.32567
| 63>    S       -2.46913       -10.08359         6.98458
| 64>    C       -3.45605       -12.28959         8.27066
| 65>    C       -4.02964       -13.11023         9.28010
| 66>    C       -4.11800       -14.41871         8.95100
| 67>    C       -3.61873       -14.73602         7.64420
| 68>    S       -3.03760       -13.25326         6.86937
| 69>    C       -3.56809       -15.93753         7.05233
| 70>    H       10.32006       -15.14369         8.56367
| 71>    H        8.92777       -13.94385         8.61830
| 72>    H       11.51843       -15.53202         6.21912
| 73>    H       11.36661       -14.73402         3.77695
| 74>    H       10.80259       -13.70569         1.73283
| 75>    H        9.72816       -12.32867        -0.15704
| 76>    H        7.60329       -10.90865        -0.60322
| 77>    H        9.43104        -7.80661         3.20310
| 78>    H        7.69839        -7.25062         4.43825
| 79>    H        5.35852        -6.82941         4.99305
| 80>    H        3.54992        -7.68994         3.57167
| 81>    H        2.33089        -8.75122         2.23911
| 82>    H       -1.47307       -10.63277         0.12436
| 83>    H       -1.02966        -9.61293         2.60815
| 84>    H        0.97726        -7.35966         2.14477
| 85>    H        2.43311        -4.04828         2.68221
| 86>    H        1.64135        -3.15842         4.47212
| 87>    H        0.44300        -2.90337         6.58208
| 88>    H       -0.92378        -4.74472         7.48144
| 89>    H       -1.95175        -6.55912         8.09248
| 90>    H       -3.16926        -7.94868         9.83651
| 91>    H       -3.92756       -10.36130        10.30751
| 92>    H       -4.35351       -12.69743        10.21916
| 93>    H       -4.51888       -15.18830         9.58650
| 94>    H       -3.92909       -16.81501         7.55897
| 95>    H       -3.16906       -16.06345         6.06270
| 96> *
| 97>
| 98>                          ****END OF INPUT****

CARTESIAN COORDINATES (ANGSTROEM)
---------------------------------
  C      9.686520  -14.445230    8.046100
  C      9.845950  -14.218810    6.735210
  C     10.807890  -14.813100    5.851250
  C     10.725880  -14.391630    4.570260
  C      9.700130  -13.434960    4.330300
  S      8.837070  -13.088030    5.817820
  C      9.370920  -12.840160    3.137490
  C      9.974440  -13.033250    1.868000
  C      9.407780  -12.310030    0.869690
  C      8.316780  -11.496850    1.279530
  S      8.055260  -11.689540    3.010370
  C      7.498010  -10.765970    0.464690
  C      6.400660   -9.989300    0.911490
  S      4.862580  -10.205180    0.105250
  C      4.029460   -9.312100    1.321940
  C      4.903310   -8.778710    2.273710
  C      6.263970   -9.145660    2.016780
  C      7.281980   -8.523570    2.786380
  S      8.971210   -8.678810    2.304930
  C      6.929870   -7.720210    3.841680
  C      5.584140   -7.462050    4.148400
  C      4.577150   -7.952950    3.368200
  N      2.674920   -9.185260    1.385770
  C      1.708560   -9.727740    0.614700
  S      2.037490  -10.602690   -0.842590
  C      0.343480  -10.988430   -0.972100
  N     -0.049090  -11.746750   -2.066830
  O     -1.231830  -12.031260   -2.177680
  O      0.832070  -12.078500   -2.850240
  C     -0.411730  -10.478540    0.054100
  C      0.343090   -9.726370    0.965270
  C     -0.190350   -9.108380    2.147770
  C      0.275880   -7.961430    2.703200
  C     -0.153990   -7.438090    3.944000
  S     -1.155960   -8.415740    4.974260
  C     -1.249880   -7.198140    6.203370
  C     -0.531910   -6.043950    5.807670
  C      0.122750   -6.195540    4.544960
  C      0.935250   -5.129680    4.084440
  S      1.873640   -5.253440    2.585580
  C      1.028310   -3.975530    4.825880
  C      0.347690   -3.830980    6.039120
  C     -0.414330   -4.853000    6.537360
  C     -1.908750   -7.401020    7.414820
  C     -2.467930   -8.573360    7.872130
  C     -3.066700   -8.763490    9.141150
  C     -3.468170  -10.040070    9.390080
  C     -3.214640  -10.935730    8.325670
  S     -2.469130  -10.083590    6.984580
  C     -3.456050  -12.289590    8.270660
  C     -4.029640  -13.110230    9.280100
  C     -4.118000  -14.418710    8.951000
  C     -3.618730  -14.736020    7.644200
  S     -3.037600  -13.253260    6.869370
  C     -3.568090  -15.937530    7.052330
  H     10.320060  -15.143690    8.563670
  H      8.927770  -13.943850    8.618300
  H     11.518430  -15.532020    6.219120
  H     11.366610  -14.734020    3.776950
  H     10.802590  -13.705690    1.732830
  H      9.728160  -12.328670   -0.157040
  H      7.603290  -10.908650   -0.603220
  H      9.431040   -7.806610    3.203100
  H      7.698390   -7.250620    4.438250
  H      5.358520   -6.829410    4.993050
  H      3.549920   -7.689940    3.571670
  H      2.330890   -8.751220    2.239110
  H     -1.473070  -10.632770    0.124360
  H     -1.029660   -9.612930    2.608150
  H      0.977260   -7.359660    2.144770
  H      2.433110   -4.048280    2.682210
  H      1.641350   -3.158420    4.472120
  H      0.443000   -2.903370    6.582080
  H     -0.923780   -4.744720    7.481440
  H     -1.951750   -6.559120    8.092480
  H     -3.169260   -7.948680    9.836510
  H     -3.927560  -10.361300   10.307510
  H     -4.353510  -12.697430   10.219160
  H     -4.518880  -15.188300    9.586500
  H     -3.929090  -16.815010    7.558970
  H     -3.169060  -16.063450    6.062700

 Total Charge           Charge          ....    0
 Multiplicity           Mult            ....    1
 Number of Electrons    NEL             ....  452
 Basis Dimension        Dim             ....  936

ORBITAL ENERGIES
----------------

  NO   OCC          E(Eh)            E(eV)
   0   2.0000     -88.973592     -2421.0945
   1   2.0000     -88.967800     -2420.9369
   2   2.0000     -88.963829     -2420.8289
   3   2.0000     -88.947457     -2420.3834
   4   2.0000     -88.940713     -2420.1998
   5   2.0000     -88.939415     -2420.1645
   6   2.0000     -88.927671     -2419.8450
   7   2.0000     -88.926956     -2419.8255
   8   2.0000     -88.918629     -2419.5989
   9   2.0000     -19.216809      -522.9160
  10   2.0000     -19.216565      -522.9093
  11   2.0000     -14.628941      -398.0737
  12   2.0000     -14.480222      -394.0269
  13   2.0000     -10.359710      -281.9021
  14   2.0000     -10.346090      -281.5314
  15   2.0000     -10.323517      -280.9172
  16   2.0000     -10.313614      -280.6477
  17   2.0000     -10.312137      -280.6075
  18   2.0000     -10.308938      -280.5205
  19   2.0000     -10.308516      -280.5090
  20   2.0000     -10.308340      -280.5042
  21   2.0000     -10.306703      -280.4597
  22   2.0000     -10.303366      -280.3689
  23   2.0000     -10.300583      -280.2931
  24   2.0000     -10.297098      -280.1983
  25   2.0000     -10.296516      -280.1824
  26   2.0000     -10.296394      -280.1791
  27   2.0000     -10.296313      -280.1769
  28   2.0000     -10.295098      -280.1438
  29   2.0000     -10.294991      -280.1410
  30   2.0000     -10.291484      -280.0455
  31   2.0000     -10.290030      -280.0060
  32   2.0000     -10.287623      -279.9405
  33   2.0000     -10.287024      -279.9242
  34   2.0000     -10.285964      -279.8953
  35   2.0000     -10.285753      -279.8896
  36   2.0000     -10.285235      -279.8755
  37   2.0000     -10.284692      -279.8607
  38   2.0000     -10.283626      -279.8317
  39   2.0000     -10.283417      -279.8260
  40   2.0000     -10.282084      -279.7897
  41   2.0000     -10.279657      -279.7237
  42   2.0000     -10.278106      -279.6815
  43   2.0000     -10.276902      -279.6487
  44   2.0000     -10.276574      -279.6398
  45   2.0000     -10.275752      -279.6174
  46   2.0000     -10.274029      -279.5705
  47   2.0000     -10.273740      -279.5627
  48   2.0000     -10.273571      -279.5581
  49   2.0000     -10.273511      -279.5565
  50   2.0000     -10.273091      -279.5450
  51   2.0000     -10.269727      -279.4535
  52   2.0000     -10.267072      -279.3812
  53   2.0000     -10.266620      -279.3689
  54   2.0000     -10.259009      -279.1618
  55   2.0000      -8.068631      -219.5586
  56   2.0000      -8.063083      -219.4076
  57   2.0000      -8.058467      -219.2820
  58   2.0000      -8.043484      -218.8743
  59   2.0000      -8.037469      -218.7107
  60   2.0000      -8.034312      -218.6247
  61   2.0000      -8.023645      -218.3345
  62   2.0000      -8.023541      -218.3316
  63   2.0000      -8.013629      -218.0619
  64   2.0000      -6.038350      -164.3119
  65   2.0000      -6.033877      -164.1901
  66   2.0000      -6.032419      -164.1505
  67   2.0000      -6.030063      -164.0864
  68   2.0000      -6.028052      -164.0316
  69   2.0000      -6.027459      -164.0155
  70   2.0000      -6.025299      -163.9567
  71   2.0000      -6.023400      -163.9050
  72   2.0000      -6.021247      -163.8464
  73   2.0000      -6.013250      -163.6289
  74   2.0000      -6.009094      -163.5158
  75   2.0000      -6.007298      -163.4669
  76   2.0000      -6.004704      -163.3963
  77   2.0000      -6.004422      -163.3886
  78   2.0000      -6.003321      -163.3587
  79   2.0000      -6.000358      -163.2781
  80   2.0000      -5.998019      -163.2144
  81   2.0000      -5.994556      -163.1202
  82   2.0000      -5.993514      -163.0918
  83   2.0000      -5.993446      -163.0900
  84   2.0000      -5.989549      -162.9839
  85   2.0000      -5.989377      -162.9792
  86   2.0000      -5.984158      -162.8372
  87   2.0000      -5.984134      -162.8366
  88   2.0000      -5.984078      -162.8350
  89   2.0000      -5.979680      -162.7154
  90   2.0000      -5.973683      -162.5522
  91   2.0000      -1.295728       -35.2586
  92   2.0000      -1.114363       -30.3234
  93   2.0000      -1.090297       -29.6685
  94   2.0000      -1.001497       -27.2521
  95   2.0000      -0.998882       -27.1810
  96   2.0000      -0.992640       -27.0111
  97   2.0000      -0.983134       -26.7524
  98   2.0000      -0.977307       -26.5939
  99   2.0000      -0.971330       -26.4312
 100   2.0000      -0.956753       -26.0346
 101   2.0000      -0.941856       -25.6292
 102   2.0000      -0.931941       -25.3594
 103   2.0000      -0.917800       -24.9746
 104   2.0000      -0.898389       -24.4464
 105   2.0000      -0.888698       -24.1827
 106   2.0000      -0.885689       -24.1008
 107   2.0000      -0.872085       -23.7306
 108   2.0000      -0.868684       -23.6381
 109   2.0000      -0.862450       -23.4685
 110   2.0000      -0.847360       -23.0579
 111   2.0000      -0.847140       -23.0519
 112   2.0000      -0.844525       -22.9807
 113   2.0000      -0.833337       -22.6762
 114   2.0000      -0.830095       -22.5880
 115   2.0000      -0.828260       -22.5381
 116   2.0000      -0.823893       -22.4193
 117   2.0000      -0.818044       -22.2601
 118   2.0000      -0.812853       -22.1189
 119   2.0000      -0.805478       -21.9182
 120   2.0000      -0.788904       -21.4672
 121   2.0000      -0.781555       -21.2672
 122   2.0000      -0.778606       -21.1870
 123   2.0000      -0.765697       -20.8357
 124   2.0000      -0.743159       -20.2224
 125   2.0000      -0.732454       -19.9311
 126   2.0000      -0.714289       -19.4368
 127   2.0000      -0.707992       -19.2655
 128   2.0000      -0.700583       -19.0638
 129   2.0000      -0.697521       -18.9805
 130   2.0000      -0.691118       -18.8063
 131   2.0000      -0.687424       -18.7058
 132   2.0000      -0.673209       -18.3189
 133   2.0000      -0.667266       -18.1572
 134   2.0000      -0.660714       -17.9789
 135   2.0000      -0.651326       -17.7235
 136   2.0000      -0.643490       -17.5102
 137   2.0000      -0.630471       -17.1560
 138   2.0000      -0.621857       -16.9216
 139   2.0000      -0.620665       -16.8892
 140   2.0000      -0.618019       -16.8172
 141   2.0000      -0.611416       -16.6375
 142   2.0000      -0.610042       -16.6001
 143   2.0000      -0.607127       -16.5208
 144   2.0000      -0.606592       -16.5062
 145   2.0000      -0.600730       -16.3467
 146   2.0000      -0.598224       -16.2785
 147   2.0000      -0.589729       -16.0473
 148   2.0000      -0.586960       -15.9720
 149   2.0000      -0.583362       -15.8741
 150   2.0000      -0.574566       -15.6347
 151   2.0000      -0.566897       -15.4261
 152   2.0000      -0.562460       -15.3053
 153   2.0000      -0.558893       -15.2082
 154   2.0000      -0.551672       -15.0117
 155   2.0000      -0.550399       -14.9771
 156   2.0000      -0.547854       -14.9079
 157   2.0000      -0.539485       -14.6801
 158   2.0000      -0.534604       -14.5473
 159   2.0000      -0.527968       -14.3667
 160   2.0000      -0.527303       -14.3486
 161   2.0000      -0.520608       -14.1665
 162   2.0000      -0.516873       -14.0648
 163   2.0000      -0.514364       -13.9965
 164   2.0000      -0.512611       -13.9488
 165   2.0000      -0.507788       -13.8176
 166   2.0000      -0.502025       -13.6608
 167   2.0000      -0.500024       -13.6063
 168   2.0000      -0.498316       -13.5599
 169   2.0000      -0.494826       -13.4649
 170   2.0000      -0.494143       -13.4463
 171   2.0000      -0.491037       -13.3618
 172   2.0000      -0.489819       -13.3287
 173   2.0000      -0.484870       -13.1940
 174   2.0000      -0.484243       -13.1769
 175   2.0000      -0.483510       -13.1570
 176   2.0000      -0.479716       -13.0537
 177   2.0000      -0.474934       -12.9236
 178   2.0000      -0.471831       -12.8392
 179   2.0000      -0.469550       -12.7771
 180   2.0000      -0.464498       -12.6396
 181   2.0000      -0.462874       -12.5955
 182   2.0000      -0.457734       -12.4556
 183   2.0000      -0.456048       -12.4097
 184   2.0000      -0.450124       -12.2485
 185   2.0000      -0.447644       -12.1810
 186   2.0000      -0.443570       -12.0702
 187   2.0000      -0.437939       -11.9169
 188   2.0000      -0.437340       -11.9006
 189   2.0000      -0.435447       -11.8491
 190   2.0000      -0.434945       -11.8355
 191   2.0000      -0.431651       -11.7458
 192   2.0000      -0.426271       -11.5994
 193   2.0000      -0.418162       -11.3788
 194   2.0000      -0.416332       -11.3290
 195   2.0000      -0.414765       -11.2863
 196   2.0000      -0.411143       -11.1878
 197   2.0000      -0.409559       -11.1447
 198   2.0000      -0.408120       -11.1055
 199   2.0000      -0.401284       -10.9195
 200   2.0000      -0.392559       -10.6821
 201   2.0000      -0.388229       -10.5642
 202   2.0000      -0.384990       -10.4761
 203   2.0000      -0.384441       -10.4612
 204   2.0000      -0.373332       -10.1589
 205   2.0000      -0.372621       -10.1395
 206   2.0000      -0.368495       -10.0273
 207   2.0000      -0.365942        -9.9578
 208   2.0000      -0.358289        -9.7495
 209   2.0000      -0.347280        -9.4500
 210   2.0000      -0.345797        -9.4096
 211   2.0000      -0.340080        -9.2541
 212   2.0000      -0.332502        -9.0478
 213   2.0000      -0.329536        -8.9671
 214   2.0000      -0.325373        -8.8539
 215   2.0000      -0.323227        -8.7954
 216   2.0000      -0.315844        -8.5945
 217   2.0000      -0.312403        -8.5009
 218   2.0000      -0.303578        -8.2608
 219   2.0000      -0.302175        -8.2226
 220   2.0000      -0.293631        -7.9901
 221   2.0000      -0.275038        -7.4842
 222   2.0000      -0.257549        -7.0083
 223   2.0000      -0.242909        -6.6099
 224   2.0000      -0.207485        -5.6459
 225   2.0000      -0.196044        -5.3346
 226   0.0000      -0.082763        -2.2521
 227   0.0000      -0.060581        -1.6485
 228   0.0000      -0.036941        -1.0052
 229   0.0000      -0.030234        -0.8227
 230   0.0000      -0.014729        -0.4008

MULLIKEN ATOMIC CHARGES
-----------------------
   0 C :   -0.037594
   1 C :   -0.060562
   2 C :    0.046402
   3 C :    0.029956
   4 C :   -0.067999
   5 S :    0.073878
   6 C :   -0.052772
   7 C :    0.027232
   8 C :    0.039517
   9 C :   -0.033675
  10 S :    0.099081
  11 C :   -0.017637
  12 C :   -0.188449
  13 S :    0.138799
  14 C :   -0.133580
  15 C :    0.118934
  16 C :    0.120784
  17 C :   -0.086208
  18 S :    0.051143
  19 C :   -0.009811
  20 C :    0.020686
  21 C :   -0.037585
  22 N :    0.007213
  23 C :   -0.100016
  24 S :    0.151187
  25 C :   -0.010964
  26 N :    0.278185
  27 O :   -0.265720
  28 O :   -0.281113
  29 C :    0.019286
  30 C :    0.099983
  31 C :   -0.048248
  32 C :   -0.067038
  33 C :   -0.129308
  34 S :    0.114797
  35 C :   -0.084382
  36 C :    0.105929
  37 C :    0.137221
  38 C :   -0.083309
  39 S :    0.015494
  40 C :   -0.013512
  41 C :    0.028961
  42 C :   -0.036559
  43 C :   -0.019484
  44 C :   -0.036415
  45 C :    0.025600
  46 C :    0.032118
  47 C :   -0.036750
  48 S :    0.062823
  49 C :   -0.063944
  50 C :    0.027627
  51 C :    0.057825
  52 C :   -0.071551
  53 S :    0.086286
  54 C :   -0.019460
  55 H :    0.015720
  56 H :    0.018482
  57 H :   -0.015696
  58 H :   -0.014744
  59 H :   -0.017813
  60 H :   -0.015278
  61 H :   -0.005489
  62 H :    0.048048
  63 H :   -0.029178
  64 H :   -0.017212
  65 H :   -0.037969
  66 H :    0.149340
  67 H :    0.005854
  68 H :    0.009026
  69 H :    0.012597
  70 H :    0.068631
  71 H :   -0.030651
  72 H :   -0.016896
  73 H :   -0.030445
  74 H :   -0.017844
  75 H :   -0.013165
  76 H :   -0.016101
  77 H :   -0.011076
  78 H :   -0.009418
  79 H :    0.022178
  80 H :    0.025792
Sum of atomic charges:    0.0000000

LOEWDIN ATOMIC CHARGES
----------------------
   0 C :   -0.086332
   1 C :   -0.138280
   2 C :   -0.037897
   3 C :   -0.026466
   4 C :   -0.182377
   5 S :    0.346224
   6 C :   -0.178568
   7 C :   -0.032909
   8 C :   -0.033365
   9 C :   -0.149844
  10 S :    0.376995
  11 C :   -0.097328
  12 C :   -0.203567
  13 S :    0.456262
  14 C :   -0.141031
  15 C :   -0.070786
  16 C :   -0.065568
  17 C :   -0.142035
  18 S :    0.250760
  19 C :   -0.058660
  20 C :   -0.025487
  21 C :   -0.035165
  22 N :    0.046979
  23 C :   -0.103438
  24 S :    0.451974
  25 C :   -0.222548
  26 N :    0.274367
  27 O :   -0.231537
  28 O :   -0.247620
  29 C :    0.004068
  30 C :   -0.108550
  31 C :   -0.035811
  32 C :   -0.078457
  33 C :   -0.189459
  34 S :    0.474927
  35 C :   -0.170936
  36 C :   -0.040292
  37 C :   -0.060814
  38 C :   -0.139318
  39 S :    0.247042
  40 C :   -0.060257
  41 C :   -0.027004
  42 C :   -0.023936
  43 C :   -0.077988
  44 C :   -0.152275
  45 C :   -0.036294
  46 C :   -0.036181
  47 C :   -0.184441
  48 S :    0.369111
  49 C :   -0.170482
  50 C :   -0.027738
  51 C :   -0.026587
  52 C :   -0.140776
  53 S :    0.356966
  54 C :   -0.067729
  55 H :    0.026588
  56 H :    0.024554
  57 H :    0.031492
  58 H :    0.031161
  59 H :    0.029647
  60 H :    0.032101
  61 H :    0.031681
  62 H :   -0.032219
  63 H :    0.023773
  64 H :    0.029755
  65 H :    0.017280
  66 H :    0.097299
  67 H :    0.045723
  68 H :    0.025384
  69 H :    0.011967
  70 H :   -0.021671
  71 H :    0.023296
  72 H :    0.029775
  73 H :    0.026428
  74 H :    0.037340
  75 H :    0.032850
  76 H :    0.030990
  77 H :    0.032790
  78 H :    0.034372
  79 H :    0.029868
  80 H :    0.028232

  Mayer bond orders larger than 0.100000
B(  0-C ,  1-C ) :   1.8635 B(  0-C , 55-H ) :   0.9505 B(  0-C , 56-H ) :   0.9415
B(  1-C ,  2-C ) :   1.0805 B(  1-C ,  5-S ) :   1.0092 B(  2-C ,  3-C ) :   1.6596
B(  2-C , 57-H ) :   0.9932 B(  3-C ,  4-C ) :   1.1536 B(  3-C , 58-H ) :   0.9915
B(  4-C ,  5-S ) :   1.0380 B(  4-C ,  6-C ) :   1.5596 B(  6-C ,  7-C ) :   1.1635
B(  6-C , 10-S ) :   1.0449 B(  7-C ,  8-C ) :   1.6184 B(  7-C , 59-H ) :   0.9933
B(  8-C ,  9-C ) :   1.1276 B(  8-C , 60-H ) :   0.9978 B(  9-C , 10-S ) :   1.0421
B(  9-C , 11-C ) :   1.6309 B( 11-C , 12-C ) :   1.1064 B( 11-C , 61-H ) :   0.9517
B( 12-C , 13-S ) :   1.0943 B( 12-C , 14-C ) :   0.1042 B( 12-C , 16-C ) :   1.3825
B( 13-S , 14-C ) :   1.1670 B( 14-C , 15-C ) :   1.3108 B( 14-C , 22-N ) :   1.1712
B( 15-C , 16-C ) :   1.2348 B( 15-C , 21-C ) :   1.1753 B( 16-C , 17-C ) :   1.2193
B( 17-C , 18-S ) :   1.0656 B( 17-C , 19-C ) :   1.5354 B( 18-S , 62-H ) :   0.9480
B( 19-C , 20-C ) :   1.2347 B( 19-C , 63-H ) :   0.9790 B( 20-C , 21-C ) :   1.5559
B( 20-C , 64-H ) :   0.9815 B( 21-C , 65-H ) :   0.9831 B( 22-N , 23-C ) :   1.2376
B( 22-N , 66-H ) :   0.8709 B( 23-C , 24-S ) :   1.1339 B( 23-C , 30-C ) :   1.3308
B( 24-S , 25-C ) :   1.0621 B( 25-C , 26-N ) :   0.9988 B( 25-C , 29-C ) :   1.4478
B( 26-N , 27-O ) :   1.5203 B( 26-N , 28-O ) :   1.4938 B( 27-O , 28-O ) :   0.2465
B( 29-C , 30-C ) :   1.2627 B( 29-C , 67-H ) :   1.0083 B( 30-C , 31-C ) :   1.0783
B( 31-C , 32-C ) :   1.6464 B( 31-C , 68-H ) :   0.9655 B( 32-C , 33-C ) :   1.1941
B( 32-C , 69-H ) :   0.9395 B( 33-C , 34-S ) :   1.1327 B( 33-C , 37-C ) :   1.3186
B( 34-S , 35-C ) :   1.1256 B( 35-C , 36-C ) :   1.2700 B( 35-C , 43-C ) :   1.2508
B( 36-C , 37-C ) :   1.2348 B( 36-C , 42-C ) :   1.2375 B( 37-C , 38-C ) :   1.2355
B( 38-C , 39-S ) :   1.0362 B( 38-C , 40-C ) :   1.5269 B( 39-S , 70-H ) :   0.9512
B( 40-C , 41-C ) :   1.2604 B( 40-C , 71-H ) :   0.9762 B( 41-C , 42-C ) :   1.5116
B( 41-C , 72-H ) :   0.9812 B( 42-C , 73-H ) :   0.9910 B( 43-C , 44-C ) :   1.5275
B( 43-C , 74-H ) :   0.9617 B( 44-C , 45-C ) :   1.1571 B( 44-C , 48-S ) :   1.0444
B( 45-C , 46-C ) :   1.5871 B( 45-C , 75-H ) :   0.9992 B( 46-C , 47-C ) :   1.1829
B( 46-C , 76-H ) :   0.9915 B( 47-C , 48-S ) :   1.0311 B( 47-C , 49-C ) :   1.5410
B( 49-C , 50-C ) :   1.1582 B( 49-C , 53-S ) :   1.0525 B( 50-C , 51-C ) :   1.6565
B( 50-C , 77-H ) :   0.9917 B( 51-C , 52-C ) :   1.0812 B( 51-C , 78-H ) :   0.9927
B( 52-C , 53-S ) :   1.0074 B( 52-C , 54-C ) :   1.8629 B( 54-C , 79-H ) :   0.9505
B( 54-C , 80-H ) :   0.9410

-----------------------------------------------------------------------------
         ABSORPTION SPECTRUM VIA TRANSITION ELECTRIC DIPOLE MOMENTS
-----------------------------------------------------------------------------
State   Energy  Wavelength   fosc         T2         TX        TY        TZ
        (cm-1)    (nm)                  (au**2)     (au)      (au)      (au)
-----------------------------------------------------------------------------
   0   12087.3    827.3   0.612732128  16.68849  -3.52888  -1.06273   1.76241
   1   15129.9    660.9   0.821115195  17.86671   0.86791  -3.15064   2.68084
   2   15698.2    637.0   0.427228404   8.95956  -2.26318   0.99559  -1.68712
   3   20030.2    499.2   0.028862642   0.47438   0.05877  -0.31262   0.61090
   4   20666.8    483.9   0.142512324   2.27015   0.22155   1.47613  -0.20522
   5   21097.6    474.0   0.017086862   0.26663   0.26881   0.43712  -0.05741
   6   23137.4    432.2   0.043994922   0.62599  -0.75864   0.01184   0.22431
   7   23506.6    425.4   0.482566318   6.75839   0.22325   2.13124   1.47185
   8   25021.3    399.7   0.064825783   0.85293  -0.28414   0.42979   0.76647
   9   25403.2    393.7   0.464880020   6.02460  -0.13794  -2.41329  -0.42615
  10   25999.9    384.6   0.214416491   2.71495   0.75208   0.80737  -1.22371
  11   26826.6    372.8   0.118438365   1.45346   0.04834   1.12567   0.42892
  12   28034.8    356.7   0.107485098   1.26219  -0.60705  -0.31980  -0.88961
  13   28604.4    349.6   0.087993105   1.01272   0.12254  -0.30225   0.95203
  14   29459.6    339.4   0.090626523   1.01275   0.36434   0.58538   0.73304
  15   30163.8    331.5   0.112045751   1.22288   0.07364   0.57072   0.94432
  16   30429.6    328.6   0.010568297   0.11434  -0.20217   0.01050  -0.27084
  17   30649.4    326.3   0.103429582   1.11096   0.30302   0.55212   0.84516
  18   30979.2    322.8   0.145327395   1.54437  -0.22781  -0.31057  -1.18153
  19   31193.9    320.6   0.042267342   0.44608  -0.44361   0.27533  -0.41651
  20   32135.2    311.2   0.018078272   0.18520   0.07085  -0.40376   0.13101
  21   32329.2    309.3   0.003644832   0.03712  -0.05284  -0.06228   0.17449
  22   32339.2    309.2   0.024221636   0.24658  -0.28456  -0.15447   0.37648
  23   32658.4    306.2   0.211760385   2.13465   0.02545  -1.06063  -1.00452
  24   33537.5    298.2   0.055847780   0.54822  -0.10013   0.26621   0.68361
  25   33892.6    295.0   0.015609607   0.15162  -0.36180   0.07510  -0.12282
  26   34294.4    291.6   0.112081499   1.07594  -0.49113  -0.77396  -0.48551
  27   34552.1    289.4   0.026329059   0.25086  -0.36716  -0.27636  -0.19921
  28   34828.9    287.1   0.019576048   0.18504   0.18001   0.29359  -0.25776
  29   35176.3    284.3   0.028605790   0.26772   0.06183   0.37048   0.35586
  30   35408.7    282.4   0.087375740   0.81237   0.17477  -0.61313  -0.63710
  31   36002.6    277.8   0.017955910   0.16419   0.00858  -0.25854  -0.31189
  32   36276.9    275.7   0.014598948   0.13248   0.01460   0.24516   0.26865
  33   36656.7    272.8   0.155309639   1.39483  -0.31059  -1.02987  -0.48757
  34   37048.2    269.9   0.141497793   1.25735  -0.16873  -1.00075  -0.47686
  35   37351.1    267.7   0.039557270   0.34866   0.40998  -0.42339  -0.03623
  36   37657.1    265.6   0.006050873   0.05290  -0.02269  -0.21413   0.08081
  37   37765.0    264.8   0.043914304   0.38282  -0.31165  -0.52486   0.10104
  38   37995.6    263.2   0.004588254   0.03975  -0.08132   0.05122  -0.17470
  39   38376.5    260.6   0.019121453   0.16403  -0.10668  -0.38497  -0.06670
  40   38543.2    259.4   0.008288557   0.07080  -0.19870  -0.04018  -0.17234
  41   39210.3    255.0   0.013239910   0.11116   0.31713  -0.06495  -0.07983
  42   39279.5    254.6   0.063864067   0.53526   0.09749  -0.71034   0.14553
  43   39464.8    253.4   0.003191281   0.02662  -0.15151  -0.06042  -0.00377
  44   39543.4    252.9   0.052674869   0.43854   0.61167   0.11752   0.22491
  45   39643.3    252.2   0.197264683   1.63815  -0.36492  -0.20376  -1.20974
  46   39741.5    251.6   0.050831928   0.42108  -0.04962  -0.12917  -0.63399

FINAL SINGLE POINT ENERGY     -5456.089093942501

DIPOLE MOMENT
-------------
                                X             Y             Z
Electronic contribution:     -5.65328       0.59232     -29.90518
Nuclear contribution   :      6.11092       0.61629      33.46151
                        -----------------------------------------
Total Dipole Moment    :      0.45764       1.20861       3.55633
                        -----------------------------------------
Magnitude (a.u.)       :      3.78387
Magnitude (Debye)      :      9.61783

Rotational constants in cm-1:     0.001183     0.000626     0.000567
Rotational constants in MHz :    35.465863    18.759360    17.003647

                             ****ORCA TERMINATED NORMALLY****
TOTAL RUN TIME: 0 days 0 hours 7 minutes 9 seconds 394 msec
