                         Program Version 4.2.0 -  RELEASE  -
|  1> # ORCA input file
|  2> # SCF done       -175.523522075013          0.000901901305
|  3> ! CAM-B3LYP def2-SVP def2/J RIJCOSX Grid4 TightSCF
|  4> %maxcore 5000
|  5> %tddft
|  6>     Mode sTDDFT
|  7>     Ethresh 5.0
|  8>     maxcore 5000
|  9> end
| 10>
| 11> %pal
| 12>   nprocs 6
| 13>   end
| 14> * xyz 0 1
| 15>    C        0.78568        -1.77623         1.72975
| 16>    C        0.99238        -1.35362         0.48505
| 17>    C        0.40089        -0.07970         0.13397
| 18>    C       -0.29313         0.52862         1.11479
| 19>    S       -0.21742        -0.54510         2.57554
| 20>    O       -1.51836        -1.06686         2.89085
| 21>    O        0.51723         0.08829         3.63497
| 22>    C       -0.99800         1.75131         1.19419
| 23>    C       -1.11680         2.64826         0.18461
| 24>    C       -1.81020         3.87861         0.27648
| 25>    S       -2.64105         4.44199         1.70532
| 26>    C       -3.13411         5.94213         0.94546
| 27>    C       -2.66614         5.98016        -0.36651
| 28>    C       -1.93376         4.82490        -0.72582
| 29>    C       -1.46326         4.89755        -2.10697
| 30>    O       -0.80791         4.08419        -2.71310
| 31>    C       -1.97271         6.22666        -2.64172
| 32>    C       -2.72493         6.90031        -1.50150
| 33>    O       -3.24910         7.98881        -1.57109
| 34>    C       -3.88713         6.85407         1.72002
| 35>    C       -4.29775         8.07673         1.28480
| 36>    C       -5.04251         8.95928         2.10119
| 37>    N       -5.43253        10.21511         1.70280
| 38>    C       -5.10961        10.85912         0.45209
| 39>    C       -3.68165        11.39815         0.44366
| 40>    C       -6.16556        10.88619         2.70338
| 41>    O       -6.61293        12.00400         2.57476
| 42>    C       -6.22090         9.93269         3.79279
| 43>    C       -5.52990         8.76748         3.39667
| 44>    C       -5.61439         7.82247         4.48727
| 45>    O       -5.16937         6.69826         4.61911
| 46>    N       -6.37597         8.47659         5.47370
| 47>    C       -6.57460         7.83029         6.75093
| 48>    C       -5.71364         8.45109         7.84721
| 49>    C       -6.73965         9.74551         5.07499
| 50>    C       -7.49850        10.72999         5.75533
| 51>    C       -8.18909        10.60587         6.91763
| 52>    C       -8.91549        11.65888         7.52662
| 53>    S       -8.86298        13.29229         6.93460
| 54>    C       -9.72307        11.55169         8.66216
| 55>    C       -9.94859        10.27802         9.37426
| 56>    O       -9.45564         9.20765         9.04975
| 57>    C      -10.83089        10.42377        10.51616
| 58>    C      -11.27597         9.47653        11.41284
| 59>    N      -12.08184        10.08308        12.31598
| 60>    C      -12.79964         9.41368        13.37129
| 61>    C      -14.17669         8.95761        12.89297
| 62>    C      -12.18114        11.40071        12.02066
| 63>    C      -11.41301        11.66097        10.90589
| 64>    C      -11.19805        12.92010        10.21409
| 65>    O      -11.72521        13.95954        10.57745
| 66>    C      -10.29893        12.79222         9.05080
| 67>    C       -9.91052        13.84044         8.20768
| 68>    C      -10.16903        15.22646         8.19225
| 69>    C      -10.89020        16.10007         8.92687
| 70>    C      -10.81802        17.47713         8.52549
| 71>    C      -10.04172        17.76275         7.46329
| 72>    S       -9.33979        16.19759         6.89445
| 73>    O       -7.91409        16.17678         7.07811
| 74>    O       -9.84407        15.85187         5.59451
| 75>    C       -9.71330        18.97044         6.77631
| 76>    C      -10.13986        20.19112         7.10621
| 77>    H        1.12312        -2.67383         2.20392
| 78>    H        1.56294        -1.89507        -0.25407
| 79>    H        0.53237         0.31980        -0.85874
| 80>    H       -1.45980         1.95499         2.15240
| 81>    H       -0.66007         2.45879        -0.77787
| 82>    H       -2.63084         6.07471        -3.50030
| 83>    H       -1.14915         6.85436        -2.98901
| 84>    H       -4.13162         6.53430         2.72521
| 85>    H       -4.05186         8.39811         0.28362
| 86>    H       -5.81622        11.68738         0.34931
| 87>    H       -5.25789        10.15748        -0.37249
| 88>    H       -3.54532        12.10769         1.25630
| 89>    H       -3.48866        11.90378        -0.49800
| 90>    H       -2.96240        10.59059         0.55756
| 91>    H       -6.27260         6.78945         6.59795
| 92>    H       -7.63197         7.84365         7.02289
| 93>    H       -4.66012         8.34239         7.60010
| 94>    H       -5.90630         7.94478         8.78854
| 95>    H       -5.93483         9.50832         7.97026
| 96>    H       -7.52841        11.67943         5.23195
| 97>    H       -8.24519         9.66942         7.44923
| 98>    H      -11.05870         8.42778        11.45608
| 99>    H      -12.90559        10.10361        14.21245
|100>    H      -12.21266         8.55157        13.69773
|101>    H      -14.76404         9.81064        12.56193
|102>    H      -14.70572         8.46209        13.70188
|103>    H      -14.07812         8.26296        12.06236
|104>    H      -12.77288        12.07355        12.60893
|105>    H      -11.49241        15.80616         9.77066
|106>    H      -11.37644        18.21592         9.07851
|107>    H       -9.05846        18.82818         5.92661
|108>    H      -10.78999        20.35931         7.94772
|109>    H       -9.84784        21.05719         6.53929
|110> *
|111>
|112>                          ****END OF INPUT****

CARTESIAN COORDINATES (ANGSTROEM)
---------------------------------
  C      0.785680   -1.776230    1.729750
  C      0.992380   -1.353620    0.485050
  C      0.400890   -0.079700    0.133970
  C     -0.293130    0.528620    1.114790
  S     -0.217420   -0.545100    2.575540
  O     -1.518360   -1.066860    2.890850
  O      0.517230    0.088290    3.634970
  C     -0.998000    1.751310    1.194190
  C     -1.116800    2.648260    0.184610
  C     -1.810200    3.878610    0.276480
  S     -2.641050    4.441990    1.705320
  C     -3.134110    5.942130    0.945460
  C     -2.666140    5.980160   -0.366510
  C     -1.933760    4.824900   -0.725820
  C     -1.463260    4.897550   -2.106970
  O     -0.807910    4.084190   -2.713100
  C     -1.972710    6.226660   -2.641720
  C     -2.724930    6.900310   -1.501500
  O     -3.249100    7.988810   -1.571090
  C     -3.887130    6.854070    1.720020
  C     -4.297750    8.076730    1.284800
  C     -5.042510    8.959280    2.101190
  N     -5.432530   10.215110    1.702800
  C     -5.109610   10.859120    0.452090
  C     -3.681650   11.398150    0.443660
  C     -6.165560   10.886190    2.703380
  O     -6.612930   12.004000    2.574760
  C     -6.220900    9.932690    3.792790
  C     -5.529900    8.767480    3.396670
  C     -5.614390    7.822470    4.487270
  O     -5.169370    6.698260    4.619110
  N     -6.375970    8.476590    5.473700
  C     -6.574600    7.830290    6.750930
  C     -5.713640    8.451090    7.847210
  C     -6.739650    9.745510    5.074990
  C     -7.498500   10.729990    5.755330
  C     -8.189090   10.605870    6.917630
  C     -8.915490   11.658880    7.526620
  S     -8.862980   13.292290    6.934600
  C     -9.723070   11.551690    8.662160
  C     -9.948590   10.278020    9.374260
  O     -9.455640    9.207650    9.049750
  C    -10.830890   10.423770   10.516160
  C    -11.275970    9.476530   11.412840
  N    -12.081840   10.083080   12.315980
  C    -12.799640    9.413680   13.371290
  C    -14.176690    8.957610   12.892970
  C    -12.181140   11.400710   12.020660
  C    -11.413010   11.660970   10.905890
  C    -11.198050   12.920100   10.214090
  O    -11.725210   13.959540   10.577450
  C    -10.298930   12.792220    9.050800
  C     -9.910520   13.840440    8.207680
  C    -10.169030   15.226460    8.192250
  C    -10.890200   16.100070    8.926870
  C    -10.818020   17.477130    8.525490
  C    -10.041720   17.762750    7.463290
  S     -9.339790   16.197590    6.894450
  O     -7.914090   16.176780    7.078110
  O     -9.844070   15.851870    5.594510
  C     -9.713300   18.970440    6.776310
  C    -10.139860   20.191120    7.106210
  H      1.123120   -2.673830    2.203920
  H      1.562940   -1.895070   -0.254070
  H      0.532370    0.319800   -0.858740
  H     -1.459800    1.954990    2.152400
  H     -0.660070    2.458790   -0.777870
  H     -2.630840    6.074710   -3.500300
  H     -1.149150    6.854360   -2.989010
  H     -4.131620    6.534300    2.725210
  H     -4.051860    8.398110    0.283620
  H     -5.816220   11.687380    0.349310
  H     -5.257890   10.157480   -0.372490
  H     -3.545320   12.107690    1.256300
  H     -3.488660   11.903780   -0.498000
  H     -2.962400   10.590590    0.557560
  H     -6.272600    6.789450    6.597950
  H     -7.631970    7.843650    7.022890
  H     -4.660120    8.342390    7.600100
  H     -5.906300    7.944780    8.788540
  H     -5.934830    9.508320    7.970260
  H     -7.528410   11.679430    5.231950
  H     -8.245190    9.669420    7.449230
  H    -11.058700    8.427780   11.456080
  H    -12.905590   10.103610   14.212450
  H    -12.212660    8.551570   13.697730
  H    -14.764040    9.810640   12.561930
  H    -14.705720    8.462090   13.701880
  H    -14.078120    8.262960   12.062360
  H    -12.772880   12.073550   12.608930
  H    -11.492410   15.806160    9.770660
  H    -11.376440   18.215920    9.078510
  H     -9.058460   18.828180    5.926610
  H    -10.789990   20.359310    7.947720
  H     -9.847840   21.057190    6.539290

 Total Charge           Charge          ....    0
 Multiplicity           Mult            ....    1
 Number of Electrons    NEL             ....  468
 Basis Dimension        Dim             .... 1049

ORBITAL ENERGIES
----------------

  NO   OCC          E(Eh)            E(eV)
   0   2.0000     -89.137068     -2425.5429
   1   2.0000     -89.134694     -2425.4783
   2   2.0000     -88.979901     -2421.2662
   3   2.0000     -88.967690     -2420.9339
   4   2.0000     -19.221493      -523.0434
   5   2.0000     -19.219468      -522.9883
   6   2.0000     -19.203718      -522.5597
   7   2.0000     -19.201742      -522.5060
   8   2.0000     -19.194546      -522.3102
   9   2.0000     -19.194366      -522.3052
  10   2.0000     -19.193260      -522.2752
  11   2.0000     -19.192951      -522.2667
  12   2.0000     -19.186086      -522.0799
  13   2.0000     -19.180064      -521.9161
  14   2.0000     -14.489201      -394.2712
  15   2.0000     -14.445614      -393.0851
  16   2.0000     -14.443446      -393.0262
  17   2.0000     -10.375427      -282.3297
  18   2.0000     -10.372393      -282.2472
  19   2.0000     -10.367560      -282.1157
  20   2.0000     -10.364229      -282.0250
  21   2.0000     -10.363513      -282.0055
  22   2.0000     -10.361923      -281.9622
  23   2.0000     -10.335070      -281.2316
  24   2.0000     -10.333839      -281.1981
  25   2.0000     -10.332432      -281.1598
  26   2.0000     -10.330459      -281.1061
  27   2.0000     -10.329911      -281.0912
  28   2.0000     -10.329862      -281.0898
  29   2.0000     -10.317274      -280.7473
  30   2.0000     -10.313315      -280.6396
  31   2.0000     -10.313156      -280.6353
  32   2.0000     -10.311236      -280.5830
  33   2.0000     -10.309542      -280.5369
  34   2.0000     -10.309360      -280.5320
  35   2.0000     -10.306610      -280.4571
  36   2.0000     -10.305288      -280.4211
  37   2.0000     -10.303178      -280.3637
  38   2.0000     -10.302476      -280.3446
  39   2.0000     -10.302370      -280.3417
  40   2.0000     -10.299851      -280.2732
  41   2.0000     -10.295420      -280.1526
  42   2.0000     -10.295286      -280.1490
  43   2.0000     -10.294465      -280.1266
  44   2.0000     -10.293766      -280.1076
  45   2.0000     -10.293602      -280.1031
  46   2.0000     -10.293523      -280.1010
  47   2.0000     -10.292544      -280.0744
  48   2.0000     -10.291006      -280.0325
  49   2.0000     -10.289465      -279.9906
  50   2.0000     -10.286239      -279.9028
  51   2.0000     -10.286055      -279.8978
  52   2.0000     -10.285579      -279.8848
  53   2.0000     -10.283571      -279.8302
  54   2.0000     -10.283323      -279.8235
  55   2.0000     -10.282345      -279.7968
  56   2.0000     -10.269682      -279.4523
  57   2.0000     -10.269241      -279.4402
  58   2.0000     -10.255685      -279.0714
  59   2.0000     -10.255192      -279.0580
  60   2.0000     -10.251058      -278.9455
  61   2.0000     -10.250049      -278.9180
  62   2.0000      -8.203156      -223.2192
  63   2.0000      -8.201240      -223.1671
  64   2.0000      -8.074997      -219.7318
  65   2.0000      -8.063329      -219.4143
  66   2.0000      -6.172029      -167.9494
  67   2.0000      -6.171809      -167.9435
  68   2.0000      -6.171278      -167.9290
  69   2.0000      -6.169974      -167.8935
  70   2.0000      -6.169914      -167.8919
  71   2.0000      -6.169271      -167.8744
  72   2.0000      -6.044085      -164.4679
  73   2.0000      -6.039893      -164.3539
  74   2.0000      -6.037504      -164.2888
  75   2.0000      -6.032401      -164.1500
  76   2.0000      -6.028123      -164.0336
  77   2.0000      -6.025683      -163.9672
  78   2.0000      -1.199686       -32.6451
  79   2.0000      -1.197754       -32.5926
  80   2.0000      -1.138462       -30.9791
  81   2.0000      -1.133165       -30.8350
  82   2.0000      -1.125839       -30.6356
  83   2.0000      -1.122132       -30.5348
  84   2.0000      -1.118305       -30.4306
  85   2.0000      -1.117341       -30.4044
  86   2.0000      -1.108687       -30.1689
  87   2.0000      -1.076987       -29.3063
  88   2.0000      -1.075730       -29.2721
  89   2.0000      -1.054863       -28.7043
  90   2.0000      -1.045863       -28.4594
  91   2.0000      -1.011343       -27.5200
  92   2.0000      -1.001204       -27.2441
  93   2.0000      -0.974158       -26.5082
  94   2.0000      -0.968574       -26.3562
  95   2.0000      -0.938938       -25.5498
  96   2.0000      -0.931132       -25.3374
  97   2.0000      -0.925419       -25.1819
  98   2.0000      -0.918321       -24.9888
  99   2.0000      -0.912170       -24.8214
 100   2.0000      -0.898021       -24.4364
 101   2.0000      -0.895527       -24.3685
 102   2.0000      -0.880884       -23.9701
 103   2.0000      -0.867398       -23.6031
 104   2.0000      -0.856881       -23.3169
 105   2.0000      -0.852602       -23.2005
 106   2.0000      -0.841326       -22.8936
 107   2.0000      -0.836993       -22.7757
 108   2.0000      -0.827371       -22.5139
 109   2.0000      -0.818361       -22.2687
 110   2.0000      -0.812898       -22.1201
 111   2.0000      -0.809479       -22.0270
 112   2.0000      -0.794757       -21.6264
 113   2.0000      -0.788792       -21.4641
 114   2.0000      -0.785836       -21.3837
 115   2.0000      -0.775529       -21.1032
 116   2.0000      -0.766988       -20.8708
 117   2.0000      -0.749482       -20.3945
 118   2.0000      -0.747105       -20.3298
 119   2.0000      -0.736325       -20.0364
 120   2.0000      -0.720392       -19.6029
 121   2.0000      -0.712550       -19.3895
 122   2.0000      -0.709530       -19.3073
 123   2.0000      -0.699742       -19.0409
 124   2.0000      -0.699253       -19.0276
 125   2.0000      -0.698675       -19.0119
 126   2.0000      -0.689274       -18.7561
 127   2.0000      -0.683101       -18.5881
 128   2.0000      -0.674857       -18.3638
 129   2.0000      -0.659613       -17.9490
 130   2.0000      -0.651963       -17.7408
 131   2.0000      -0.642452       -17.4820
 132   2.0000      -0.638860       -17.3843
 133   2.0000      -0.632256       -17.2046
 134   2.0000      -0.631547       -17.1853
 135   2.0000      -0.626907       -17.0590
 136   2.0000      -0.620182       -16.8760
 137   2.0000      -0.615767       -16.7559
 138   2.0000      -0.609875       -16.5956
 139   2.0000      -0.598763       -16.2932
 140   2.0000      -0.592293       -16.1171
 141   2.0000      -0.589728       -16.0473
 142   2.0000      -0.586095       -15.9485
 143   2.0000      -0.578995       -15.7553
 144   2.0000      -0.573005       -15.5922
 145   2.0000      -0.569336       -15.4924
 146   2.0000      -0.567706       -15.4481
 147   2.0000      -0.567466       -15.4415
 148   2.0000      -0.563896       -15.3444
 149   2.0000      -0.558553       -15.1990
 150   2.0000      -0.556266       -15.1368
 151   2.0000      -0.550586       -14.9822
 152   2.0000      -0.544537       -14.8176
 153   2.0000      -0.542803       -14.7704
 154   2.0000      -0.540781       -14.7154
 155   2.0000      -0.539025       -14.6676
 156   2.0000      -0.537042       -14.6137
 157   2.0000      -0.532488       -14.4897
 158   2.0000      -0.531584       -14.4651
 159   2.0000      -0.530361       -14.4319
 160   2.0000      -0.528219       -14.3736
 161   2.0000      -0.527243       -14.3470
 162   2.0000      -0.522831       -14.2270
 163   2.0000      -0.522301       -14.2125
 164   2.0000      -0.520339       -14.1591
 165   2.0000      -0.520164       -14.1544
 166   2.0000      -0.518997       -14.1226
 167   2.0000      -0.517833       -14.0910
 168   2.0000      -0.515130       -14.0174
 169   2.0000      -0.512280       -13.9399
 170   2.0000      -0.507803       -13.8180
 171   2.0000      -0.507280       -13.8038
 172   2.0000      -0.504672       -13.7328
 173   2.0000      -0.502411       -13.6713
 174   2.0000      -0.499582       -13.5943
 175   2.0000      -0.496961       -13.5230
 176   2.0000      -0.494375       -13.4526
 177   2.0000      -0.492131       -13.3916
 178   2.0000      -0.487591       -13.2680
 179   2.0000      -0.483936       -13.1686
 180   2.0000      -0.481700       -13.1077
 181   2.0000      -0.481041       -13.0898
 182   2.0000      -0.479707       -13.0535
 183   2.0000      -0.479332       -13.0433
 184   2.0000      -0.473987       -12.8978
 185   2.0000      -0.468166       -12.7395
 186   2.0000      -0.464500       -12.6397
 187   2.0000      -0.463372       -12.6090
 188   2.0000      -0.460708       -12.5365
 189   2.0000      -0.458920       -12.4879
 190   2.0000      -0.455377       -12.3914
 191   2.0000      -0.453940       -12.3523
 192   2.0000      -0.452456       -12.3120
 193   2.0000      -0.451516       -12.2864
 194   2.0000      -0.447824       -12.1859
 195   2.0000      -0.447072       -12.1655
 196   2.0000      -0.445002       -12.1091
 197   2.0000      -0.441963       -12.0264
 198   2.0000      -0.440215       -11.9789
 199   2.0000      -0.437192       -11.8966
 200   2.0000      -0.434017       -11.8102
 201   2.0000      -0.433031       -11.7834
 202   2.0000      -0.431385       -11.7386
 203   2.0000      -0.428798       -11.6682
 204   2.0000      -0.419531       -11.4160
 205   2.0000      -0.414249       -11.2723
 206   2.0000      -0.412530       -11.2255
 207   2.0000      -0.406509       -11.0617
 208   2.0000      -0.396591       -10.7918
 209   2.0000      -0.394781       -10.7425
 210   2.0000      -0.392211       -10.6726
 211   2.0000      -0.381374       -10.3777
 212   2.0000      -0.369691       -10.0598
 213   2.0000      -0.365268        -9.9394
 214   2.0000      -0.361489        -9.8366
 215   2.0000      -0.359555        -9.7840
 216   2.0000      -0.357603        -9.7309
 217   2.0000      -0.351446        -9.5633
 218   2.0000      -0.350200        -9.5294
 219   2.0000      -0.345407        -9.3990
 220   2.0000      -0.340454        -9.2642
 221   2.0000      -0.337651        -9.1879
 222   2.0000      -0.333767        -9.0823
 223   2.0000      -0.328757        -8.9459
 224   2.0000      -0.327905        -8.9227
 225   2.0000      -0.323321        -8.7980
 226   2.0000      -0.323196        -8.7946
 227   2.0000      -0.322659        -8.7800
 228   2.0000      -0.317385        -8.6365
 229   2.0000      -0.307700        -8.3729
 230   2.0000      -0.304986        -8.2991
 231   2.0000      -0.277232        -7.5439
 232   2.0000      -0.269043        -7.3210
 233   2.0000      -0.225622        -6.1395
 234   0.0000      -0.101746        -2.7686
 235   0.0000      -0.079661        -2.1677
 236   0.0000      -0.072144        -1.9631
 237   0.0000      -0.049862        -1.3568
 238   0.0000      -0.021234        -0.5778

MULLIKEN ATOMIC CHARGES
-----------------------
   0 C :   -0.008787
   1 C :    0.041295
   2 C :    0.002449
   3 C :   -0.069222
   4 S :    0.745171
   5 O :   -0.453430
   6 O :   -0.453123
   7 C :    0.088130
   8 C :    0.001348
   9 C :   -0.116540
  10 S :    0.195722
  11 C :   -0.131038
  12 C :    0.030129
  13 C :    0.021056
  14 C :    0.021573
  15 O :   -0.152841
  16 C :    0.066332
  17 C :    0.033348
  18 O :   -0.162623
  19 C :    0.057617
  20 C :   -0.024337
  21 C :    0.134129
  22 N :   -0.263799
  23 C :    0.096078
  24 C :    0.008591
  25 C :    0.145846
  26 O :   -0.182243
  27 C :   -0.033053
  28 C :   -0.061227
  29 C :    0.162248
  30 O :   -0.212600
  31 N :   -0.264445
  32 C :    0.094092
  33 C :    0.004732
  34 C :    0.107771
  35 C :   -0.028506
  36 C :   -0.007790
  37 C :   -0.117485
  38 S :    0.205542
  39 C :    0.008188
  40 C :    0.137129
  41 O :   -0.177601
  42 C :   -0.008073
  43 C :    0.008707
  44 N :   -0.134036
  45 C :    0.087952
  46 C :    0.001270
  47 C :    0.008865
  48 C :   -0.018065
  49 C :    0.139888
  50 O :   -0.176297
  51 C :    0.003417
  52 C :   -0.081184
  53 C :    0.004893
  54 C :   -0.016838
  55 C :    0.008626
  56 C :   -0.029400
  57 S :    0.705945
  58 O :   -0.447218
  59 O :   -0.444933
  60 C :    0.059240
  61 C :   -0.005493
  62 H :    0.049788
  63 H :    0.018630
  64 H :    0.013384
  65 H :    0.010740
  66 H :    0.014968
  67 H :    0.069936
  68 H :    0.067807
  69 H :    0.001411
  70 H :   -0.010154
  71 H :    0.041488
  72 H :    0.036549
  73 H :    0.026250
  74 H :    0.022293
  75 H :    0.015558
  76 H :    0.040406
  77 H :    0.042609
  78 H :    0.020719
  79 H :    0.022445
  80 H :    0.023534
  81 H :    0.019328
  82 H :    0.020595
  83 H :    0.007233
  84 H :    0.034827
  85 H :    0.034353
  86 H :    0.030397
  87 H :    0.031819
  88 H :    0.032649
  89 H :    0.005632
  90 H :    0.024737
  91 H :   -0.004293
  92 H :    0.014550
  93 H :    0.024555
  94 H :    0.040164
Sum of atomic charges:   -0.0000000

LOEWDIN ATOMIC CHARGES
----------------------
   0 C :   -0.150429
   1 C :   -0.015636
   2 C :   -0.023944
   3 C :   -0.147723
   4 S :    1.165828
   5 O :   -0.494252
   6 O :   -0.493939
   7 C :   -0.029713
   8 C :   -0.007300
   9 C :   -0.141687
  10 S :    0.494786
  11 C :   -0.122997
  12 C :   -0.097376
  13 C :   -0.087888
  14 C :    0.078257
  15 O :   -0.140139
  16 C :   -0.066510
  17 C :    0.084396
  18 O :   -0.140816
  19 C :   -0.011661
  20 C :   -0.016266
  21 C :    0.074394
  22 N :   -0.001501
  23 C :    0.036783
  24 C :   -0.059512
  25 C :    0.077796
  26 O :   -0.187890
  27 C :   -0.107293
  28 C :   -0.117875
  29 C :    0.082216
  30 O :   -0.200329
  31 N :   -0.001134
  32 C :    0.035335
  33 C :   -0.061071
  34 C :    0.071859
  35 C :   -0.025334
  36 C :   -0.023599
  37 C :   -0.134186
  38 S :    0.512913
  39 C :   -0.082502
  40 C :    0.084088
  41 O :   -0.172178
  42 C :   -0.101495
  43 C :    0.031200
  44 N :    0.090189
  45 C :    0.043936
  46 C :   -0.057320
  47 C :    0.030088
  48 C :   -0.101135
  49 C :    0.085197
  50 O :   -0.166337
  51 C :   -0.081528
  52 C :   -0.139864
  53 C :   -0.174684
  54 C :   -0.002074
  55 C :   -0.020068
  56 C :   -0.145152
  57 S :    1.151746
  58 O :   -0.492141
  59 O :   -0.489812
  60 C :   -0.036570
  61 C :   -0.006556
  62 H :    0.037673
  63 H :    0.040027
  64 H :    0.037715
  65 H :    0.031808
  66 H :    0.042029
  67 H :    0.063946
  68 H :    0.062793
  69 H :    0.035177
  70 H :    0.030215
  71 H :    0.037119
  72 H :    0.028230
  73 H :    0.030112
  74 H :    0.031042
  75 H :    0.022557
  76 H :    0.036176
  77 H :    0.027251
  78 H :    0.028684
  79 H :    0.032171
  80 H :    0.023193
  81 H :    0.040004
  82 H :    0.035824
  83 H :    0.029693
  84 H :    0.033878
  85 H :    0.034089
  86 H :    0.030533
  87 H :    0.033508
  88 H :    0.031258
  89 H :    0.028817
  90 H :    0.037875
  91 H :    0.036189
  92 H :    0.038647
  93 H :    0.025045
  94 H :    0.033130

  Mayer bond orders larger than 0.100000
B(  0-C ,  1-C ) :   1.7689 B(  0-C ,  4-S ) :   0.8284 B(  0-C , 62-H ) :   0.9762
B(  1-C ,  2-C ) :   1.0883 B(  1-C , 63-H ) :   0.9896 B(  2-C ,  3-C ) :   1.6871
B(  2-C , 64-H ) :   0.9911 B(  3-C ,  4-S ) :   0.8052 B(  3-C ,  7-C ) :   1.1421
B(  4-S ,  5-O ) :   1.7178 B(  4-S ,  6-O ) :   1.7180 B(  7-C ,  8-C ) :   1.6395
B(  7-C , 65-H ) :   0.9564 B(  8-C ,  9-C ) :   1.1984 B(  8-C , 66-H ) :   0.9651
B(  9-C , 10-S ) :   1.1157 B(  9-C , 13-C ) :   1.4527 B( 10-S , 11-C ) :   1.1634
B( 11-C , 12-C ) :   1.4093 B( 11-C , 19-C ) :   1.1688 B( 12-C , 13-C ) :   1.2189
B( 12-C , 17-C ) :   0.9597 B( 13-C , 14-C ) :   0.9518 B( 14-C , 15-O ) :   2.2056
B( 14-C , 16-C ) :   0.9975 B( 16-C , 17-C ) :   1.0058 B( 16-C , 67-H ) :   0.8945
B( 16-C , 68-H ) :   0.8962 B( 17-C , 18-O ) :   2.1271 B( 18-O , 70-H ) :   0.1118
B( 19-C , 20-C ) :   1.5891 B( 19-C , 69-H ) :   0.9307 B( 20-C , 21-C ) :   1.1696
B( 20-C , 70-H ) :   0.9361 B( 21-C , 22-N ) :   1.1705 B( 21-C , 28-C ) :   1.3138
B( 22-N , 23-C ) :   0.9409 B( 22-N , 25-C ) :   1.0339 B( 23-C , 24-C ) :   1.1238
B( 23-C , 71-H ) :   0.9280 B( 23-C , 72-H ) :   0.9485 B( 24-C , 73-H ) :   0.9641
B( 24-C , 74-H ) :   0.9677 B( 24-C , 75-H ) :   0.9673 B( 25-C , 26-O ) :   2.1437
B( 25-C , 27-C ) :   0.9691 B( 27-C , 28-C ) :   1.2562 B( 27-C , 34-C ) :   1.3387
B( 28-C , 29-C ) :   0.9866 B( 29-C , 30-O ) :   2.0143 B( 29-C , 31-N ) :   1.0700
B( 30-O , 69-H ) :   0.1144 B( 31-N , 32-C ) :   0.9362 B( 31-N , 34-C ) :   1.1633
B( 32-C , 33-C ) :   1.1188 B( 32-C , 76-H ) :   0.9218 B( 32-C , 77-H ) :   0.9506
B( 33-C , 78-H ) :   0.9621 B( 33-C , 79-H ) :   0.9672 B( 33-C , 80-H ) :   0.9676
B( 34-C , 35-C ) :   1.2021 B( 35-C , 36-C ) :   1.5224 B( 35-C , 81-H ) :   0.9488
B( 36-C , 37-C ) :   1.1897 B( 36-C , 82-H ) :   0.9524 B( 37-C , 38-S ) :   1.1302
B( 37-C , 39-C ) :   1.4469 B( 38-S , 52-C ) :   1.1682 B( 39-C , 40-C ) :   0.9418
B( 39-C , 51-C ) :   1.2131 B( 40-C , 41-O ) :   2.1625 B( 40-C , 42-C ) :   1.0077
B( 42-C , 43-C ) :   1.4216 B( 42-C , 48-C ) :   1.2918 B( 43-C , 44-N ) :   1.2357
B( 43-C , 83-H ) :   0.9935 B( 44-N , 45-C ) :   0.9510 B( 44-N , 47-C ) :   1.2346
B( 45-C , 46-C ) :   1.1112 B( 45-C , 84-H ) :   0.9512 B( 45-C , 85-H ) :   0.9512
B( 46-C , 86-H ) :   0.9674 B( 46-C , 87-H ) :   0.9682 B( 46-C , 88-H ) :   0.9673
B( 47-C , 48-C ) :   1.4225 B( 47-C , 89-H ) :   0.9931 B( 48-C , 49-C ) :   1.0020
B( 49-C , 50-O ) :   2.1727 B( 49-C , 51-C ) :   0.9406 B( 51-C , 52-C ) :   1.4700
B( 52-C , 53-C ) :   1.1930 B( 53-C , 54-C ) :   1.6799 B( 53-C , 57-S ) :   0.7784
B( 54-C , 55-C ) :   1.0783 B( 54-C , 90-H ) :   0.9751 B( 55-C , 56-C ) :   1.6762
B( 55-C , 91-H ) :   0.9950 B( 56-C , 57-S ) :   0.7959 B( 56-C , 60-C ) :   1.1133
B( 57-S , 58-O ) :   1.6999 B( 57-S , 59-O ) :   1.7002 B( 60-C , 61-C ) :   1.9331
B( 60-C , 92-H ) :   0.9489 B( 61-C , 93-H ) :   0.9564 B( 61-C , 94-H ) :   0.9504

-----------------------------------------------------------------------------
         ABSORPTION SPECTRUM VIA TRANSITION ELECTRIC DIPOLE MOMENTS
-----------------------------------------------------------------------------
State   Energy  Wavelength   fosc         T2         TX        TY        TZ
        (cm-1)    (nm)                  (au**2)     (au)      (au)      (au)
-----------------------------------------------------------------------------
   0   12503.1    799.8   1.080992118  28.46305  -2.91438   3.07337   3.24404
   1   19017.8    525.8   0.039665027   0.68663   0.08671  -0.59213  -0.57315
   2   20576.5    486.0   0.372246778   5.95572   0.36349   1.75000  -1.66165
   3   22850.3    437.6   0.179588911   2.58740   0.94130  -1.29778   0.13090
   4   23611.9    423.5   0.308556880   4.30209   0.90661  -1.78285  -0.54917
   5   23678.6    422.3   0.549282962   7.63689   1.03639  -2.56073   0.07394
   6   25335.7    394.7   0.002139663   0.02780   0.12999  -0.04352  -0.09492
   7   27104.6    368.9   0.399867048   4.85678   0.39886   1.92023  -1.00519
   8   27204.2    367.6   0.001016616   0.01230  -0.05483  -0.09210   0.02851
   9   28664.2    348.9   0.185087727   2.12576  -0.32897   1.08616  -0.91531
  10   29264.4    341.7   0.001353814   0.01523   0.10864  -0.02228  -0.05413
  11   29378.6    340.4   0.000310610   0.00348  -0.00963   0.02995  -0.04991
  12   29832.1    335.2   0.000130463   0.00144   0.02486  -0.02866  -0.00054
  13   30258.3    330.5   0.065392355   0.71147  -0.34611   0.75481   0.14813
  14   30664.4    326.1   0.000742288   0.00797   0.00915   0.07602  -0.04590
  15   30875.3    323.9   0.000896857   0.00956   0.04019   0.02237  -0.08630
  16   31694.7    315.5   0.001701766   0.01768   0.07438   0.08044  -0.07532
  17   31880.5    313.7   0.056418056   0.58260  -0.45489   0.38343   0.47817
  18   32000.1    312.5   0.005008539   0.05153  -0.11777   0.17727  -0.07895
  19   32248.9    310.1   0.039605398   0.40431   0.18562  -0.59944   0.10259
  20   33108.1    302.0   0.105042424   1.04449   0.55486  -0.23967  -0.82412
  21   33545.2    298.1   0.050322964   0.49387  -0.37541  -0.19964   0.55953
  22   34083.5    293.4   0.132963229   1.28429  -0.71393  -0.14011   0.86889
  23   34291.5    291.6   0.018545461   0.17804   0.03711   0.38290  -0.17336
  24   34726.9    288.0   0.025803991   0.24462  -0.18673   0.45772   0.01569
  25   35051.3    285.3   0.046493643   0.43668  -0.24879  -0.38002   0.47997
  26   35171.1    284.3   0.017496052   0.16377  -0.19028  -0.24373   0.26107
  27   35835.8    279.1   0.004768511   0.04381  -0.09055   0.17252  -0.07644
  28   35873.1    278.8   0.000579190   0.00532   0.03553  -0.06324   0.00729
  29   36278.0    275.6   0.031990962   0.29031   0.16365  -0.50148   0.10975
  30   36524.1    273.8   0.037799176   0.34071   0.01499   0.27315  -0.51562
  31   36618.4    273.1   0.000328840   0.00296   0.05019  -0.00392   0.02055
  32   36901.6    271.0   0.035408658   0.31589   0.26320  -0.08013  -0.49010
  33   37316.9    268.0   0.096383778   0.85030   0.37897  -0.83602   0.08810
  34   37724.3    265.1   0.002256668   0.01969  -0.12314  -0.03121  -0.05963
  35   38001.2    263.1   0.076846074   0.66573  -0.19320  -0.13474   0.78119
  36   38074.9    262.6   0.038586611   0.33364   0.24181  -0.14550  -0.50398
  37   38401.7    260.4   0.000962247   0.00825  -0.06097   0.01323   0.06601
  38   38857.1    257.4   0.002598455   0.02202   0.03242   0.03669  -0.14006
  39   38957.3    256.7   0.000131887   0.00111   0.00101   0.00980   0.03190
  40   39049.8    256.1   0.072113973   0.60796   0.46925  -0.35800  -0.50951
  41   39064.1    256.0   0.015530064   0.13088   0.05159   0.11721  -0.33835
  42   39422.7    253.7   0.003605388   0.03011  -0.09138   0.09551   0.11240
  43   39644.9    252.2   0.111659832   0.92723  -0.39132   0.11426   0.87237
  44   40075.4    249.5   0.053402647   0.43869  -0.15006  -0.51135   0.39331
  45   40279.8    248.3   0.013425499   0.10973  -0.06905  -0.28670   0.15088

FINAL SINGLE POINT ENERGY     -4239.955511102312

DIPOLE MOMENT
-------------
                                X             Y             Z
Electronic contribution:     15.41822     -10.55410     -17.62491
Nuclear contribution   :    -17.01878      10.46930      19.41185
                        -----------------------------------------
Total Dipole Moment    :     -1.60056      -0.08480       1.78694
                        -----------------------------------------
Magnitude (a.u.)       :      2.40044
Magnitude (Debye)      :      6.10144

Rotational constants in cm-1:     0.001761     0.000349     0.000297
Rotational constants in MHz :    52.783097    10.470980     8.909833

                             ****ORCA TERMINATED NORMALLY****
TOTAL RUN TIME: 0 days 0 hours 7 minutes 22 seconds 216 msec
