                         Program Version 4.2.0 -  RELEASE  -
|  1> # ORCA input file
|  2> # SCF done       -201.505143767223          0.000294631458
|  3> ! CAM-B3LYP def2-SVP def2/J RIJCOSX Grid4 TightSCF
|  4> %maxcore 5000
|  5> %tddft
|  6>     Mode sTDDFT
|  7>     Ethresh 5.0
|  8>     maxcore 5000
|  9> end
| 10>
| 11> %pal
| 12>   nprocs 6
| 13>   end
| 14> * xyz 0 1
| 15>    C        1.64081         1.35636        -3.11626
| 16>    C        1.08349         1.16119        -4.35264
| 17>    C        1.37084         0.05348        -5.17910
| 18>    N        1.55410        -0.82267        -5.89758
| 19>    C        0.19344         2.03979        -5.00702
| 20>    N       -0.51191         2.70873        -5.61868
| 21>    C        2.65166         0.50351        -2.50629
| 22>    C        3.12539         1.14142        -1.32546
| 23>    C        4.09516         0.58426        -0.54205
| 24>    C        4.64187        -0.66542        -0.90882
| 25>    C        4.16695        -1.31530        -2.08497
| 26>    C        3.16433        -0.71160        -2.87767
| 27>    C        4.71660        -2.56412        -2.43969
| 28>    C        5.68930        -3.14411        -1.67167
| 29>    C        6.15621        -2.50341        -0.51413
| 30>    C        5.64401        -1.29037        -0.14090
| 31>    C        2.41604         2.41565        -1.13058
| 32>    O        2.62108         3.21571        -0.24219
| 33>    C        1.40843         2.48465        -2.22290
| 34>    C        0.34900         3.33526        -2.35077
| 35>    C       -0.02007         4.48967        -1.62107
| 36>    S       -1.56542         5.20841        -2.02188
| 37>    C       -1.33774         6.49647        -0.89147
| 38>    C       -0.10210         6.35415        -0.23513
| 39>    C        0.62448         5.23326        -0.64797
| 40>    C        0.38296         7.22553         0.75550
| 41>    N        0.79957         7.91962         1.56920
| 42>    C       -2.34241         7.48285        -0.76879
| 43>    C       -2.25174         8.61271        -0.01282
| 44>    C       -3.29345         9.56514         0.04679
| 45>    N       -3.21732        10.73443         0.76123
| 46>    C       -2.12600        11.16350         1.60466
| 47>    C       -2.12981        10.44586         2.95148
| 48>    C       -4.38337        11.51001         0.62998
| 49>    O       -4.53695        12.58800         1.16408
| 50>    C       -5.23548        10.73002        -0.24537
| 51>    C       -4.54392         9.54812        -0.58376
| 52>    C       -5.39836         8.76171        -1.44882
| 53>    O       -5.23925         7.68344        -1.98656
| 54>    N       -6.56826         9.52487        -1.56814
| 55>    C       -7.65668         9.09035        -2.41077
| 56>    C       -7.64918         9.80155        -3.76163
| 57>    C       -6.49069        10.70821        -0.86694
| 58>    C       -7.52596        11.66245        -0.82528
| 59>    C       -7.40487        12.86547        -0.18922
| 60>    C       -8.41411        13.85178        -0.15412
| 61>    C       -8.27971        15.12288         0.37573
| 62>    C       -9.49393        15.83909         0.20103
| 63>    C      -10.42403        14.90518        -0.46620
| 64>    C       -9.76950        13.73583        -0.67980
| 65>    C      -11.74978        15.14975        -0.84274
| 66>    N      -12.83921        15.30325        -1.17346
| 67>    C       -9.76038        17.14829         0.53627
| 68>    C      -10.98064        17.86269         0.32910
| 69>    C      -10.80329        19.17552         0.70202
| 70>    C       -9.45285        19.31331         1.23238
| 71>    C       -8.82840        18.10858         1.14387
| 72>    C       -7.52474        17.85163         1.58433
| 73>    N       -6.45460        17.67385         1.96158
| 74>    C      -11.78674        20.19924         0.59884
| 75>    C      -11.54087        21.50826         0.32091
| 76>    C      -12.50019        22.59839         0.30604
| 77>    C      -13.75518        22.57727         0.85482
| 78>    C      -14.64353        23.67304         0.83664
| 79>    N      -15.40918        24.52812         0.84890
| 80>    C      -14.31430        21.47745         1.53976
| 81>    N      -14.82087        20.63151         2.12770
| 82>    C      -11.85858        23.74645        -0.32124
| 83>    C      -10.51193        23.40209        -0.63464
| 84>    C      -10.25499        22.00703        -0.24385
| 85>    O       -9.23725        21.37402        -0.42341
| 86>    C       -9.66042        24.28750        -1.23080
| 87>    C      -10.12549        25.58326        -1.54736
| 88>    C      -11.47311        25.93376        -1.24358
| 89>    C      -12.33163        24.99564        -0.62614
| 90>    C      -11.92848        27.22707        -1.57134
| 91>    C      -11.09431        28.13210        -2.16930
| 92>    C       -9.76756        27.78634        -2.46680
| 93>    C       -9.29314        26.53933        -2.16190
| 94>    H        4.43948         1.09128         0.34712
| 95>    H        2.82236        -1.23202        -3.75796
| 96>    H        4.35493        -3.05263        -3.33253
| 97>    H        6.10468        -4.10033        -1.95221
| 98>    H        6.92366        -2.97593         0.08037
| 99>    H        5.99964        -0.79238         0.74919
|100>    H       -0.35950         3.09748        -3.13621
|101>    H        1.58709         4.96834        -0.24828
|102>    H       -3.24250         7.30807        -1.34529
|103>    H       -1.35586         8.81378         0.55366
|104>    H       -2.27064        12.23625         1.75981
|105>    H       -1.17703        11.00507         1.08573
|106>    H       -3.06761        10.63012         3.47008
|107>    H       -1.31398        10.81889         3.56343
|108>    H       -2.00375         9.37307         2.82529
|109>    H       -8.60649         9.24534        -1.89138
|110>    H       -7.51109         8.01708        -2.56162
|111>    H       -7.74384        10.87838        -3.63911
|112>    H       -8.47519         9.44388        -4.36993
|113>    H       -6.71861         9.59442        -4.28420
|114>    H       -8.44384        11.42000        -1.34068
|115>    H       -6.47588        13.10922         0.30962
|116>    H       -7.39382        15.51367         0.83679
|117>    H      -10.18750        12.86472        -1.14906
|118>    H      -11.87021        17.44884        -0.10468
|119>    H       -9.04758        20.20483         1.66949
|120>    H      -12.81334        19.86857         0.70438
|121>    H       -8.64398        24.00191        -1.45799
|122>    H      -13.34805        25.28832        -0.41547
|123>    H      -12.95035        27.48898        -1.33941
|124>    H      -11.45254        29.12011        -2.41659
|125>    H       -9.12347        28.51278        -2.93920
|126>    H       -8.27278        26.26715        -2.38891
|127> *
|128>
|129>                          ****END OF INPUT****

CARTESIAN COORDINATES (ANGSTROEM)
---------------------------------
  C      1.640810    1.356360   -3.116260
  C      1.083490    1.161190   -4.352640
  C      1.370840    0.053480   -5.179100
  N      1.554100   -0.822670   -5.897580
  C      0.193440    2.039790   -5.007020
  N     -0.511910    2.708730   -5.618680
  C      2.651660    0.503510   -2.506290
  C      3.125390    1.141420   -1.325460
  C      4.095160    0.584260   -0.542050
  C      4.641870   -0.665420   -0.908820
  C      4.166950   -1.315300   -2.084970
  C      3.164330   -0.711600   -2.877670
  C      4.716600   -2.564120   -2.439690
  C      5.689300   -3.144110   -1.671670
  C      6.156210   -2.503410   -0.514130
  C      5.644010   -1.290370   -0.140900
  C      2.416040    2.415650   -1.130580
  O      2.621080    3.215710   -0.242190
  C      1.408430    2.484650   -2.222900
  C      0.349000    3.335260   -2.350770
  C     -0.020070    4.489670   -1.621070
  S     -1.565420    5.208410   -2.021880
  C     -1.337740    6.496470   -0.891470
  C     -0.102100    6.354150   -0.235130
  C      0.624480    5.233260   -0.647970
  C      0.382960    7.225530    0.755500
  N      0.799570    7.919620    1.569200
  C     -2.342410    7.482850   -0.768790
  C     -2.251740    8.612710   -0.012820
  C     -3.293450    9.565140    0.046790
  N     -3.217320   10.734430    0.761230
  C     -2.126000   11.163500    1.604660
  C     -2.129810   10.445860    2.951480
  C     -4.383370   11.510010    0.629980
  O     -4.536950   12.588000    1.164080
  C     -5.235480   10.730020   -0.245370
  C     -4.543920    9.548120   -0.583760
  C     -5.398360    8.761710   -1.448820
  O     -5.239250    7.683440   -1.986560
  N     -6.568260    9.524870   -1.568140
  C     -7.656680    9.090350   -2.410770
  C     -7.649180    9.801550   -3.761630
  C     -6.490690   10.708210   -0.866940
  C     -7.525960   11.662450   -0.825280
  C     -7.404870   12.865470   -0.189220
  C     -8.414110   13.851780   -0.154120
  C     -8.279710   15.122880    0.375730
  C     -9.493930   15.839090    0.201030
  C    -10.424030   14.905180   -0.466200
  C     -9.769500   13.735830   -0.679800
  C    -11.749780   15.149750   -0.842740
  N    -12.839210   15.303250   -1.173460
  C     -9.760380   17.148290    0.536270
  C    -10.980640   17.862690    0.329100
  C    -10.803290   19.175520    0.702020
  C     -9.452850   19.313310    1.232380
  C     -8.828400   18.108580    1.143870
  C     -7.524740   17.851630    1.584330
  N     -6.454600   17.673850    1.961580
  C    -11.786740   20.199240    0.598840
  C    -11.540870   21.508260    0.320910
  C    -12.500190   22.598390    0.306040
  C    -13.755180   22.577270    0.854820
  C    -14.643530   23.673040    0.836640
  N    -15.409180   24.528120    0.848900
  C    -14.314300   21.477450    1.539760
  N    -14.820870   20.631510    2.127700
  C    -11.858580   23.746450   -0.321240
  C    -10.511930   23.402090   -0.634640
  C    -10.254990   22.007030   -0.243850
  O     -9.237250   21.374020   -0.423410
  C     -9.660420   24.287500   -1.230800
  C    -10.125490   25.583260   -1.547360
  C    -11.473110   25.933760   -1.243580
  C    -12.331630   24.995640   -0.626140
  C    -11.928480   27.227070   -1.571340
  C    -11.094310   28.132100   -2.169300
  C     -9.767560   27.786340   -2.466800
  C     -9.293140   26.539330   -2.161900
  H      4.439480    1.091280    0.347120
  H      2.822360   -1.232020   -3.757960
  H      4.354930   -3.052630   -3.332530
  H      6.104680   -4.100330   -1.952210
  H      6.923660   -2.975930    0.080370
  H      5.999640   -0.792380    0.749190
  H     -0.359500    3.097480   -3.136210
  H      1.587090    4.968340   -0.248280
  H     -3.242500    7.308070   -1.345290
  H     -1.355860    8.813780    0.553660
  H     -2.270640   12.236250    1.759810
  H     -1.177030   11.005070    1.085730
  H     -3.067610   10.630120    3.470080
  H     -1.313980   10.818890    3.563430
  H     -2.003750    9.373070    2.825290
  H     -8.606490    9.245340   -1.891380
  H     -7.511090    8.017080   -2.561620
  H     -7.743840   10.878380   -3.639110
  H     -8.475190    9.443880   -4.369930
  H     -6.718610    9.594420   -4.284200
  H     -8.443840   11.420000   -1.340680
  H     -6.475880   13.109220    0.309620
  H     -7.393820   15.513670    0.836790
  H    -10.187500   12.864720   -1.149060
  H    -11.870210   17.448840   -0.104680
  H     -9.047580   20.204830    1.669490
  H    -12.813340   19.868570    0.704380
  H     -8.643980   24.001910   -1.457990
  H    -13.348050   25.288320   -0.415470
  H    -12.950350   27.488980   -1.339410
  H    -11.452540   29.120110   -2.416590
  H     -9.123470   28.512780   -2.939200
  H     -8.272780   26.267150   -2.388910

 Total Charge           Charge          ....    0
 Multiplicity           Mult            ....    1
 Number of Electrons    NEL             ....  534
 Basis Dimension        Dim             .... 1275

ORBITAL ENERGIES
----------------

  NO   OCC          E(Eh)            E(eV)
   0   2.0000     -88.988576     -2421.5023
   1   2.0000     -19.227456      -523.2057
   2   2.0000     -19.226210      -523.1718
   3   2.0000     -19.203184      -522.5452
   4   2.0000     -19.201295      -522.4938
   5   2.0000     -14.464261      -393.5925
   6   2.0000     -14.462193      -393.5363
   7   2.0000     -14.421371      -392.4255
   8   2.0000     -14.421296      -392.4234
   9   2.0000     -14.421200      -392.4208
  10   2.0000     -14.421007      -392.4156
  11   2.0000     -14.418628      -392.3508
  12   2.0000     -14.415552      -392.2671
  13   2.0000     -14.403632      -391.9428
  14   2.0000     -10.385449      -282.6024
  15   2.0000     -10.383512      -282.5497
  16   2.0000     -10.377438      -282.3845
  17   2.0000     -10.377239      -282.3790
  18   2.0000     -10.350804      -281.6597
  19   2.0000     -10.350199      -281.6432
  20   2.0000     -10.350144      -281.6417
  21   2.0000     -10.347548      -281.5711
  22   2.0000     -10.347484      -281.5694
  23   2.0000     -10.347407      -281.5672
  24   2.0000     -10.346137      -281.5327
  25   2.0000     -10.333342      -281.1845
  26   2.0000     -10.332650      -281.1657
  27   2.0000     -10.329904      -281.0910
  28   2.0000     -10.329799      -281.0881
  29   2.0000     -10.328248      -281.0459
  30   2.0000     -10.327522      -281.0262
  31   2.0000     -10.324147      -280.9343
  32   2.0000     -10.323594      -280.9193
  33   2.0000     -10.323405      -280.9141
  34   2.0000     -10.323190      -280.9083
  35   2.0000     -10.322182      -280.8808
  36   2.0000     -10.321384      -280.8591
  37   2.0000     -10.317925      -280.7650
  38   2.0000     -10.317176      -280.7446
  39   2.0000     -10.316832      -280.7353
  40   2.0000     -10.311393      -280.5873
  41   2.0000     -10.311124      -280.5799
  42   2.0000     -10.310562      -280.5647
  43   2.0000     -10.310437      -280.5613
  44   2.0000     -10.310145      -280.5533
  45   2.0000     -10.309916      -280.5471
  46   2.0000     -10.309739      -280.5423
  47   2.0000     -10.309542      -280.5369
  48   2.0000     -10.308830      -280.5175
  49   2.0000     -10.308638      -280.5123
  50   2.0000     -10.307737      -280.4878
  51   2.0000     -10.307310      -280.4762
  52   2.0000     -10.307275      -280.4752
  53   2.0000     -10.305895      -280.4377
  54   2.0000     -10.303627      -280.3759
  55   2.0000     -10.303522      -280.3731
  56   2.0000     -10.303445      -280.3710
  57   2.0000     -10.303233      -280.3652
  58   2.0000     -10.302879      -280.3556
  59   2.0000     -10.301942      -280.3301
  60   2.0000     -10.301718      -280.3240
  61   2.0000     -10.301526      -280.3188
  62   2.0000     -10.301364      -280.3144
  63   2.0000     -10.301054      -280.3059
  64   2.0000     -10.295725      -280.1609
  65   2.0000     -10.293543      -280.1016
  66   2.0000     -10.291591      -280.0484
  67   2.0000     -10.291129      -280.0359
  68   2.0000     -10.291037      -280.0334
  69   2.0000     -10.290886      -280.0292
  70   2.0000     -10.290377      -280.0154
  71   2.0000     -10.290289      -280.0130
  72   2.0000     -10.289808      -279.9999
  73   2.0000     -10.289548      -279.9928
  74   2.0000     -10.289047      -279.9792
  75   2.0000     -10.275403      -279.6079
  76   2.0000     -10.274862      -279.5932
  77   2.0000     -10.272186      -279.5204
  78   2.0000     -10.261771      -279.2370
  79   2.0000      -8.084115      -219.9799
  80   2.0000      -6.053122      -164.7138
  81   2.0000      -6.049052      -164.6031
  82   2.0000      -6.046618      -164.5368
  83   2.0000      -1.144953       -31.1558
  84   2.0000      -1.142715       -31.0948
  85   2.0000      -1.141103       -31.0510
  86   2.0000      -1.138116       -30.9697
  87   2.0000      -1.074914       -29.2499
  88   2.0000      -1.066228       -29.0136
  89   2.0000      -1.026664       -27.9369
  90   2.0000      -1.024764       -27.8852
  91   2.0000      -1.022717       -27.8296
  92   2.0000      -1.021006       -27.7830
  93   2.0000      -1.005086       -27.3498
  94   2.0000      -1.003683       -27.3116
  95   2.0000      -1.003460       -27.3055
  96   2.0000      -1.000193       -27.2166
  97   2.0000      -0.999430       -27.1959
  98   2.0000      -0.997923       -27.1549
  99   2.0000      -0.990004       -26.9394
 100   2.0000      -0.982988       -26.7485
 101   2.0000      -0.976675       -26.5767
 102   2.0000      -0.976317       -26.5669
 103   2.0000      -0.940023       -25.5793
 104   2.0000      -0.935528       -25.4570
 105   2.0000      -0.931801       -25.3556
 106   2.0000      -0.926508       -25.2116
 107   2.0000      -0.922169       -25.0935
 108   2.0000      -0.912319       -24.8255
 109   2.0000      -0.908257       -24.7149
 110   2.0000      -0.889874       -24.2147
 111   2.0000      -0.888894       -24.1880
 112   2.0000      -0.885718       -24.1016
 113   2.0000      -0.884998       -24.0820
 114   2.0000      -0.880771       -23.9670
 115   2.0000      -0.874020       -23.7833
 116   2.0000      -0.865838       -23.5606
 117   2.0000      -0.858368       -23.3574
 118   2.0000      -0.849068       -23.1043
 119   2.0000      -0.844816       -22.9886
 120   2.0000      -0.834188       -22.6994
 121   2.0000      -0.832586       -22.6558
 122   2.0000      -0.827094       -22.5064
 123   2.0000      -0.816781       -22.2257
 124   2.0000      -0.807962       -21.9858
 125   2.0000      -0.795097       -21.6357
 126   2.0000      -0.781652       -21.2698
 127   2.0000      -0.768498       -20.9119
 128   2.0000      -0.767540       -20.8858
 129   2.0000      -0.766961       -20.8701
 130   2.0000      -0.766331       -20.8529
 131   2.0000      -0.742860       -20.2143
 132   2.0000      -0.735692       -20.0192
 133   2.0000      -0.731056       -19.8930
 134   2.0000      -0.723822       -19.6962
 135   2.0000      -0.717238       -19.5170
 136   2.0000      -0.712424       -19.3861
 137   2.0000      -0.709270       -19.3002
 138   2.0000      -0.707766       -19.2593
 139   2.0000      -0.704780       -19.1781
 140   2.0000      -0.700793       -19.0696
 141   2.0000      -0.697452       -18.9786
 142   2.0000      -0.684660       -18.6305
 143   2.0000      -0.684547       -18.6275
 144   2.0000      -0.681701       -18.5500
 145   2.0000      -0.677577       -18.4378
 146   2.0000      -0.665333       -18.1046
 147   2.0000      -0.664212       -18.0741
 148   2.0000      -0.657807       -17.8998
 149   2.0000      -0.649356       -17.6699
 150   2.0000      -0.642237       -17.4761
 151   2.0000      -0.640090       -17.4177
 152   2.0000      -0.633307       -17.2332
 153   2.0000      -0.622371       -16.9356
 154   2.0000      -0.620474       -16.8840
 155   2.0000      -0.618775       -16.8377
 156   2.0000      -0.612239       -16.6599
 157   2.0000      -0.611395       -16.6369
 158   2.0000      -0.608339       -16.5537
 159   2.0000      -0.603999       -16.4356
 160   2.0000      -0.596637       -16.2353
 161   2.0000      -0.587058       -15.9747
 162   2.0000      -0.585124       -15.9220
 163   2.0000      -0.581423       -15.8213
 164   2.0000      -0.575591       -15.6626
 165   2.0000      -0.572135       -15.5686
 166   2.0000      -0.565044       -15.3756
 167   2.0000      -0.558139       -15.1877
 168   2.0000      -0.556989       -15.1565
 169   2.0000      -0.553486       -15.0611
 170   2.0000      -0.551963       -15.0197
 171   2.0000      -0.550681       -14.9848
 172   2.0000      -0.549014       -14.9394
 173   2.0000      -0.544914       -14.8279
 174   2.0000      -0.543720       -14.7954
 175   2.0000      -0.541707       -14.7406
 176   2.0000      -0.539132       -14.6705
 177   2.0000      -0.537917       -14.6375
 178   2.0000      -0.536778       -14.6065
 179   2.0000      -0.536063       -14.5870
 180   2.0000      -0.530761       -14.4427
 181   2.0000      -0.529075       -14.3969
 182   2.0000      -0.528288       -14.3754
 183   2.0000      -0.527163       -14.3448
 184   2.0000      -0.523559       -14.2468
 185   2.0000      -0.522873       -14.2281
 186   2.0000      -0.521084       -14.1794
 187   2.0000      -0.520330       -14.1589
 188   2.0000      -0.518804       -14.1174
 189   2.0000      -0.517738       -14.0884
 190   2.0000      -0.515434       -14.0257
 191   2.0000      -0.514435       -13.9985
 192   2.0000      -0.510877       -13.9017
 193   2.0000      -0.507204       -13.8017
 194   2.0000      -0.506508       -13.7828
 195   2.0000      -0.503633       -13.7045
 196   2.0000      -0.502235       -13.6665
 197   2.0000      -0.500832       -13.6283
 198   2.0000      -0.500517       -13.6198
 199   2.0000      -0.491999       -13.3880
 200   2.0000      -0.491432       -13.3726
 201   2.0000      -0.489444       -13.3184
 202   2.0000      -0.488506       -13.2929
 203   2.0000      -0.485954       -13.2235
 204   2.0000      -0.481803       -13.1105
 205   2.0000      -0.476614       -12.9693
 206   2.0000      -0.475048       -12.9267
 207   2.0000      -0.472930       -12.8691
 208   2.0000      -0.470871       -12.8130
 209   2.0000      -0.469902       -12.7867
 210   2.0000      -0.468902       -12.7595
 211   2.0000      -0.465662       -12.6713
 212   2.0000      -0.458718       -12.4824
 213   2.0000      -0.455839       -12.4040
 214   2.0000      -0.454610       -12.3706
 215   2.0000      -0.453848       -12.3498
 216   2.0000      -0.452995       -12.3266
 217   2.0000      -0.451554       -12.2874
 218   2.0000      -0.449333       -12.2270
 219   2.0000      -0.449311       -12.2264
 220   2.0000      -0.448337       -12.1999
 221   2.0000      -0.446893       -12.1606
 222   2.0000      -0.446324       -12.1451
 223   2.0000      -0.445732       -12.1290
 224   2.0000      -0.444272       -12.0893
 225   2.0000      -0.443536       -12.0692
 226   2.0000      -0.439737       -11.9658
 227   2.0000      -0.439324       -11.9546
 228   2.0000      -0.438690       -11.9374
 229   2.0000      -0.437975       -11.9179
 230   2.0000      -0.437698       -11.9104
 231   2.0000      -0.435070       -11.8388
 232   2.0000      -0.433296       -11.7906
 233   2.0000      -0.431272       -11.7355
 234   2.0000      -0.431024       -11.7288
 235   2.0000      -0.429336       -11.6828
 236   2.0000      -0.428402       -11.6574
 237   2.0000      -0.425141       -11.5687
 238   2.0000      -0.423885       -11.5345
 239   2.0000      -0.418744       -11.3946
 240   2.0000      -0.417641       -11.3646
 241   2.0000      -0.416274       -11.3274
 242   2.0000      -0.414479       -11.2785
 243   2.0000      -0.410281       -11.1643
 244   2.0000      -0.407602       -11.0914
 245   2.0000      -0.398861       -10.8536
 246   2.0000      -0.394150       -10.7254
 247   2.0000      -0.386588       -10.5196
 248   2.0000      -0.380587       -10.3563
 249   2.0000      -0.378275       -10.2934
 250   2.0000      -0.358900        -9.7662
 251   2.0000      -0.355773        -9.6811
 252   2.0000      -0.353464        -9.6183
 253   2.0000      -0.351402        -9.5621
 254   2.0000      -0.347412        -9.4536
 255   2.0000      -0.345137        -9.3917
 256   2.0000      -0.342788        -9.3277
 257   2.0000      -0.326564        -8.8862
 258   2.0000      -0.326140        -8.8747
 259   2.0000      -0.322079        -8.7642
 260   2.0000      -0.320388        -8.7182
 261   2.0000      -0.309397        -8.4191
 262   2.0000      -0.304901        -8.2968
 263   2.0000      -0.302535        -8.2324
 264   2.0000      -0.294911        -8.0249
 265   2.0000      -0.292042        -7.9469
 266   2.0000      -0.242448        -6.5973
 267   0.0000      -0.138909        -3.7799
 268   0.0000      -0.110217        -2.9991
 269   0.0000      -0.087554        -2.3825
 270   0.0000      -0.078342        -2.1318
 271   0.0000      -0.063104        -1.7172

MULLIKEN ATOMIC CHARGES
-----------------------
   0 C :    0.304373
   1 C :   -0.347533
   2 C :   -0.183035
   3 N :    0.151009
   4 C :   -0.198676
   5 N :    0.161667
   6 C :    0.044216
   7 C :   -0.003645
   8 C :   -0.076231
   9 C :    0.096343
  10 C :    0.093997
  11 C :   -0.077558
  12 C :   -0.016681
  13 C :    0.038322
  14 C :    0.034344
  15 C :   -0.013615
  16 C :    0.164396
  17 O :   -0.153087
  18 C :   -0.083363
  19 C :    0.052371
  20 C :   -0.109525
  21 S :    0.201095
  22 C :   -0.053689
  23 C :   -0.085311
  24 C :    0.040454
  25 C :   -0.159412
  26 N :    0.120119
  27 C :    0.056037
  28 C :   -0.026997
  29 C :    0.136189
  30 N :   -0.255480
  31 C :    0.094659
  32 C :    0.005589
  33 C :    0.164099
  34 O :   -0.192068
  35 C :   -0.059880
  36 C :   -0.067995
  37 C :    0.169344
  38 O :   -0.207889
  39 N :   -0.257244
  40 C :    0.099625
  41 C :    0.000369
  42 C :    0.146701
  43 C :   -0.026002
  44 C :    0.012193
  45 C :    0.109008
  46 C :   -0.099222
  47 C :    0.124627
  48 C :   -0.098504
  49 C :   -0.008970
  50 C :   -0.171597
  51 N :    0.138207
  52 C :    0.105140
  53 C :   -0.073647
  54 C :    0.078046
  55 C :    0.082923
  56 C :   -0.131643
  57 C :   -0.179189
  58 N :    0.139900
  59 C :   -0.021676
  60 C :   -0.091451
  61 C :    0.307694
  62 C :   -0.337148
  63 C :   -0.179766
  64 N :    0.155038
  65 C :   -0.202569
  66 N :    0.171088
  67 C :    0.052017
  68 C :   -0.008451
  69 C :    0.143214
  70 O :   -0.139630
  71 C :   -0.076331
  72 C :    0.099322
  73 C :    0.096856
  74 C :   -0.083665
  75 C :   -0.018097
  76 C :    0.038733
  77 C :    0.036791
  78 C :   -0.015612
  79 H :   -0.011837
  80 H :   -0.006982
  81 H :   -0.008460
  82 H :   -0.003545
  83 H :   -0.002751
  84 H :   -0.016514
  85 H :    0.016824
  86 H :    0.026269
  87 H :    0.009696
  88 H :   -0.009181
  89 H :    0.047212
  90 H :    0.034981
  91 H :    0.025772
  92 H :    0.032202
  93 H :    0.020250
  94 H :    0.023747
  95 H :    0.046928
  96 H :    0.016768
  97 H :    0.027857
  98 H :    0.032524
  99 H :   -0.029852
 100 H :    0.021290
 101 H :    0.019380
 102 H :   -0.000024
 103 H :    0.012175
 104 H :    0.003082
 105 H :    0.043049
 106 H :   -0.010515
 107 H :   -0.006514
 108 H :   -0.007584
 109 H :   -0.002995
 110 H :   -0.001734
 111 H :   -0.015547
Sum of atomic charges:    0.0000000

LOEWDIN ATOMIC CHARGES
----------------------
   0 C :    0.075740
   1 C :   -0.137515
   2 C :   -0.017092
   3 N :   -0.050582
   4 C :   -0.026346
   5 N :   -0.047902
   6 C :   -0.026727
   7 C :   -0.056420
   8 C :    0.034382
   9 C :   -0.008083
  10 C :   -0.005550
  11 C :    0.020820
  12 C :   -0.004795
  13 C :   -0.011579
  14 C :   -0.011091
  15 C :   -0.008514
  16 C :    0.088987
  17 O :   -0.139574
  18 C :   -0.084771
  19 C :    0.044636
  20 C :   -0.178314
  21 S :    0.504801
  22 C :   -0.127311
  23 C :   -0.107469
  24 C :    0.021024
  25 C :   -0.023167
  26 N :   -0.055712
  27 C :   -0.005223
  28 C :   -0.019632
  29 C :    0.074974
  30 N :    0.005128
  31 C :    0.037391
  32 C :   -0.058481
  33 C :    0.080888
  34 O :   -0.184613
  35 C :   -0.108967
  36 C :   -0.113126
  37 C :    0.080235
  38 O :   -0.197612
  39 N :    0.001202
  40 C :    0.036845
  41 C :   -0.060820
  42 C :    0.073444
  43 C :   -0.036951
  44 C :    0.035588
  45 C :   -0.016729
  46 C :   -0.006543
  47 C :    0.039092
  48 C :   -0.075384
  49 C :    0.052403
  50 C :   -0.032193
  51 N :   -0.057815
  52 C :    0.036441
  53 C :    0.017117
  54 C :   -0.026172
  55 C :    0.080476
  56 C :   -0.095583
  57 C :   -0.030816
  58 N :   -0.061379
  59 C :    0.074458
  60 C :   -0.078653
  61 C :    0.072021
  62 C :   -0.128750
  63 C :   -0.016790
  64 N :   -0.046354
  65 C :   -0.024581
  66 N :   -0.041082
  67 C :   -0.025960
  68 C :   -0.057820
  69 C :    0.085008
  70 O :   -0.127988
  71 C :    0.036069
  72 C :   -0.007783
  73 C :   -0.004768
  74 C :    0.021125
  75 C :   -0.004621
  76 C :   -0.010462
  77 C :   -0.010216
  78 C :   -0.007995
  79 H :    0.039511
  80 H :    0.039376
  81 H :    0.035148
  82 H :    0.033806
  83 H :    0.033589
  84 H :    0.032358
  85 H :    0.044428
  86 H :    0.043006
  87 H :    0.037887
  88 H :    0.037706
  89 H :    0.039489
  90 H :    0.027657
  91 H :    0.030409
  92 H :    0.035451
  93 H :    0.023818
  94 H :    0.022839
  95 H :    0.039411
  96 H :    0.021997
  97 H :    0.032545
  98 H :    0.033636
  99 H :    0.027913
 100 H :    0.044293
 101 H :    0.042072
 102 H :    0.034982
 103 H :    0.039203
 104 H :    0.037809
 105 H :    0.053425
 106 H :    0.040274
 107 H :    0.039631
 108 H :    0.035406
 109 H :    0.034157
 110 H :    0.034036
 111 H :    0.032806

  Mayer bond orders larger than 0.100000
B(  0-C ,  1-C ) :   1.6356 B(  0-C ,  6-C ) :   0.9882 B(  0-C , 18-C ) :   1.0652
B(  1-C ,  2-C ) :   1.1471 B(  1-C ,  4-C ) :   1.1358 B(  2-C ,  3-N ) :   2.9682
B(  4-C ,  5-N ) :   2.9884 B(  6-C ,  7-C ) :   1.2162 B(  6-C , 11-C ) :   1.4471
B(  7-C ,  8-C ) :   1.4690 B(  7-C , 16-C ) :   0.9555 B(  8-C ,  9-C ) :   1.1788
B(  8-C , 79-H ) :   1.0166 B(  9-C , 10-C ) :   1.2571 B(  9-C , 15-C ) :   1.2446
B( 10-C , 11-C ) :   1.2084 B( 10-C , 12-C ) :   1.2382 B( 11-C , 80-H ) :   0.9902
B( 12-C , 13-C ) :   1.4898 B( 12-C , 81-H ) :   0.9975 B( 13-C , 14-C ) :   1.2600
B( 13-C , 82-H ) :   0.9883 B( 14-C , 15-C ) :   1.4880 B( 14-C , 83-H ) :   0.9892
B( 15-C , 84-H ) :   0.9981 B( 16-C , 17-O ) :   2.1711 B( 16-C , 18-C ) :   0.9324
B( 18-C , 19-C ) :   1.6254 B( 19-C , 20-C ) :   1.1818 B( 19-C , 85-H ) :   0.9170
B( 20-C , 21-S ) :   1.1102 B( 20-C , 24-C ) :   1.4287 B( 21-S , 22-C ) :   1.1852
B( 22-C , 23-C ) :   1.3753 B( 22-C , 27-C ) :   1.1690 B( 23-C , 24-C ) :   1.3172
B( 23-C , 25-C ) :   1.1219 B( 24-C , 86-H ) :   0.9808 B( 25-C , 26-N ) :   2.9663
B( 27-C , 28-C ) :   1.5952 B( 27-C , 87-H ) :   0.9183 B( 28-C , 29-C ) :   1.1837
B( 28-C , 88-H ) :   0.9473 B( 29-C , 30-N ) :   1.1719 B( 29-C , 36-C ) :   1.3082
B( 30-N , 31-C ) :   0.9356 B( 30-N , 33-C ) :   1.0588 B( 31-C , 32-C ) :   1.1221
B( 31-C , 89-H ) :   0.9273 B( 31-C , 90-H ) :   0.9485 B( 32-C , 91-H ) :   0.9636
B( 32-C , 92-H ) :   0.9676 B( 32-C , 93-H ) :   0.9677 B( 33-C , 34-O ) :   2.0472
B( 33-C , 35-C ) :   0.9758 B( 34-O ,100-H ) :   0.1044 B( 35-C , 36-C ) :   1.2802
B( 35-C , 42-C ) :   1.3207 B( 36-C , 37-C ) :   0.9823 B( 37-C , 38-O ) :   2.0200
B( 37-C , 39-N ) :   1.0698 B( 38-O , 87-H ) :   0.1182 B( 39-N , 40-C ) :   0.9445
B( 39-N , 42-C ) :   1.1535 B( 40-C , 41-C ) :   1.1184 B( 40-C , 94-H ) :   0.9499
B( 40-C , 95-H ) :   0.9275 B( 41-C , 96-H ) :   0.9687 B( 41-C , 97-H ) :   0.9682
B( 41-C , 98-H ) :   0.9639 B( 42-C , 43-C ) :   1.1747 B( 43-C , 44-C ) :   1.5380
B( 43-C , 99-H ) :   0.9603 B( 44-C , 45-C ) :   1.1376 B( 44-C ,100-H ) :   0.9596
B( 45-C , 46-C ) :   1.4934 B( 45-C , 49-C ) :   1.0315 B( 46-C , 47-C ) :   1.1208
B( 46-C ,101-H ) :   1.0120 B( 47-C , 48-C ) :   1.0958 B( 47-C , 52-C ) :   1.4063
B( 48-C , 49-C ) :   1.6979 B( 48-C , 50-C ) :   1.0870 B( 49-C ,102-H ) :   1.0137
B( 50-C , 51-N ) :   2.9682 B( 52-C , 53-C ) :   1.0992 B( 52-C , 56-C ) :   1.1229
B( 53-C , 54-C ) :   1.5302 B( 53-C ,103-H ) :   1.0050 B( 54-C , 55-C ) :   1.0538
B( 54-C , 59-C ) :   1.0883 B( 55-C , 56-C ) :   1.6709 B( 55-C ,104-H ) :   1.0070
B( 56-C , 57-C ) :   1.0914 B( 57-C , 58-N ) :   2.9758 B( 59-C , 60-C ) :   1.6400
B( 59-C ,105-H ) :   0.9495 B( 60-C , 61-C ) :   1.0385 B( 60-C , 69-C ) :   0.9359
B( 61-C , 62-C ) :   1.6579 B( 61-C , 67-C ) :   0.9963 B( 62-C , 63-C ) :   1.1432
B( 62-C , 65-C ) :   1.1410 B( 63-C , 64-N ) :   2.9680 B( 65-C , 66-N ) :   2.9908
B( 67-C , 68-C ) :   1.2131 B( 67-C , 74-C ) :   1.4466 B( 68-C , 69-C ) :   0.9485
B( 68-C , 71-C ) :   1.4684 B( 69-C , 70-O ) :   2.2137 B( 71-C , 72-C ) :   1.1812
B( 71-C ,106-H ) :   1.0165 B( 72-C , 73-C ) :   1.2570 B( 72-C , 78-C ) :   1.2424
B( 73-C , 74-C ) :   1.2074 B( 73-C , 75-C ) :   1.2394 B( 74-C ,107-H ) :   0.9900
B( 75-C , 76-C ) :   1.4904 B( 75-C ,108-H ) :   0.9973 B( 76-C , 77-C ) :   1.2606
B( 76-C ,109-H ) :   0.9880 B( 77-C , 78-C ) :   1.4901 B( 77-C ,110-H ) :   0.9879
B( 78-C ,111-H ) :   0.9977

-----------------------------------------------------------------------------
         ABSORPTION SPECTRUM VIA TRANSITION ELECTRIC DIPOLE MOMENTS
-----------------------------------------------------------------------------
State   Energy  Wavelength   fosc         T2         TX        TY        TZ
        (cm-1)    (nm)                  (au**2)     (au)      (au)      (au)
-----------------------------------------------------------------------------
   0    9349.5   1069.6   1.075568772  37.87256  -3.65202   4.93617   0.41178
   1   15326.2    652.5   0.313601050   6.73624  -2.11349   1.49292   0.20147
   2   17203.6    581.3   0.060465919   1.15709   0.12467  -1.06086  -0.12695
   3   19231.3    520.0   0.048694695   0.83358   0.25860   0.79074   0.37609
   4   21920.8    456.2   0.124864071   1.87524   0.85333  -1.06883  -0.06838
   5   22300.1    448.4   0.252556995   3.72845  -0.04728   1.57181   1.12055
   6   22986.2    435.0   0.564529741   8.08529   1.35304  -2.35102  -0.85280
   7   23148.1    432.0   0.383474642   5.45377   0.54460  -2.27063   0.03775
   8   24294.7    411.6   0.044626572   0.60473   0.34604   0.53319   0.44799
   9   24456.0    408.9   0.004754943   0.06401  -0.20426   0.00125  -0.14928
  10   25323.9    394.9   0.205126056   2.66665  -1.00094   1.28990  -0.03050
  11   26192.4    381.8   0.034687574   0.43599   0.35540   0.52947  -0.17130
  12   26275.7    380.6   0.003307647   0.04144   0.09356  -0.13283  -0.12266
  13   27393.7    365.0   0.014506340   0.17433   0.04262  -0.41453   0.02618
  14   27431.3    364.5   0.259294050   3.11187  -0.56734   1.57639   0.55228
  15   27527.0    363.3   0.394990334   4.72393   0.53821  -2.10470  -0.06690
  16   28313.6    353.2   0.131876486   1.53337  -0.85822   0.88505   0.11625
  17   28426.4    351.8   0.031717968   0.36733   0.12121  -0.55667  -0.20679
  18   28727.8    348.1   0.024127266   0.27649   0.37370  -0.23222   0.28795
  19   28992.6    344.9   0.041069424   0.46634   0.44853  -0.09227   0.50661
  20   29134.8    343.2   0.048910657   0.55267  -0.30009  -0.65968   0.16564
  21   29687.4    336.8   0.017431542   0.19330  -0.38139   0.17080   0.13666
  22   29897.7    334.5   0.069571681   0.76607   0.57728  -0.59963  -0.27068
  23   30412.1    328.8   0.089577519   0.96968   0.94866  -0.05091  -0.25911
  24   30438.2    328.5   0.332003644   3.59087  -0.06197   1.77048  -0.67262
  25   31156.1    321.0   0.019320866   0.20415  -0.01584   0.34576  -0.29044
  26   31318.6    319.3   0.002874054   0.03021   0.02977   0.15829   0.06534
  27   31926.0    313.2   0.126864563   1.30819   0.89424  -0.51156   0.49683
  28   32348.4    309.1   0.034722967   0.35338  -0.06443  -0.47956   0.34532
  29   32433.4    308.3   0.229515125   2.32967   0.03743  -1.45361   0.46398
  30   32715.3    305.7   0.262931087   2.64586   1.20004  -0.71082   0.83696
  31   33002.3    303.0   0.056647605   0.56508  -0.06480   0.67622  -0.32189
  32   33535.2    298.2   0.068712558   0.67454  -0.42690  -0.40982  -0.56952
  33   33662.6    297.1   0.112995421   1.10507  -0.53457  -0.74540   0.51350
  34   33849.7    295.4   0.018042665   0.17548  -0.35271   0.21354   0.07400
  35   34470.1    290.1   0.000519061   0.00496   0.04893  -0.01492   0.04838
  36   34647.1    288.6   0.003462874   0.03290   0.09538   0.00824   0.15407
  37   34920.0    286.4   0.327688986   3.08932  -1.20871   0.97926  -0.81816
  38   35615.6    280.8   0.376442088   3.47964  -0.86412  -1.38564   0.90163
  39   35682.7    280.2   0.132545070   1.22287  -0.80900  -0.33595   0.67493
  40   35774.8    279.5   0.043607413   0.40129   0.28219   0.40414   0.39791
  41   35850.3    278.9   0.006925987   0.06360   0.07049   0.20949  -0.12144
  42   36055.7    277.3   0.048751690   0.44514  -0.53946  -0.26460   0.29001
  43   36156.0    276.6   0.149505664   1.36130   1.02582   0.30871  -0.46227
  44   36487.0    274.1   0.428532031   3.86652  -0.45203   1.87518   0.38195
  45   36842.0    271.4   0.061001744   0.54510   0.33412  -0.27486  -0.59826
  46   36948.0    270.7   0.004356368   0.03882   0.12183  -0.01774   0.15382
  47   37124.2    269.4   0.040956217   0.36319  -0.41559  -0.29247  -0.32395
  48   37459.9    267.0   0.001827842   0.01606   0.11581   0.03943  -0.03313
  49   37607.7    265.9   0.005228215   0.04577  -0.20230   0.06772   0.01600
  50   37964.9    263.4   0.075908989   0.65824  -0.74153   0.32247  -0.06629
  51   37983.2    263.3   0.058413566   0.50629  -0.24613  -0.66660   0.03674
  52   38207.3    261.7   0.034404768   0.29645   0.26440   0.12800   0.45842
  53   38612.4    259.0   0.005500621   0.04690  -0.12668   0.14943  -0.09230
  54   38947.7    256.8   0.096626576   0.81675   0.45104  -0.59953  -0.50386
  55   39071.4    255.9   0.324128435   2.73107   0.76735   0.23968   1.44388
  56   39206.5    255.1   0.017183027   0.14428  -0.34640   0.15584   0.00217
  57   39735.2    251.7   0.002957613   0.02450   0.02994   0.14982  -0.03408
  58   39822.0    251.1   0.019278255   0.15938   0.05628   0.14793   0.36650
  59   40091.2    249.4   0.046859986   0.38479  -0.47564   0.38106   0.11557
  60   40311.2    248.1   0.080046980   0.65372  -0.76811   0.14990   0.20312

FINAL SINGLE POINT ENERGY     -3684.206155381255

DIPOLE MOMENT
-------------
                                X             Y             Z
Electronic contribution:    -11.33923       2.65150      -1.26763
Nuclear contribution   :     13.55060      -3.03165       0.83269
                        -----------------------------------------
Total Dipole Moment    :      2.21138      -0.38015      -0.43494
                        -----------------------------------------
Magnitude (a.u.)       :      2.28558
Magnitude (Debye)      :      5.80948

Rotational constants in cm-1:     0.002545     0.000142     0.000141
Rotational constants in MHz :    76.299459     4.263875     4.212297

                             ****ORCA TERMINATED NORMALLY****
TOTAL RUN TIME: 0 days 0 hours 13 minutes 48 seconds 432 msec
