                         Program Version 4.2.0 -  RELEASE  -
|  1> # ORCA input file
|  2> # SCF done       -226.665071805293          0.000653059975
|  3> ! CAM-B3LYP def2-SVP def2/J RIJCOSX Grid4 TightSCF
|  4> %maxcore 5000
|  5> %tddft
|  6>     Mode sTDDFT
|  7>     Ethresh 5.0
|  8>     maxcore 5000
|  9> end
| 10>
| 11> %pal
| 12>   nprocs 6
| 13>   end
| 14> * xyz 0 1
| 15>    C       -1.19012        -2.43623         8.21510
| 16>    C       -1.00987        -3.01348         9.44020
| 17>    F       -0.44165        -2.32015        10.43441
| 18>    C       -1.41848        -4.34281         9.67466
| 19>    F       -1.22869        -4.88147        10.88558
| 20>    C       -2.00236        -5.07600         8.68008
| 21>    C       -2.20269        -4.50915         7.40614
| 22>    C       -1.78935        -3.16577         7.16756
| 23>    C       -1.97835        -2.57638         5.89804
| 24>    C       -2.56676        -3.30610         4.89611
| 25>    C       -2.98244        -4.64246         5.14569
| 26>    C       -2.80620        -5.24107         6.36018
| 27>    C       -3.59156        -5.21629         3.92576
| 28>    O       -3.95131        -6.35493         3.77617
| 29>    C       -3.59782        -4.09746         2.92922
| 30>    C       -2.88490        -2.96565         3.51357
| 31>    C       -2.54899        -1.79238         2.89484
| 32>    C       -1.85145        -0.73741         3.52538
| 33>    N       -1.28719         0.15616         3.97212
| 34>    C       -2.81303        -1.44942         1.55006
| 35>    N       -2.97786        -1.08250         0.47502
| 36>    C       -4.17424        -4.10308         1.70278
| 37>    C       -4.97200        -5.11724         1.09942
| 38>    O       -5.35091        -4.87336        -0.20224
| 39>    C       -6.12029        -5.92040        -0.54201
| 40>    C       -6.18811        -6.78559         0.59735
| 41>    N       -5.44790        -6.22049         1.58746
| 42>    C       -6.91655        -7.96693         0.58680
| 43>    C       -7.56744        -8.22928        -0.60621
| 44>    C       -7.48691        -7.34570        -1.72875
| 45>    C       -6.76254        -6.17033        -1.73889
| 46>    O       -8.23509        -7.87451        -2.71146
| 47>    C       -8.74062        -9.02676        -2.18909
| 48>    N       -8.37363        -9.27303        -0.96558
| 49>    C       -9.61026        -9.79713        -3.01768
| 50>    N      -10.15023       -11.00669        -2.67645
| 51>    C       -9.98089       -11.71295        -1.42909
| 52>    C      -10.91832       -11.17798        -0.35151
| 53>    C      -10.98625       -11.50192        -3.69802
| 54>    O      -11.57428       -12.56064        -3.62848
| 55>    C      -10.92380       -10.49296        -4.73343
| 56>    C      -10.05896        -9.45914        -4.28512
| 57>    C       -9.99227        -8.44389        -5.31857
| 58>    O       -9.39646        -7.39601        -5.40760
| 59>    N      -10.83403        -8.94621        -6.33667
| 60>    C      -11.07363        -8.18536        -7.53908
| 61>    C      -12.39162        -7.41740        -7.47278
| 62>    C      -11.39901       -10.15134        -5.99577
| 63>    C      -12.30596       -10.85576        -6.83353
| 64>    C      -12.87016       -12.03773        -6.49175
| 65>    C      -13.80080       -12.70124        -7.34269
| 66>    O      -14.16575       -12.12860        -8.54092
| 67>    C      -15.05498       -12.98695        -9.07603
| 68>    C      -15.19895       -14.07956        -8.16392
| 69>    N      -14.38232       -13.83481        -7.09829
| 70>    C      -16.05062       -15.14125        -8.41751
| 71>    C      -16.74442       -15.05100        -9.61479
| 72>    C      -16.58270       -13.94822       -10.50816
| 73>    C      -15.73592       -12.88246       -10.27159
| 74>    O      -17.39078       -14.16130       -11.56372
| 75>    C      -18.02131       -15.34145       -11.29112
| 76>    N      -17.66367       -15.89211       -10.16774
| 77>    C      -18.91908       -15.86436       -12.26563
| 78>    C      -19.71631       -16.94973       -12.14792
| 79>    C      -20.27675       -17.58937       -13.37961
| 80>    O      -20.35797       -17.09324       -14.47632
| 81>    C      -20.63392       -18.95884       -12.96497
| 82>    C      -21.06829       -19.99855       -13.73738
| 83>    C      -21.32063       -21.24762       -13.12892
| 84>    C      -21.11048       -21.39783       -11.72660
| 85>    C      -21.35480       -22.65062       -11.12820
| 86>    C      -21.78981       -23.70234       -11.88459
| 87>    C      -21.99984       -23.55161       -13.27086
| 88>    C      -21.77069       -22.35061       -13.88114
| 89>    F      -22.42621       -24.59983       -13.98650
| 90>    F      -22.02154       -24.89104       -11.31499
| 91>    C      -20.66827       -20.30225       -10.95086
| 92>    C      -20.44041       -19.09634       -11.55936
| 93>    C      -20.03075       -17.80430       -11.01542
| 94>    C      -20.15150       -17.41174        -9.71415
| 95>    C      -20.05135       -16.07017        -9.28179
| 96>    N      -20.10409       -14.99334        -8.88965
| 97>    C      -20.52088       -18.28508        -8.66865
| 98>    N      -20.80724       -18.96492        -7.79011
| 99>    H       -0.87102        -1.41861         8.05225
|100>    H       -2.30950        -6.09148         8.87516
|101>    H       -1.65485        -1.55876         5.75220
|102>    H       -3.12816        -6.25899         6.51853
|103>    H       -4.06772        -3.23698         1.06202
|104>    H       -6.96818        -8.61917         1.43990
|105>    H       -6.71346        -5.51767        -2.59260
|106>    H       -8.94418       -11.61148        -1.10488
|107>    H      -10.21221       -12.76062        -1.63902
|108>    H      -10.67510       -10.14364        -0.12480
|109>    H      -10.80624       -11.76828         0.55286
|110>    H      -11.95114       -11.24180        -0.68535
|111>    H      -11.05208        -8.85199        -8.40535
|112>    H      -10.24316        -7.47801        -7.61817
|113>    H      -13.23436        -8.09454        -7.35208
|114>    H      -12.52975        -6.84471        -8.38564
|115>    H      -12.37688        -6.72987        -6.63078
|116>    H      -12.55724       -10.41281        -7.78714
|117>    H      -12.65176       -12.53124        -5.55529
|118>    H      -16.17135       -15.96319        -7.73518
|119>    H      -15.62487       -12.05421       -10.94950
|120>    H      -18.88793       -15.37566       -13.23241
|121>    H      -21.21561       -19.86920       -14.79878
|122>    H      -21.20274       -22.78237       -10.06838
|123>    H      -21.93577       -22.25137       -14.94252
|124>    H      -20.51024       -20.44418        -9.89376
|125> *
|126>
|127>                          ****END OF INPUT****

CARTESIAN COORDINATES (ANGSTROEM)
---------------------------------
  C     -1.190120   -2.436230    8.215100
  C     -1.009870   -3.013480    9.440200
  F     -0.441650   -2.320150   10.434410
  C     -1.418480   -4.342810    9.674660
  F     -1.228690   -4.881470   10.885580
  C     -2.002360   -5.076000    8.680080
  C     -2.202690   -4.509150    7.406140
  C     -1.789350   -3.165770    7.167560
  C     -1.978350   -2.576380    5.898040
  C     -2.566760   -3.306100    4.896110
  C     -2.982440   -4.642460    5.145690
  C     -2.806200   -5.241070    6.360180
  C     -3.591560   -5.216290    3.925760
  O     -3.951310   -6.354930    3.776170
  C     -3.597820   -4.097460    2.929220
  C     -2.884900   -2.965650    3.513570
  C     -2.548990   -1.792380    2.894840
  C     -1.851450   -0.737410    3.525380
  N     -1.287190    0.156160    3.972120
  C     -2.813030   -1.449420    1.550060
  N     -2.977860   -1.082500    0.475020
  C     -4.174240   -4.103080    1.702780
  C     -4.972000   -5.117240    1.099420
  O     -5.350910   -4.873360   -0.202240
  C     -6.120290   -5.920400   -0.542010
  C     -6.188110   -6.785590    0.597350
  N     -5.447900   -6.220490    1.587460
  C     -6.916550   -7.966930    0.586800
  C     -7.567440   -8.229280   -0.606210
  C     -7.486910   -7.345700   -1.728750
  C     -6.762540   -6.170330   -1.738890
  O     -8.235090   -7.874510   -2.711460
  C     -8.740620   -9.026760   -2.189090
  N     -8.373630   -9.273030   -0.965580
  C     -9.610260   -9.797130   -3.017680
  N    -10.150230  -11.006690   -2.676450
  C     -9.980890  -11.712950   -1.429090
  C    -10.918320  -11.177980   -0.351510
  C    -10.986250  -11.501920   -3.698020
  O    -11.574280  -12.560640   -3.628480
  C    -10.923800  -10.492960   -4.733430
  C    -10.058960   -9.459140   -4.285120
  C     -9.992270   -8.443890   -5.318570
  O     -9.396460   -7.396010   -5.407600
  N    -10.834030   -8.946210   -6.336670
  C    -11.073630   -8.185360   -7.539080
  C    -12.391620   -7.417400   -7.472780
  C    -11.399010  -10.151340   -5.995770
  C    -12.305960  -10.855760   -6.833530
  C    -12.870160  -12.037730   -6.491750
  C    -13.800800  -12.701240   -7.342690
  O    -14.165750  -12.128600   -8.540920
  C    -15.054980  -12.986950   -9.076030
  C    -15.198950  -14.079560   -8.163920
  N    -14.382320  -13.834810   -7.098290
  C    -16.050620  -15.141250   -8.417510
  C    -16.744420  -15.051000   -9.614790
  C    -16.582700  -13.948220  -10.508160
  C    -15.735920  -12.882460  -10.271590
  O    -17.390780  -14.161300  -11.563720
  C    -18.021310  -15.341450  -11.291120
  N    -17.663670  -15.892110  -10.167740
  C    -18.919080  -15.864360  -12.265630
  C    -19.716310  -16.949730  -12.147920
  C    -20.276750  -17.589370  -13.379610
  O    -20.357970  -17.093240  -14.476320
  C    -20.633920  -18.958840  -12.964970
  C    -21.068290  -19.998550  -13.737380
  C    -21.320630  -21.247620  -13.128920
  C    -21.110480  -21.397830  -11.726600
  C    -21.354800  -22.650620  -11.128200
  C    -21.789810  -23.702340  -11.884590
  C    -21.999840  -23.551610  -13.270860
  C    -21.770690  -22.350610  -13.881140
  F    -22.426210  -24.599830  -13.986500
  F    -22.021540  -24.891040  -11.314990
  C    -20.668270  -20.302250  -10.950860
  C    -20.440410  -19.096340  -11.559360
  C    -20.030750  -17.804300  -11.015420
  C    -20.151500  -17.411740   -9.714150
  C    -20.051350  -16.070170   -9.281790
  N    -20.104090  -14.993340   -8.889650
  C    -20.520880  -18.285080   -8.668650
  N    -20.807240  -18.964920   -7.790110
  H     -0.871020   -1.418610    8.052250
  H     -2.309500   -6.091480    8.875160
  H     -1.654850   -1.558760    5.752200
  H     -3.128160   -6.258990    6.518530
  H     -4.067720   -3.236980    1.062020
  H     -6.968180   -8.619170    1.439900
  H     -6.713460   -5.517670   -2.592600
  H     -8.944180  -11.611480   -1.104880
  H    -10.212210  -12.760620   -1.639020
  H    -10.675100  -10.143640   -0.124800
  H    -10.806240  -11.768280    0.552860
  H    -11.951140  -11.241800   -0.685350
  H    -11.052080   -8.851990   -8.405350
  H    -10.243160   -7.478010   -7.618170
  H    -13.234360   -8.094540   -7.352080
  H    -12.529750   -6.844710   -8.385640
  H    -12.376880   -6.729870   -6.630780
  H    -12.557240  -10.412810   -7.787140
  H    -12.651760  -12.531240   -5.555290
  H    -16.171350  -15.963190   -7.735180
  H    -15.624870  -12.054210  -10.949500
  H    -18.887930  -15.375660  -13.232410
  H    -21.215610  -19.869200  -14.798780
  H    -21.202740  -22.782370  -10.068380
  H    -21.935770  -22.251370  -14.942520
  H    -20.510240  -20.444180   -9.893760

 Total Charge           Charge          ....    0
 Multiplicity           Mult            ....    1
 Number of Electrons    NEL             ....  568
 Basis Dimension        Dim             .... 1306

ORBITAL ENERGIES
----------------

  NO   OCC          E(Eh)            E(eV)
   0   2.0000     -24.802505      -674.9105
   1   2.0000     -24.802244      -674.9034
   2   2.0000     -24.801813      -674.8916
   3   2.0000     -24.801305      -674.8778
   4   2.0000     -19.314850      -525.5838
   5   2.0000     -19.310679      -525.4703
   6   2.0000     -19.310220      -525.4578
   7   2.0000     -19.309407      -525.4357
   8   2.0000     -19.228189      -523.2256
   9   2.0000     -19.219966      -523.0019
  10   2.0000     -19.198210      -522.4099
  11   2.0000     -19.195465      -522.3352
  12   2.0000     -14.461228      -393.5100
  13   2.0000     -14.460453      -393.4889
  14   2.0000     -14.430219      -392.6662
  15   2.0000     -14.427749      -392.5990
  16   2.0000     -14.427509      -392.5925
  17   2.0000     -14.425847      -392.5473
  18   2.0000     -14.423820      -392.4921
  19   2.0000     -14.423498      -392.4833
  20   2.0000     -14.420143      -392.3920
  21   2.0000     -14.416014      -392.2797
  22   2.0000     -10.390999      -282.7535
  23   2.0000     -10.387662      -282.6627
  24   2.0000     -10.386175      -282.6222
  25   2.0000     -10.385870      -282.6139
  26   2.0000     -10.385552      -282.6052
  27   2.0000     -10.385143      -282.5941
  28   2.0000     -10.383804      -282.5577
  29   2.0000     -10.383518      -282.5499
  30   2.0000     -10.380056      -282.4557
  31   2.0000     -10.379141      -282.4308
  32   2.0000     -10.378959      -282.4258
  33   2.0000     -10.373217      -282.2696
  34   2.0000     -10.357582      -281.8441
  35   2.0000     -10.357514      -281.8423
  36   2.0000     -10.356927      -281.8263
  37   2.0000     -10.356758      -281.8217
  38   2.0000     -10.356518      -281.8152
  39   2.0000     -10.353367      -281.7294
  40   2.0000     -10.353056      -281.7210
  41   2.0000     -10.352662      -281.7102
  42   2.0000     -10.350745      -281.6581
  43   2.0000     -10.346647      -281.5466
  44   2.0000     -10.330870      -281.1173
  45   2.0000     -10.329258      -281.0734
  46   2.0000     -10.329077      -281.0685
  47   2.0000     -10.328002      -281.0392
  48   2.0000     -10.324993      -280.9573
  49   2.0000     -10.320937      -280.8470
  50   2.0000     -10.320678      -280.8399
  51   2.0000     -10.320021      -280.8220
  52   2.0000     -10.319533      -280.8088
  53   2.0000     -10.318625      -280.7841
  54   2.0000     -10.318584      -280.7829
  55   2.0000     -10.317735      -280.7598
  56   2.0000     -10.316182      -280.7176
  57   2.0000     -10.315640      -280.7028
  58   2.0000     -10.315586      -280.7014
  59   2.0000     -10.315578      -280.7012
  60   2.0000     -10.315325      -280.6943
  61   2.0000     -10.314840      -280.6811
  62   2.0000     -10.314150      -280.6623
  63   2.0000     -10.309770      -280.5431
  64   2.0000     -10.308640      -280.5124
  65   2.0000     -10.307901      -280.4922
  66   2.0000     -10.307241      -280.4743
  67   2.0000     -10.306417      -280.4519
  68   2.0000     -10.306342      -280.4498
  69   2.0000     -10.305769      -280.4342
  70   2.0000     -10.305143      -280.4172
  71   2.0000     -10.304834      -280.4088
  72   2.0000     -10.304578      -280.4018
  73   2.0000     -10.304513      -280.4000
  74   2.0000     -10.302608      -280.3482
  75   2.0000     -10.301265      -280.3117
  76   2.0000     -10.298081      -280.2250
  77   2.0000     -10.297973      -280.2221
  78   2.0000     -10.296105      -280.1713
  79   2.0000     -10.295051      -280.1426
  80   2.0000     -10.277470      -279.6642
  81   2.0000     -10.270683      -279.4795
  82   2.0000     -10.270122      -279.4642
  83   2.0000     -10.251627      -278.9609
  84   2.0000      -1.325312       -36.0636
  85   2.0000      -1.325166       -36.0596
  86   2.0000      -1.310430       -35.6586
  87   2.0000      -1.310227       -35.6531
  88   2.0000      -1.245444       -33.8903
  89   2.0000      -1.245062       -33.8799
  90   2.0000      -1.240098       -33.7448
  91   2.0000      -1.237617       -33.6773
  92   2.0000      -1.144020       -31.1304
  93   2.0000      -1.140980       -31.0477
  94   2.0000      -1.138035       -30.9675
  95   2.0000      -1.133543       -30.8453
  96   2.0000      -1.072744       -29.1909
  97   2.0000      -1.064206       -28.9585
  98   2.0000      -1.042618       -28.3711
  99   2.0000      -1.038569       -28.2609
 100   2.0000      -1.033126       -28.1128
 101   2.0000      -1.031933       -28.0803
 102   2.0000      -1.029596       -28.0167
 103   2.0000      -1.024208       -27.8701
 104   2.0000      -1.011548       -27.5256
 105   2.0000      -1.009400       -27.4672
 106   2.0000      -1.004745       -27.3405
 107   2.0000      -0.997614       -27.1465
 108   2.0000      -0.988825       -26.9073
 109   2.0000      -0.988016       -26.8853
 110   2.0000      -0.970460       -26.4076
 111   2.0000      -0.968776       -26.3617
 112   2.0000      -0.939791       -25.5730
 113   2.0000      -0.939534       -25.5660
 114   2.0000      -0.935532       -25.4571
 115   2.0000      -0.925290       -25.1784
 116   2.0000      -0.918072       -24.9820
 117   2.0000      -0.913175       -24.8488
 118   2.0000      -0.899186       -24.4681
 119   2.0000      -0.898610       -24.4524
 120   2.0000      -0.894601       -24.3433
 121   2.0000      -0.890206       -24.2237
 122   2.0000      -0.881263       -23.9804
 123   2.0000      -0.868213       -23.6253
 124   2.0000      -0.863470       -23.4962
 125   2.0000      -0.861505       -23.4427
 126   2.0000      -0.854517       -23.2526
 127   2.0000      -0.846083       -23.0231
 128   2.0000      -0.845744       -23.0139
 129   2.0000      -0.835358       -22.7312
 130   2.0000      -0.827745       -22.5241
 131   2.0000      -0.822238       -22.3742
 132   2.0000      -0.801393       -21.8070
 133   2.0000      -0.794520       -21.6200
 134   2.0000      -0.774956       -21.0876
 135   2.0000      -0.773682       -21.0530
 136   2.0000      -0.766125       -20.8473
 137   2.0000      -0.762763       -20.7558
 138   2.0000      -0.757913       -20.6239
 139   2.0000      -0.742644       -20.2084
 140   2.0000      -0.739408       -20.1203
 141   2.0000      -0.737355       -20.0644
 142   2.0000      -0.736049       -20.0289
 143   2.0000      -0.723822       -19.6962
 144   2.0000      -0.722794       -19.6682
 145   2.0000      -0.718441       -19.5498
 146   2.0000      -0.716010       -19.4836
 147   2.0000      -0.713633       -19.4190
 148   2.0000      -0.711427       -19.3589
 149   2.0000      -0.705722       -19.2037
 150   2.0000      -0.702176       -19.1072
 151   2.0000      -0.693124       -18.8609
 152   2.0000      -0.690098       -18.7785
 153   2.0000      -0.685497       -18.6533
 154   2.0000      -0.675996       -18.3948
 155   2.0000      -0.673319       -18.3219
 156   2.0000      -0.664993       -18.0954
 157   2.0000      -0.663262       -18.0483
 158   2.0000      -0.657746       -17.8982
 159   2.0000      -0.656881       -17.8746
 160   2.0000      -0.654987       -17.8231
 161   2.0000      -0.652129       -17.7453
 162   2.0000      -0.648207       -17.6386
 163   2.0000      -0.647857       -17.6291
 164   2.0000      -0.641695       -17.4614
 165   2.0000      -0.636873       -17.3302
 166   2.0000      -0.622397       -16.9363
 167   2.0000      -0.620757       -16.8917
 168   2.0000      -0.617312       -16.7979
 169   2.0000      -0.609140       -16.5756
 170   2.0000      -0.600183       -16.3318
 171   2.0000      -0.598889       -16.2966
 172   2.0000      -0.598165       -16.2769
 173   2.0000      -0.595487       -16.2040
 174   2.0000      -0.594279       -16.1712
 175   2.0000      -0.590216       -16.0606
 176   2.0000      -0.589614       -16.0442
 177   2.0000      -0.589500       -16.0411
 178   2.0000      -0.588491       -16.0137
 179   2.0000      -0.587019       -15.9736
 180   2.0000      -0.583316       -15.8728
 181   2.0000      -0.582545       -15.8519
 182   2.0000      -0.580815       -15.8048
 183   2.0000      -0.577540       -15.7157
 184   2.0000      -0.575059       -15.6481
 185   2.0000      -0.573857       -15.6154
 186   2.0000      -0.564417       -15.3586
 187   2.0000      -0.559525       -15.2254
 188   2.0000      -0.558805       -15.2059
 189   2.0000      -0.555734       -15.1223
 190   2.0000      -0.554604       -15.0915
 191   2.0000      -0.553708       -15.0671
 192   2.0000      -0.553479       -15.0609
 193   2.0000      -0.551189       -14.9986
 194   2.0000      -0.551073       -14.9954
 195   2.0000      -0.550996       -14.9934
 196   2.0000      -0.547306       -14.8930
 197   2.0000      -0.545022       -14.8308
 198   2.0000      -0.544525       -14.8173
 199   2.0000      -0.544024       -14.8037
 200   2.0000      -0.537477       -14.6255
 201   2.0000      -0.536650       -14.6030
 202   2.0000      -0.534636       -14.5482
 203   2.0000      -0.530260       -14.4291
 204   2.0000      -0.527760       -14.3611
 205   2.0000      -0.527189       -14.3455
 206   2.0000      -0.525786       -14.3074
 207   2.0000      -0.521930       -14.2024
 208   2.0000      -0.520046       -14.1512
 209   2.0000      -0.519775       -14.1438
 210   2.0000      -0.517012       -14.0686
 211   2.0000      -0.514820       -14.0090
 212   2.0000      -0.512147       -13.9362
 213   2.0000      -0.507304       -13.8045
 214   2.0000      -0.505848       -13.7648
 215   2.0000      -0.504669       -13.7328
 216   2.0000      -0.503945       -13.7130
 217   2.0000      -0.501464       -13.6455
 218   2.0000      -0.498197       -13.5566
 219   2.0000      -0.493019       -13.4157
 220   2.0000      -0.492205       -13.3936
 221   2.0000      -0.491013       -13.3611
 222   2.0000      -0.490253       -13.3404
 223   2.0000      -0.481799       -13.1104
 224   2.0000      -0.477713       -12.9992
 225   2.0000      -0.474910       -12.9230
 226   2.0000      -0.473453       -12.8833
 227   2.0000      -0.468717       -12.7544
 228   2.0000      -0.468244       -12.7416
 229   2.0000      -0.467660       -12.7257
 230   2.0000      -0.466858       -12.7038
 231   2.0000      -0.461649       -12.5621
 232   2.0000      -0.459885       -12.5141
 233   2.0000      -0.458763       -12.4836
 234   2.0000      -0.458130       -12.4664
 235   2.0000      -0.457433       -12.4474
 236   2.0000      -0.456316       -12.4170
 237   2.0000      -0.454395       -12.3647
 238   2.0000      -0.453548       -12.3417
 239   2.0000      -0.452499       -12.3131
 240   2.0000      -0.452253       -12.3064
 241   2.0000      -0.451224       -12.2784
 242   2.0000      -0.448917       -12.2156
 243   2.0000      -0.446926       -12.1615
 244   2.0000      -0.445813       -12.1312
 245   2.0000      -0.443604       -12.0711
 246   2.0000      -0.438223       -11.9247
 247   2.0000      -0.437655       -11.9092
 248   2.0000      -0.436175       -11.8689
 249   2.0000      -0.433983       -11.8093
 250   2.0000      -0.433037       -11.7835
 251   2.0000      -0.432678       -11.7738
 252   2.0000      -0.431751       -11.7485
 253   2.0000      -0.426869       -11.6157
 254   2.0000      -0.422454       -11.4956
 255   2.0000      -0.417589       -11.3632
 256   2.0000      -0.417346       -11.3566
 257   2.0000      -0.412573       -11.2267
 258   2.0000      -0.409125       -11.1329
 259   2.0000      -0.400237       -10.8910
 260   2.0000      -0.398066       -10.8319
 261   2.0000      -0.390004       -10.6125
 262   2.0000      -0.388932       -10.5834
 263   2.0000      -0.384787       -10.4706
 264   2.0000      -0.380503       -10.3540
 265   2.0000      -0.380287       -10.3481
 266   2.0000      -0.375413       -10.2155
 267   2.0000      -0.371507       -10.1092
 268   2.0000      -0.357821        -9.7368
 269   2.0000      -0.356133        -9.6909
 270   2.0000      -0.353115        -9.6087
 271   2.0000      -0.345562        -9.4032
 272   2.0000      -0.338204        -9.2030
 273   2.0000      -0.330662        -8.9978
 274   2.0000      -0.322488        -8.7753
 275   2.0000      -0.322428        -8.7737
 276   2.0000      -0.322190        -8.7672
 277   2.0000      -0.315705        -8.5908
 278   2.0000      -0.309493        -8.4217
 279   2.0000      -0.308407        -8.3922
 280   2.0000      -0.306438        -8.3386
 281   2.0000      -0.297872        -8.1055
 282   2.0000      -0.293979        -7.9996
 283   2.0000      -0.250794        -6.8244
 284   0.0000      -0.112403        -3.0586
 285   0.0000      -0.106348        -2.8939
 286   0.0000      -0.092557        -2.5186
 287   0.0000      -0.064645        -1.7591
 288   0.0000      -0.063183        -1.7193

MULLIKEN ATOMIC CHARGES
-----------------------
   0 C :   -0.104662
   1 C :    0.240937
   2 F :   -0.169451
   3 C :    0.239924
   4 F :   -0.169563
   5 C :   -0.103830
   6 C :    0.119010
   7 C :    0.113626
   8 C :   -0.082079
   9 C :    0.050835
  10 C :   -0.009074
  11 C :   -0.079768
  12 C :    0.136301
  13 O :   -0.084792
  14 C :   -0.035623
  15 C :    0.319883
  16 C :   -0.352596
  17 C :   -0.181785
  18 N :    0.156872
  19 C :   -0.186183
  20 N :    0.168813
  21 C :   -0.055736
  22 C :    0.078461
  23 O :   -0.192586
  24 C :    0.223857
  25 C :    0.002536
  26 N :    0.024960
  27 C :   -0.074829
  28 C :    0.038642
  29 C :    0.225639
  30 C :   -0.155915
  31 O :   -0.161261
  32 C :    0.046917
  33 N :   -0.054859
  34 C :    0.084429
  35 N :   -0.253889
  36 C :    0.126937
  37 C :    0.003975
  38 C :    0.164932
  39 O :   -0.196874
  40 C :   -0.069719
  41 C :   -0.023117
  42 C :    0.142635
  43 O :   -0.165422
  44 N :   -0.269194
  45 C :    0.094317
  46 C :    0.004113
  47 C :    0.150115
  48 C :   -0.021021
  49 C :    0.003368
  50 C :    0.100628
  51 O :   -0.215236
  52 C :    0.227853
  53 C :    0.012877
  54 N :   -0.014133
  55 C :   -0.063099
  56 C :    0.036196
  57 C :    0.222330
  58 C :   -0.157041
  59 O :   -0.188225
  60 C :    0.118018
  61 N :   -0.064645
  62 C :    0.020057
  63 C :   -0.088209
  64 C :    0.137605
  65 O :   -0.129294
  66 C :    0.005612
  67 C :   -0.079616
  68 C :    0.112763
  69 C :    0.116218
  70 C :   -0.109163
  71 C :    0.242568
  72 C :    0.239881
  73 C :   -0.103348
  74 F :   -0.169889
  75 F :   -0.168632
  76 C :   -0.084759
  77 C :    0.048352
  78 C :    0.267248
  79 C :   -0.274656
  80 C :   -0.179486
  81 N :    0.162846
  82 C :   -0.188395
  83 N :    0.157784
  84 H :    0.007625
  85 H :    0.001472
  86 H :   -0.006065
  87 H :   -0.007983
  88 H :    0.028755
  89 H :   -0.013004
  90 H :    0.003300
  91 H :    0.030937
  92 H :    0.035912
  93 H :    0.018037
  94 H :    0.018217
  95 H :    0.020938
  96 H :    0.025331
  97 H :    0.046395
  98 H :    0.016358
  99 H :    0.025567
 100 H :    0.032091
 101 H :   -0.002279
 102 H :    0.045693
 103 H :   -0.012472
 104 H :   -0.009612
 105 H :    0.032597
 106 H :   -0.006050
 107 H :    0.008796
 108 H :    0.001261
 109 H :   -0.001035
Sum of atomic charges:   -0.0000000

LOEWDIN ATOMIC CHARGES
----------------------
   0 C :   -0.028562
   1 C :    0.067053
   2 F :   -0.047269
   3 C :    0.069426
   4 F :   -0.047146
   5 C :   -0.033011
   6 C :   -0.006238
   7 C :   -0.006482
   8 C :    0.019195
   9 C :   -0.026250
  10 C :   -0.052410
  11 C :    0.030390
  12 C :    0.072650
  13 O :   -0.095486
  14 C :   -0.051292
  15 C :    0.072594
  16 C :   -0.125702
  17 C :   -0.016220
  18 N :   -0.043833
  19 C :   -0.023583
  20 N :   -0.037100
  21 C :    0.037355
  22 C :    0.047080
  23 O :   -0.002727
  24 C :    0.045280
  25 C :   -0.039027
  26 N :   -0.045846
  27 C :   -0.004906
  28 C :   -0.036387
  29 C :    0.049644
  30 C :   -0.057352
  31 O :    0.022856
  32 C :    0.058818
  33 N :   -0.087436
  34 C :    0.041317
  35 N :    0.013937
  36 C :    0.037787
  37 C :   -0.060175
  38 C :    0.079588
  39 O :   -0.189843
  40 C :   -0.121147
  41 C :   -0.100888
  42 C :    0.081611
  43 O :   -0.174110
  44 N :   -0.004997
  45 C :    0.035594
  46 C :   -0.060782
  47 C :    0.085155
  48 C :   -0.026637
  49 C :    0.018192
  50 C :    0.060601
  51 O :   -0.015907
  52 C :    0.046862
  53 C :   -0.034755
  54 N :   -0.076883
  55 C :   -0.001214
  56 C :   -0.031921
  57 C :    0.046913
  58 C :   -0.063386
  59 O :    0.004347
  60 C :    0.052151
  61 N :   -0.067527
  62 C :    0.035093
  63 C :   -0.045784
  64 C :    0.084793
  65 O :   -0.129634
  66 C :   -0.057699
  67 C :    0.033951
  68 C :   -0.009779
  69 C :   -0.003222
  70 C :   -0.030195
  71 C :    0.068808
  72 C :    0.067407
  73 C :   -0.032044
  74 F :   -0.047848
  75 F :   -0.046511
  76 C :    0.013781
  77 C :   -0.016963
  78 C :    0.062001
  79 C :   -0.102707
  80 C :   -0.017621
  81 N :   -0.045852
  82 C :   -0.015746
  83 N :   -0.042137
  84 H :    0.047969
  85 H :    0.045596
  86 H :    0.039881
  87 H :    0.041054
  88 H :    0.053992
  89 H :    0.047266
  90 H :    0.051048
  91 H :    0.026722
  92 H :    0.032949
  93 H :    0.020844
  94 H :    0.030034
  95 H :    0.026533
  96 H :    0.023729
  97 H :    0.038779
  98 H :    0.022297
  99 H :    0.031697
 100 H :    0.033183
 101 H :    0.033796
 102 H :    0.053668
 103 H :    0.047694
 104 H :    0.045549
 105 H :    0.056075
 106 H :    0.041632
 107 H :    0.048132
 108 H :    0.045394
 109 H :    0.040439

  Mayer bond orders larger than 0.100000
B(  0-C ,  1-C ) :   1.4455 B(  0-C ,  5-C ) :   0.1086 B(  0-C ,  7-C ) :   1.1847
B(  0-C , 84-H ) :   1.0057 B(  1-C ,  2-F ) :   1.1366 B(  1-C ,  3-C ) :   1.1885
B(  3-C ,  4-F ) :   1.1356 B(  3-C ,  5-C ) :   1.4454 B(  5-C ,  6-C ) :   1.1913
B(  5-C , 85-H ) :   1.0065 B(  6-C ,  7-C ) :   1.2538 B(  6-C , 11-C ) :   1.1935
B(  7-C ,  8-C ) :   1.2283 B(  8-C ,  9-C ) :   1.4367 B(  8-C , 86-H ) :   0.9879
B(  9-C , 10-C ) :   1.2250 B(  9-C , 15-C ) :   0.9918 B( 10-C , 11-C ) :   1.4742
B( 10-C , 12-C ) :   0.9282 B( 11-C , 87-H ) :   1.0147 B( 12-C , 13-O ) :   2.3138
B( 12-C , 14-C ) :   0.8938 B( 14-C , 15-C ) :   1.0587 B( 14-C , 21-C ) :   1.6604
B( 15-C , 16-C ) :   1.6438 B( 16-C , 17-C ) :   1.1456 B( 16-C , 19-C ) :   1.1401
B( 17-C , 18-N ) :   2.9637 B( 19-C , 20-N ) :   2.9700 B( 21-C , 22-C ) :   1.1173
B( 21-C , 88-H ) :   0.9202 B( 22-C , 23-O ) :   1.1198 B( 22-C , 26-N ) :   1.7309
B( 23-O , 24-C ) :   1.1356 B( 24-C , 25-C ) :   1.2206 B( 24-C , 30-C ) :   1.2993
B( 25-C , 26-N ) :   1.3211 B( 25-C , 27-C ) :   1.2693 B( 27-C , 28-C ) :   1.2869
B( 27-C , 30-C ) :   0.1491 B( 27-C , 89-H ) :   1.0497 B( 28-C , 29-C ) :   1.2155
B( 28-C , 33-N ) :   1.2748 B( 29-C , 30-C ) :   1.3231 B( 29-C , 31-O ) :   1.1247
B( 30-C , 90-H ) :   1.0482 B( 31-O , 32-C ) :   1.2137 B( 32-C , 33-N ) :   1.6902
B( 32-C , 34-C ) :   1.0380 B( 34-C , 35-N ) :   1.2208 B( 34-C , 41-C ) :   1.3935
B( 35-N , 36-C ) :   0.9334 B( 35-N , 38-C ) :   1.0465 B( 36-C , 37-C ) :   1.1248
B( 36-C , 91-H ) :   0.9377 B( 36-C , 92-H ) :   0.9300 B( 37-C , 93-H ) :   0.9651
B( 37-C , 94-H ) :   0.9674 B( 37-C , 95-H ) :   0.9661 B( 38-C , 39-O ) :   2.0535
B( 38-C , 40-C ) :   0.9842 B( 40-C , 41-C ) :   1.2342 B( 40-C , 47-C ) :   1.3518
B( 41-C , 42-C ) :   0.9402 B( 42-C , 43-O ) :   2.1871 B( 42-C , 44-N ) :   1.0214
B( 44-N , 45-C ) :   0.9440 B( 44-N , 47-C ) :   1.1743 B( 45-C , 46-C ) :   1.1206
B( 45-C , 96-H ) :   0.9505 B( 45-C , 97-H ) :   0.9275 B( 46-C , 98-H ) :   0.9687
B( 46-C , 99-H ) :   0.9680 B( 46-C ,100-H ) :   0.9633 B( 47-C , 48-C ) :   1.1272
B( 48-C , 49-C ) :   1.6069 B( 48-C ,101-H ) :   0.9662 B( 49-C , 50-C ) :   1.1053
B( 49-C ,102-H ) :   0.9436 B( 50-C , 51-O ) :   1.1036 B( 50-C , 54-N ) :   1.7454
B( 51-O , 52-C ) :   1.1187 B( 52-C , 53-C ) :   1.2320 B( 52-C , 58-C ) :   1.3232
B( 53-C , 54-N ) :   1.2926 B( 53-C , 55-C ) :   1.3011 B( 55-C , 56-C ) :   1.2700
B( 55-C , 58-C ) :   0.1488 B( 55-C ,103-H ) :   1.0483 B( 56-C , 57-C ) :   1.2379
B( 56-C , 61-N ) :   1.2826 B( 57-C , 58-C ) :   1.3102 B( 57-C , 59-O ) :   1.1245
B( 58-C ,104-H ) :   1.0447 B( 59-O , 60-C ) :   1.1257 B( 60-C , 61-N ) :   1.6823
B( 60-C , 62-C ) :   1.0692 B( 62-C , 63-C ) :   1.6977 B( 62-C ,105-H ) :   0.9463
B( 63-C , 64-C ) :   0.9251 B( 63-C , 78-C ) :   1.0140 B( 64-C , 65-O ) :   2.2866
B( 64-C , 66-C ) :   0.9193 B( 66-C , 67-C ) :   1.4704 B( 66-C , 77-C ) :   1.2194
B( 67-C , 68-C ) :   1.2007 B( 67-C ,106-H ) :   1.0156 B( 68-C , 69-C ) :   1.2546
B( 68-C , 73-C ) :   1.1914 B( 69-C , 70-C ) :   1.1881 B( 69-C , 76-C ) :   1.2181
B( 70-C , 71-C ) :   1.4439 B( 70-C , 73-C ) :   0.1085 B( 70-C ,107-H ) :   1.0068
B( 71-C , 72-C ) :   1.1892 B( 71-C , 75-F ) :   1.1372 B( 72-C , 73-C ) :   1.4459
B( 72-C , 74-F ) :   1.1351 B( 73-C ,108-H ) :   1.0067 B( 76-C , 77-C ) :   1.4559
B( 76-C ,109-H ) :   0.9935 B( 77-C , 78-C ) :   0.9990 B( 78-C , 79-C ) :   1.7100
B( 79-C , 80-C ) :   1.1431 B( 79-C , 82-C ) :   1.1401 B( 80-C , 81-N ) :   2.9901
B( 82-C , 83-N ) :   2.9830

-----------------------------------------------------------------------------
         ABSORPTION SPECTRUM VIA TRANSITION ELECTRIC DIPOLE MOMENTS
-----------------------------------------------------------------------------
State   Energy  Wavelength   fosc         T2         TX        TY        TZ
        (cm-1)    (nm)                  (au**2)     (au)      (au)      (au)
-----------------------------------------------------------------------------
   0   16509.5    605.7   1.440545205  28.72556  -3.20823  -2.01473  -3.79126
   1   20517.4    487.4   0.016116183   0.25859   0.05111   0.34466   0.37040
   2   21897.0    456.7   0.287486317   4.32224  -1.31709  -1.60853  -0.01164
   3   22903.4    436.6   0.024239274   0.34841  -0.25517  -0.45842  -0.27048
   4   24514.3    407.9   0.480985582   6.45934  -1.90115  -1.50996  -0.75165
   5   25020.3    399.7   0.359482501   4.73000  -1.19167  -1.65705  -0.75106
   6   26176.3    382.0   0.313754418   3.94600  -0.87694  -1.25179  -1.26885
   7   26262.9    380.8   0.196985234   2.46926  -0.74843  -1.00132  -0.95208
   8   26333.2    379.7   0.081527121   1.01923   0.56924  -0.00366   0.83378
   9   27565.3    362.8   0.150413476   1.79639  -0.78892  -0.95717  -0.50776
  10   28010.5    357.0   0.004816858   0.05661  -0.09092  -0.21926  -0.01652
  11   28111.7    355.7   0.049506845   0.57977   0.26847   0.39051   0.59598
  12   28179.2    354.9   0.086561184   1.01128  -0.02618   0.53847  -0.84891
  13   28727.3    348.1   0.167651675   1.92127   0.66178   0.32441   1.17391
  14   29316.1    341.1   0.011389392   0.12790   0.07361  -0.32075   0.14000
  15   29636.4    337.4   0.112780259   1.25280  -0.53380  -0.54709  -0.81765
  16   29846.2    335.1   0.030063942   0.33161   0.13192   0.51630  -0.21827
  17   30712.5    325.6   0.005425049   0.05815   0.12850   0.18342   0.08943
  18   30993.2    322.7   0.024461331   0.25983  -0.19154   0.06739  -0.46755
  19   31297.2    319.5   0.096309249   1.01307  -0.25110  -0.71873   0.65836
  20   31389.0    318.6   0.042545744   0.44622   0.23296   0.00021   0.62606
  21   31626.9    316.2   0.303739134   3.16169  -1.00822  -1.24112  -0.77769
  22   32032.3    312.2   0.043548789   0.44757   0.16731   0.60438   0.23304
  23   32698.2    305.8   0.094106281   0.94748  -0.42546  -0.21147  -0.84956
  24   33842.0    295.5   0.849891811   8.26766   0.58849   0.12422   2.81175
  25   33936.1    294.7   0.659968375   6.40230   0.43248   2.46674   0.36121
  26   34458.3    290.2   0.009130218   0.08723  -0.27916   0.07259  -0.06346
  27   34830.4    287.1   0.010900931   0.10303   0.25885   0.10896   0.15544
  28   35282.7    283.4   0.009127486   0.08517   0.06616  -0.00199   0.28423
  29   36416.9    274.6   0.076151335   0.68841   0.30038   0.72779   0.26172
  30   36449.9    274.3   0.022228444   0.20076   0.12002   0.34073  -0.26508
  31   36577.0    273.4   0.001300797   0.01171  -0.10191   0.03386   0.01329
  32   36668.8    272.7   0.028838215   0.25891  -0.17331  -0.46909   0.09394
  33   37378.3    267.5   0.147369188   1.29796  -0.65263  -0.74029  -0.56922
  34   37485.4    266.8   0.014133279   0.12412  -0.04932  -0.24140  -0.25183
  35   37693.3    265.3   0.080059786   0.69924   0.26063   0.78726  -0.10735
  36   37725.3    265.1   0.021281032   0.18571   0.11929   0.13819   0.39036
  37   37829.4    264.3   0.034941099   0.30408   0.08588   0.23107  -0.49326
  38   38067.7    262.7   0.033677607   0.29125   0.40664   0.34923   0.06266
  39   38549.7    259.4   0.062423377   0.53309  -0.06435  -0.63103   0.36159
  40   38835.4    257.5   0.004006130   0.03396  -0.07784  -0.15387   0.06501
  41   39436.8    253.6   0.017022338   0.14210  -0.11694   0.13103  -0.33355
  42   39544.6    252.9   0.034312664   0.28566   0.02016  -0.33995   0.41193
  43   39705.3    251.9   0.073176204   0.60673  -0.22484   0.12618  -0.73502
  44   39762.1    251.5   0.021569577   0.17859   0.00382   0.24847  -0.34181
  45   39886.1    250.7   0.000827941   0.00683  -0.04504  -0.04732  -0.05065
  46   40083.8    249.5   0.100956981   0.82917  -0.31986  -0.68645   0.50561
  47   40286.0    248.2   0.059012569   0.48224  -0.30964   0.03157   0.62078

FINAL SINGLE POINT ENERGY     -3922.124210385538

DIPOLE MOMENT
-------------
                                X             Y             Z
Electronic contribution:      1.86385     -18.56481      15.34367
Nuclear contribution   :     -1.78988      17.69921     -16.73945
                        -----------------------------------------
Total Dipole Moment    :      0.07397      -0.86560      -1.39579
                        -----------------------------------------
Magnitude (a.u.)       :      1.64407
Magnitude (Debye)      :      4.17888

Rotational constants in cm-1:     0.002341     0.000107     0.000103
Rotational constants in MHz :    70.166671     3.212068     3.095998

                             ****ORCA TERMINATED NORMALLY****
TOTAL RUN TIME: 0 days 0 hours 15 minutes 41 seconds 191 msec
