                         Program Version 4.2.0 -  RELEASE  -
|  1> # ORCA input file
|  2> # SCF done       -194.737051024543          0.000826030409
|  3> ! CAM-B3LYP def2-SVP def2/J RIJCOSX Grid4 TightSCF
|  4> %maxcore 5000
|  5> %tddft
|  6>     Mode sTDDFT
|  7>     Ethresh 5.0
|  8>     maxcore 5000
|  9> end
| 10>
| 11> %pal
| 12>   nprocs 6
| 13>   end
| 14> * xyz 0 1
| 15>    C       -1.08783         0.29794         7.88932
| 16>    N       -1.10590         1.38136         7.07605
| 17>    C        0.03713         2.17434         6.69566
| 18>    C        0.50843         3.06484         7.84194
| 19>    C       -2.42488         1.70363         6.67884
| 20>    O       -2.69089         2.64416         5.95284
| 21>    C       -3.23945         0.69620         7.31481
| 22>    C       -2.37198        -0.15371         8.05927
| 23>    C       -3.18186        -1.18276         8.68963
| 24>    O       -2.89798        -2.11318         9.40546
| 25>    N       -4.49459        -0.88735         8.26721
| 26>    C       -5.61764        -1.67660         8.71978
| 27>    C       -6.45512        -0.94816         9.76706
| 28>    C       -4.54665         0.21766         7.45603
| 29>    C       -5.74343         0.69865         6.87668
| 30>    C       -5.75765         1.80784         6.08323
| 31>    C       -6.86496         2.39255         5.42477
| 32>    C       -8.23317         2.45239         5.71296
| 33>    N       -8.97863         1.87804         6.75425
| 34>    O      -10.13367         2.25008         6.87979
| 35>    O       -8.45996         1.04698         7.48645
| 36>    C       -8.86533         3.35848         4.79612
| 37>    C       -7.92612         3.88230         3.96500
| 38>    C       -6.65795         3.30410         4.28693
| 39>    C       -5.48843         3.42025         3.55181
| 40>    C       -4.51052         2.40041         3.37449
| 41>    C       -3.66543         2.76255         2.36281
| 42>    C       -4.02915         4.05804         1.89587
| 43>    N       -3.31533         4.72472         0.88981
| 44>    O       -3.67760         5.84177         0.54445
| 45>    O       -2.36540         4.14010         0.39651
| 46>    C       -5.13250         4.51885         2.63097
| 47>    C       -5.66014         5.81547         2.58319
| 48>    C       -6.40398         6.42710         3.56205
| 49>    C       -6.95201         7.71186         3.43215
| 50>    C       -6.93926         8.56387         2.32634
| 51>    C       -7.61637         9.74242         2.57216
| 52>    C       -8.17059         9.83400         3.87394
| 53>    S       -7.82627         8.41265         4.79197
| 54>    C       -8.84979        11.01145         4.11714
| 55>    C       -8.84082        11.85885         3.00588
| 56>    S       -7.96346        11.15866         1.65151
| 57>    C       -9.40941        13.13121         2.83549
| 58>    C      -10.07154        13.81836         3.82120
| 59>    C      -10.69467        15.07605         3.73697
| 60>    C      -11.14983        15.86424         2.66533
| 61>    N      -10.93686        15.77051         1.28035
| 62>    O      -11.68082        16.41718         0.56269
| 63>    O      -10.02234        15.08149         0.85113
| 64>    C      -11.98834        16.90146         3.17710
| 65>    C      -12.07300        16.79158         4.53441
| 66>    C      -11.25447        15.70506         4.95180
| 67>    C      -10.87802        15.42429         6.25892
| 68>    C       -9.60344        14.95152         6.67456
| 69>    C       -9.48830        15.10945         8.03171
| 70>    C      -10.70779        15.62660         8.54334
| 71>    N      -10.91978        15.85267         9.90994
| 72>    O      -10.00479        15.58226        10.67048
| 73>    O      -11.99247        16.31450        10.27582
| 74>    C      -11.61584        15.79642         7.48109
| 75>    C      -12.97948        16.07625         7.60453
| 76>    C      -13.94685        15.80489         6.66208
| 77>    C      -15.29989        16.12177         6.80621
| 78>    C      -15.99225        16.78765         7.79603
| 79>    C      -17.37466        16.86887         7.46350
| 80>    C      -17.62262        16.26505         6.25847
| 81>    C      -16.31233        15.73922         5.75603
| 82>    O      -16.10242        15.13825         4.73449
| 83>    C      -18.82811        16.09687         5.51241
| 84>    C      -20.03677        16.53327         5.88594
| 85>    H       -0.16638        -0.08698         8.28531
| 86>    H       -0.28006         2.78942         5.84931
| 87>    H        0.84291         1.50806         6.37441
| 88>    H       -0.28844         3.73961         8.14503
| 89>    H        1.36137         3.65596         7.52106
| 90>    H        0.80275         2.46455         8.70010
| 91>    H       -5.18343        -2.58097         9.15562
| 92>    H       -6.23594        -1.95905         7.86328
| 93>    H       -5.82418        -0.62447        10.59146
| 94>    H       -7.21176        -1.62397        10.15507
| 95>    H       -6.95578        -0.08242         9.34159
| 96>    H       -6.65085         0.14982         7.06522
| 97>    H       -4.81337         2.30448         5.89739
| 98>    H       -9.92048         3.55581         4.79880
| 99>    H       -8.10705         4.53263         3.13156
|100>    H       -4.52205         1.44736         3.86509
|101>    H       -2.85443         2.18865         1.95580
|102>    H       -5.37234         6.39534         1.71619
|103>    H       -6.56766         5.92397         4.50518
|104>    H       -6.45408         8.32406         1.39885
|105>    H       -9.33313        11.25069         5.04589
|106>    H       -9.28881        13.58477         1.86208
|107>    H      -10.13838        13.35300         4.79572
|108>    H      -12.44916        17.64513         2.55472
|109>    H      -12.57327        17.47246         5.19506
|110>    H       -8.80918        14.66137         6.01382
|111>    H       -8.62790        14.89798         8.63851
|112>    H      -13.29409        16.45939         8.56664
|113>    H      -13.68498        15.28075         5.75140
|114>    H      -15.57225        17.18986         8.70056
|115>    H      -18.10462        17.34574         8.09280
|116>    H      -18.70624        15.56557         4.57666
|117>    H      -20.19199        17.06063         6.81177
|118>    H      -20.90567        16.36687         5.27414
|119> *
|120>
|121>                          ****END OF INPUT****

CARTESIAN COORDINATES (ANGSTROEM)
---------------------------------
  C     -1.087830    0.297940    7.889320
  N     -1.105900    1.381360    7.076050
  C      0.037130    2.174340    6.695660
  C      0.508430    3.064840    7.841940
  C     -2.424880    1.703630    6.678840
  O     -2.690890    2.644160    5.952840
  C     -3.239450    0.696200    7.314810
  C     -2.371980   -0.153710    8.059270
  C     -3.181860   -1.182760    8.689630
  O     -2.897980   -2.113180    9.405460
  N     -4.494590   -0.887350    8.267210
  C     -5.617640   -1.676600    8.719780
  C     -6.455120   -0.948160    9.767060
  C     -4.546650    0.217660    7.456030
  C     -5.743430    0.698650    6.876680
  C     -5.757650    1.807840    6.083230
  C     -6.864960    2.392550    5.424770
  C     -8.233170    2.452390    5.712960
  N     -8.978630    1.878040    6.754250
  O    -10.133670    2.250080    6.879790
  O     -8.459960    1.046980    7.486450
  C     -8.865330    3.358480    4.796120
  C     -7.926120    3.882300    3.965000
  C     -6.657950    3.304100    4.286930
  C     -5.488430    3.420250    3.551810
  C     -4.510520    2.400410    3.374490
  C     -3.665430    2.762550    2.362810
  C     -4.029150    4.058040    1.895870
  N     -3.315330    4.724720    0.889810
  O     -3.677600    5.841770    0.544450
  O     -2.365400    4.140100    0.396510
  C     -5.132500    4.518850    2.630970
  C     -5.660140    5.815470    2.583190
  C     -6.403980    6.427100    3.562050
  C     -6.952010    7.711860    3.432150
  C     -6.939260    8.563870    2.326340
  C     -7.616370    9.742420    2.572160
  C     -8.170590    9.834000    3.873940
  S     -7.826270    8.412650    4.791970
  C     -8.849790   11.011450    4.117140
  C     -8.840820   11.858850    3.005880
  S     -7.963460   11.158660    1.651510
  C     -9.409410   13.131210    2.835490
  C    -10.071540   13.818360    3.821200
  C    -10.694670   15.076050    3.736970
  C    -11.149830   15.864240    2.665330
  N    -10.936860   15.770510    1.280350
  O    -11.680820   16.417180    0.562690
  O    -10.022340   15.081490    0.851130
  C    -11.988340   16.901460    3.177100
  C    -12.073000   16.791580    4.534410
  C    -11.254470   15.705060    4.951800
  C    -10.878020   15.424290    6.258920
  C     -9.603440   14.951520    6.674560
  C     -9.488300   15.109450    8.031710
  C    -10.707790   15.626600    8.543340
  N    -10.919780   15.852670    9.909940
  O    -10.004790   15.582260   10.670480
  O    -11.992470   16.314500   10.275820
  C    -11.615840   15.796420    7.481090
  C    -12.979480   16.076250    7.604530
  C    -13.946850   15.804890    6.662080
  C    -15.299890   16.121770    6.806210
  C    -15.992250   16.787650    7.796030
  C    -17.374660   16.868870    7.463500
  C    -17.622620   16.265050    6.258470
  C    -16.312330   15.739220    5.756030
  O    -16.102420   15.138250    4.734490
  C    -18.828110   16.096870    5.512410
  C    -20.036770   16.533270    5.885940
  H     -0.166380   -0.086980    8.285310
  H     -0.280060    2.789420    5.849310
  H      0.842910    1.508060    6.374410
  H     -0.288440    3.739610    8.145030
  H      1.361370    3.655960    7.521060
  H      0.802750    2.464550    8.700100
  H     -5.183430   -2.580970    9.155620
  H     -6.235940   -1.959050    7.863280
  H     -5.824180   -0.624470   10.591460
  H     -7.211760   -1.623970   10.155070
  H     -6.955780   -0.082420    9.341590
  H     -6.650850    0.149820    7.065220
  H     -4.813370    2.304480    5.897390
  H     -9.920480    3.555810    4.798800
  H     -8.107050    4.532630    3.131560
  H     -4.522050    1.447360    3.865090
  H     -2.854430    2.188650    1.955800
  H     -5.372340    6.395340    1.716190
  H     -6.567660    5.923970    4.505180
  H     -6.454080    8.324060    1.398850
  H     -9.333130   11.250690    5.045890
  H     -9.288810   13.584770    1.862080
  H    -10.138380   13.353000    4.795720
  H    -12.449160   17.645130    2.554720
  H    -12.573270   17.472460    5.195060
  H     -8.809180   14.661370    6.013820
  H     -8.627900   14.897980    8.638510
  H    -13.294090   16.459390    8.566640
  H    -13.684980   15.280750    5.751400
  H    -15.572250   17.189860    8.700560
  H    -18.104620   17.345740    8.092800
  H    -18.706240   15.565570    4.576660
  H    -20.191990   17.060630    6.811770
  H    -20.905670   16.366870    5.274140

 Total Charge           Charge          ....    0
 Multiplicity           Mult            ....    1
 Number of Electrons    NEL             ....  502
 Basis Dimension        Dim             .... 1158

ORBITAL ENERGIES
----------------

  NO   OCC          E(Eh)            E(eV)
   0   2.0000     -88.978608     -2421.2310
   1   2.0000     -88.976293     -2421.1680
   2   2.0000     -19.252310      -523.8820
   3   2.0000     -19.238854      -523.5158
   4   2.0000     -19.237700      -523.4844
   5   2.0000     -19.233780      -523.3778
   6   2.0000     -19.231281      -523.3098
   7   2.0000     -19.230214      -523.2807
   8   2.0000     -19.230049      -523.2762
   9   2.0000     -19.229242      -523.2543
  10   2.0000     -19.228847      -523.2435
  11   2.0000     -19.198620      -522.4210
  12   2.0000     -19.187953      -522.1307
  13   2.0000     -14.647536      -398.5797
  14   2.0000     -14.641905      -398.4265
  15   2.0000     -14.640166      -398.3792
  16   2.0000     -14.638883      -398.3443
  17   2.0000     -14.459846      -393.4724
  18   2.0000     -14.452729      -393.2788
  19   2.0000     -10.382770      -282.5295
  20   2.0000     -10.379285      -282.4347
  21   2.0000     -10.374369      -282.3009
  22   2.0000     -10.344085      -281.4769
  23   2.0000     -10.334888      -281.2266
  24   2.0000     -10.330916      -281.1185
  25   2.0000     -10.330218      -281.0995
  26   2.0000     -10.328555      -281.0543
  27   2.0000     -10.328547      -281.0541
  28   2.0000     -10.325951      -280.9834
  29   2.0000     -10.325872      -280.9813
  30   2.0000     -10.325386      -280.9680
  31   2.0000     -10.324121      -280.9336
  32   2.0000     -10.323962      -280.9293
  33   2.0000     -10.323547      -280.9180
  34   2.0000     -10.321462      -280.8613
  35   2.0000     -10.320778      -280.8427
  36   2.0000     -10.320727      -280.8413
  37   2.0000     -10.320158      -280.8258
  38   2.0000     -10.319778      -280.8154
  39   2.0000     -10.319560      -280.8095
  40   2.0000     -10.319152      -280.7984
  41   2.0000     -10.315042      -280.6866
  42   2.0000     -10.313310      -280.6394
  43   2.0000     -10.310670      -280.5676
  44   2.0000     -10.308476      -280.5079
  45   2.0000     -10.307751      -280.4882
  46   2.0000     -10.306833      -280.4632
  47   2.0000     -10.304621      -280.4030
  48   2.0000     -10.303274      -280.3663
  49   2.0000     -10.302111      -280.3347
  50   2.0000     -10.300635      -280.2945
  51   2.0000     -10.300170      -280.2819
  52   2.0000     -10.299978      -280.2766
  53   2.0000     -10.299130      -280.2536
  54   2.0000     -10.298088      -280.2252
  55   2.0000     -10.297931      -280.2209
  56   2.0000     -10.295998      -280.1683
  57   2.0000     -10.294274      -280.1214
  58   2.0000     -10.292462      -280.0721
  59   2.0000     -10.292385      -280.0700
  60   2.0000     -10.292285      -280.0673
  61   2.0000     -10.289084      -279.9802
  62   2.0000     -10.285617      -279.8859
  63   2.0000     -10.284447      -279.8540
  64   2.0000     -10.280735      -279.7530
  65   2.0000     -10.279931      -279.7311
  66   2.0000     -10.268551      -279.4215
  67   2.0000     -10.266234      -279.3584
  68   2.0000     -10.263634      -279.2877
  69   2.0000     -10.254474      -279.0384
  70   2.0000      -8.074041      -219.7058
  71   2.0000      -8.071755      -219.6436
  72   2.0000      -6.043468      -164.4511
  73   2.0000      -6.041154      -164.3882
  74   2.0000      -6.039580      -164.3453
  75   2.0000      -6.037203      -164.2807
  76   2.0000      -6.035603      -164.2371
  77   2.0000      -6.033390      -164.1769
  78   2.0000      -1.317170       -35.8420
  79   2.0000      -1.311715       -35.6936
  80   2.0000      -1.308781       -35.6137
  81   2.0000      -1.307708       -35.5845
  82   2.0000      -1.160915       -31.5901
  83   2.0000      -1.137024       -30.9400
  84   2.0000      -1.133078       -30.8326
  85   2.0000      -1.128370       -30.7045
  86   2.0000      -1.128012       -30.6948
  87   2.0000      -1.125606       -30.6293
  88   2.0000      -1.124456       -30.5980
  89   2.0000      -1.067544       -29.0493
  90   2.0000      -1.057730       -28.7823
  91   2.0000      -1.028035       -27.9743
  92   2.0000      -1.015620       -27.6364
  93   2.0000      -1.015416       -27.6309
  94   2.0000      -0.994491       -27.0615
  95   2.0000      -0.994206       -27.0537
  96   2.0000      -0.989561       -26.9273
  97   2.0000      -0.971546       -26.4371
  98   2.0000      -0.929605       -25.2958
  99   2.0000      -0.921616       -25.0784
 100   2.0000      -0.919521       -25.0214
 101   2.0000      -0.912690       -24.8356
 102   2.0000      -0.909031       -24.7360
 103   2.0000      -0.907771       -24.7017
 104   2.0000      -0.901096       -24.5201
 105   2.0000      -0.889038       -24.1920
 106   2.0000      -0.880140       -23.9498
 107   2.0000      -0.878247       -23.8983
 108   2.0000      -0.876961       -23.8633
 109   2.0000      -0.873326       -23.7644
 110   2.0000      -0.851287       -23.1647
 111   2.0000      -0.844487       -22.9796
 112   2.0000      -0.842708       -22.9313
 113   2.0000      -0.827436       -22.5157
 114   2.0000      -0.821316       -22.3491
 115   2.0000      -0.820602       -22.3297
 116   2.0000      -0.810121       -22.0445
 117   2.0000      -0.803924       -21.8759
 118   2.0000      -0.797442       -21.6995
 119   2.0000      -0.792888       -21.5756
 120   2.0000      -0.772912       -21.0320
 121   2.0000      -0.764856       -20.8128
 122   2.0000      -0.760794       -20.7022
 123   2.0000      -0.760515       -20.6947
 124   2.0000      -0.734933       -19.9985
 125   2.0000      -0.728953       -19.8358
 126   2.0000      -0.728128       -19.8134
 127   2.0000      -0.717349       -19.5201
 128   2.0000      -0.709877       -19.3167
 129   2.0000      -0.707629       -19.2556
 130   2.0000      -0.706531       -19.2257
 131   2.0000      -0.703728       -19.1494
 132   2.0000      -0.677583       -18.4380
 133   2.0000      -0.671172       -18.2635
 134   2.0000      -0.670407       -18.2427
 135   2.0000      -0.669311       -18.2129
 136   2.0000      -0.666463       -18.1354
 137   2.0000      -0.653738       -17.7891
 138   2.0000      -0.652795       -17.7634
 139   2.0000      -0.648446       -17.6451
 140   2.0000      -0.641435       -17.4543
 141   2.0000      -0.637965       -17.3599
 142   2.0000      -0.636202       -17.3119
 143   2.0000      -0.628458       -17.1012
 144   2.0000      -0.627909       -17.0863
 145   2.0000      -0.623037       -16.9537
 146   2.0000      -0.621600       -16.9146
 147   2.0000      -0.621282       -16.9059
 148   2.0000      -0.620218       -16.8770
 149   2.0000      -0.618077       -16.8187
 150   2.0000      -0.614656       -16.7256
 151   2.0000      -0.614513       -16.7217
 152   2.0000      -0.608179       -16.5494
 153   2.0000      -0.602330       -16.3902
 154   2.0000      -0.600351       -16.3364
 155   2.0000      -0.599953       -16.3255
 156   2.0000      -0.594025       -16.1642
 157   2.0000      -0.592437       -16.1210
 158   2.0000      -0.588494       -16.0137
 159   2.0000      -0.585343       -15.9280
 160   2.0000      -0.583273       -15.8717
 161   2.0000      -0.580059       -15.7842
 162   2.0000      -0.578415       -15.7395
 163   2.0000      -0.575971       -15.6730
 164   2.0000      -0.568829       -15.4786
 165   2.0000      -0.565135       -15.3781
 166   2.0000      -0.561493       -15.2790
 167   2.0000      -0.551328       -15.0024
 168   2.0000      -0.550853       -14.9895
 169   2.0000      -0.549949       -14.9649
 170   2.0000      -0.547019       -14.8852
 171   2.0000      -0.537807       -14.6345
 172   2.0000      -0.535828       -14.5806
 173   2.0000      -0.535327       -14.5670
 174   2.0000      -0.534036       -14.5319
 175   2.0000      -0.531870       -14.4729
 176   2.0000      -0.530949       -14.4478
 177   2.0000      -0.530261       -14.4291
 178   2.0000      -0.525458       -14.2984
 179   2.0000      -0.519981       -14.1494
 180   2.0000      -0.519294       -14.1307
 181   2.0000      -0.513624       -13.9764
 182   2.0000      -0.512502       -13.9459
 183   2.0000      -0.510586       -13.8938
 184   2.0000      -0.507616       -13.8129
 185   2.0000      -0.506671       -13.7872
 186   2.0000      -0.505038       -13.7428
 187   2.0000      -0.502008       -13.6603
 188   2.0000      -0.500558       -13.6209
 189   2.0000      -0.500076       -13.6078
 190   2.0000      -0.499074       -13.5805
 191   2.0000      -0.495786       -13.4910
 192   2.0000      -0.487534       -13.2665
 193   2.0000      -0.486169       -13.2293
 194   2.0000      -0.482283       -13.1236
 195   2.0000      -0.480238       -13.0679
 196   2.0000      -0.479200       -13.0397
 197   2.0000      -0.477424       -12.9914
 198   2.0000      -0.476239       -12.9591
 199   2.0000      -0.473012       -12.8713
 200   2.0000      -0.471030       -12.8174
 201   2.0000      -0.466933       -12.7059
 202   2.0000      -0.464633       -12.6433
 203   2.0000      -0.462824       -12.5941
 204   2.0000      -0.461776       -12.5656
 205   2.0000      -0.458464       -12.4754
 206   2.0000      -0.455124       -12.3846
 207   2.0000      -0.454028       -12.3547
 208   2.0000      -0.451212       -12.2781
 209   2.0000      -0.450392       -12.2558
 210   2.0000      -0.446940       -12.1619
 211   2.0000      -0.443098       -12.0573
 212   2.0000      -0.441025       -12.0009
 213   2.0000      -0.439678       -11.9642
 214   2.0000      -0.436127       -11.8676
 215   2.0000      -0.431773       -11.7491
 216   2.0000      -0.428835       -11.6692
 217   2.0000      -0.419854       -11.4248
 218   2.0000      -0.419239       -11.4081
 219   2.0000      -0.410645       -11.1742
 220   2.0000      -0.407903       -11.0996
 221   2.0000      -0.390110       -10.6154
 222   2.0000      -0.388357       -10.5677
 223   2.0000      -0.382613       -10.4114
 224   2.0000      -0.381446       -10.3797
 225   2.0000      -0.379723       -10.3328
 226   2.0000      -0.378053       -10.2873
 227   2.0000      -0.376062       -10.2332
 228   2.0000      -0.374727       -10.1968
 229   2.0000      -0.371259       -10.1025
 230   2.0000      -0.368997       -10.0409
 231   2.0000      -0.368357       -10.0235
 232   2.0000      -0.365237        -9.9386
 233   2.0000      -0.360565        -9.8115
 234   2.0000      -0.358561        -9.7569
 235   2.0000      -0.357826        -9.7369
 236   2.0000      -0.356867        -9.7108
 237   2.0000      -0.355961        -9.6862
 238   2.0000      -0.350699        -9.5430
 239   2.0000      -0.338750        -9.2178
 240   2.0000      -0.336914        -9.1679
 241   2.0000      -0.332851        -9.0573
 242   2.0000      -0.328308        -8.9337
 243   2.0000      -0.318288        -8.6611
 244   2.0000      -0.317498        -8.6396
 245   2.0000      -0.312899        -8.5144
 246   2.0000      -0.302251        -8.2247
 247   2.0000      -0.285754        -7.7758
 248   2.0000      -0.262439        -7.1413
 249   2.0000      -0.250779        -6.8240
 250   2.0000      -0.239730        -6.5234
 251   0.0000      -0.146075        -3.9749
 252   0.0000      -0.133310        -3.6275
 253   0.0000      -0.103558        -2.8180
 254   0.0000      -0.082288        -2.2392
 255   0.0000      -0.061748        -1.6803

MULLIKEN ATOMIC CHARGES
-----------------------
   0 C :    0.046531
   1 N :   -0.252521
   2 C :    0.112624
   3 C :   -0.002098
   4 C :    0.171828
   5 O :   -0.211654
   6 C :   -0.100359
   7 C :   -0.005871
   8 C :    0.163333
   9 O :   -0.178687
  10 N :   -0.264788
  11 C :    0.096958
  12 C :   -0.000775
  13 C :    0.148576
  14 C :    0.004741
  15 C :   -0.092698
  16 C :    0.079479
  17 C :    0.071713
  18 N :    0.278657
  19 O :   -0.246185
  20 O :   -0.262225
  21 C :    0.009188
  22 C :   -0.010383
  23 C :    0.006900
  24 C :    0.044713
  25 C :    0.020464
  26 C :    0.020696
  27 C :    0.077694
  28 N :    0.277037
  29 O :   -0.266518
  30 O :   -0.254471
  31 C :    0.055148
  32 C :   -0.062362
  33 C :    0.058271
  34 C :   -0.103676
  35 C :   -0.010276
  36 C :   -0.014843
  37 C :   -0.012038
  38 S :    0.162347
  39 C :   -0.022113
  40 C :   -0.089676
  41 S :    0.178418
  42 C :    0.071376
  43 C :   -0.088562
  44 C :    0.091407
  45 C :    0.062897
  46 N :    0.279730
  47 O :   -0.250949
  48 O :   -0.262476
  49 C :    0.021956
  50 C :   -0.006250
  51 C :    0.013118
  52 C :    0.030990
  53 C :   -0.028860
  54 C :    0.017928
  55 C :    0.073190
  56 N :    0.277165
  57 O :   -0.256661
  58 O :   -0.266638
  59 C :    0.057713
  60 C :   -0.055121
  61 C :    0.023110
  62 C :   -0.024570
  63 C :    0.014384
  64 C :   -0.008861
  65 C :    0.000250
  66 C :    0.131773
  67 O :   -0.103014
  68 C :    0.006600
  69 C :    0.005302
  70 H :    0.018784
  71 H :    0.043789
  72 H :    0.020687
  73 H :    0.030697
  74 H :    0.025628
  75 H :    0.016028
  76 H :    0.042299
  77 H :    0.025873
  78 H :    0.020456
  79 H :    0.023905
  80 H :    0.031937
  81 H :    0.004052
  82 H :    0.042162
  83 H :    0.003220
  84 H :    0.004069
  85 H :   -0.004981
  86 H :    0.003986
  87 H :    0.024357
  88 H :    0.019709
  89 H :    0.008742
  90 H :   -0.002922
  91 H :    0.020361
  92 H :   -0.001083
  93 H :    0.003218
  94 H :   -0.002198
  95 H :   -0.002662
  96 H :    0.005280
  97 H :    0.016791
  98 H :    0.025994
  99 H :    0.016403
 100 H :   -0.000891
 101 H :    0.009039
 102 H :    0.020330
 103 H :    0.038916
Sum of atomic charges:   -0.0000000

LOEWDIN ATOMIC CHARGES
----------------------
   0 C :    0.093445
   1 N :    0.003900
   2 C :    0.039072
   3 C :   -0.059660
   4 C :    0.077163
   5 O :   -0.199194
   6 C :   -0.124970
   7 C :   -0.127313
   8 C :    0.081404
   9 O :   -0.183476
  10 N :   -0.003822
  11 C :    0.036503
  12 C :   -0.061367
  13 C :    0.080279
  14 C :   -0.014161
  15 C :    0.010639
  16 C :    0.000781
  17 C :   -0.044558
  18 N :    0.288203
  19 O :   -0.210817
  20 O :   -0.219243
  21 C :   -0.001499
  22 C :   -0.042559
  23 C :    0.027287
  24 C :    0.054836
  25 C :   -0.038301
  26 C :    0.035122
  27 C :   -0.063296
  28 N :    0.286675
  29 O :   -0.231065
  30 O :   -0.218902
  31 C :    0.016266
  32 C :   -0.014031
  33 C :   -0.002369
  34 C :   -0.158110
  35 C :   -0.039892
  36 C :   -0.189985
  37 C :   -0.185791
  38 S :    0.433915
  39 C :   -0.052940
  40 C :   -0.151364
  41 S :    0.450604
  42 C :   -0.001300
  43 C :   -0.027702
  44 C :    0.007920
  45 C :   -0.056784
  46 N :    0.287417
  47 O :   -0.214781
  48 O :   -0.220968
  49 C :    0.014870
  50 C :   -0.052288
  51 C :    0.040977
  52 C :    0.030728
  53 C :   -0.062082
  54 C :    0.028345
  55 C :   -0.071273
  56 N :    0.286847
  57 O :   -0.221073
  58 O :   -0.231945
  59 C :    0.018313
  60 C :   -0.013368
  61 C :    0.025338
  62 C :   -0.080392
  63 C :    0.048053
  64 C :    0.008855
  65 C :   -0.044522
  66 C :    0.106101
  67 O :   -0.080826
  68 C :   -0.026111
  69 C :   -0.004626
  70 H :    0.034181
  71 H :    0.036689
  72 H :    0.025753
  73 H :    0.031789
  74 H :    0.031487
  75 H :    0.022899
  76 H :    0.036721
  77 H :    0.024440
  78 H :    0.028754
  79 H :    0.032458
  80 H :    0.026013
  81 H :    0.029542
  82 H :    0.041010
  83 H :    0.036766
  84 H :    0.031544
  85 H :    0.030852
  86 H :    0.039154
  87 H :    0.036782
  88 H :    0.036394
  89 H :    0.042401
  90 H :    0.036455
  91 H :    0.030866
  92 H :    0.032036
  93 H :    0.037463
  94 H :    0.029819
  95 H :    0.029961
  96 H :    0.038980
  97 H :    0.035166
  98 H :    0.038702
  99 H :    0.038039
 100 H :    0.032557
 101 H :    0.038047
 102 H :    0.023363
 103 H :    0.031788

  Mayer bond orders larger than 0.100000
B(  0-C ,  1-N ) :   1.1987 B(  0-C ,  7-C ) :   1.4435 B(  0-C , 70-H ) :   0.9901
B(  1-N ,  2-C ) :   0.9387 B(  1-N ,  4-C ) :   1.0601 B(  2-C ,  3-C ) :   1.1184
B(  2-C , 71-H ) :   0.9349 B(  2-C , 72-H ) :   0.9538 B(  3-C , 73-H ) :   0.9674
B(  3-C , 74-H ) :   0.9689 B(  3-C , 75-H ) :   0.9694 B(  4-C ,  5-O ) :   2.0002
B(  4-C ,  6-C ) :   1.0059 B(  5-O , 82-H ) :   0.1076 B(  6-C ,  7-C ) :   1.2210
B(  6-C , 13-C ) :   1.3404 B(  7-C ,  8-C ) :   0.9470 B(  8-C ,  9-O ) :   2.1831
B(  8-C , 10-N ) :   1.0190 B( 10-N , 11-C ) :   0.9389 B( 10-N , 13-C ) :   1.1690
B( 11-C , 12-C ) :   1.1224 B( 11-C , 76-H ) :   0.9275 B( 11-C , 77-H ) :   0.9494
B( 12-C , 78-H ) :   0.9623 B( 12-C , 79-H ) :   0.9662 B( 12-C , 80-H ) :   0.9648
B( 13-C , 14-C ) :   1.1540 B( 14-C , 15-C ) :   1.5861 B( 14-C , 81-H ) :   0.9553
B( 15-C , 16-C ) :   1.1362 B( 15-C , 82-H ) :   0.9300 B( 16-C , 17-C ) :   1.4593
B( 16-C , 23-C ) :   1.0528 B( 17-C , 18-N ) :   0.9627 B( 17-C , 21-C ) :   1.1497
B( 18-N , 19-O ) :   1.5379 B( 18-N , 20-O ) :   1.4614 B( 19-O , 20-O ) :   0.2504
B( 21-C , 22-C ) :   1.5572 B( 21-C , 83-H ) :   1.0072 B( 22-C , 23-C ) :   1.1356
B( 22-C , 84-H ) :   1.0024 B( 23-C , 24-C ) :   1.4530 B( 24-C , 25-C ) :   1.1901
B( 24-C , 31-C ) :   0.9956 B( 25-C , 26-C ) :   1.5153 B( 25-C , 85-H ) :   1.0023
B( 26-C , 27-C ) :   1.1552 B( 26-C , 86-H ) :   1.0110 B( 27-C , 28-N ) :   0.9669
B( 27-C , 31-C ) :   1.4411 B( 28-N , 29-O ) :   1.4805 B( 28-N , 30-O ) :   1.5308
B( 29-O , 30-O ) :   0.2494 B( 31-C , 32-C ) :   1.2585 B( 32-C , 33-C ) :   1.5169
B( 32-C , 87-H ) :   0.9428 B( 33-C , 34-C ) :   1.2002 B( 33-C , 88-H ) :   0.9550
B( 34-C , 35-C ) :   1.4360 B( 34-C , 38-S ) :   1.0866 B( 35-C , 36-C ) :   1.3178
B( 35-C , 89-H ) :   0.9971 B( 36-C , 37-C ) :   1.3401 B( 36-C , 41-S ) :   1.0803
B( 37-C , 38-S ) :   1.0799 B( 37-C , 39-C ) :   1.3216 B( 39-C , 40-C ) :   1.4286
B( 39-C , 90-H ) :   0.9964 B( 40-C , 41-S ) :   1.1038 B( 40-C , 42-C ) :   1.1660
B( 42-C , 43-C ) :   1.5837 B( 42-C , 91-H ) :   0.9400 B( 43-C , 44-C ) :   1.2153
B( 43-C , 92-H ) :   0.9562 B( 44-C , 45-C ) :   1.4241 B( 44-C , 51-C ) :   1.0245
B( 45-C , 46-N ) :   0.9669 B( 45-C , 49-C ) :   1.1633 B( 46-N , 47-O ) :   1.5343
B( 46-N , 48-O ) :   1.4596 B( 47-O , 48-O ) :   0.2468 B( 48-O , 91-H ) :   0.1009
B( 49-C , 50-C ) :   1.5407 B( 49-C , 93-H ) :   1.0054 B( 50-C , 51-C ) :   1.1640
B( 50-C , 94-H ) :   0.9992 B( 51-C , 52-C ) :   1.4394 B( 52-C , 53-C ) :   1.1835
B( 52-C , 59-C ) :   1.0111 B( 53-C , 54-C ) :   1.5050 B( 53-C , 95-H ) :   1.0052
B( 54-C , 55-C ) :   1.1770 B( 54-C , 96-H ) :   1.0096 B( 55-C , 56-N ) :   0.9689
B( 55-C , 59-C ) :   1.4163 B( 56-N , 57-O ) :   1.5285 B( 56-N , 58-O ) :   1.4841
B( 57-O , 58-O ) :   0.2490 B( 59-C , 60-C ) :   1.2623 B( 60-C , 61-C ) :   1.4572
B( 60-C , 97-H ) :   0.9547 B( 61-C , 62-C ) :   1.2106 B( 61-C , 98-H ) :   0.9595
B( 62-C , 63-C ) :   1.5636 B( 62-C , 66-C ) :   0.9085 B( 63-C , 64-C ) :   1.0734
B( 63-C , 99-H ) :   1.0045 B( 64-C , 65-C ) :   1.6192 B( 64-C ,100-H ) :   1.0065
B( 65-C , 66-C ) :   0.9240 B( 65-C , 68-C ) :   1.1293 B( 66-C , 67-O ) :   2.2468
B( 68-C , 69-C ) :   1.8847 B( 68-C ,101-H ) :   0.9602 B( 69-C ,102-H ) :   0.9551
B( 69-C ,103-H ) :   0.9513

-----------------------------------------------------------------------------
         ABSORPTION SPECTRUM VIA TRANSITION ELECTRIC DIPOLE MOMENTS
-----------------------------------------------------------------------------
State   Energy  Wavelength   fosc         T2         TX        TY        TZ
        (cm-1)    (nm)                  (au**2)     (au)      (au)      (au)
-----------------------------------------------------------------------------
   0    5634.9   1774.7   0.455331227  26.60230   3.06597  -4.14571   0.12331
   1    7503.0   1332.8   0.094711941   4.15573  -1.17179   0.40012   1.61943
   2    9796.7   1020.8   0.089472072   3.00666  -1.02441  -1.39784  -0.05738
   3   10349.7    966.2   0.045021865   1.43209   1.05823   0.55836  -0.02165
   4   14930.1    669.8   0.117715270   2.59565  -1.13230  -0.87950  -0.73487
   5   15390.9    649.7   0.021197743   0.45342  -0.22441  -0.62012  -0.13605
   6   16556.8    604.0   0.089475649   1.77912  -0.68681   1.13387   0.14752
   7   17040.6    586.8   0.037780038   0.72988  -0.00366  -0.85357   0.03579
   8   18460.3    541.7   0.490986128   8.75601  -1.66947   2.44300  -0.02508
   9   18610.2    537.3   0.070616598   1.24920  -0.74621   0.80344   0.21647
  10   19807.8    504.9   0.144570484   2.40281  -1.38754  -0.17026  -0.66974
  11   19981.2    500.5   0.056912822   0.93770   0.08257  -0.94914  -0.17328
  12   21272.1    470.1   0.045269342   0.70060   0.47328   0.52206   0.45173
  13   22054.5    453.4   0.316196092   4.71992  -1.74841   1.21406   0.43478
  14   22581.0    442.9   0.007926871   0.11557  -0.01723  -0.08491  -0.32873
  15   22670.9    441.1   0.003059436   0.04443  -0.19837   0.07107   0.00496
  16   23186.6    431.3   0.000640684   0.00910  -0.04339   0.01895  -0.08280
  17   23923.1    418.0   0.015731965   0.21649  -0.30982  -0.02865   0.34595
  18   24035.3    416.1   0.014605976   0.20006   0.07402  -0.33567   0.28619
  19   24632.4    406.0   0.030321069   0.40524  -0.19062   0.05479   0.60490
  20   24711.4    404.7   0.077725156   1.03548  -0.04198   0.30421  -0.97014
  21   24969.6    400.5   0.069732918   0.91939   0.10057   0.89801   0.32072
  22   25151.8    397.6   0.086667460   1.13439   0.87688  -0.28139  -0.53506
  23   25712.9    388.9   0.054002713   0.69142  -0.41730  -0.42246   0.58207
  24   26066.6    383.6   0.027303822   0.34484  -0.32182   0.44926  -0.19858
  25   26166.8    382.2   0.033304110   0.41901   0.41065  -0.38799   0.31597
  26   26313.4    380.0   0.036405563   0.45548   0.55073  -0.21600  -0.32483
  27   26394.4    378.9   0.014577023   0.18182  -0.34621   0.21091   0.13218
  28   26892.7    371.8   0.013710255   0.16784   0.31597  -0.01438  -0.26037
  29   27453.0    364.3   0.084641555   1.01501   0.30637   0.70557  -0.65063
  30   27931.5    358.0   0.132944781   1.56694   1.24788  -0.09574   0.02410
  31   28382.3    352.3   0.038881122   0.45099  -0.64552  -0.09227  -0.16056
  32   28552.3    350.2   0.221797155   2.55735  -0.56289  -0.87795   1.21232
  33   28901.7    346.0   0.016988049   0.19351   0.34223  -0.12657  -0.24569
  34   29090.4    343.8   0.093642795   1.05974  -0.67177  -0.12337   0.77023
  35   29263.9    341.7   0.307880922   3.46358   1.66701  -0.66988   0.48571
  36   29962.0    333.8   0.361895984   3.97639   1.02105  -0.87294   1.47371
  37   30489.9    328.0   0.081152794   0.87624  -0.15850  -0.07829   0.91923
  38   30588.2    326.9   0.039096633   0.42079   0.21593  -0.15347  -0.59212
  39   30746.8    325.2   0.002980020   0.03191   0.08814   0.11638   0.10293
  40   30859.2    324.1   0.025758650   0.27480  -0.33293   0.31386  -0.25582
  41   31084.0    321.7   0.158939595   1.68334  -1.25750   0.29426   0.12431
  42   31374.0    318.7   0.476865190   5.00381  -0.41007  -0.30152   2.17824
  43   31464.8    317.8   0.004481490   0.04689   0.20717  -0.02688   0.05700
  44   31585.7    316.6   0.006085858   0.06343   0.24182  -0.06889  -0.01450
  45   31639.1    316.1   0.248608208   2.58683  -1.54808   0.33026   0.28494
  46   31675.9    315.7   0.037889677   0.39379   0.52245  -0.27278   0.21547
  47   31878.9    313.7   0.092107310   0.95119   0.13417  -0.31030   0.91482
  48   31999.0    312.5   0.058486779   0.60172   0.04683  -0.33667  -0.69727
  49   32293.1    309.7   0.016281014   0.16598   0.05203   0.25792   0.31104
  50   32579.6    306.9   0.015491197   0.15654  -0.26025   0.27030   0.12547
  51   32910.0    303.9   0.022389979   0.22398   0.26772   0.38264   0.07677
  52   32953.0    303.5   0.080046712   0.79969  -0.67964  -0.43857  -0.38136
  53   33014.7    302.9   0.036331299   0.36228  -0.19846  -0.56329  -0.07488
  54   33197.2    301.2   0.009421719   0.09343   0.14712  -0.05868   0.26143
  55   33326.3    300.1   0.050100060   0.49491   0.15472   0.40202  -0.55620
  56   33731.5    296.5   0.008589151   0.08383   0.26612  -0.11260  -0.01810
  57   33905.8    294.9   0.092504548   0.89818  -0.63777   0.16447   0.68145
  58   33971.9    294.4   0.015181459   0.14712  -0.13114   0.31078  -0.18258
  59   34320.8    291.4   0.005130376   0.04921  -0.12807   0.08725  -0.15873
  60   34649.6    288.6   0.009310786   0.08846  -0.29275  -0.05049   0.01465
  61   34719.4    288.0   0.009424798   0.08937  -0.17648   0.08949  -0.22408
  62   35038.2    285.4   0.002079256   0.01954  -0.00826  -0.13572   0.03238
  63   35113.5    284.8   0.022476931   0.21074  -0.19783   0.39849   0.11315
  64   35348.4    282.9   0.079544205   0.74082  -0.13508  -0.26259   0.80847
  65   35594.3    280.9   0.105991486   0.98032   0.50257  -0.15260   0.83932
  66   35672.3    280.3   0.011835515   0.10923   0.14938  -0.23387   0.17949
  67   35700.8    280.1   0.015100712   0.13925   0.01317   0.22649  -0.29627
  68   36081.5    277.2   0.003184266   0.02905   0.03298  -0.08986   0.14104
  69   36105.9    277.0   0.003489525   0.03182  -0.15065  -0.02268  -0.09278
  70   36510.1    273.9   0.063487009   0.57246  -0.51974   0.27932   0.47362
  71   36771.6    271.9   0.005544612   0.04964  -0.21171   0.06867   0.01012
  72   36956.3    270.6   0.040317606   0.35915   0.16652  -0.19534   0.54154
  73   37127.2    269.3   0.002428272   0.02153  -0.00294   0.04053   0.14100
  74   37217.0    268.7   0.028189848   0.24936  -0.44283   0.09821   0.20885
  75   37336.8    267.8   0.013854133   0.12216   0.23706  -0.23990   0.09170
  76   37674.2    265.4   0.017840775   0.15590  -0.30804   0.24662  -0.01388
  77   37911.6    263.8   0.023123665   0.20080   0.27009  -0.17895   0.30956
  78   38156.3    262.1   0.012720873   0.10976   0.11512  -0.14262   0.27597
  79   38336.3    260.8   0.022727919   0.19518   0.25175   0.36128  -0.03571
  80   38651.9    258.7   0.062816482   0.53503   0.39229   0.24637  -0.56608
  81   38837.6    257.5   0.085700081   0.72645   0.84224  -0.12923   0.01936
  82   38919.0    256.9   0.004192568   0.03546  -0.10024   0.14525  -0.06571
  83   39204.6    255.1   0.007453003   0.06258  -0.16297  -0.12358   0.14406
  84   39400.6    253.8   0.027535304   0.23007   0.43779  -0.17609   0.08607
  85   39450.4    253.5   0.034412392   0.28717   0.53476   0.01737   0.02994
  86   39497.8    253.2   0.010209656   0.08510  -0.12645   0.17029  -0.20027
  87   39676.8    252.0   0.054911540   0.45562  -0.37318   0.52741  -0.19543
  88   39798.0    251.3   0.063678341   0.52675  -0.19089  -0.37435   0.59176
  89   40021.2    249.9   0.003993388   0.03285   0.07498  -0.09669   0.13371
  90   40316.2    248.0   0.097186669   0.79360   0.09173   0.58848  -0.66248

FINAL SINGLE POINT ENERGY     -3911.540040229648

DIPOLE MOMENT
-------------
                                X             Y             Z
Electronic contribution:     -6.78069      26.63754     -25.18347
Nuclear contribution   :      5.24697     -25.55012      25.98952
                        -----------------------------------------
Total Dipole Moment    :     -1.53372       1.08742       0.80606
                        -----------------------------------------
Magnitude (a.u.)       :      2.04560
Magnitude (Debye)      :      5.19950

Rotational constants in cm-1:     0.001392     0.000279     0.000261
Rotational constants in MHz :    41.734164     8.361735     7.833981

                             ****ORCA TERMINATED NORMALLY****
TOTAL RUN TIME: 0 days 0 hours 17 minutes 46 seconds 763 msec
