                         Program Version 4.2.0 -  RELEASE  -
|  1> # ORCA input file
|  2> # SCF done       -192.854341925650          0.000696248569
|  3> ! CAM-B3LYP def2-SVP def2/J RIJCOSX Grid4 TightSCF
|  4> %maxcore 5000
|  5> %tddft
|  6>     Mode sTDDFT
|  7>     Ethresh 5.0
|  8>     maxcore 5000
|  9> end
| 10>
| 11> %pal
| 12>   nprocs 6
| 13>   end
| 14> * xyz 0 1
| 15>    C        2.15736         0.10479        -2.08533
| 16>    C        1.26140         1.09593        -2.41665
| 17>    C        1.09532         1.82098        -3.64421
| 18>    O        0.27234         2.67494        -3.86396
| 19>    C        2.10730         1.42118        -4.76012
| 20>    F        3.37982         1.60955        -4.36783
| 21>    F        1.99966         0.12092        -5.08592
| 22>    F        1.92697         2.12459        -5.87128
| 23>    S        0.20333         1.46539        -1.07885
| 24>    C        0.96793         0.30532        -0.11298
| 25>    C        1.99740        -0.35718        -0.76210
| 26>    C        2.81058        -1.38792        -0.17721
| 27>    S        4.05555        -2.13689        -1.14217
| 28>    C        4.56554        -3.20185         0.15762
| 29>    C        3.78630        -2.95018         1.26959
| 30>    C        2.80304        -1.94145         1.08717
| 31>    C        2.03739        -1.76100         2.32418
| 32>    O        1.12342        -0.99890         2.53814
| 33>    C        2.61559        -2.73844         3.33087
| 34>    C        3.75946        -3.47119         2.63700
| 35>    O        4.48421        -4.28815         3.14234
| 36>    C        5.60522        -4.14660        -0.00245
| 37>    C        6.35631        -4.21828        -1.13318
| 38>    C        7.39218        -5.15722        -1.34409
| 39>    N        8.19453        -5.16481        -2.46592
| 40>    C        8.09974        -4.28157        -3.60241
| 41>    C        6.97305        -4.68948        -4.54900
| 42>    C        9.14756        -6.19419        -2.42488
| 43>    O        9.96434        -6.38737        -3.30608
| 44>    C        8.89776        -6.86306        -1.16866
| 45>    C        7.81729        -6.20490        -0.53190
| 46>    C        7.54714        -6.89261         0.71456
| 47>    O        6.71449        -6.71285         1.57681
| 48>    N        8.49750        -7.92884         0.74936
| 49>    C        8.59519        -8.81715         1.88303
| 50>    C        9.73200        -8.41523         2.81888
| 51>    C        9.30966        -7.92342        -0.35803
| 52>    C       10.33928        -8.87458        -0.56444
| 53>    C       11.14931        -8.82921        -1.65198
| 54>    C       12.22320        -9.70097        -1.98353
| 55>    S       13.07452        -9.21111        -3.43161
| 56>    C       12.78975       -10.85420        -1.43841
| 57>    C       12.37880       -11.58800        -0.22614
| 58>    O       11.41601       -11.31551         0.47500
| 59>    C       13.24518       -12.71530         0.08548
| 60>    C       13.17131       -13.57115         1.16354
| 61>    N       14.17311       -14.47690         1.06850
| 62>    C       14.38516       -15.57525         1.97734
| 63>    C       13.56013       -16.79333         1.56678
| 64>    C       14.89094       -14.24180        -0.05452
| 65>    C       14.35302       -13.14790        -0.69738
| 66>    C       14.73936       -12.48920        -1.92679
| 67>    O       15.64103       -12.85067        -2.66552
| 68>    C       13.90198       -11.30953        -2.21136
| 69>    C       14.17283       -10.52038        -3.30429
| 70>    C       15.26520       -10.71003        -4.24523
| 71>    C       16.56326       -10.27162        -3.98365
| 72>    C       16.95742        -9.59240        -2.78825
| 73>    O       16.22311        -9.27167        -1.88021
| 74>    C       18.46961        -9.23989        -2.69734
| 75>    F       18.84484        -8.41990        -3.69594
| 76>    F       18.76450        -8.62703        -1.55460
| 77>    F       19.25212       -10.32752        -2.77935
| 78>    S       17.63552       -10.68454        -5.28204
| 79>    C       16.35772       -11.39838        -6.15036
| 80>    C       15.16104       -11.34089        -5.49446
| 81>    H        2.90365        -0.28466        -2.75413
| 82>    H        0.64860         0.13844         0.90013
| 83>    H        1.85098        -3.44290         3.66564
| 84>    H        2.96723        -2.21679         4.22349
| 85>    H        5.77681        -4.81815         0.83025
| 86>    H        6.16162        -3.50736        -1.92659
| 87>    H        9.05862        -4.35751        -4.12306
| 88>    H        7.96705        -3.25214        -3.25785
| 89>    H        7.14940        -5.69558        -4.92137
| 90>    H        6.93745        -4.00725        -5.39373
| 91>    H        6.00988        -4.67181        -4.04368
| 92>    H        8.73129        -9.84371         1.53406
| 93>    H        7.63962        -8.73967         2.40923
| 94>    H       10.69145        -8.47848         2.31118
| 95>    H        9.74936        -9.07907         3.67847
| 96>    H        9.58546        -7.39595         3.16837
| 97>    H       10.46754        -9.65359         0.16975
| 98>    H       10.99633        -8.03254        -2.37182
| 99>    H       12.47686       -13.57306         1.98014
|100>    H       14.10229       -15.25422         2.98313
|101>    H       15.44872       -15.82605         1.97640
|102>    H       12.50026       -16.55105         1.56920
|103>    H       13.73303       -17.61037         2.26122
|104>    H       13.83790       -17.11945         0.56746
|105>    H       15.73534       -14.84247        -0.32874
|106>    H       16.54983       -11.83371        -7.11185
|107>    H       14.24322       -11.74689        -5.87871
|108> *
|109>
|110>                          ****END OF INPUT****

CARTESIAN COORDINATES (ANGSTROEM)
---------------------------------
  C      2.157360    0.104790   -2.085330
  C      1.261400    1.095930   -2.416650
  C      1.095320    1.820980   -3.644210
  O      0.272340    2.674940   -3.863960
  C      2.107300    1.421180   -4.760120
  F      3.379820    1.609550   -4.367830
  F      1.999660    0.120920   -5.085920
  F      1.926970    2.124590   -5.871280
  S      0.203330    1.465390   -1.078850
  C      0.967930    0.305320   -0.112980
  C      1.997400   -0.357180   -0.762100
  C      2.810580   -1.387920   -0.177210
  S      4.055550   -2.136890   -1.142170
  C      4.565540   -3.201850    0.157620
  C      3.786300   -2.950180    1.269590
  C      2.803040   -1.941450    1.087170
  C      2.037390   -1.761000    2.324180
  O      1.123420   -0.998900    2.538140
  C      2.615590   -2.738440    3.330870
  C      3.759460   -3.471190    2.637000
  O      4.484210   -4.288150    3.142340
  C      5.605220   -4.146600   -0.002450
  C      6.356310   -4.218280   -1.133180
  C      7.392180   -5.157220   -1.344090
  N      8.194530   -5.164810   -2.465920
  C      8.099740   -4.281570   -3.602410
  C      6.973050   -4.689480   -4.549000
  C      9.147560   -6.194190   -2.424880
  O      9.964340   -6.387370   -3.306080
  C      8.897760   -6.863060   -1.168660
  C      7.817290   -6.204900   -0.531900
  C      7.547140   -6.892610    0.714560
  O      6.714490   -6.712850    1.576810
  N      8.497500   -7.928840    0.749360
  C      8.595190   -8.817150    1.883030
  C      9.732000   -8.415230    2.818880
  C      9.309660   -7.923420   -0.358030
  C     10.339280   -8.874580   -0.564440
  C     11.149310   -8.829210   -1.651980
  C     12.223200   -9.700970   -1.983530
  S     13.074520   -9.211110   -3.431610
  C     12.789750  -10.854200   -1.438410
  C     12.378800  -11.588000   -0.226140
  O     11.416010  -11.315510    0.475000
  C     13.245180  -12.715300    0.085480
  C     13.171310  -13.571150    1.163540
  N     14.173110  -14.476900    1.068500
  C     14.385160  -15.575250    1.977340
  C     13.560130  -16.793330    1.566780
  C     14.890940  -14.241800   -0.054520
  C     14.353020  -13.147900   -0.697380
  C     14.739360  -12.489200   -1.926790
  O     15.641030  -12.850670   -2.665520
  C     13.901980  -11.309530   -2.211360
  C     14.172830  -10.520380   -3.304290
  C     15.265200  -10.710030   -4.245230
  C     16.563260  -10.271620   -3.983650
  C     16.957420   -9.592400   -2.788250
  O     16.223110   -9.271670   -1.880210
  C     18.469610   -9.239890   -2.697340
  F     18.844840   -8.419900   -3.695940
  F     18.764500   -8.627030   -1.554600
  F     19.252120  -10.327520   -2.779350
  S     17.635520  -10.684540   -5.282040
  C     16.357720  -11.398380   -6.150360
  C     15.161040  -11.340890   -5.494460
  H      2.903650   -0.284660   -2.754130
  H      0.648600    0.138440    0.900130
  H      1.850980   -3.442900    3.665640
  H      2.967230   -2.216790    4.223490
  H      5.776810   -4.818150    0.830250
  H      6.161620   -3.507360   -1.926590
  H      9.058620   -4.357510   -4.123060
  H      7.967050   -3.252140   -3.257850
  H      7.149400   -5.695580   -4.921370
  H      6.937450   -4.007250   -5.393730
  H      6.009880   -4.671810   -4.043680
  H      8.731290   -9.843710    1.534060
  H      7.639620   -8.739670    2.409230
  H     10.691450   -8.478480    2.311180
  H      9.749360   -9.079070    3.678470
  H      9.585460   -7.395950    3.168370
  H     10.467540   -9.653590    0.169750
  H     10.996330   -8.032540   -2.371820
  H     12.476860  -13.573060    1.980140
  H     14.102290  -15.254220    2.983130
  H     15.448720  -15.826050    1.976400
  H     12.500260  -16.551050    1.569200
  H     13.733030  -17.610370    2.261220
  H     13.837900  -17.119450    0.567460
  H     15.735340  -14.842470   -0.328740
  H     16.549830  -11.833710   -7.111850
  H     14.243220  -11.746890   -5.878710

 Total Charge           Charge          ....    0
 Multiplicity           Mult            ....    1
 Number of Electrons    NEL             ....  500
 Basis Dimension        Dim             .... 1075

ORBITAL ENERGIES
----------------

  NO   OCC          E(Eh)            E(eV)
   0   2.0000     -88.981796     -2421.3178
   1   2.0000     -88.981286     -2421.3039
   2   2.0000     -88.973948     -2421.1042
   3   2.0000     -88.969248     -2420.9763
   4   2.0000     -24.809526      -675.1015
   5   2.0000     -24.809361      -675.0970
   6   2.0000     -24.805626      -674.9954
   7   2.0000     -24.801091      -674.8720
   8   2.0000     -24.800617      -674.8591
   9   2.0000     -24.795995      -674.7333
  10   2.0000     -19.236568      -523.4536
  11   2.0000     -19.224761      -523.1323
  12   2.0000     -19.221735      -523.0500
  13   2.0000     -19.209475      -522.7164
  14   2.0000     -19.203037      -522.5412
  15   2.0000     -19.196749      -522.3701
  16   2.0000     -19.186098      -522.0803
  17   2.0000     -19.182578      -521.9845
  18   2.0000     -14.487756      -394.2319
  19   2.0000     -14.447113      -393.1259
  20   2.0000     -14.445600      -393.0848
  21   2.0000     -10.520162      -286.2682
  22   2.0000     -10.510456      -286.0041
  23   2.0000     -10.391751      -282.7739
  24   2.0000     -10.380884      -282.4782
  25   2.0000     -10.375144      -282.3220
  26   2.0000     -10.367546      -282.1153
  27   2.0000     -10.366073      -282.0752
  28   2.0000     -10.363987      -282.0184
  29   2.0000     -10.363092      -281.9941
  30   2.0000     -10.355904      -281.7985
  31   2.0000     -10.339682      -281.3570
  32   2.0000     -10.333905      -281.1998
  33   2.0000     -10.331643      -281.1383
  34   2.0000     -10.330833      -281.1163
  35   2.0000     -10.328059      -281.0408
  36   2.0000     -10.319391      -280.8049
  37   2.0000     -10.319058      -280.7959
  38   2.0000     -10.318152      -280.7712
  39   2.0000     -10.317196      -280.7452
  40   2.0000     -10.313661      -280.6490
  41   2.0000     -10.312079      -280.6059
  42   2.0000     -10.311218      -280.5825
  43   2.0000     -10.310678      -280.5678
  44   2.0000     -10.310160      -280.5537
  45   2.0000     -10.309612      -280.5388
  46   2.0000     -10.306643      -280.4580
  47   2.0000     -10.305120      -280.4166
  48   2.0000     -10.296626      -280.1854
  49   2.0000     -10.294877      -280.1379
  50   2.0000     -10.293623      -280.1037
  51   2.0000     -10.292511      -280.0735
  52   2.0000     -10.290510      -280.0190
  53   2.0000     -10.290278      -280.0127
  54   2.0000     -10.287718      -279.9430
  55   2.0000     -10.286513      -279.9102
  56   2.0000     -10.282763      -279.8082
  57   2.0000     -10.282412      -279.7987
  58   2.0000     -10.281171      -279.7649
  59   2.0000     -10.273154      -279.5467
  60   2.0000     -10.268460      -279.4190
  61   2.0000     -10.267549      -279.3942
  62   2.0000     -10.261825      -279.2385
  63   2.0000     -10.257629      -279.1243
  64   2.0000     -10.253521      -279.0125
  65   2.0000     -10.251841      -278.9668
  66   2.0000      -8.076858      -219.7825
  67   2.0000      -8.076843      -219.7821
  68   2.0000      -8.069567      -219.5841
  69   2.0000      -8.064949      -219.4584
  70   2.0000      -6.045963      -164.5190
  71   2.0000      -6.045931      -164.5181
  72   2.0000      -6.041912      -164.4088
  73   2.0000      -6.041413      -164.3952
  74   2.0000      -6.039684      -164.3482
  75   2.0000      -6.039243      -164.3361
  76   2.0000      -6.038736      -164.3223
  77   2.0000      -6.034271      -164.2009
  78   2.0000      -6.034010      -164.1938
  79   2.0000      -6.032156      -164.1433
  80   2.0000      -6.029701      -164.0765
  81   2.0000      -6.027543      -164.0178
  82   2.0000      -1.398275       -38.0490
  83   2.0000      -1.389446       -37.8088
  84   2.0000      -1.301146       -35.4060
  85   2.0000      -1.300138       -35.3785
  86   2.0000      -1.292230       -35.1634
  87   2.0000      -1.291328       -35.1388
  88   2.0000      -1.154341       -31.4112
  89   2.0000      -1.141104       -31.0510
  90   2.0000      -1.138388       -30.9771
  91   2.0000      -1.127350       -30.6767
  92   2.0000      -1.126281       -30.6477
  93   2.0000      -1.120605       -30.4932
  94   2.0000      -1.120413       -30.4880
  95   2.0000      -1.113585       -30.3022
  96   2.0000      -1.106875       -30.1196
  97   2.0000      -1.057195       -28.7677
  98   2.0000      -1.048854       -28.5408
  99   2.0000      -1.018411       -27.7124
 100   2.0000      -1.005769       -27.3684
 101   2.0000      -1.000726       -27.2311
 102   2.0000      -0.989574       -26.9277
 103   2.0000      -0.937064       -25.4988
 104   2.0000      -0.929044       -25.2806
 105   2.0000      -0.922083       -25.0912
 106   2.0000      -0.914607       -24.8877
 107   2.0000      -0.904998       -24.6263
 108   2.0000      -0.884664       -24.0729
 109   2.0000      -0.881114       -23.9763
 110   2.0000      -0.873143       -23.7594
 111   2.0000      -0.868563       -23.6348
 112   2.0000      -0.864917       -23.5356
 113   2.0000      -0.861249       -23.4358
 114   2.0000      -0.840221       -22.8636
 115   2.0000      -0.836326       -22.7576
 116   2.0000      -0.834827       -22.7168
 117   2.0000      -0.824221       -22.4282
 118   2.0000      -0.823119       -22.3982
 119   2.0000      -0.813705       -22.1420
 120   2.0000      -0.810540       -22.0559
 121   2.0000      -0.803984       -21.8775
 122   2.0000      -0.787285       -21.4231
 123   2.0000      -0.775693       -21.1077
 124   2.0000      -0.765076       -20.8188
 125   2.0000      -0.754028       -20.5181
 126   2.0000      -0.747715       -20.3463
 127   2.0000      -0.741367       -20.1736
 128   2.0000      -0.729336       -19.8462
 129   2.0000      -0.722618       -19.6634
 130   2.0000      -0.719513       -19.5789
 131   2.0000      -0.705775       -19.2051
 132   2.0000      -0.702033       -19.1033
 133   2.0000      -0.700779       -19.0692
 134   2.0000      -0.692193       -18.8355
 135   2.0000      -0.690806       -18.7978
 136   2.0000      -0.689267       -18.7559
 137   2.0000      -0.682068       -18.5600
 138   2.0000      -0.681193       -18.5362
 139   2.0000      -0.679015       -18.4769
 140   2.0000      -0.675397       -18.3785
 141   2.0000      -0.672221       -18.2921
 142   2.0000      -0.671508       -18.2727
 143   2.0000      -0.651537       -17.7292
 144   2.0000      -0.650277       -17.6949
 145   2.0000      -0.643975       -17.5234
 146   2.0000      -0.635047       -17.2805
 147   2.0000      -0.633333       -17.2339
 148   2.0000      -0.626856       -17.0576
 149   2.0000      -0.620465       -16.8837
 150   2.0000      -0.614731       -16.7277
 151   2.0000      -0.598960       -16.2985
 152   2.0000      -0.594865       -16.1871
 153   2.0000      -0.588322       -16.0091
 154   2.0000      -0.582874       -15.8608
 155   2.0000      -0.579078       -15.7575
 156   2.0000      -0.573673       -15.6104
 157   2.0000      -0.567071       -15.4308
 158   2.0000      -0.564919       -15.3722
 159   2.0000      -0.564496       -15.3607
 160   2.0000      -0.562789       -15.3143
 161   2.0000      -0.561977       -15.2922
 162   2.0000      -0.558866       -15.2075
 163   2.0000      -0.558519       -15.1981
 164   2.0000      -0.558003       -15.1840
 165   2.0000      -0.551194       -14.9987
 166   2.0000      -0.550109       -14.9692
 167   2.0000      -0.548816       -14.9340
 168   2.0000      -0.545850       -14.8533
 169   2.0000      -0.542324       -14.7574
 170   2.0000      -0.537248       -14.6193
 171   2.0000      -0.533043       -14.5048
 172   2.0000      -0.531781       -14.4705
 173   2.0000      -0.529531       -14.4093
 174   2.0000      -0.527503       -14.3541
 175   2.0000      -0.525190       -14.2911
 176   2.0000      -0.522970       -14.2307
 177   2.0000      -0.522279       -14.2119
 178   2.0000      -0.521137       -14.1809
 179   2.0000      -0.520234       -14.1563
 180   2.0000      -0.518453       -14.1078
 181   2.0000      -0.516096       -14.0437
 182   2.0000      -0.514071       -13.9886
 183   2.0000      -0.513094       -13.9620
 184   2.0000      -0.511686       -13.9237
 185   2.0000      -0.510532       -13.8923
 186   2.0000      -0.509868       -13.8742
 187   2.0000      -0.508820       -13.8457
 188   2.0000      -0.507269       -13.8035
 189   2.0000      -0.505658       -13.7596
 190   2.0000      -0.503679       -13.7058
 191   2.0000      -0.502611       -13.6767
 192   2.0000      -0.499907       -13.6032
 193   2.0000      -0.496743       -13.5171
 194   2.0000      -0.494525       -13.4567
 195   2.0000      -0.493361       -13.4250
 196   2.0000      -0.492283       -13.3957
 197   2.0000      -0.491174       -13.3655
 198   2.0000      -0.484504       -13.1840
 199   2.0000      -0.481484       -13.1019
 200   2.0000      -0.479825       -13.0567
 201   2.0000      -0.479463       -13.0469
 202   2.0000      -0.476191       -12.9578
 203   2.0000      -0.475181       -12.9303
 204   2.0000      -0.474860       -12.9216
 205   2.0000      -0.471964       -12.8428
 206   2.0000      -0.470060       -12.7910
 207   2.0000      -0.467918       -12.7327
 208   2.0000      -0.464412       -12.6373
 209   2.0000      -0.463601       -12.6152
 210   2.0000      -0.461688       -12.5632
 211   2.0000      -0.459796       -12.5117
 212   2.0000      -0.455280       -12.3888
 213   2.0000      -0.453059       -12.3283
 214   2.0000      -0.451568       -12.2878
 215   2.0000      -0.449944       -12.2436
 216   2.0000      -0.446658       -12.1542
 217   2.0000      -0.443710       -12.0739
 218   2.0000      -0.441964       -12.0264
 219   2.0000      -0.437578       -11.9071
 220   2.0000      -0.434626       -11.8268
 221   2.0000      -0.433763       -11.8033
 222   2.0000      -0.431516       -11.7422
 223   2.0000      -0.429846       -11.6967
 224   2.0000      -0.426905       -11.6167
 225   2.0000      -0.426340       -11.6013
 226   2.0000      -0.420705       -11.4480
 227   2.0000      -0.412709       -11.2304
 228   2.0000      -0.392216       -10.6728
 229   2.0000      -0.372320       -10.1313
 230   2.0000      -0.361264        -9.8305
 231   2.0000      -0.351678        -9.5696
 232   2.0000      -0.348825        -9.4920
 233   2.0000      -0.347483        -9.4555
 234   2.0000      -0.346901        -9.4396
 235   2.0000      -0.341653        -9.2968
 236   2.0000      -0.341534        -9.2936
 237   2.0000      -0.337304        -9.1785
 238   2.0000      -0.336694        -9.1619
 239   2.0000      -0.331688        -9.0257
 240   2.0000      -0.325673        -8.8620
 241   2.0000      -0.324663        -8.8345
 242   2.0000      -0.321949        -8.7607
 243   2.0000      -0.321620        -8.7517
 244   2.0000      -0.309171        -8.4130
 245   2.0000      -0.307368        -8.3639
 246   2.0000      -0.302907        -8.2425
 247   2.0000      -0.292600        -7.9621
 248   2.0000      -0.286725        -7.8022
 249   2.0000      -0.228335        -6.2133
 250   0.0000      -0.092420        -2.5149
 251   0.0000      -0.057161        -1.5554
 252   0.0000      -0.054710        -1.4887
 253   0.0000      -0.049941        -1.3590
 254   0.0000      -0.039075        -1.0633

MULLIKEN ATOMIC CHARGES
-----------------------
   0 C :    0.042358
   1 C :   -0.228524
   2 C :    0.068455
   3 O :   -0.134794
   4 C :    0.462311
   5 F :   -0.169696
   6 F :   -0.169812
   7 F :   -0.130525
   8 S :    0.215900
   9 C :   -0.093963
  10 C :    0.073386
  11 C :   -0.088129
  12 S :    0.121364
  13 C :   -0.111527
  14 C :    0.028133
  15 C :    0.017042
  16 C :    0.036504
  17 O :   -0.165239
  18 C :    0.056333
  19 C :    0.019562
  20 O :   -0.123869
  21 C :    0.006976
  22 C :   -0.031017
  23 C :    0.135237
  24 N :   -0.256504
  25 C :    0.101099
  26 C :    0.003863
  27 C :    0.161060
  28 O :   -0.219834
  29 C :   -0.069267
  30 C :   -0.058920
  31 C :    0.153071
  32 O :   -0.184528
  33 N :   -0.256257
  34 C :    0.099817
  35 C :    0.007184
  36 C :    0.130669
  37 C :   -0.026553
  38 C :    0.058294
  39 C :   -0.145413
  40 S :    0.213318
  41 C :    0.014876
  42 C :    0.137081
  43 O :   -0.180251
  44 C :    0.000652
  45 C :    0.004277
  46 N :   -0.132835
  47 C :    0.091414
  48 C :    0.001464
  49 C :    0.010323
  50 C :   -0.022339
  51 C :    0.130028
  52 O :   -0.166832
  53 C :    0.068089
  54 C :   -0.207262
  55 C :    0.087328
  56 C :   -0.149201
  57 C :    0.009958
  58 O :   -0.151824
  59 C :    0.472249
  60 F :   -0.169620
  61 F :   -0.136431
  62 F :   -0.163698
  63 S :    0.186692
  64 C :   -0.042176
  65 C :    0.045985
  66 H :    0.021492
  67 H :    0.057549
  68 H :    0.069669
  69 H :    0.066700
  70 H :    0.041357
  71 H :   -0.019606
  72 H :    0.042345
  73 H :    0.021671
  74 H :    0.029200
  75 H :    0.023420
  76 H :    0.012915
  77 H :    0.037157
  78 H :    0.039686
  79 H :    0.021785
  80 H :    0.019835
  81 H :    0.024220
  82 H :   -0.003055
  83 H :    0.004142
  84 H :    0.005849
  85 H :    0.033534
  86 H :    0.034102
  87 H :    0.031242
  88 H :    0.031426
  89 H :    0.029190
  90 H :    0.005560
  91 H :    0.039922
  92 H :   -0.006816
Sum of atomic charges:   -0.0000000

LOEWDIN ATOMIC CHARGES
----------------------
   0 C :   -0.012390
   1 C :   -0.232850
   2 C :    0.011072
   3 O :   -0.110522
   4 C :    0.140744
   5 F :   -0.062898
   6 F :   -0.062869
   7 F :   -0.031483
   8 S :    0.519984
   9 C :   -0.133801
  10 C :   -0.096258
  11 C :   -0.119075
  12 S :    0.462288
  13 C :   -0.132258
  14 C :   -0.087173
  15 C :   -0.102539
  16 C :    0.087464
  17 O :   -0.139756
  18 C :   -0.068108
  19 C :    0.072279
  20 O :   -0.118523
  21 C :    0.002635
  22 C :   -0.041119
  23 C :    0.060924
  24 N :   -0.001363
  25 C :    0.035886
  26 C :   -0.061432
  27 C :    0.076552
  28 O :   -0.211506
  29 C :   -0.126031
  30 C :   -0.108115
  31 C :    0.079420
  32 O :   -0.180170
  33 N :    0.002921
  34 C :    0.037387
  35 C :   -0.059369
  36 C :    0.083090
  37 C :   -0.032912
  38 C :   -0.005024
  39 C :   -0.125871
  40 S :    0.511666
  41 C :   -0.079686
  42 C :    0.089281
  43 O :   -0.166758
  44 C :   -0.099066
  45 C :    0.029761
  46 N :    0.090078
  47 C :    0.044441
  48 C :   -0.057337
  49 C :    0.030476
  50 C :   -0.101961
  51 C :    0.078684
  52 O :   -0.164986
  53 C :   -0.079333
  54 C :   -0.137589
  55 C :   -0.019306
  56 C :   -0.231950
  57 C :    0.018125
  58 O :   -0.116312
  59 C :    0.129920
  60 F :   -0.066052
  61 F :   -0.036879
  62 F :   -0.061499
  63 S :    0.494743
  64 C :   -0.151692
  65 C :   -0.047673
  66 H :    0.027148
  67 H :    0.028914
  68 H :    0.064052
  69 H :    0.062563
  70 H :    0.049666
  71 H :    0.019964
  72 H :    0.037681
  73 H :    0.021985
  74 H :    0.032453
  75 H :    0.030329
  76 H :    0.020563
  77 H :    0.029059
  78 H :    0.036194
  79 H :    0.024929
  80 H :    0.029900
  81 H :    0.029762
  82 H :    0.027651
  83 H :    0.031987
  84 H :    0.028687
  85 H :    0.033686
  86 H :    0.034072
  87 H :    0.030578
  88 H :    0.033298
  89 H :    0.030373
  90 H :    0.029479
  91 H :    0.030740
  92 H :    0.035958

  Mayer bond orders larger than 0.100000
B(  0-C ,  1-C ) :   1.5198 B(  0-C , 10-C ) :   1.2380 B(  0-C , 66-H ) :   0.9617
B(  1-C ,  2-C ) :   1.0023 B(  1-C ,  8-S ) :   1.1254 B(  2-C ,  3-O ) :   2.2303
B(  2-C ,  4-C ) :   0.8762 B(  4-C ,  5-F ) :   1.1239 B(  4-C ,  6-F ) :   1.1226
B(  4-C ,  7-F ) :   1.1985 B(  8-S ,  9-C ) :   1.2356 B(  9-C , 10-C ) :   1.5022
B(  9-C , 67-H ) :   0.9248 B( 10-C , 11-C ) :   1.1052 B( 11-C , 12-S ) :   1.1571
B( 11-C , 15-C ) :   1.5016 B( 12-S , 13-C ) :   1.0927 B( 13-C , 14-C ) :   1.4763
B( 13-C , 21-C ) :   1.1854 B( 14-C , 15-C ) :   1.1835 B( 14-C , 19-C ) :   0.9413
B( 15-C , 16-C ) :   0.9438 B( 16-C , 17-O ) :   2.1403 B( 16-C , 18-C ) :   1.0064
B( 17-O , 67-H ) :   0.1027 B( 18-C , 19-C ) :   0.9897 B( 18-C , 68-H ) :   0.8955
B( 18-C , 69-H ) :   0.8964 B( 19-C , 20-O ) :   2.2453 B( 21-C , 22-C ) :   1.5618
B( 21-C , 70-H ) :   0.9536 B( 22-C , 23-C ) :   1.1627 B( 22-C , 71-H ) :   0.9544
B( 23-C , 24-N ) :   1.1468 B( 23-C , 30-C ) :   1.3613 B( 24-N , 25-C ) :   0.9489
B( 24-N , 27-C ) :   1.0696 B( 25-C , 26-C ) :   1.1194 B( 25-C , 72-H ) :   0.9274
B( 25-C , 73-H ) :   0.9497 B( 26-C , 74-H ) :   0.9638 B( 26-C , 75-H ) :   0.9680
B( 26-C , 76-H ) :   0.9687 B( 27-C , 28-O ) :   2.0105 B( 27-C , 29-C ) :   0.9936
B( 28-O , 83-H ) :   0.1198 B( 29-C , 30-C ) :   1.2593 B( 29-C , 36-C ) :   1.3074
B( 30-C , 31-C ) :   0.9692 B( 31-C , 32-O ) :   2.0731 B( 31-C , 33-N ) :   1.0531
B( 33-N , 34-C ) :   0.9407 B( 33-N , 36-C ) :   1.1718 B( 34-C , 35-C ) :   1.1247
B( 34-C , 77-H ) :   0.9480 B( 34-C , 78-H ) :   0.9280 B( 35-C , 79-H ) :   0.9675
B( 35-C , 80-H ) :   0.9674 B( 35-C , 81-H ) :   0.9640 B( 36-C , 37-C ) :   1.1584
B( 37-C , 38-C ) :   1.6201 B( 37-C , 82-H ) :   0.9339 B( 38-C , 39-C ) :   1.1464
B( 38-C , 83-H ) :   0.9157 B( 39-C , 40-S ) :   1.1542 B( 39-C , 41-C ) :   1.4577
B( 40-S , 54-C ) :   1.1829 B( 41-C , 42-C ) :   0.9450 B( 41-C , 53-C ) :   1.1819
B( 42-C , 43-O ) :   2.1310 B( 42-C , 44-C ) :   1.0071 B( 43-O , 82-H ) :   0.1164
B( 44-C , 45-C ) :   1.4224 B( 44-C , 50-C ) :   1.2950 B( 45-C , 46-N ) :   1.2338
B( 45-C , 84-H ) :   0.9936 B( 46-N , 47-C ) :   0.9513 B( 46-N , 49-C ) :   1.2349
B( 47-C , 48-C ) :   1.1112 B( 47-C , 85-H ) :   0.9515 B( 47-C , 86-H ) :   0.9509
B( 48-C , 87-H ) :   0.9675 B( 48-C , 88-H ) :   0.9682 B( 48-C , 89-H ) :   0.9675
B( 49-C , 50-C ) :   1.4229 B( 49-C , 90-H ) :   0.9939 B( 50-C , 51-C ) :   0.9893
B( 51-C , 52-O ) :   2.2226 B( 51-C , 53-C ) :   0.9254 B( 53-C , 54-C ) :   1.5790
B( 54-C , 55-C ) :   0.9653 B( 55-C , 56-C ) :   1.4945 B( 55-C , 65-C ) :   1.3434
B( 56-C , 57-C ) :   1.0389 B( 56-C , 63-S ) :   1.1243 B( 57-C , 58-O ) :   2.1633
B( 57-C , 59-C ) :   0.8803 B( 59-C , 60-F ) :   1.1407 B( 59-C , 61-F ) :   1.1918
B( 59-C , 62-F ) :   1.1483 B( 63-S , 64-C ) :   1.2268 B( 64-C , 65-C ) :   1.5047
B( 64-C , 91-H ) :   0.9694 B( 65-C , 92-H ) :   0.9996

-----------------------------------------------------------------------------
         ABSORPTION SPECTRUM VIA TRANSITION ELECTRIC DIPOLE MOMENTS
-----------------------------------------------------------------------------
State   Energy  Wavelength   fosc         T2         TX        TY        TZ
        (cm-1)    (nm)                  (au**2)     (au)      (au)      (au)
-----------------------------------------------------------------------------
   0   13886.4    720.1   0.946755758  22.44530   3.26941  -3.42856  -0.03538
   1   21796.4    458.8   0.008074748   0.12196  -0.09453   0.28317  -0.18121
   2   25240.0    396.2   0.006086507   0.07939  -0.06978  -0.21581   0.16717
   3   26071.8    383.6   0.073604682   0.92941   0.71126  -0.64777   0.06257
   4   26393.5    378.9   0.020108042   0.25081   0.38005  -0.31379  -0.08895
   5   26950.3    371.1   0.630268254   7.69905  -2.14660   1.61007   0.70629
   6   26970.1    370.8   0.054702455   0.66773  -0.26912   0.49202  -0.59432
   7   27197.3    367.7   0.030209210   0.36567  -0.44783   0.40634   0.00282
   8   28046.8    356.5   0.014654739   0.17202   0.27141  -0.30338  -0.07946
   9   28861.4    346.5   0.001048347   0.01196  -0.08034   0.06840   0.02871
  10   29018.7    344.6   0.003796464   0.04307   0.02347  -0.09291  -0.18408
  11   29402.3    340.1   0.006937886   0.07768  -0.20023   0.19385  -0.00353
  12   30126.8    331.9   0.005041679   0.05509  -0.19087  -0.13168   0.03632
  13   31591.2    316.5   0.006998041   0.07293  -0.23176   0.02917   0.13551
  14   32096.5    311.6   0.032097536   0.32922   0.15495  -0.53321   0.14456
  15   32412.8    308.5   0.195180779   1.98242  -0.97077   0.19766   1.00048
  16   32782.0    305.0   0.066793101   0.67077  -0.65459  -0.00079   0.49221
  17   33099.1    302.1   0.031209712   0.31042   0.14487  -0.25907  -0.47150
  18   33495.3    298.5   0.000131070   0.00129  -0.02409   0.00817  -0.02532
  19   34326.9    291.3   0.007878865   0.07556   0.01158   0.25875  -0.09206
  20   34916.8    286.4   0.268907999   2.53539  -0.22733  -0.51916   1.48801
  21   35196.8    284.1   0.064008835   0.59870   0.67790   0.35734  -0.10707
  22   35270.0    283.5   0.000957268   0.00894   0.05893   0.07383   0.00341
  23   35649.0    280.5   0.051932298   0.47959  -0.31771   0.51797  -0.33219
  24   35963.7    278.1   0.048919052   0.44781   0.24600   0.43476  -0.44528
  25   37539.6    266.4   0.004768041   0.04181   0.15079   0.00681  -0.13795
  26   37610.3    265.9   0.035102851   0.30726   0.00317   0.14824  -0.53411
  27   37778.8    264.7   0.014317646   0.12477  -0.07007  -0.13701   0.31794
  28   37859.5    264.1   0.033366228   0.29014   0.09264   0.20390  -0.48988
  29   37876.3    264.0   0.013619475   0.11838   0.07210   0.24229  -0.23339
  30   38230.0    261.6   0.000956303   0.00824  -0.00211   0.04851   0.07666
  31   38362.5    260.7   0.034358008   0.29485   0.40927  -0.24226  -0.26202
  32   38983.7    256.5   0.015731412   0.13285   0.23128  -0.25870   0.11150
  33   39291.5    254.5   0.052128375   0.43677   0.22179  -0.43126   0.44898
  34   39512.6    253.1   0.025040688   0.20863  -0.32178  -0.07108   0.31629
  35   39730.9    251.7   0.008515370   0.07056   0.24690  -0.06216   0.07573
  36   39893.6    250.7   0.019836775   0.16370  -0.24868  -0.25776   0.18820
  37   40091.2    249.4   0.189870605   1.55914  -0.14661  -0.68669   1.03252
  38   40310.3    248.1   0.005114813   0.04177   0.02017  -0.19564   0.05561

FINAL SINGLE POINT ENERGY     -4684.822466360463

DIPOLE MOMENT
-------------
                                X             Y             Z
Electronic contribution:      4.34437      64.07537     -43.36114
Nuclear contribution   :     -3.35441     -67.59500      43.68454
                        -----------------------------------------
Total Dipole Moment    :      0.98997      -3.51963       0.32341
                        -----------------------------------------
Magnitude (a.u.)       :      3.67048
Magnitude (Debye)      :      9.32963

Rotational constants in cm-1:     0.001827     0.000294     0.000264
Rotational constants in MHz :    54.767970     8.805826     7.921786

                             ****ORCA TERMINATED NORMALLY****
TOTAL RUN TIME: 0 days 0 hours 10 minutes 10 seconds 378 msec
