                         Program Version 4.2.0 -  RELEASE  -
|  1> # ORCA input file
|  2> # SCF done       -215.165557891678          0.000941218978
|  3> ! CAM-B3LYP def2-SVP def2/J RIJCOSX Grid4 TightSCF
|  4> %maxcore 5000
|  5> %tddft
|  6>     Mode sTDDFT
|  7>     Ethresh 5.0
|  8>     maxcore 5000
|  9> end
| 10>
| 11> %pal
| 12>   nprocs 6
| 13>   end
| 14> * xyz 0 1
| 15>    C       -4.52016         3.78832        -4.67104
| 16>    C       -4.64542         4.38698        -3.43384
| 17>    C       -4.55238         3.61818        -2.27819
| 18>    N       -4.59533         4.31631        -1.02152
| 19>    O       -3.95750         3.86323        -0.09147
| 20>    O       -5.23744         5.34372        -0.97630
| 21>    C       -4.35527         2.23431        -2.34068
| 22>    C       -4.25530         1.65300        -3.60284
| 23>    C       -4.32100         2.41751        -4.75252
| 24>    C       -4.31710         1.37592        -1.14368
| 25>    C       -3.27085         0.46399        -0.95072
| 26>    C       -2.11530         0.38566        -1.87851
| 27>    O       -1.67020        -0.67231        -2.27717
| 28>    C       -1.52278         1.67593        -2.28023
| 29>    C       -1.48090         2.80697        -1.51428
| 30>    S       -0.70136         4.10230        -2.31258
| 31>    C       -0.41997         3.12191        -3.70574
| 32>    C       -0.88306         1.85849        -3.54566
| 33>    C       -0.84652         0.77536        -4.57714
| 34>    O       -1.73326         0.67783        -5.39772
| 35>    C        0.31076        -0.13627        -4.51601
| 36>    C        1.34831         0.04478        -3.60275
| 37>    C        2.40742        -0.84175        -3.57772
| 38>    C        2.44199        -1.91287        -4.45726
| 39>    C        1.41318        -2.09976        -5.36745
| 40>    C        0.35284        -1.21667        -5.39764
| 41>    C       -3.31930        -0.41140         0.13073
| 42>    C       -4.35414        -0.35407         1.03932
| 43>    C       -5.39970         0.55295         0.86286
| 44>    C       -5.37602         1.39219        -0.24696
| 45>    C       -6.50341         0.63631         1.82606
| 46>    C       -7.79628         0.78387         1.40663
| 47>    C       -8.83827         0.90355         2.35611
| 48>    C      -10.20088         1.07797         2.19395
| 49>    C      -10.96657         1.00514         0.91402
| 50>    C      -11.94890        -0.18192         0.97249
| 51>    N      -12.54685        -0.45059        -0.32623
| 52>    C      -11.67393         2.32602         0.56642
| 53>    N      -11.92804         2.36926        -0.86138
| 54>    C      -10.76252         1.20222         3.52053
| 55>    C      -12.00294         1.49707         3.94697
| 56>    C      -12.36752         1.43735         5.39049
| 57>    C      -11.20696         1.26813         6.32089
| 58>    C       -9.94948         1.07497         5.88244
| 59>    C       -9.67284         1.02779         4.49623
| 60>    C       -8.50620         0.87575         3.77544
| 61>    C       -7.15908         0.70775         4.17198
| 62>    C       -6.19607         0.58591         3.22406
| 63>    C      -13.26203         0.22340         5.50490
| 64>    C      -14.39643         0.16452         6.18889
| 65>    C      -15.23734        -1.03686         6.19540
| 66>    C      -15.74324        -1.58057         7.38094
| 67>    C      -15.37060        -1.00955         8.70687
| 68>    O      -16.19729        -0.68538         9.53248
| 69>    C      -13.92335        -0.91698         8.96037
| 70>    C      -12.96451        -1.63076         8.29131
| 71>    S      -11.39844        -1.38545         8.92394
| 72>    C      -12.01690        -0.32444        10.13227
| 73>    C      -13.36114        -0.15899        10.03822
| 74>    C      -14.16515         0.70843        10.94788
| 75>    O      -14.15700         0.55920        12.14699
| 76>    C      -14.93872         1.76892        10.26103
| 77>    C      -16.12212         2.22486        10.83522
| 78>    C      -16.86338         3.20661        10.20638
| 79>    C      -16.41820         3.75602         9.01457
| 80>    C      -15.22641         3.32562         8.45302
| 81>    C      -14.48956         2.33062         9.06827
| 82>    C      -16.59322        -2.67854         7.32326
| 83>    C      -16.91857        -3.25925         6.11215
| 84>    C      -16.41493        -2.73599         4.92184
| 85>    C      -15.58357        -1.62152         4.98502
| 86>    C      -16.76021        -3.31142         3.61373
| 87>    C      -15.84317        -3.27773         2.56750
| 88>    C      -16.18930        -3.78765         1.32517
| 89>    N      -15.23846        -3.71062         0.24778
| 90>    O      -14.22605        -3.06080         0.43364
| 91>    O      -15.50266        -4.28486        -0.78607
| 92>    C      -17.43660        -4.35666         1.09584
| 93>    C      -18.34621        -4.39485         2.13596
| 94>    C      -18.01578        -3.87455         3.37631
| 95>    H       -4.57178         4.38662        -5.56701
| 96>    H       -4.79217         5.45214        -3.33527
| 97>    H       -4.11666         0.58516        -3.67831
| 98>    H       -4.20366         1.93825        -5.71114
| 99>    H       -1.87115         2.94542        -0.52462
|100>    H        0.08227         3.53868        -4.55564
|101>    H        1.32371         0.87526        -2.91290
|102>    H        3.20948        -0.70134        -2.86801
|103>    H        3.27141        -2.60441        -4.43053
|104>    H        1.44035        -2.93641        -6.04979
|105>    H       -0.46243        -1.34394        -6.09403
|106>    H       -2.51713        -1.12428         0.25204
|107>    H       -4.37127        -1.03402         1.87787
|108>    H       -6.19453         2.08072        -0.40366
|109>    H       -8.03150         0.80365         0.35250
|110>    H      -10.26209         0.81380         0.09858
|111>    H      -12.76457         0.04874         1.66359
|112>    H      -11.40661        -1.05234         1.38145
|113>    H      -11.82131        -0.72110        -0.98442
|114>    H      -13.18210        -1.24003        -0.24396
|115>    H      -11.01304         3.16273         0.81922
|116>    H      -12.58854         2.42519         1.17490
|117>    H      -12.44830         3.20554        -1.10428
|118>    H      -12.48633         1.55682        -1.11275
|119>    H      -12.81324         1.71052         3.26477
|120>    H      -12.94818         2.32253         5.67822
|121>    H      -11.43795         1.29220         7.37532
|122>    H       -9.13568         0.95775         6.58361
|123>    H       -6.91059         0.68817         5.22307
|124>    H       -5.15992         0.48354         3.51055
|125>    H      -12.89339        -0.65264         4.98753
|126>    H      -14.75871         1.00984         6.75849
|127>    H      -13.10475        -2.30738         7.47163
|128>    H      -11.35016         0.13339        10.83571
|129>    H      -16.45095         1.78169        11.76228
|130>    H      -17.78909         3.54776        10.64498
|131>    H      -16.99652         4.52493         8.52369
|132>    H      -14.87259         3.77029         7.53343
|133>    H      -13.55048         2.00695         8.64091
|134>    H      -16.98394        -3.08322         8.24483
|135>    H      -17.55266        -4.13232         6.09487
|136>    H      -15.22518        -1.16483         4.07490
|137>    H      -14.85192        -2.87317         2.70327
|138>    H      -17.67251        -4.74500         0.11751
|139>    H      -19.32352        -4.82362         1.97738
|140>    H      -18.74957        -3.88609         4.16759
|141> *
|142>
|143>                          ****END OF INPUT****

CARTESIAN COORDINATES (ANGSTROEM)
---------------------------------
  C     -4.520160    3.788320   -4.671040
  C     -4.645420    4.386980   -3.433840
  C     -4.552380    3.618180   -2.278190
  N     -4.595330    4.316310   -1.021520
  O     -3.957500    3.863230   -0.091470
  O     -5.237440    5.343720   -0.976300
  C     -4.355270    2.234310   -2.340680
  C     -4.255300    1.653000   -3.602840
  C     -4.321000    2.417510   -4.752520
  C     -4.317100    1.375920   -1.143680
  C     -3.270850    0.463990   -0.950720
  C     -2.115300    0.385660   -1.878510
  O     -1.670200   -0.672310   -2.277170
  C     -1.522780    1.675930   -2.280230
  C     -1.480900    2.806970   -1.514280
  S     -0.701360    4.102300   -2.312580
  C     -0.419970    3.121910   -3.705740
  C     -0.883060    1.858490   -3.545660
  C     -0.846520    0.775360   -4.577140
  O     -1.733260    0.677830   -5.397720
  C      0.310760   -0.136270   -4.516010
  C      1.348310    0.044780   -3.602750
  C      2.407420   -0.841750   -3.577720
  C      2.441990   -1.912870   -4.457260
  C      1.413180   -2.099760   -5.367450
  C      0.352840   -1.216670   -5.397640
  C     -3.319300   -0.411400    0.130730
  C     -4.354140   -0.354070    1.039320
  C     -5.399700    0.552950    0.862860
  C     -5.376020    1.392190   -0.246960
  C     -6.503410    0.636310    1.826060
  C     -7.796280    0.783870    1.406630
  C     -8.838270    0.903550    2.356110
  C    -10.200880    1.077970    2.193950
  C    -10.966570    1.005140    0.914020
  C    -11.948900   -0.181920    0.972490
  N    -12.546850   -0.450590   -0.326230
  C    -11.673930    2.326020    0.566420
  N    -11.928040    2.369260   -0.861380
  C    -10.762520    1.202220    3.520530
  C    -12.002940    1.497070    3.946970
  C    -12.367520    1.437350    5.390490
  C    -11.206960    1.268130    6.320890
  C     -9.949480    1.074970    5.882440
  C     -9.672840    1.027790    4.496230
  C     -8.506200    0.875750    3.775440
  C     -7.159080    0.707750    4.171980
  C     -6.196070    0.585910    3.224060
  C    -13.262030    0.223400    5.504900
  C    -14.396430    0.164520    6.188890
  C    -15.237340   -1.036860    6.195400
  C    -15.743240   -1.580570    7.380940
  C    -15.370600   -1.009550    8.706870
  O    -16.197290   -0.685380    9.532480
  C    -13.923350   -0.916980    8.960370
  C    -12.964510   -1.630760    8.291310
  S    -11.398440   -1.385450    8.923940
  C    -12.016900   -0.324440   10.132270
  C    -13.361140   -0.158990   10.038220
  C    -14.165150    0.708430   10.947880
  O    -14.157000    0.559200   12.146990
  C    -14.938720    1.768920   10.261030
  C    -16.122120    2.224860   10.835220
  C    -16.863380    3.206610   10.206380
  C    -16.418200    3.756020    9.014570
  C    -15.226410    3.325620    8.453020
  C    -14.489560    2.330620    9.068270
  C    -16.593220   -2.678540    7.323260
  C    -16.918570   -3.259250    6.112150
  C    -16.414930   -2.735990    4.921840
  C    -15.583570   -1.621520    4.985020
  C    -16.760210   -3.311420    3.613730
  C    -15.843170   -3.277730    2.567500
  C    -16.189300   -3.787650    1.325170
  N    -15.238460   -3.710620    0.247780
  O    -14.226050   -3.060800    0.433640
  O    -15.502660   -4.284860   -0.786070
  C    -17.436600   -4.356660    1.095840
  C    -18.346210   -4.394850    2.135960
  C    -18.015780   -3.874550    3.376310
  H     -4.571780    4.386620   -5.567010
  H     -4.792170    5.452140   -3.335270
  H     -4.116660    0.585160   -3.678310
  H     -4.203660    1.938250   -5.711140
  H     -1.871150    2.945420   -0.524620
  H      0.082270    3.538680   -4.555640
  H      1.323710    0.875260   -2.912900
  H      3.209480   -0.701340   -2.868010
  H      3.271410   -2.604410   -4.430530
  H      1.440350   -2.936410   -6.049790
  H     -0.462430   -1.343940   -6.094030
  H     -2.517130   -1.124280    0.252040
  H     -4.371270   -1.034020    1.877870
  H     -6.194530    2.080720   -0.403660
  H     -8.031500    0.803650    0.352500
  H    -10.262090    0.813800    0.098580
  H    -12.764570    0.048740    1.663590
  H    -11.406610   -1.052340    1.381450
  H    -11.821310   -0.721100   -0.984420
  H    -13.182100   -1.240030   -0.243960
  H    -11.013040    3.162730    0.819220
  H    -12.588540    2.425190    1.174900
  H    -12.448300    3.205540   -1.104280
  H    -12.486330    1.556820   -1.112750
  H    -12.813240    1.710520    3.264770
  H    -12.948180    2.322530    5.678220
  H    -11.437950    1.292200    7.375320
  H     -9.135680    0.957750    6.583610
  H     -6.910590    0.688170    5.223070
  H     -5.159920    0.483540    3.510550
  H    -12.893390   -0.652640    4.987530
  H    -14.758710    1.009840    6.758490
  H    -13.104750   -2.307380    7.471630
  H    -11.350160    0.133390   10.835710
  H    -16.450950    1.781690   11.762280
  H    -17.789090    3.547760   10.644980
  H    -16.996520    4.524930    8.523690
  H    -14.872590    3.770290    7.533430
  H    -13.550480    2.006950    8.640910
  H    -16.983940   -3.083220    8.244830
  H    -17.552660   -4.132320    6.094870
  H    -15.225180   -1.164830    4.074900
  H    -14.851920   -2.873170    2.703270
  H    -17.672510   -4.745000    0.117510
  H    -19.323520   -4.823620    1.977380
  H    -18.749570   -3.886090    4.167590

 Total Charge           Charge          ....    0
 Multiplicity           Mult            ....    1
 Number of Electrons    NEL             ....  566
 Basis Dimension        Dim             .... 1358

ORBITAL ENERGIES
----------------

  NO   OCC          E(Eh)            E(eV)
   0   2.0000     -88.973789     -2421.0999
   1   2.0000     -88.960262     -2420.7318
   2   2.0000     -19.256353      -523.9920
   3   2.0000     -19.255514      -523.9692
   4   2.0000     -19.238338      -523.5018
   5   2.0000     -19.237346      -523.4748
   6   2.0000     -19.215174      -522.8715
   7   2.0000     -19.202985      -522.5398
   8   2.0000     -19.202819      -522.5353
   9   2.0000     -19.201195      -522.4911
  10   2.0000     -14.660396      -398.9296
  11   2.0000     -14.641913      -398.4267
  12   2.0000     -14.371163      -391.0592
  13   2.0000     -14.347432      -390.4135
  14   2.0000     -10.367511      -282.1143
  15   2.0000     -10.356337      -281.8102
  16   2.0000     -10.356066      -281.8029
  17   2.0000     -10.355714      -281.7933
  18   2.0000     -10.339024      -281.3391
  19   2.0000     -10.319550      -280.8092
  20   2.0000     -10.314324      -280.6670
  21   2.0000     -10.309053      -280.5236
  22   2.0000     -10.306378      -280.4508
  23   2.0000     -10.305989      -280.4402
  24   2.0000     -10.305900      -280.4378
  25   2.0000     -10.303498      -280.3724
  26   2.0000     -10.300775      -280.2983
  27   2.0000     -10.299856      -280.2733
  28   2.0000     -10.299228      -280.2563
  29   2.0000     -10.297536      -280.2102
  30   2.0000     -10.297419      -280.2070
  31   2.0000     -10.296697      -280.1874
  32   2.0000     -10.295701      -280.1603
  33   2.0000     -10.293400      -280.0977
  34   2.0000     -10.289857      -280.0013
  35   2.0000     -10.289392      -279.9886
  36   2.0000     -10.288861      -279.9741
  37   2.0000     -10.288069      -279.9526
  38   2.0000     -10.287989      -279.9504
  39   2.0000     -10.287295      -279.9315
  40   2.0000     -10.287210      -279.9292
  41   2.0000     -10.286926      -279.9215
  42   2.0000     -10.286434      -279.9081
  43   2.0000     -10.280724      -279.7527
  44   2.0000     -10.278829      -279.7012
  45   2.0000     -10.278577      -279.6943
  46   2.0000     -10.277671      -279.6696
  47   2.0000     -10.277644      -279.6689
  48   2.0000     -10.277121      -279.6547
  49   2.0000     -10.276441      -279.6362
  50   2.0000     -10.276053      -279.6256
  51   2.0000     -10.274936      -279.5952
  52   2.0000     -10.273936      -279.5680
  53   2.0000     -10.273418      -279.5539
  54   2.0000     -10.273390      -279.5531
  55   2.0000     -10.271816      -279.5103
  56   2.0000     -10.271657      -279.5060
  57   2.0000     -10.270361      -279.4707
  58   2.0000     -10.269990      -279.4606
  59   2.0000     -10.269522      -279.4479
  60   2.0000     -10.269326      -279.4426
  61   2.0000     -10.268819      -279.4288
  62   2.0000     -10.268788      -279.4279
  63   2.0000     -10.268635      -279.4238
  64   2.0000     -10.267973      -279.4058
  65   2.0000     -10.267966      -279.4056
  66   2.0000     -10.267369      -279.3893
  67   2.0000     -10.265421      -279.3363
  68   2.0000     -10.264860      -279.3210
  69   2.0000     -10.264116      -279.3008
  70   2.0000     -10.263757      -279.2910
  71   2.0000     -10.263698      -279.2894
  72   2.0000     -10.263226      -279.2766
  73   2.0000     -10.261389      -279.2266
  74   2.0000     -10.260647      -279.2064
  75   2.0000     -10.257402      -279.1181
  76   2.0000     -10.256946      -279.1057
  77   2.0000     -10.256805      -279.1019
  78   2.0000     -10.254630      -279.0427
  79   2.0000     -10.253306      -279.0066
  80   2.0000      -8.069618      -219.5855
  81   2.0000      -8.056251      -219.2217
  82   2.0000      -6.038779      -164.3235
  83   2.0000      -6.034299      -164.2016
  84   2.0000      -6.032283      -164.1468
  85   2.0000      -6.025461      -163.9611
  86   2.0000      -6.021019      -163.8402
  87   2.0000      -6.018790      -163.7796
  88   2.0000      -1.334763       -36.3208
  89   2.0000      -1.317832       -35.8600
  90   2.0000      -1.153394       -31.3854
  91   2.0000      -1.136321       -30.9209
  92   2.0000      -1.132148       -30.8073
  93   2.0000      -1.121936       -30.5294
  94   2.0000      -1.117938       -30.4206
  95   2.0000      -1.115963       -30.3669
  96   2.0000      -0.998621       -27.1739
  97   2.0000      -0.996291       -27.1105
  98   2.0000      -0.987164       -26.8621
  99   2.0000      -0.979672       -26.6582
 100   2.0000      -0.978193       -26.6180
 101   2.0000      -0.974790       -26.5254
 102   2.0000      -0.958553       -26.0836
 103   2.0000      -0.955903       -26.0114
 104   2.0000      -0.950668       -25.8690
 105   2.0000      -0.943262       -25.6675
 106   2.0000      -0.939648       -25.5691
 107   2.0000      -0.926913       -25.2226
 108   2.0000      -0.921647       -25.0793
 109   2.0000      -0.909684       -24.7538
 110   2.0000      -0.894534       -24.3415
 111   2.0000      -0.889670       -24.2092
 112   2.0000      -0.883991       -24.0546
 113   2.0000      -0.876754       -23.8577
 114   2.0000      -0.869897       -23.6711
 115   2.0000      -0.865455       -23.5502
 116   2.0000      -0.859036       -23.3756
 117   2.0000      -0.858419       -23.3588
 118   2.0000      -0.854319       -23.2472
 119   2.0000      -0.839213       -22.8361
 120   2.0000      -0.836403       -22.7597
 121   2.0000      -0.834289       -22.7022
 122   2.0000      -0.830941       -22.6110
 123   2.0000      -0.829107       -22.5612
 124   2.0000      -0.828371       -22.5411
 125   2.0000      -0.826080       -22.4788
 126   2.0000      -0.822571       -22.3833
 127   2.0000      -0.818560       -22.2742
 128   2.0000      -0.815595       -22.1935
 129   2.0000      -0.798592       -21.7308
 130   2.0000      -0.786818       -21.4104
 131   2.0000      -0.774609       -21.0782
 132   2.0000      -0.754160       -20.5217
 133   2.0000      -0.748540       -20.3688
 134   2.0000      -0.744604       -20.2617
 135   2.0000      -0.730563       -19.8796
 136   2.0000      -0.725064       -19.7300
 137   2.0000      -0.720748       -19.6125
 138   2.0000      -0.714762       -19.4497
 139   2.0000      -0.710753       -19.3406
 140   2.0000      -0.710246       -19.3268
 141   2.0000      -0.701796       -19.0968
 142   2.0000      -0.692951       -18.8562
 143   2.0000      -0.691756       -18.8236
 144   2.0000      -0.688870       -18.7451
 145   2.0000      -0.684774       -18.6337
 146   2.0000      -0.679855       -18.4998
 147   2.0000      -0.672500       -18.2997
 148   2.0000      -0.671021       -18.2594
 149   2.0000      -0.667044       -18.1512
 150   2.0000      -0.664694       -18.0872
 151   2.0000      -0.660727       -17.9793
 152   2.0000      -0.657991       -17.9049
 153   2.0000      -0.656752       -17.8711
 154   2.0000      -0.654086       -17.7986
 155   2.0000      -0.647614       -17.6225
 156   2.0000      -0.643713       -17.5163
 157   2.0000      -0.642827       -17.4922
 158   2.0000      -0.641972       -17.4689
 159   2.0000      -0.631095       -17.1730
 160   2.0000      -0.626290       -17.0422
 161   2.0000      -0.624085       -16.9822
 162   2.0000      -0.621214       -16.9041
 163   2.0000      -0.617522       -16.8036
 164   2.0000      -0.613058       -16.6821
 165   2.0000      -0.608720       -16.5641
 166   2.0000      -0.607508       -16.5311
 167   2.0000      -0.599142       -16.3035
 168   2.0000      -0.590201       -16.0602
 169   2.0000      -0.586461       -15.9584
 170   2.0000      -0.584645       -15.9090
 171   2.0000      -0.582299       -15.8452
 172   2.0000      -0.575505       -15.6603
 173   2.0000      -0.572627       -15.5820
 174   2.0000      -0.569471       -15.4961
 175   2.0000      -0.567128       -15.4323
 176   2.0000      -0.564035       -15.3482
 177   2.0000      -0.559099       -15.2138
 178   2.0000      -0.556377       -15.1398
 179   2.0000      -0.551979       -15.0201
 180   2.0000      -0.548097       -14.9145
 181   2.0000      -0.546649       -14.8751
 182   2.0000      -0.542663       -14.7666
 183   2.0000      -0.541664       -14.7394
 184   2.0000      -0.540135       -14.6978
 185   2.0000      -0.537848       -14.6356
 186   2.0000      -0.537017       -14.6130
 187   2.0000      -0.534068       -14.5327
 188   2.0000      -0.531582       -14.4651
 189   2.0000      -0.530207       -14.4277
 190   2.0000      -0.528881       -14.3916
 191   2.0000      -0.523616       -14.2483
 192   2.0000      -0.521053       -14.1786
 193   2.0000      -0.519791       -14.1442
 194   2.0000      -0.518922       -14.1206
 195   2.0000      -0.517325       -14.0771
 196   2.0000      -0.515068       -14.0157
 197   2.0000      -0.513248       -13.9662
 198   2.0000      -0.512166       -13.9367
 199   2.0000      -0.508845       -13.8464
 200   2.0000      -0.506587       -13.7849
 201   2.0000      -0.504249       -13.7213
 202   2.0000      -0.502016       -13.6606
 203   2.0000      -0.500677       -13.6241
 204   2.0000      -0.498871       -13.5750
 205   2.0000      -0.498389       -13.5619
 206   2.0000      -0.496534       -13.5114
 207   2.0000      -0.494621       -13.4593
 208   2.0000      -0.494194       -13.4477
 209   2.0000      -0.491663       -13.3788
 210   2.0000      -0.490645       -13.3511
 211   2.0000      -0.488060       -13.2808
 212   2.0000      -0.486924       -13.2499
 213   2.0000      -0.481988       -13.1156
 214   2.0000      -0.478089       -13.0095
 215   2.0000      -0.477411       -12.9910
 216   2.0000      -0.476894       -12.9770
 217   2.0000      -0.475944       -12.9511
 218   2.0000      -0.472664       -12.8618
 219   2.0000      -0.468542       -12.7497
 220   2.0000      -0.466869       -12.7041
 221   2.0000      -0.464653       -12.6439
 222   2.0000      -0.462205       -12.5772
 223   2.0000      -0.458132       -12.4664
 224   2.0000      -0.456953       -12.4343
 225   2.0000      -0.454672       -12.3722
 226   2.0000      -0.452013       -12.2999
 227   2.0000      -0.447998       -12.1907
 228   2.0000      -0.447561       -12.1788
 229   2.0000      -0.446822       -12.1587
 230   2.0000      -0.444476       -12.0948
 231   2.0000      -0.443163       -12.0591
 232   2.0000      -0.440375       -11.9832
 233   2.0000      -0.438222       -11.9246
 234   2.0000      -0.436681       -11.8827
 235   2.0000      -0.436211       -11.8699
 236   2.0000      -0.432145       -11.7593
 237   2.0000      -0.429364       -11.6836
 238   2.0000      -0.428414       -11.6577
 239   2.0000      -0.425713       -11.5842
 240   2.0000      -0.424138       -11.5414
 241   2.0000      -0.420207       -11.4344
 242   2.0000      -0.416771       -11.3409
 243   2.0000      -0.415442       -11.3048
 244   2.0000      -0.409873       -11.1532
 245   2.0000      -0.405703       -11.0398
 246   2.0000      -0.403145       -10.9701
 247   2.0000      -0.400732       -10.9045
 248   2.0000      -0.397866       -10.8265
 249   2.0000      -0.394749       -10.7417
 250   2.0000      -0.388969       -10.5844
 251   2.0000      -0.384804       -10.4710
 252   2.0000      -0.383204       -10.4275
 253   2.0000      -0.381906       -10.3922
 254   2.0000      -0.377545       -10.2735
 255   2.0000      -0.375618       -10.2211
 256   2.0000      -0.371635       -10.1127
 257   2.0000      -0.367991       -10.0135
 258   2.0000      -0.359880        -9.7928
 259   2.0000      -0.356440        -9.6992
 260   2.0000      -0.350765        -9.5448
 261   2.0000      -0.341326        -9.2879
 262   2.0000      -0.340432        -9.2636
 263   2.0000      -0.337499        -9.1838
 264   2.0000      -0.333865        -9.0849
 265   2.0000      -0.329267        -8.9598
 266   2.0000      -0.327524        -8.9124
 267   2.0000      -0.325010        -8.8440
 268   2.0000      -0.322358        -8.7718
 269   2.0000      -0.320584        -8.7235
 270   2.0000      -0.320194        -8.7129
 271   2.0000      -0.315625        -8.5886
 272   2.0000      -0.315262        -8.5787
 273   2.0000      -0.313593        -8.5333
 274   2.0000      -0.312343        -8.4993
 275   2.0000      -0.311066        -8.4645
 276   2.0000      -0.306656        -8.3445
 277   2.0000      -0.303929        -8.2703
 278   2.0000      -0.298160        -8.1133
 279   2.0000      -0.297282        -8.0895
 280   2.0000      -0.286205        -7.7880
 281   2.0000      -0.275456        -7.4955
 282   2.0000      -0.217828        -5.9274
 283   0.0000      -0.064269        -1.7488
 284   0.0000      -0.062502        -1.7008
 285   0.0000      -0.042474        -1.1558
 286   0.0000      -0.041801        -1.1375
 287   0.0000      -0.022163        -0.6031

MULLIKEN ATOMIC CHARGES
-----------------------
   0 C :    0.023601
   1 C :   -0.005523
   2 C :    0.120032
   3 N :    0.241852
   4 O :   -0.231302
   5 O :   -0.232196
   6 C :   -0.001424
   7 C :   -0.012868
   8 C :    0.077897
   9 C :    0.080940
  10 C :   -0.013529
  11 C :    0.077718
  12 O :   -0.175686
  13 C :    0.061694
  14 C :   -0.128005
  15 S :    0.124652
  16 C :   -0.121933
  17 C :   -0.028418
  18 C :    0.135898
  19 O :   -0.176080
  20 C :    0.020633
  21 C :    0.030685
  22 C :    0.022903
  23 C :    0.035002
  24 C :    0.024797
  25 C :    0.001615
  26 C :   -0.002147
  27 C :   -0.011209
  28 C :    0.086603
  29 C :   -0.053585
  30 C :    0.074320
  31 C :   -0.082350
  32 C :    0.041368
  33 C :   -0.021104
  34 C :   -0.053285
  35 C :    0.142523
  36 N :   -0.222106
  37 C :    0.156609
  38 N :   -0.223868
  39 C :    0.097307
  40 C :   -0.153509
  41 C :    0.134422
  42 C :   -0.032833
  43 C :    0.023902
  44 C :    0.004905
  45 C :    0.041759
  46 C :   -0.004590
  47 C :   -0.002365
  48 C :   -0.031802
  49 C :   -0.000041
  50 C :    0.068590
  51 C :   -0.025281
  52 C :    0.105230
  53 O :   -0.163828
  54 C :    0.025911
  55 C :   -0.089978
  56 S :    0.146999
  57 C :   -0.123441
  58 C :   -0.000790
  59 C :    0.127681
  60 O :   -0.163143
  61 C :    0.004018
  62 C :    0.025414
  63 C :    0.026735
  64 C :    0.025197
  65 C :    0.031328
  66 C :    0.003366
  67 C :    0.013975
  68 C :   -0.028097
  69 C :    0.121414
  70 C :   -0.093724
  71 C :    0.084973
  72 C :   -0.069960
  73 C :    0.162654
  74 N :    0.261227
  75 O :   -0.247600
  76 O :   -0.222011
  77 C :   -0.015192
  78 C :    0.029893
  79 C :    0.005034
  80 H :   -0.004375
  81 H :    0.000954
  82 H :    0.010362
  83 H :    0.007674
  84 H :    0.057568
  85 H :    0.022866
  86 H :   -0.003095
  87 H :   -0.016483
  88 H :   -0.010970
  89 H :   -0.013051
  90 H :   -0.005780
  91 H :   -0.011696
  92 H :   -0.018186
  93 H :   -0.020259
  94 H :   -0.030705
  95 H :   -0.027712
  96 H :   -0.029501
  97 H :   -0.002709
  98 H :    0.100255
  99 H :    0.091826
 100 H :   -0.004765
 101 H :   -0.035544
 102 H :    0.078776
 103 H :    0.079407
 104 H :   -0.000679
 105 H :    0.013939
 106 H :   -0.015149
 107 H :   -0.040244
 108 H :   -0.038668
 109 H :   -0.024613
 110 H :    0.008481
 111 H :    0.007062
 112 H :    0.043330
 113 H :    0.033092
 114 H :   -0.003872
 115 H :   -0.010840
 116 H :   -0.010431
 117 H :   -0.017501
 118 H :   -0.018297
 119 H :   -0.007307
 120 H :   -0.017377
 121 H :   -0.022557
 122 H :    0.005872
 123 H :    0.013193
 124 H :    0.002463
 125 H :   -0.003224
Sum of atomic charges:   -0.0000000

LOEWDIN ATOMIC CHARGES
----------------------
   0 C :   -0.021686
   1 C :    0.003623
   2 C :   -0.036314
   3 N :    0.286857
   4 O :   -0.196266
   5 O :   -0.197645
   6 C :   -0.000832
   7 C :   -0.004219
   8 C :    0.021603
   9 C :   -0.004410
  10 C :   -0.059853
  11 C :    0.085111
  12 O :   -0.139138
  13 C :   -0.103653
  14 C :   -0.154776
  15 S :    0.456324
  16 C :   -0.178990
  17 C :   -0.069826
  18 C :    0.098980
  19 O :   -0.139571
  20 C :   -0.065322
  21 C :    0.004193
  22 C :   -0.027099
  23 C :   -0.005794
  24 C :   -0.025323
  25 C :    0.018737
  26 C :    0.008850
  27 C :   -0.019732
  28 C :    0.001823
  29 C :   -0.006702
  30 C :   -0.020919
  31 C :   -0.011992
  32 C :   -0.018506
  33 C :   -0.030293
  34 C :   -0.039451
  35 C :    0.026322
  36 N :   -0.108670
  37 C :    0.029711
  38 N :   -0.131776
  39 C :   -0.015407
  40 C :    0.059554
  41 C :   -0.027588
  42 C :   -0.040126
  43 C :   -0.015539
  44 C :   -0.039120
  45 C :   -0.028188
  46 C :   -0.009886
  47 C :   -0.025453
  48 C :    0.006325
  49 C :   -0.033386
  50 C :   -0.010250
  51 C :   -0.051141
  52 C :    0.087931
  53 O :   -0.126192
  54 C :   -0.103852
  55 C :   -0.146265
  56 S :    0.479592
  57 C :   -0.166733
  58 C :   -0.070726
  59 C :    0.090146
  60 O :   -0.128954
  61 C :   -0.060529
  62 C :    0.023882
  63 C :   -0.019174
  64 C :   -0.011135
  65 C :   -0.032197
  66 C :   -0.020564
  67 C :    0.009071
  68 C :   -0.019885
  69 C :   -0.012976
  70 C :   -0.012619
  71 C :   -0.010560
  72 C :    0.006225
  73 C :   -0.032046
  74 N :    0.291907
  75 O :   -0.209068
  76 O :   -0.188481
  77 C :    0.002930
  78 C :   -0.011540
  79 C :    0.010518
  80 H :    0.033411
  81 H :    0.039252
  82 H :    0.038850
  83 H :    0.038272
  84 H :    0.028404
  85 H :    0.025541
  86 H :    0.031833
  87 H :    0.028187
  88 H :    0.028715
  89 H :    0.028672
  90 H :    0.032588
  91 H :    0.034736
  92 H :    0.029770
  93 H :    0.028617
  94 H :    0.026757
  95 H :    0.024795
  96 H :    0.007982
  97 H :    0.003554
  98 H :    0.056086
  99 H :    0.046536
 100 H :    0.016251
 101 H :   -0.007971
 102 H :    0.048158
 103 H :    0.034550
 104 H :    0.026142
 105 H :    0.047108
 106 H :    0.016720
 107 H :    0.028601
 108 H :    0.026080
 109 H :    0.026460
 110 H :    0.026456
 111 H :    0.032372
 112 H :    0.029892
 113 H :    0.030588
 114 H :    0.036133
 115 H :    0.030045
 116 H :    0.029323
 117 H :    0.025473
 118 H :    0.024808
 119 H :    0.036868
 120 H :    0.029314
 121 H :    0.029141
 122 H :    0.038656
 123 H :    0.042596
 124 H :    0.037201
 125 H :    0.034598

  Mayer bond orders larger than 0.100000
B(  0-C ,  1-C ) :   1.3614 B(  0-C ,  8-C ) :   1.3556 B(  0-C , 80-H ) :   0.9939
B(  1-C ,  2-C ) :   1.3921 B(  1-C , 81-H ) :   0.9881 B(  2-C ,  3-N ) :   0.8789
B(  2-C ,  6-C ) :   1.3974 B(  3-N ,  4-O ) :   1.5237 B(  3-N ,  5-O ) :   1.5510
B(  4-O ,  5-O ) :   0.2604 B(  6-C ,  7-C ) :   1.3977 B(  6-C ,  9-C ) :   0.9404
B(  7-C ,  8-C ) :   1.3810 B(  7-C , 82-H ) :   0.9901 B(  8-C , 83-H ) :   0.9914
B(  9-C , 10-C ) :   1.4165 B(  9-C , 29-C ) :   1.3724 B( 10-C , 11-C ) :   0.9311
B( 10-C , 26-C ) :   1.3644 B( 11-C , 12-O ) :   2.1854 B( 11-C , 13-C ) :   0.9196
B( 13-C , 14-C ) :   1.5272 B( 13-C , 17-C ) :   1.2977 B( 14-C , 15-S ) :   1.2051
B( 14-C , 84-H ) :   0.9450 B( 15-S , 16-C ) :   1.1481 B( 16-C , 17-C ) :   1.6067
B( 16-C , 85-H ) :   0.9742 B( 17-C , 18-C ) :   0.8789 B( 18-C , 19-O ) :   2.1891
B( 18-C , 20-C ) :   0.9602 B( 20-C , 21-C ) :   1.3783 B( 20-C , 25-C ) :   1.3802
B( 21-C , 22-C ) :   1.3915 B( 21-C , 86-H ) :   0.9735 B( 22-C , 23-C ) :   1.3883
B( 22-C , 87-H ) :   0.9875 B( 23-C , 24-C ) :   1.3766 B( 23-C , 88-H ) :   0.9905
B( 24-C , 25-C ) :   1.3796 B( 24-C , 89-H ) :   0.9924 B( 25-C , 90-H ) :   0.9966
B( 26-C , 27-C ) :   1.3758 B( 26-C , 91-H ) :   0.9982 B( 27-C , 28-C ) :   1.3576
B( 27-C , 92-H ) :   0.9959 B( 28-C , 29-C ) :   1.3870 B( 28-C , 30-C ) :   0.9448
B( 29-C , 93-H ) :   0.9940 B( 30-C , 31-C ) :   1.5827 B( 30-C , 47-C ) :   1.1473
B( 31-C , 32-C ) :   1.1248 B( 31-C , 94-H ) :   0.9952 B( 32-C , 33-C ) :   1.5089
B( 32-C , 45-C ) :   1.1167 B( 33-C , 34-C ) :   1.0321 B( 33-C , 39-C ) :   1.0770
B( 34-C , 35-C ) :   1.0470 B( 34-C , 37-C ) :   1.0283 B( 34-C , 95-H ) :   0.8769
B( 35-C , 36-N ) :   1.0868 B( 35-C , 96-H ) :   0.9275 B( 35-C , 97-H ) :   0.9460
B( 36-N , 98-H ) :   0.9603 B( 36-N , 99-H ) :   0.9570 B( 36-N ,103-H ) :   0.1086
B( 37-C , 38-N ) :   1.1090 B( 37-C ,100-H ) :   0.9446 B( 37-C ,101-H ) :   0.9244
B( 38-N ,102-H ) :   0.9669 B( 38-N ,103-H ) :   0.9395 B( 39-C , 40-C ) :   1.6608
B( 39-C , 44-C ) :   1.0438 B( 40-C , 41-C ) :   0.9750 B( 40-C ,104-H ) :   0.9645
B( 41-C , 42-C ) :   0.9844 B( 41-C , 48-C ) :   0.9550 B( 41-C ,105-H ) :   0.8887
B( 42-C , 43-C ) :   1.7174 B( 42-C ,106-H ) :   0.9680 B( 43-C , 44-C ) :   1.1343
B( 43-C ,107-H ) :   0.9870 B( 44-C , 45-C ) :   1.4362 B( 45-C , 46-C ) :   1.1443
B( 46-C , 47-C ) :   1.6011 B( 46-C ,108-H ) :   0.9926 B( 47-C ,109-H ) :   0.9831
B( 48-C , 49-C ) :   1.8757 B( 48-C ,110-H ) :   0.9629 B( 49-C , 50-C ) :   0.9942
B( 49-C ,111-H ) :   0.9428 B( 50-C , 51-C ) :   1.3862 B( 50-C , 70-C ) :   1.3860
B( 51-C , 52-C ) :   0.9145 B( 51-C , 67-C ) :   1.3945 B( 52-C , 53-O ) :   2.1919
B( 52-C , 54-C ) :   0.9443 B( 54-C , 55-C ) :   1.5276 B( 54-C , 58-C ) :   1.2611
B( 55-C , 56-S ) :   1.2156 B( 55-C ,112-H ) :   0.9447 B( 56-S , 57-C ) :   1.1609
B( 57-C , 58-C ) :   1.5914 B( 57-C ,113-H ) :   0.9714 B( 58-C , 59-C ) :   0.8985
B( 59-C , 60-O ) :   2.2479 B( 59-C , 61-C ) :   0.9246 B( 61-C , 62-C ) :   1.3884
B( 61-C , 66-C ) :   1.3969 B( 62-C , 63-C ) :   1.3828 B( 62-C ,114-H ) :   0.9977
B( 63-C , 64-C ) :   1.3744 B( 63-C ,115-H ) :   0.9933 B( 64-C , 65-C ) :   1.3991
B( 64-C ,116-H ) :   0.9921 B( 65-C , 66-C ) :   1.3627 B( 65-C ,117-H ) :   0.9877
B( 66-C ,118-H ) :   0.9812 B( 67-C , 68-C ) :   1.3666 B( 67-C ,119-H ) :   0.9970
B( 68-C , 69-C ) :   1.3688 B( 68-C ,120-H ) :   0.9963 B( 69-C , 70-C ) :   1.3448
B( 69-C , 71-C ) :   0.9619 B( 70-C ,121-H ) :   0.9972 B( 71-C , 72-C ) :   1.3413
B( 71-C , 79-C ) :   1.3854 B( 72-C , 73-C ) :   1.3613 B( 72-C ,122-H ) :   0.9880
B( 73-C , 74-N ) :   0.8800 B( 73-C , 77-C ) :   1.3916 B( 74-N , 75-O ) :   1.5186
B( 74-N , 76-O ) :   1.5820 B( 75-O , 76-O ) :   0.2636 B( 77-C , 78-C ) :   1.3580
B( 77-C ,123-H ) :   0.9897 B( 78-C , 79-C ) :   1.3805 B( 78-C ,124-H ) :   0.9871
B( 79-C ,125-H ) :   0.9928

-----------------------------------------------------------------------------
         ABSORPTION SPECTRUM VIA TRANSITION ELECTRIC DIPOLE MOMENTS
-----------------------------------------------------------------------------
State   Energy  Wavelength   fosc         T2         TX        TY        TZ
        (cm-1)    (nm)                  (au**2)     (au)      (au)      (au)
-----------------------------------------------------------------------------
   0   15146.3    660.2   0.051125489   1.11124   0.32951  -0.00307   1.00133
   1   20753.7    481.8   0.001184508   0.01879  -0.10773  -0.06764   0.05107
   2   24355.4    410.6   0.004297374   0.05809  -0.21420   0.09620   0.05434
   3   24384.9    410.1   0.048695476   0.65742  -0.43787  -0.11144   0.67325
   4   27700.9    361.0   0.014046089   0.16693  -0.34215   0.11660  -0.19044
   5   28603.1    349.6   0.048372650   0.55675  -0.38308  -0.04009   0.63906
   6   29715.4    336.5   0.004340800   0.04809  -0.18831  -0.11018   0.02209
   7   30048.4    332.8   0.115265738   1.26286   1.08928  -0.14447  -0.23550
   8   30848.4    324.2   0.001773139   0.01892   0.11677  -0.00331   0.07264
   9   31833.0    314.1   0.565771012   5.85112   2.08247   0.05389  -1.22944
  10   32395.5    308.7   0.004461862   0.04534  -0.16601  -0.08466   0.10304
  11   32690.6    305.9   0.181720199   1.83002   1.13245   0.10087  -0.73307
  12   33281.2    300.5   0.040909732   0.40467   0.05480  -0.54247   0.32771
  13   33540.4    298.1   0.000564463   0.00554   0.03753   0.05996  -0.02315
  14   33749.9    296.3   0.113847247   1.11052   0.96994  -0.22706  -0.34378
  15   34921.8    286.4   0.125531820   1.18340   0.88947   0.15659  -0.60641
  16   35445.2    282.1   0.079362974   0.73712  -0.83249  -0.19085  -0.08745
  17   35469.6    281.9   0.009532134   0.08847  -0.06906  -0.10633  -0.26907
  18   35748.4    279.7   0.015004469   0.13818  -0.16251   0.20113   0.26705
  19   36783.4    271.9   0.233026469   2.08559  -1.36664   0.00747   0.46671
  20   36827.2    271.5   0.023350598   0.20874  -0.27808   0.25419   0.25845
  21   37130.2    269.3   0.006519487   0.05780   0.21652  -0.08480  -0.06110
  22   37413.2    267.3   0.144252847   1.26933   0.44242   0.36348  -0.97030
  23   37575.6    266.1   0.376858877   3.30178  -1.45278   0.10730   1.08614
  24   37864.5    264.1   0.000132914   0.00116  -0.00862  -0.02766   0.01779
  25   38542.6    259.5   0.045010098   0.38445   0.53345   0.03853  -0.31368
  26   38701.6    258.4   0.006978818   0.05936   0.05306  -0.16567  -0.17059
  27   38829.7    257.5   0.000990880   0.00840  -0.03258  -0.03773  -0.07692
  28   38870.9    257.3   0.051848515   0.43912  -0.58162   0.24604   0.20075
  29   38989.1    256.5   0.022180403   0.18728   0.24095  -0.21155  -0.29065
  30   39547.8    252.9   0.075447388   0.62806  -0.74820  -0.13263  -0.22508
  31   39853.4    250.9   0.145912473   1.20532   0.07046   0.49085   0.97950
  32   40045.4    249.7   0.062095049   0.51048   0.10511   0.08246   0.70188

FINAL SINGLE POINT ENERGY     -4155.204603764142

DIPOLE MOMENT
-------------
                                X             Y             Z
Electronic contribution:     26.37222      -1.35388       8.26832
Nuclear contribution   :    -27.63809       0.46622      -8.50773
                        -----------------------------------------
Total Dipole Moment    :     -1.26587      -0.88766      -0.23941
                        -----------------------------------------
Magnitude (a.u.)       :      1.56450
Magnitude (Debye)      :      3.97665

Rotational constants in cm-1:     0.001337     0.000267     0.000246
Rotational constants in MHz :    40.081883     7.990964     7.371638

                             ****ORCA TERMINATED NORMALLY****
TOTAL RUN TIME: 0 days 0 hours 13 minutes 36 seconds 491 msec
