                         Program Version 4.2.0 -  RELEASE  -
|  1> # ORCA input file
|  2> # SCF done       -206.383957345620          0.001323377208
|  3> ! CAM-B3LYP def2-SVP def2/J RIJCOSX Grid4 TightSCF
|  4> %maxcore 5000
|  5> %tddft
|  6>     Mode sTDDFT
|  7>     Ethresh 5.0
|  8>     maxcore 5000
|  9> end
| 10>
| 11> %pal
| 12>   nprocs 6
| 13>   end
| 14> * xyz 0 1
| 15>    C        5.28317        -4.66966         7.57453
| 16>    C        4.27136        -3.75569         7.44881
| 17>    C        4.25104        -2.50398         8.10210
| 18>    N        4.17639        -1.47421         8.60205
| 19>    C        3.10395        -3.93489         6.67553
| 20>    N        2.12901        -4.01465         6.07397
| 21>    C        6.47041        -4.51425         8.40915
| 22>    C        7.22321        -5.69987         8.35509
| 23>    C        8.40971        -5.84289         9.04532
| 24>    C        8.85830        -4.77539         9.81247
| 25>    C        8.11521        -3.58967         9.87277
| 26>    C        6.92095        -3.45026         9.17471
| 27>   Cl        8.68294        -2.27680        10.82152
| 28>   Cl       10.32759        -4.91245        10.68819
| 29>    C        6.54923        -6.68558         7.48313
| 30>    O        6.93265        -7.80744         7.24075
| 31>    C        5.35365        -5.98237         6.95133
| 32>    C        4.57613        -6.40735         5.91615
| 33>    C        4.57565        -7.68637         5.29514
| 34>    C        4.77012        -8.91533         5.87421
| 35>    C        4.51699        -9.93446         4.88828
| 36>    C        4.63401       -11.31344         5.10808
| 37>    N        4.70205       -12.44595         5.28157
| 38>    C        4.13472        -9.33683         3.71173
| 39>    C        4.14877        -7.91617         3.90492
| 40>    C        3.95698        -6.95975         2.93175
| 41>    C        3.33776        -7.16927         1.59279
| 42>    C        3.66551        -6.07560         0.82267
| 43>    C        4.39086        -5.14938         1.63268
| 44>    C        4.53182        -5.66289         2.90986
| 45>    C        4.89839        -3.92236         1.18089
| 46>    N        5.31690        -2.92325         0.80204
| 47>    C        2.48379        -8.20933         1.18088
| 48>    C        1.74306        -9.04517         1.97718
| 49>    C        1.00433       -10.11128         1.44091
| 50>    C        0.19847       -10.93976         2.17594
| 51>    C       -0.45250       -12.05411         1.62363
| 52>    O       -1.29670       -12.80470         2.38076
| 53>    C       -1.74968       -13.83959         1.62855
| 54>    C       -1.18227       -13.75687         0.35143
| 55>    C       -0.36596       -12.62007         0.33996
| 56>    O        0.36430       -12.16579        -0.69357
| 57>    O       -1.34345       -14.56809        -0.72168
| 58>    C       -2.67268       -14.78586         2.11714
| 59>    C       -3.30302       -14.71679         3.32318
| 60>    C       -4.23420       -15.69066         3.76423
| 61>    C       -4.31258       -16.99559         3.34815
| 62>    C       -5.31483       -17.66924         4.12494
| 63>    C       -5.67979       -19.01134         3.94620
| 64>    N       -5.97017       -20.10935         3.78264
| 65>    C       -5.85131       -16.79083         5.03857
| 66>    C       -5.24715       -15.51321         4.83812
| 67>    C       -5.66880       -14.32568         5.38926
| 68>    C       -6.58390       -14.16355         6.54059
| 69>    C       -6.93880       -12.84130         6.59895
| 70>    C       -6.26914       -12.13694         5.53499
| 71>    C       -5.48404       -13.01895         4.83283
| 72>    C       -6.40870       -10.76795         5.26769
| 73>    N       -6.51491        -9.64674         5.04711
| 74>    C       -6.92469       -15.17470         7.48082
| 75>    C       -8.02364       -15.13601         8.28222
| 76>    C       -8.31556       -16.18756         9.17803
| 77>    C       -9.44044       -16.27231         9.95150
| 78>    C       -9.79493       -17.35112        10.85562
| 79>    C       -9.06120       -18.47465        11.13375
| 80>    C       -9.46958       -19.48653        12.02979
| 81>    N       -9.73825       -20.34363        12.74393
| 82>    C       -7.80174       -18.79191        10.58206
| 83>    N       -6.77911       -19.12202        10.17789
| 84>    C      -11.10009       -17.03136        11.43034
| 85>    C      -11.53828       -15.79914        10.91468
| 86>    C      -10.52791       -15.26260         9.97863
| 87>    O      -10.59338       -14.21624         9.37066
| 88>    C      -12.74947       -15.24595        11.27740
| 89>    C      -13.54753       -15.93921        12.17854
| 90>    C      -13.11939       -17.16679        12.69861
| 91>    C      -11.89782       -17.71970        12.33048
| 92>   Cl      -14.11450       -18.01417        13.81146
| 93>   Cl      -15.06265       -15.28785        12.65338
| 94>    H        8.97104        -6.76214         8.98796
| 95>    H        6.37987        -2.52072         9.24135
| 96>    H        3.88291        -5.69602         5.48449
| 97>    H        5.02796        -9.11564         6.89547
| 98>    H        3.97049        -9.83747         2.77721
| 99>    H        3.37680        -5.90026        -0.19665
|100>    H        5.11112        -5.21410         3.69348
|101>    H        2.35756        -8.30397         0.10789
|102>    H        1.70965        -8.88441         3.04634
|103>    H        1.10349       -10.30361         0.38208
|104>    H        0.03938       -10.76193         3.23027
|105>    H        0.24812       -12.77127        -1.43956
|106>    H       -1.93819       -15.29574        -0.50966
|107>    H       -2.91795       -15.59418         1.44116
|108>    H       -3.08132       -13.88129         3.97016
|109>    H       -3.70110       -17.48321         2.61281
|110>    H       -6.67126       -17.00634         5.69474
|111>    H       -7.56711       -12.37183         7.33185
|112>    H       -4.93111       -12.78489         3.94419
|113>    H       -6.25713       -16.02406         7.55764
|114>    H       -8.72301       -14.31735         8.21192
|115>    H       -7.59034       -16.98988         9.22792
|116>    H      -13.06604       -14.29972        10.86770
|117>    H      -11.60413       -18.66709        12.75166
|118> *
|119>
|120>                          ****END OF INPUT****

CARTESIAN COORDINATES (ANGSTROEM)
---------------------------------
  C      5.283170   -4.669660    7.574530
  C      4.271360   -3.755690    7.448810
  C      4.251040   -2.503980    8.102100
  N      4.176390   -1.474210    8.602050
  C      3.103950   -3.934890    6.675530
  N      2.129010   -4.014650    6.073970
  C      6.470410   -4.514250    8.409150
  C      7.223210   -5.699870    8.355090
  C      8.409710   -5.842890    9.045320
  C      8.858300   -4.775390    9.812470
  C      8.115210   -3.589670    9.872770
  C      6.920950   -3.450260    9.174710
  Cl     8.682940   -2.276800   10.821520
  Cl    10.327590   -4.912450   10.688190
  C      6.549230   -6.685580    7.483130
  O      6.932650   -7.807440    7.240750
  C      5.353650   -5.982370    6.951330
  C      4.576130   -6.407350    5.916150
  C      4.575650   -7.686370    5.295140
  C      4.770120   -8.915330    5.874210
  C      4.516990   -9.934460    4.888280
  C      4.634010  -11.313440    5.108080
  N      4.702050  -12.445950    5.281570
  C      4.134720   -9.336830    3.711730
  C      4.148770   -7.916170    3.904920
  C      3.956980   -6.959750    2.931750
  C      3.337760   -7.169270    1.592790
  C      3.665510   -6.075600    0.822670
  C      4.390860   -5.149380    1.632680
  C      4.531820   -5.662890    2.909860
  C      4.898390   -3.922360    1.180890
  N      5.316900   -2.923250    0.802040
  C      2.483790   -8.209330    1.180880
  C      1.743060   -9.045170    1.977180
  C      1.004330  -10.111280    1.440910
  C      0.198470  -10.939760    2.175940
  C     -0.452500  -12.054110    1.623630
  O     -1.296700  -12.804700    2.380760
  C     -1.749680  -13.839590    1.628550
  C     -1.182270  -13.756870    0.351430
  C     -0.365960  -12.620070    0.339960
  O      0.364300  -12.165790   -0.693570
  O     -1.343450  -14.568090   -0.721680
  C     -2.672680  -14.785860    2.117140
  C     -3.303020  -14.716790    3.323180
  C     -4.234200  -15.690660    3.764230
  C     -4.312580  -16.995590    3.348150
  C     -5.314830  -17.669240    4.124940
  C     -5.679790  -19.011340    3.946200
  N     -5.970170  -20.109350    3.782640
  C     -5.851310  -16.790830    5.038570
  C     -5.247150  -15.513210    4.838120
  C     -5.668800  -14.325680    5.389260
  C     -6.583900  -14.163550    6.540590
  C     -6.938800  -12.841300    6.598950
  C     -6.269140  -12.136940    5.534990
  C     -5.484040  -13.018950    4.832830
  C     -6.408700  -10.767950    5.267690
  N     -6.514910   -9.646740    5.047110
  C     -6.924690  -15.174700    7.480820
  C     -8.023640  -15.136010    8.282220
  C     -8.315560  -16.187560    9.178030
  C     -9.440440  -16.272310    9.951500
  C     -9.794930  -17.351120   10.855620
  C     -9.061200  -18.474650   11.133750
  C     -9.469580  -19.486530   12.029790
  N     -9.738250  -20.343630   12.743930
  C     -7.801740  -18.791910   10.582060
  N     -6.779110  -19.122020   10.177890
  C    -11.100090  -17.031360   11.430340
  C    -11.538280  -15.799140   10.914680
  C    -10.527910  -15.262600    9.978630
  O    -10.593380  -14.216240    9.370660
  C    -12.749470  -15.245950   11.277400
  C    -13.547530  -15.939210   12.178540
  C    -13.119390  -17.166790   12.698610
  C    -11.897820  -17.719700   12.330480
  Cl   -14.114500  -18.014170   13.811460
  Cl   -15.062650  -15.287850   12.653380
  H      8.971040   -6.762140    8.987960
  H      6.379870   -2.520720    9.241350
  H      3.882910   -5.696020    5.484490
  H      5.027960   -9.115640    6.895470
  H      3.970490   -9.837470    2.777210
  H      3.376800   -5.900260   -0.196650
  H      5.111120   -5.214100    3.693480
  H      2.357560   -8.303970    0.107890
  H      1.709650   -8.884410    3.046340
  H      1.103490  -10.303610    0.382080
  H      0.039380  -10.761930    3.230270
  H      0.248120  -12.771270   -1.439560
  H     -1.938190  -15.295740   -0.509660
  H     -2.917950  -15.594180    1.441160
  H     -3.081320  -13.881290    3.970160
  H     -3.701100  -17.483210    2.612810
  H     -6.671260  -17.006340    5.694740
  H     -7.567110  -12.371830    7.331850
  H     -4.931110  -12.784890    3.944190
  H     -6.257130  -16.024060    7.557640
  H     -8.723010  -14.317350    8.211920
  H     -7.590340  -16.989880    9.227920
  H    -13.066040  -14.299720   10.867700
  H    -11.604130  -18.667090   12.751660

 Total Charge           Charge          ....    0
 Multiplicity           Mult            ....    1
 Number of Electrons    NEL             ....  560
 Basis Dimension        Dim             .... 1242

ORBITAL ENERGIES
----------------

  NO   OCC          E(Eh)            E(eV)
   0   2.0000    -101.605939     -2764.8382
   1   2.0000    -101.605691     -2764.8314
   2   2.0000    -101.604310     -2764.7938
   3   2.0000    -101.603992     -2764.7852
   4   2.0000     -19.314651      -525.5784
   5   2.0000     -19.295904      -525.0682
   6   2.0000     -19.287884      -524.8500
   7   2.0000     -19.231419      -523.3135
   8   2.0000     -19.230795      -523.2965
   9   2.0000     -14.427445      -392.5907
  10   2.0000     -14.427369      -392.5887
  11   2.0000     -14.424970      -392.5234
  12   2.0000     -14.424597      -392.5132
  13   2.0000     -14.423946      -392.4955
  14   2.0000     -14.423647      -392.4874
  15   2.0000     -14.420882      -392.4122
  16   2.0000     -14.416720      -392.2989
  17   2.0000     -10.383047      -282.5371
  18   2.0000     -10.381539      -282.4960
  19   2.0000     -10.368350      -282.1371
  20   2.0000     -10.364980      -282.0454
  21   2.0000     -10.363027      -281.9923
  22   2.0000     -10.362596      -281.9806
  23   2.0000     -10.362363      -281.9742
  24   2.0000     -10.361970      -281.9635
  25   2.0000     -10.360869      -281.9336
  26   2.0000     -10.358652      -281.8732
  27   2.0000     -10.356069      -281.8030
  28   2.0000     -10.355001      -281.7739
  29   2.0000     -10.353887      -281.7436
  30   2.0000     -10.353019      -281.7200
  31   2.0000     -10.342260      -281.4272
  32   2.0000     -10.339302      -281.3467
  33   2.0000     -10.339214      -281.3443
  34   2.0000     -10.338144      -281.3152
  35   2.0000     -10.337099      -281.2868
  36   2.0000     -10.335510      -281.2435
  37   2.0000     -10.333734      -281.1952
  38   2.0000     -10.331695      -281.1397
  39   2.0000     -10.329673      -281.0847
  40   2.0000     -10.329472      -281.0792
  41   2.0000     -10.328723      -281.0588
  42   2.0000     -10.326619      -281.0016
  43   2.0000     -10.326539      -280.9994
  44   2.0000     -10.326139      -280.9885
  45   2.0000     -10.323518      -280.9172
  46   2.0000     -10.322744      -280.8961
  47   2.0000     -10.322150      -280.8800
  48   2.0000     -10.321783      -280.8700
  49   2.0000     -10.321767      -280.8696
  50   2.0000     -10.321026      -280.8494
  51   2.0000     -10.318788      -280.7885
  52   2.0000     -10.317872      -280.7636
  53   2.0000     -10.317693      -280.7587
  54   2.0000     -10.317132      -280.7434
  55   2.0000     -10.316358      -280.7224
  56   2.0000     -10.316328      -280.7216
  57   2.0000     -10.316229      -280.7189
  58   2.0000     -10.316126      -280.7161
  59   2.0000     -10.315946      -280.7112
  60   2.0000     -10.315618      -280.7022
  61   2.0000     -10.314991      -280.6852
  62   2.0000     -10.314562      -280.6735
  63   2.0000     -10.312487      -280.6170
  64   2.0000     -10.311862      -280.6000
  65   2.0000     -10.309892      -280.5464
  66   2.0000     -10.309871      -280.5459
  67   2.0000     -10.309218      -280.5281
  68   2.0000     -10.308674      -280.5133
  69   2.0000     -10.308277      -280.5025
  70   2.0000     -10.307906      -280.4924
  71   2.0000     -10.307339      -280.4770
  72   2.0000     -10.306032      -280.4414
  73   2.0000     -10.305457      -280.4257
  74   2.0000     -10.305053      -280.4148
  75   2.0000     -10.302034      -280.3326
  76   2.0000     -10.299724      -280.2698
  77   2.0000     -10.296933      -280.1938
  78   2.0000     -10.296713      -280.1878
  79   2.0000      -9.560995      -260.1679
  80   2.0000      -9.560665      -260.1589
  81   2.0000      -9.559302      -260.1218
  82   2.0000      -9.558977      -260.1130
  83   2.0000      -7.331398      -199.4975
  84   2.0000      -7.331038      -199.4877
  85   2.0000      -7.329734      -199.4522
  86   2.0000      -7.329369      -199.4423
  87   2.0000      -7.321255      -199.2215
  88   2.0000      -7.320959      -199.2134
  89   2.0000      -7.320496      -199.2008
  90   2.0000      -7.320191      -199.1925
  91   2.0000      -7.319545      -199.1750
  92   2.0000      -7.319244      -199.1667
  93   2.0000      -7.318799      -199.1547
  94   2.0000      -7.318502      -199.1466
  95   2.0000      -1.234500       -33.5924
  96   2.0000      -1.191219       -32.4147
  97   2.0000      -1.174004       -31.9463
  98   2.0000      -1.147330       -31.2204
  99   2.0000      -1.145519       -31.1712
 100   2.0000      -1.038524       -28.2597
 101   2.0000      -1.037720       -28.2378
 102   2.0000      -1.030281       -28.0354
 103   2.0000      -1.026679       -27.9374
 104   2.0000      -1.024548       -27.8794
 105   2.0000      -1.024247       -27.8712
 106   2.0000      -1.015945       -27.6453
 107   2.0000      -1.011014       -27.5111
 108   2.0000      -1.004321       -27.3290
 109   2.0000      -1.004107       -27.3231
 110   2.0000      -1.002373       -27.2760
 111   2.0000      -0.999783       -27.2055
 112   2.0000      -0.998825       -27.1794
 113   2.0000      -0.996968       -27.1289
 114   2.0000      -0.993158       -27.0252
 115   2.0000      -0.987782       -26.8789
 116   2.0000      -0.967638       -26.3308
 117   2.0000      -0.967222       -26.3194
 118   2.0000      -0.948064       -25.7981
 119   2.0000      -0.947424       -25.7807
 120   2.0000      -0.942993       -25.6601
 121   2.0000      -0.934035       -25.4164
 122   2.0000      -0.931966       -25.3601
 123   2.0000      -0.917428       -24.9645
 124   2.0000      -0.915804       -24.9203
 125   2.0000      -0.904654       -24.6169
 126   2.0000      -0.902321       -24.5534
 127   2.0000      -0.894885       -24.3511
 128   2.0000      -0.892248       -24.2793
 129   2.0000      -0.882645       -24.0180
 130   2.0000      -0.874927       -23.8080
 131   2.0000      -0.868065       -23.6212
 132   2.0000      -0.867347       -23.6017
 133   2.0000      -0.865717       -23.5574
 134   2.0000      -0.839883       -22.8544
 135   2.0000      -0.833535       -22.6816
 136   2.0000      -0.828909       -22.5557
 137   2.0000      -0.815879       -22.2012
 138   2.0000      -0.811321       -22.0772
 139   2.0000      -0.803444       -21.8628
 140   2.0000      -0.786110       -21.3911
 141   2.0000      -0.785496       -21.3744
 142   2.0000      -0.774712       -21.0810
 143   2.0000      -0.773769       -21.0553
 144   2.0000      -0.769263       -20.9327
 145   2.0000      -0.751136       -20.4394
 146   2.0000      -0.742658       -20.2087
 147   2.0000      -0.737833       -20.0774
 148   2.0000      -0.735964       -20.0266
 149   2.0000      -0.730372       -19.8744
 150   2.0000      -0.726140       -19.7593
 151   2.0000      -0.720424       -19.6037
 152   2.0000      -0.708335       -19.2748
 153   2.0000      -0.706994       -19.2383
 154   2.0000      -0.703355       -19.1393
 155   2.0000      -0.700474       -19.0609
 156   2.0000      -0.690304       -18.7841
 157   2.0000      -0.684903       -18.6372
 158   2.0000      -0.677591       -18.4382
 159   2.0000      -0.667206       -18.1556
 160   2.0000      -0.664062       -18.0700
 161   2.0000      -0.660843       -17.9825
 162   2.0000      -0.655267       -17.8307
 163   2.0000      -0.652304       -17.7501
 164   2.0000      -0.648643       -17.6505
 165   2.0000      -0.646137       -17.5823
 166   2.0000      -0.633444       -17.2369
 167   2.0000      -0.631099       -17.1731
 168   2.0000      -0.628660       -17.1067
 169   2.0000      -0.627420       -17.0730
 170   2.0000      -0.624251       -16.9867
 171   2.0000      -0.619735       -16.8639
 172   2.0000      -0.611006       -16.6263
 173   2.0000      -0.606278       -16.4977
 174   2.0000      -0.597479       -16.2582
 175   2.0000      -0.596155       -16.2222
 176   2.0000      -0.594534       -16.1781
 177   2.0000      -0.591924       -16.1071
 178   2.0000      -0.585364       -15.9286
 179   2.0000      -0.572370       -15.5750
 180   2.0000      -0.571936       -15.5632
 181   2.0000      -0.568836       -15.4788
 182   2.0000      -0.565162       -15.3788
 183   2.0000      -0.561687       -15.2843
 184   2.0000      -0.556508       -15.1434
 185   2.0000      -0.555233       -15.1087
 186   2.0000      -0.554260       -15.0822
 187   2.0000      -0.553296       -15.0560
 188   2.0000      -0.551374       -15.0037
 189   2.0000      -0.547554       -14.8997
 190   2.0000      -0.544093       -14.8055
 191   2.0000      -0.540706       -14.7134
 192   2.0000      -0.538493       -14.6531
 193   2.0000      -0.534929       -14.5562
 194   2.0000      -0.533153       -14.5078
 195   2.0000      -0.530324       -14.4308
 196   2.0000      -0.529677       -14.4133
 197   2.0000      -0.527653       -14.3582
 198   2.0000      -0.524357       -14.2685
 199   2.0000      -0.521048       -14.1784
 200   2.0000      -0.520148       -14.1539
 201   2.0000      -0.517921       -14.0933
 202   2.0000      -0.516655       -14.0589
 203   2.0000      -0.516053       -14.0425
 204   2.0000      -0.515268       -14.0211
 205   2.0000      -0.515017       -14.0143
 206   2.0000      -0.512089       -13.9346
 207   2.0000      -0.509860       -13.8740
 208   2.0000      -0.508798       -13.8451
 209   2.0000      -0.507154       -13.8004
 210   2.0000      -0.506815       -13.7911
 211   2.0000      -0.504375       -13.7247
 212   2.0000      -0.503810       -13.7094
 213   2.0000      -0.502090       -13.6626
 214   2.0000      -0.500386       -13.6162
 215   2.0000      -0.498951       -13.5771
 216   2.0000      -0.497104       -13.5269
 217   2.0000      -0.494340       -13.4517
 218   2.0000      -0.491186       -13.3658
 219   2.0000      -0.488751       -13.2996
 220   2.0000      -0.485610       -13.2141
 221   2.0000      -0.481469       -13.1014
 222   2.0000      -0.474895       -12.9226
 223   2.0000      -0.473748       -12.8913
 224   2.0000      -0.472742       -12.8640
 225   2.0000      -0.466634       -12.6977
 226   2.0000      -0.458518       -12.4769
 227   2.0000      -0.458463       -12.4754
 228   2.0000      -0.457705       -12.4548
 229   2.0000      -0.456160       -12.4128
 230   2.0000      -0.453360       -12.3365
 231   2.0000      -0.452216       -12.3054
 232   2.0000      -0.452000       -12.2995
 233   2.0000      -0.451458       -12.2848
 234   2.0000      -0.450317       -12.2537
 235   2.0000      -0.449068       -12.2198
 236   2.0000      -0.447430       -12.1752
 237   2.0000      -0.445631       -12.1262
 238   2.0000      -0.445216       -12.1150
 239   2.0000      -0.444901       -12.1064
 240   2.0000      -0.443348       -12.0641
 241   2.0000      -0.442857       -12.0508
 242   2.0000      -0.436948       -11.8900
 243   2.0000      -0.436627       -11.8812
 244   2.0000      -0.436376       -11.8744
 245   2.0000      -0.435906       -11.8616
 246   2.0000      -0.434537       -11.8244
 247   2.0000      -0.434076       -11.8118
 248   2.0000      -0.430628       -11.7180
 249   2.0000      -0.425811       -11.5869
 250   2.0000      -0.424621       -11.5545
 251   2.0000      -0.421671       -11.4742
 252   2.0000      -0.420862       -11.4522
 253   2.0000      -0.419583       -11.4174
 254   2.0000      -0.419344       -11.4109
 255   2.0000      -0.416879       -11.3439
 256   2.0000      -0.413892       -11.2626
 257   2.0000      -0.413247       -11.2450
 258   2.0000      -0.410905       -11.1813
 259   2.0000      -0.405659       -11.0385
 260   2.0000      -0.393101       -10.6968
 261   2.0000      -0.386948       -10.5294
 262   2.0000      -0.386531       -10.5180
 263   2.0000      -0.376019       -10.2320
 264   2.0000      -0.365390        -9.9428
 265   2.0000      -0.356925        -9.7124
 266   2.0000      -0.354721        -9.6525
 267   2.0000      -0.349686        -9.5154
 268   2.0000      -0.348074        -9.4716
 269   2.0000      -0.345963        -9.4141
 270   2.0000      -0.342612        -9.3229
 271   2.0000      -0.338527        -9.2118
 272   2.0000      -0.337285        -9.1780
 273   2.0000      -0.323570        -8.8048
 274   2.0000      -0.319489        -8.6937
 275   2.0000      -0.318363        -8.6631
 276   2.0000      -0.300120        -8.1667
 277   2.0000      -0.291952        -7.9444
 278   2.0000      -0.288523        -7.8511
 279   2.0000      -0.245628        -6.6839
 280   0.0000      -0.147635        -4.0174
 281   0.0000      -0.137780        -3.7492
 282   0.0000      -0.100360        -2.7309
 283   0.0000      -0.094139        -2.5616
 284   0.0000      -0.075336        -2.0500

MULLIKEN ATOMIC CHARGES
-----------------------
   0 C :    0.301784
   1 C :   -0.340528
   2 C :   -0.185631
   3 N :    0.162769
   4 C :   -0.189930
   5 N :    0.162375
   6 C :    0.035279
   7 C :   -0.023617
   8 C :   -0.028683
   9 C :    0.061460
  10 C :    0.050159
  11 C :   -0.011549
  12 Cl:   -0.030920
  13 Cl:   -0.037637
  14 C :    0.140768
  15 O :   -0.137702
  16 C :   -0.084808
  17 C :   -0.061984
  18 C :    0.054941
  19 C :    0.067254
  20 C :   -0.129156
  21 C :   -0.129970
  22 N :    0.141064
  23 C :   -0.019314
  24 C :    0.048695
  25 C :    0.062275
  26 C :    0.102134
  27 C :   -0.023232
  28 C :   -0.083459
  29 C :   -0.047951
  30 C :   -0.127088
  31 N :    0.153919
  32 C :   -0.036097
  33 C :    0.012813
  34 C :   -0.022034
  35 C :   -0.004638
  36 C :    0.125117
  37 O :   -0.214048
  38 C :    0.110664
  39 C :    0.100822
  40 C :    0.067756
  41 O :   -0.162249
  42 O :   -0.187313
  43 C :   -0.054397
  44 C :   -0.030533
  45 C :    0.084901
  46 C :   -0.036782
  47 C :   -0.082682
  48 C :   -0.130848
  49 N :    0.150873
  50 C :   -0.049490
  51 C :    0.076738
  52 C :    0.064357
  53 C :    0.070851
  54 C :    0.003944
  55 C :   -0.103520
  56 C :   -0.028556
  57 C :   -0.131380
  58 N :    0.148552
  59 C :   -0.003539
  60 C :   -0.004534
  61 C :   -0.038186
  62 C :   -0.062748
  63 C :    0.328963
  64 C :   -0.341668
  65 C :   -0.187693
  66 N :    0.157781
  67 C :   -0.187979
  68 N :    0.153656
  69 C :    0.027487
  70 C :   -0.015796
  71 C :    0.148376
  72 O :   -0.145156
  73 C :   -0.027250
  74 C :    0.061304
  75 C :    0.047993
  76 C :   -0.010210
  77 Cl:   -0.031589
  78 Cl:   -0.038662
  79 H :    0.001680
  80 H :    0.001714
  81 H :    0.036711
  82 H :    0.011550
  83 H :    0.022403
  84 H :   -0.009639
  85 H :   -0.000128
  86 H :    0.000397
  87 H :    0.022838
  88 H :    0.018072
  89 H :    0.001350
  90 H :    0.199947
  91 H :    0.196950
  92 H :   -0.024701
  93 H :    0.015607
  94 H :   -0.010829
  95 H :    0.002742
  96 H :    0.011708
  97 H :    0.008135
  98 H :    0.027688
  99 H :    0.030407
 100 H :    0.009940
 101 H :   -0.000035
 102 H :    0.000403
Sum of atomic charges:   -0.0000000

LOEWDIN ATOMIC CHARGES
----------------------
   0 C :    0.073348
   1 C :   -0.131274
   2 C :   -0.020390
   3 N :   -0.040339
   4 C :   -0.023136
   5 N :   -0.042477
   6 C :   -0.014677
   7 C :   -0.044501
   8 C :    0.002004
   9 C :   -0.132847
  10 C :   -0.128968
  11 C :   -0.010940
  12 Cl:    0.165908
  13 Cl:    0.163115
  14 C :    0.083388
  15 O :   -0.130893
  16 C :   -0.094920
  17 C :    0.070611
  18 C :   -0.062588
  19 C :    0.083932
  20 C :   -0.076866
  21 C :   -0.032616
  22 N :   -0.044628
  23 C :    0.029589
  24 C :    0.026820
  25 C :    0.049490
  26 C :   -0.013003
  27 C :   -0.017372
  28 C :   -0.028139
  29 C :   -0.028915
  30 C :   -0.027742
  31 N :   -0.030225
  32 C :   -0.013843
  33 C :   -0.003855
  34 C :   -0.024346
  35 C :   -0.014386
  36 C :    0.012315
  37 O :    0.005374
  38 C :   -0.008193
  39 C :   -0.008127
  40 C :    0.004235
  41 O :   -0.031087
  42 O :   -0.050053
  43 C :   -0.028100
  44 C :   -0.024923
  45 C :   -0.020241
  46 C :   -0.013578
  47 C :   -0.034038
  48 C :   -0.029770
  49 N :   -0.029936
  50 C :   -0.021945
  51 C :    0.049976
  52 C :    0.031503
  53 C :   -0.040837
  54 C :    0.039946
  55 C :   -0.054556
  56 C :    0.009244
  57 C :   -0.032485
  58 N :   -0.034304
  59 C :    0.029306
  60 C :   -0.023440
  61 C :    0.067893
  62 C :   -0.093002
  63 C :    0.073439
  64 C :   -0.131007
  65 C :   -0.020069
  66 N :   -0.042315
  67 C :   -0.019607
  68 N :   -0.045549
  69 C :   -0.013687
  70 C :   -0.044238
  71 C :    0.085719
  72 O :   -0.139310
  73 C :    0.001941
  74 C :   -0.133188
  75 C :   -0.129431
  76 C :   -0.011481
  77 Cl:    0.165229
  78 Cl:    0.162296
  79 H :    0.046717
  80 H :    0.045071
  81 H :    0.045402
  82 H :    0.039321
  83 H :    0.040563
  84 H :    0.033453
  85 H :    0.033176
  86 H :    0.039492
  87 H :    0.033905
  88 H :    0.032619
  89 H :    0.041767
  90 H :    0.109512
  91 H :    0.102635
  92 H :    0.028438
  93 H :    0.035439
  94 H :    0.028975
  95 H :    0.034739
  96 H :    0.040539
  97 H :    0.037166
  98 H :    0.038825
  99 H :    0.034512
 100 H :    0.042416
 101 H :    0.046282
 102 H :    0.044800

  Mayer bond orders larger than 0.100000
B(  0-C ,  1-C ) :   1.6590 B(  0-C ,  6-C ) :   0.9979 B(  0-C , 16-C ) :   1.0463
B(  1-C ,  2-C ) :   1.1359 B(  1-C ,  4-C ) :   1.1422 B(  2-C ,  3-N ) :   2.9760
B(  4-C ,  5-N ) :   2.9739 B(  6-C ,  7-C ) :   1.3247 B(  6-C , 11-C ) :   1.3391
B(  7-C ,  8-C ) :   1.3445 B(  7-C , 14-C ) :   0.9443 B(  8-C ,  9-C ) :   1.3434
B(  8-C , 79-H ) :   1.0169 B(  9-C , 10-C ) :   1.4006 B(  9-C , 13-Cl) :   1.0518
B( 10-C , 11-C ) :   1.3623 B( 10-C , 12-Cl) :   1.0801 B( 11-C , 80-H ) :   0.9867
B( 14-C , 15-O ) :   2.2275 B( 14-C , 16-C ) :   0.9384 B( 16-C , 17-C ) :   1.6309
B( 17-C , 18-C ) :   1.1048 B( 17-C , 81-H ) :   0.9280 B( 18-C , 19-C ) :   1.5398
B( 18-C , 24-C ) :   1.0731 B( 19-C , 20-C ) :   1.1307 B( 19-C , 82-H ) :   1.0074
B( 20-C , 21-C ) :   1.0586 B( 20-C , 23-C ) :   1.5777 B( 21-C , 22-N ) :   3.0442
B( 23-C , 24-C ) :   1.1032 B( 23-C , 83-H ) :   1.0098 B( 24-C , 25-C ) :   1.4349
B( 25-C , 26-C ) :   1.0108 B( 25-C , 29-C ) :   1.1619 B( 26-C , 27-C ) :   1.5111
B( 26-C , 32-C ) :   1.1641 B( 27-C , 28-C ) :   1.1543 B( 27-C , 84-H ) :   1.0241
B( 28-C , 29-C ) :   1.5396 B( 28-C , 30-C ) :   1.0602 B( 29-C , 85-H ) :   1.0120
B( 30-C , 31-N ) :   3.0410 B( 32-C , 33-C ) :   1.5362 B( 32-C , 86-H ) :   0.9694
B( 33-C , 34-C ) :   1.1827 B( 33-C , 87-H ) :   0.9770 B( 34-C , 35-C ) :   1.5425
B( 34-C , 88-H ) :   0.9819 B( 35-C , 36-C ) :   1.1889 B( 35-C , 89-H ) :   0.9699
B( 36-C , 37-O ) :   1.1029 B( 36-C , 38-C ) :   0.1041 B( 36-C , 40-C ) :   1.3635
B( 37-O , 38-C ) :   1.1249 B( 38-C , 39-C ) :   1.2723 B( 38-C , 43-C ) :   1.1766
B( 39-C , 40-C ) :   1.2758 B( 39-C , 42-O ) :   1.2440 B( 40-C , 41-O ) :   1.2468
B( 41-O , 90-H ) :   0.9444 B( 42-O , 91-H ) :   0.9543 B( 43-C , 44-C ) :   1.6201
B( 43-C , 92-H ) :   0.9618 B( 44-C , 45-C ) :   1.0896 B( 44-C , 93-H ) :   0.9757
B( 45-C , 46-C ) :   1.5802 B( 45-C , 51-C ) :   1.0307 B( 46-C , 47-C ) :   1.1189
B( 46-C , 94-H ) :   1.0129 B( 47-C , 48-C ) :   1.0561 B( 47-C , 50-C ) :   1.6003
B( 48-C , 49-N ) :   3.0393 B( 50-C , 51-C ) :   1.1038 B( 50-C , 95-H ) :   1.0136
B( 51-C , 52-C ) :   1.4759 B( 52-C , 53-C ) :   1.0491 B( 52-C , 56-C ) :   1.0951
B( 53-C , 54-C ) :   1.5843 B( 53-C , 59-C ) :   1.0596 B( 54-C , 55-C ) :   1.1095
B( 54-C , 96-H ) :   1.0161 B( 55-C , 56-C ) :   1.6088 B( 55-C , 57-C ) :   1.0589
B( 56-C , 97-H ) :   1.0135 B( 57-C , 58-N ) :   3.0414 B( 59-C , 60-C ) :   1.5921
B( 59-C , 98-H ) :   0.9702 B( 60-C , 61-C ) :   1.1574 B( 60-C , 99-H ) :   0.9828
B( 61-C , 62-C ) :   1.5438 B( 61-C ,100-H ) :   0.9604 B( 62-C , 63-C ) :   1.0639
B( 62-C , 71-C ) :   0.9460 B( 63-C , 64-C ) :   1.6393 B( 63-C , 69-C ) :   0.9940
B( 64-C , 65-C ) :   1.1383 B( 64-C , 67-C ) :   1.1486 B( 65-C , 66-N ) :   2.9704
B( 67-C , 68-N ) :   2.9597 B( 69-C , 70-C ) :   1.3323 B( 69-C , 76-C ) :   1.3396
B( 70-C , 71-C ) :   0.9439 B( 70-C , 73-C ) :   1.3429 B( 71-C , 72-O ) :   2.2050
B( 73-C , 74-C ) :   1.3427 B( 73-C ,101-H ) :   1.0171 B( 74-C , 75-C ) :   1.4032
B( 74-C , 78-Cl) :   1.0509 B( 75-C , 76-C ) :   1.3618 B( 75-C , 77-Cl) :   1.0794
B( 76-C ,102-H ) :   0.9856

-----------------------------------------------------------------------------
         ABSORPTION SPECTRUM VIA TRANSITION ELECTRIC DIPOLE MOMENTS
-----------------------------------------------------------------------------
State   Energy  Wavelength   fosc         T2         TX        TY        TZ
        (cm-1)    (nm)                  (au**2)     (au)      (au)      (au)
-----------------------------------------------------------------------------
   0    6284.4   1591.2   0.307325331  16.09930  -3.31944  -2.22253   0.37542
   1    8008.5   1248.7   0.090842746   3.73434   0.03283   0.50596   1.86474
   2   13692.0    730.4   0.086585852   2.08188  -0.80555  -0.26961   1.16631
   3   15329.5    652.3   0.014631124   0.31421  -0.23981   0.01292   0.50650
   4   16788.2    595.7   0.018273524   0.35834  -0.32196  -0.47804  -0.16174
   5   18390.3    543.8   0.367190450   6.57324  -1.49858  -2.03922   0.41119
   6   20423.4    489.6   0.058622815   0.94496   0.69298   0.45735  -0.50555
   7   21192.0    471.9   0.031243983   0.48537  -0.36275  -0.46707  -0.36827
   8   23174.9    431.5   0.857451747  12.18058  -2.72386  -1.95272   0.97368
   9   24118.3    414.6   0.140982421   1.92439   0.53717   0.84117  -0.96347
  10   24207.2    413.1   0.348487683   4.73935  -0.00855  -0.58166  -2.09785
  11   24543.6    407.4   0.029725606   0.39872  -0.01577  -0.18604   0.60321
  12   24673.7    405.3   0.115646736   1.54303  -0.19638   0.58764   1.07664
  13   24784.6    403.5   0.109096763   1.44912   0.09632   0.78954  -0.90359
  14   25144.0    397.7   0.097032770   1.27046  -0.61916  -0.41456   0.84571
  15   25327.3    394.8   0.120773630   1.56985  -0.33705   0.49170   1.10203
  16   25497.3    392.2   0.093866089   1.21197  -0.30218  -1.05603   0.07388
  17   26020.4    384.3   0.029440883   0.37249   0.26582  -0.07539   0.54419
  18   26230.3    381.2   0.184587779   2.31673  -0.65227  -0.51735   1.27421
  19   26789.6    373.3   0.022300676   0.27405  -0.21426  -0.45298   0.15148
  20   27209.7    367.5   0.010025141   0.12130  -0.23456  -0.24732   0.07150
  21   27368.8    365.4   0.116347901   1.39952  -0.47559  -1.06827   0.17923
  22   28124.5    355.6   0.246166585   2.88150  -0.19936  -1.15114   1.23151
  23   28376.2    352.4   0.125058857   1.45089   0.93183   0.05688  -0.76115
  24   29207.1    342.4   0.191497960   2.15850   0.77908  -1.09480  -0.59409
  25   29742.1    336.2   0.052412087   0.58014  -0.13167   0.74995  -0.01955
  26   30088.0    332.4   0.420017792   4.59567   0.58796   1.97155   0.60247
  27   30361.0    329.4   0.436983711   4.73832   0.14421  -2.15191   0.29459
  28   30601.2    326.8   0.394236236   4.24125   0.05937  -2.03415   0.31616
  29   31011.6    322.5   0.005511006   0.05850   0.08187   0.11793   0.19466
  30   31215.4    320.4   0.062936472   0.66376  -0.75736   0.08518  -0.28792
  31   31357.0    318.9   0.151341957   1.58891  -1.23955   0.06374   0.21994
  32   31718.2    315.3   0.286284167   2.97142  -0.17479  -1.67595   0.36342
  33   32005.2    312.4   0.110103314   1.13255   0.94372   0.04897  -0.48944
  34   32094.2    311.6   0.002306831   0.02366   0.06472  -0.13777   0.02222
  35   32122.8    311.3   0.175512285   1.79874  -1.22296  -0.04311  -0.54886
  36   32394.4    308.7   0.008101543   0.08233   0.09479   0.00152   0.27082
  37   32410.8    308.5   0.031556511   0.32053   0.37799   0.37760  -0.18727
  38   32772.9    305.1   0.015589646   0.15660   0.16921  -0.18317   0.30728
  39   32901.0    303.9   0.000250325   0.00250  -0.02747  -0.02771  -0.03134
  40   33276.0    300.5   0.020460612   0.20242   0.44273  -0.07780   0.01912
  41   33597.0    297.6   0.090332206   0.88515   0.81826  -0.22620   0.40550
  42   33997.9    294.1   0.082072931   0.79474  -0.36800  -0.76377  -0.27562
  43   34165.7    292.7   0.016428096   0.15830  -0.15028  -0.36816  -0.01296
  44   34958.4    286.1   0.011062777   0.10418  -0.20957  -0.03096  -0.24352
  45   34975.4    285.9   0.354344813   3.33533   1.52129  -0.85041   0.54570
  46   35102.9    284.9   0.412454609   3.86820   1.63414  -1.09335  -0.04890
  47   35330.5    283.0   0.032027114   0.29843   0.39930   0.37269   0.00934
  48   35390.5    282.6   0.218001544   2.02791   0.67550   0.96710   0.79770
  49   35691.1    280.2   0.041889897   0.38639   0.11581  -0.41244  -0.45041
  50   36268.0    275.7   0.148852254   1.35116   0.54866  -0.94066   0.40655
  51   36521.0    273.8   0.154710770   1.39461  -0.35278   1.06072  -0.38082
  52   36749.6    272.1   0.038277171   0.34290   0.21001  -0.50083   0.21901
  53   36795.8    271.8   0.016393966   0.14668  -0.20446   0.26978   0.17914
  54   36879.7    271.2   0.029940560   0.26727  -0.07151  -0.38560  -0.33685
  55   36996.3    270.3   0.027434161   0.24412  -0.22032  -0.40827   0.16999
  56   37151.9    269.2   0.184548479   1.63533  -0.11347   1.26489   0.15006
  57   37417.1    267.3   0.088203904   0.77606   0.16440  -0.77238  -0.39045
  58   37496.0    266.7   0.020960256   0.18403  -0.05628   0.37504   0.20051
  59   38110.4    262.4   0.017035809   0.14716  -0.17326   0.15118   0.30706
  60   38206.7    261.7   0.006490027   0.05592   0.12770   0.19454   0.04207
  61   38271.9    261.3   0.001133497   0.00975   0.00531  -0.06414  -0.07489
  62   38406.2    260.4   0.080700292   0.69175   0.13461   0.74804  -0.33773
  63   39010.4    256.3   0.060626841   0.51163   0.14786  -0.69280   0.09903
  64   39252.7    254.8   0.000170731   0.00143  -0.00517  -0.03708   0.00549
  65   39792.7    251.3   0.000930876   0.00770  -0.01158  -0.00510  -0.08684
  66   40008.2    249.9   0.067243722   0.55332  -0.55427   0.10558   0.48472
  67   40079.7    249.5   0.009426060   0.07742  -0.15295  -0.16617   0.16253

FINAL SINGLE POINT ENERGY     -5027.045078675448

DIPOLE MOMENT
-------------
                                X             Y             Z
Electronic contribution:     -8.12295      15.34883      68.87333
Nuclear contribution   :      8.11245     -16.40823     -71.55636
                        -----------------------------------------
Total Dipole Moment    :     -0.01051      -1.05940      -2.68304
                        -----------------------------------------
Magnitude (a.u.)       :      2.88464
Magnitude (Debye)      :      7.33216

Rotational constants in cm-1:     0.000790     0.000181     0.000160
Rotational constants in MHz :    23.687657     5.412395     4.804985

                             ****ORCA TERMINATED NORMALLY****
TOTAL RUN TIME: 0 days 0 hours 12 minutes 32 seconds 665 msec
