                         Program Version 4.2.0 -  RELEASE  -
|  1> # ORCA input file
|  2> # SCF done       -216.765699857662          0.000510805105
|  3> ! CAM-B3LYP def2-SVP def2/J RIJCOSX Grid4 TightSCF
|  4> %maxcore 5000
|  5> %tddft
|  6>     Mode sTDDFT
|  7>     Ethresh 5.0
|  8>     maxcore 5000
|  9> end
| 10>
| 11> %pal
| 12>   nprocs 6
| 13>   end
| 14> * xyz 0 1
| 15>    C        5.48696         1.48620        -4.72285
| 16>    C        5.83391         1.34209        -6.05832
| 17>    F        5.77815         2.41010        -6.85915
| 18>    C        6.23737         0.11352        -6.58395
| 19>    F        6.56314         0.02152        -7.87750
| 20>    C        6.30247        -1.01131        -5.77782
| 21>    C        5.95539        -0.86667        -4.44893
| 22>    C        5.54942         0.36580        -3.90903
| 23>    C        5.25785         0.18560        -2.48573
| 24>    C        4.88271         1.18307        -1.62660
| 25>    C        4.70489         2.53103        -2.00953
| 26>    N        4.54108         3.63946        -2.25571
| 27>    C        4.63343         1.03263        -0.24471
| 28>    N        4.42321         0.99831         0.88328
| 29>    C        5.47106        -1.21687        -2.17584
| 30>    C        5.93442        -1.89430        -3.39063
| 31>    O        6.23809        -3.06670        -3.51828
| 32>    C        5.24394        -1.81896        -0.96335
| 33>    C        5.42847        -3.14867        -0.55876
| 34>    C        5.11231        -3.56937         0.74164
| 35>    C        5.38656        -4.90532         0.94650
| 36>    C        5.92843        -5.52633        -0.20850
| 37>    S        6.07825        -4.46709        -1.53387
| 38>    C        6.19018        -6.87937         0.10110
| 39>    C        5.81737        -7.11978         1.44311
| 40>    C        5.30020        -5.88819         2.01620
| 41>    C        4.84024        -5.69282         3.28410
| 42>    C        4.81853        -6.72309         4.24951
| 43>    N        4.80338        -7.54773         5.04522
| 44>    C        4.35451        -4.44138         3.72124
| 45>    N        3.95640        -3.42783         4.07897
| 46>    C        6.04915        -8.42757         1.84249
| 47>    C        6.60314        -9.19474         0.82242
| 48>    S        6.83295        -8.26897        -0.65512
| 49>    C        7.00248       -10.55903         0.86008
| 50>    C        6.83687       -11.41614         1.97630
| 51>    C        7.32356       -12.76602         1.96188
| 52>    N        7.15501       -13.54489         3.05002
| 53>    C        6.54925       -13.07729         4.09178
| 54>    C        6.05436       -11.74515         4.10099
| 55>    N        6.20473       -10.96590         3.08053
| 56>    F        5.41566       -11.26691         5.15872
| 57>    F        6.40033       -13.87867         5.13823
| 58>    C        7.98571       -13.34499         0.85494
| 59>    C        8.11275       -12.50705        -0.27644
| 60>    C        7.62869       -11.14968        -0.26146
| 61>    N        7.85627       -10.53440        -1.42291
| 62>    S        8.59370       -11.54615        -2.42704
| 63>    N        8.66822       -12.81132        -1.45093
| 64>    C        8.49586       -14.66900         0.89996
| 65>    C        9.15893       -15.33365        -0.12810
| 66>    C        9.55991       -16.60520         0.25045
| 67>    C        9.20212       -16.91627         1.58122
| 68>    S        8.36251       -15.64155         2.35211
| 69>    C        9.67733       -18.21375         1.87113
| 70>    C       10.32509       -18.73390         0.72765
| 71>    C       10.26927       -17.73609        -0.32761
| 72>    C       10.77391       -17.83427        -1.59045
| 73>    C       11.43686       -18.99424        -2.04585
| 74>    N       11.96913       -19.93755        -2.42100
| 75>    C       10.65977       -16.78513        -2.52791
| 76>    N       10.56523       -15.93814        -3.29465
| 77>    C       10.82179       -20.01466         0.92698
| 78>    C       10.60438       -20.46928         2.22175
| 79>    S        9.70612       -19.29478         3.18383
| 80>    C       10.95763       -21.74540         2.71203
| 81>    C       11.05773       -22.18729         3.99658
| 82>    C       10.97025       -23.64720         4.27579
| 83>    O       11.04264       -24.54616         3.47389
| 84>    C       10.71342       -23.74091         5.73125
| 85>    C       10.78229       -22.45848         6.30519
| 86>    C       10.54768       -22.28693         7.65957
| 87>    C       10.25006       -23.41249         8.41345
| 88>    C       10.19580       -24.68463         7.84008
| 89>    C       10.42780       -24.86231         6.48542
| 90>    F        9.91300       -25.74229         8.60735
| 91>    F       10.00649       -23.27199         9.71942
| 92>    C       11.15281       -21.49848         5.26603
| 93>    C       11.75856       -20.29065         5.48806
| 94>    C       12.37573       -19.53725         4.46723
| 95>    N       12.92374       -18.92191         3.66837
| 96>    C       11.92134       -19.71574         6.76577
| 97>    N       12.05947       -19.20050         7.78124
| 98>    H        5.18168         2.45709        -4.36911
| 99>    H        6.61316        -1.96271        -6.17914
|100>    H        4.85562        -1.18970        -0.17162
|101>    H        4.70484        -2.89751         1.47641
|102>    H        5.84131        -8.83233         2.81479
|103>    H        9.32519       -14.87766        -1.08662
|104>    H       11.34946       -20.59711         0.19328
|105>    H       11.09592       -22.51013         1.95279
|106>    H       10.57584       -21.32386         8.14304
|107>    H       10.38604       -25.84452         6.04230
|108> *
|109>
|110>                          ****END OF INPUT****

CARTESIAN COORDINATES (ANGSTROEM)
---------------------------------
  C      5.486960    1.486200   -4.722850
  C      5.833910    1.342090   -6.058320
  F      5.778150    2.410100   -6.859150
  C      6.237370    0.113520   -6.583950
  F      6.563140    0.021520   -7.877500
  C      6.302470   -1.011310   -5.777820
  C      5.955390   -0.866670   -4.448930
  C      5.549420    0.365800   -3.909030
  C      5.257850    0.185600   -2.485730
  C      4.882710    1.183070   -1.626600
  C      4.704890    2.531030   -2.009530
  N      4.541080    3.639460   -2.255710
  C      4.633430    1.032630   -0.244710
  N      4.423210    0.998310    0.883280
  C      5.471060   -1.216870   -2.175840
  C      5.934420   -1.894300   -3.390630
  O      6.238090   -3.066700   -3.518280
  C      5.243940   -1.818960   -0.963350
  C      5.428470   -3.148670   -0.558760
  C      5.112310   -3.569370    0.741640
  C      5.386560   -4.905320    0.946500
  C      5.928430   -5.526330   -0.208500
  S      6.078250   -4.467090   -1.533870
  C      6.190180   -6.879370    0.101100
  C      5.817370   -7.119780    1.443110
  C      5.300200   -5.888190    2.016200
  C      4.840240   -5.692820    3.284100
  C      4.818530   -6.723090    4.249510
  N      4.803380   -7.547730    5.045220
  C      4.354510   -4.441380    3.721240
  N      3.956400   -3.427830    4.078970
  C      6.049150   -8.427570    1.842490
  C      6.603140   -9.194740    0.822420
  S      6.832950   -8.268970   -0.655120
  C      7.002480  -10.559030    0.860080
  C      6.836870  -11.416140    1.976300
  C      7.323560  -12.766020    1.961880
  N      7.155010  -13.544890    3.050020
  C      6.549250  -13.077290    4.091780
  C      6.054360  -11.745150    4.100990
  N      6.204730  -10.965900    3.080530
  F      5.415660  -11.266910    5.158720
  F      6.400330  -13.878670    5.138230
  C      7.985710  -13.344990    0.854940
  C      8.112750  -12.507050   -0.276440
  C      7.628690  -11.149680   -0.261460
  N      7.856270  -10.534400   -1.422910
  S      8.593700  -11.546150   -2.427040
  N      8.668220  -12.811320   -1.450930
  C      8.495860  -14.669000    0.899960
  C      9.158930  -15.333650   -0.128100
  C      9.559910  -16.605200    0.250450
  C      9.202120  -16.916270    1.581220
  S      8.362510  -15.641550    2.352110
  C      9.677330  -18.213750    1.871130
  C     10.325090  -18.733900    0.727650
  C     10.269270  -17.736090   -0.327610
  C     10.773910  -17.834270   -1.590450
  C     11.436860  -18.994240   -2.045850
  N     11.969130  -19.937550   -2.421000
  C     10.659770  -16.785130   -2.527910
  N     10.565230  -15.938140   -3.294650
  C     10.821790  -20.014660    0.926980
  C     10.604380  -20.469280    2.221750
  S      9.706120  -19.294780    3.183830
  C     10.957630  -21.745400    2.712030
  C     11.057730  -22.187290    3.996580
  C     10.970250  -23.647200    4.275790
  O     11.042640  -24.546160    3.473890
  C     10.713420  -23.740910    5.731250
  C     10.782290  -22.458480    6.305190
  C     10.547680  -22.286930    7.659570
  C     10.250060  -23.412490    8.413450
  C     10.195800  -24.684630    7.840080
  C     10.427800  -24.862310    6.485420
  F      9.913000  -25.742290    8.607350
  F     10.006490  -23.271990    9.719420
  C     11.152810  -21.498480    5.266030
  C     11.758560  -20.290650    5.488060
  C     12.375730  -19.537250    4.467230
  N     12.923740  -18.921910    3.668370
  C     11.921340  -19.715740    6.765770
  N     12.059470  -19.200500    7.781240
  H      5.181680    2.457090   -4.369110
  H      6.613160   -1.962710   -6.179140
  H      4.855620   -1.189700   -0.171620
  H      4.704840   -2.897510    1.476410
  H      5.841310   -8.832330    2.814790
  H      9.325190  -14.877660   -1.086620
  H     11.349460  -20.597110    0.193280
  H     11.095920  -22.510130    1.952790
  H     10.575840  -21.323860    8.143040
  H     10.386040  -25.844520    6.042300

 Total Charge           Charge          ....    0
 Multiplicity           Mult            ....    1
 Number of Electrons    NEL             ....  592
 Basis Dimension        Dim             .... 1232

ORBITAL ENERGIES
----------------

  NO   OCC          E(Eh)            E(eV)
   0   2.0000     -89.063913     -2423.5523
   1   2.0000     -89.004089     -2421.9244
   2   2.0000     -88.997558     -2421.7467
   3   2.0000     -88.997490     -2421.7448
   4   2.0000     -88.995725     -2421.6968
   5   2.0000     -24.837261      -675.8562
   6   2.0000     -24.830314      -675.6672
   7   2.0000     -24.809144      -675.0911
   8   2.0000     -24.808952      -675.0859
   9   2.0000     -24.808729      -675.0798
  10   2.0000     -24.807520      -675.0470
  11   2.0000     -19.237321      -523.4741
  12   2.0000     -19.228498      -523.2340
  13   2.0000     -14.478810      -393.9885
  14   2.0000     -14.473230      -393.8366
  15   2.0000     -14.472160      -393.8075
  16   2.0000     -14.471899      -393.8004
  17   2.0000     -14.437957      -392.8768
  18   2.0000     -14.437883      -392.8748
  19   2.0000     -14.434518      -392.7832
  20   2.0000     -14.434459      -392.7816
  21   2.0000     -14.427647      -392.5962
  22   2.0000     -14.426733      -392.5714
  23   2.0000     -14.426595      -392.5676
  24   2.0000     -14.423691      -392.4886
  25   2.0000     -10.454485      -284.4810
  26   2.0000     -10.450695      -284.3779
  27   2.0000     -10.395570      -282.8778
  28   2.0000     -10.394637      -282.8525
  29   2.0000     -10.394561      -282.8504
  30   2.0000     -10.394158      -282.8394
  31   2.0000     -10.385727      -282.6100
  32   2.0000     -10.380663      -282.4722
  33   2.0000     -10.373634      -282.2809
  34   2.0000     -10.370602      -282.1984
  35   2.0000     -10.368298      -282.1357
  36   2.0000     -10.366432      -282.0850
  37   2.0000     -10.361266      -281.9444
  38   2.0000     -10.361179      -281.9420
  39   2.0000     -10.360109      -281.9129
  40   2.0000     -10.358627      -281.8726
  41   2.0000     -10.357939      -281.8539
  42   2.0000     -10.356835      -281.8238
  43   2.0000     -10.354690      -281.7655
  44   2.0000     -10.353824      -281.7419
  45   2.0000     -10.352259      -281.6993
  46   2.0000     -10.342201      -281.4256
  47   2.0000     -10.340086      -281.3680
  48   2.0000     -10.339301      -281.3467
  49   2.0000     -10.338313      -281.3198
  50   2.0000     -10.338098      -281.3140
  51   2.0000     -10.337837      -281.3068
  52   2.0000     -10.337662      -281.3021
  53   2.0000     -10.337586      -281.3000
  54   2.0000     -10.336534      -281.2714
  55   2.0000     -10.335690      -281.2484
  56   2.0000     -10.335535      -281.2442
  57   2.0000     -10.335325      -281.2385
  58   2.0000     -10.335290      -281.2375
  59   2.0000     -10.334412      -281.2137
  60   2.0000     -10.334238      -281.2089
  61   2.0000     -10.329589      -281.0824
  62   2.0000     -10.328640      -281.0566
  63   2.0000     -10.328252      -281.0460
  64   2.0000     -10.327152      -281.0161
  65   2.0000     -10.326132      -280.9883
  66   2.0000     -10.325585      -280.9735
  67   2.0000     -10.322449      -280.8881
  68   2.0000     -10.320853      -280.8447
  69   2.0000     -10.318037      -280.7681
  70   2.0000     -10.317954      -280.7658
  71   2.0000     -10.317671      -280.7581
  72   2.0000     -10.316792      -280.7342
  73   2.0000     -10.316251      -280.7195
  74   2.0000     -10.314077      -280.6603
  75   2.0000     -10.313463      -280.6436
  76   2.0000     -10.313367      -280.6410
  77   2.0000     -10.312459      -280.6163
  78   2.0000     -10.311789      -280.5980
  79   2.0000     -10.310373      -280.5595
  80   2.0000     -10.309612      -280.5388
  81   2.0000     -10.308367      -280.5049
  82   2.0000     -10.306709      -280.4598
  83   2.0000      -8.154691      -221.9004
  84   2.0000      -8.098208      -220.3634
  85   2.0000      -8.090154      -220.1443
  86   2.0000      -8.089859      -220.1362
  87   2.0000      -8.088874      -220.1095
  88   2.0000      -6.125761      -166.6904
  89   2.0000      -6.117982      -166.4788
  90   2.0000      -6.117556      -166.4672
  91   2.0000      -6.067438      -165.1034
  92   2.0000      -6.063220      -164.9886
  93   2.0000      -6.060690      -164.9198
  94   2.0000      -6.059650      -164.8915
  95   2.0000      -6.059271      -164.8811
  96   2.0000      -6.058285      -164.8543
  97   2.0000      -6.054884      -164.7618
  98   2.0000      -6.054524      -164.7520
  99   2.0000      -6.053659      -164.7284
 100   2.0000      -6.052666      -164.7014
 101   2.0000      -6.052424      -164.6948
 102   2.0000      -6.051351      -164.6656
 103   2.0000      -1.364135       -37.1200
 104   2.0000      -1.348769       -36.7019
 105   2.0000      -1.333200       -36.2782
 106   2.0000      -1.332624       -36.2625
 107   2.0000      -1.317892       -35.8617
 108   2.0000      -1.317345       -35.8468
 109   2.0000      -1.161443       -31.6045
 110   2.0000      -1.153290       -31.3826
 111   2.0000      -1.144837       -31.1526
 112   2.0000      -1.135814       -30.9071
 113   2.0000      -1.062641       -28.9159
 114   2.0000      -1.055281       -28.7157
 115   2.0000      -1.052159       -28.6307
 116   2.0000      -1.033774       -28.1304
 117   2.0000      -1.031314       -28.0635
 118   2.0000      -1.029785       -28.0219
 119   2.0000      -1.027138       -27.9498
 120   2.0000      -1.020306       -27.7639
 121   2.0000      -1.015727       -27.6393
 122   2.0000      -1.013561       -27.5804
 123   2.0000      -1.012975       -27.5645
 124   2.0000      -1.012821       -27.5603
 125   2.0000      -1.011870       -27.5344
 126   2.0000      -1.005916       -27.3724
 127   2.0000      -1.003710       -27.3123
 128   2.0000      -1.002040       -27.2669
 129   2.0000      -0.990636       -26.9566
 130   2.0000      -0.971941       -26.4479
 131   2.0000      -0.968671       -26.3589
 132   2.0000      -0.964371       -26.2419
 133   2.0000      -0.961581       -26.1659
 134   2.0000      -0.932597       -25.3772
 135   2.0000      -0.926920       -25.2228
 136   2.0000      -0.916319       -24.9343
 137   2.0000      -0.913366       -24.8539
 138   2.0000      -0.906860       -24.6769
 139   2.0000      -0.904331       -24.6081
 140   2.0000      -0.891928       -24.2706
 141   2.0000      -0.888037       -24.1647
 142   2.0000      -0.884325       -24.0637
 143   2.0000      -0.883190       -24.0328
 144   2.0000      -0.878025       -23.8923
 145   2.0000      -0.870864       -23.6974
 146   2.0000      -0.865348       -23.5473
 147   2.0000      -0.862628       -23.4733
 148   2.0000      -0.840089       -22.8600
 149   2.0000      -0.829527       -22.5726
 150   2.0000      -0.824190       -22.4273
 151   2.0000      -0.807494       -21.9730
 152   2.0000      -0.797071       -21.6894
 153   2.0000      -0.788079       -21.4447
 154   2.0000      -0.785960       -21.3871
 155   2.0000      -0.784227       -21.3399
 156   2.0000      -0.782054       -21.2808
 157   2.0000      -0.774855       -21.0849
 158   2.0000      -0.770693       -20.9716
 159   2.0000      -0.756539       -20.5865
 160   2.0000      -0.742876       -20.2147
 161   2.0000      -0.730139       -19.8681
 162   2.0000      -0.720876       -19.6160
 163   2.0000      -0.718321       -19.5465
 164   2.0000      -0.714222       -19.4350
 165   2.0000      -0.707736       -19.2585
 166   2.0000      -0.703672       -19.1479
 167   2.0000      -0.702095       -19.1050
 168   2.0000      -0.699732       -19.0407
 169   2.0000      -0.696211       -18.9449
 170   2.0000      -0.694273       -18.8921
 171   2.0000      -0.689927       -18.7739
 172   2.0000      -0.687041       -18.6953
 173   2.0000      -0.679978       -18.5031
 174   2.0000      -0.674793       -18.3620
 175   2.0000      -0.667566       -18.1654
 176   2.0000      -0.660019       -17.9600
 177   2.0000      -0.655149       -17.8275
 178   2.0000      -0.654031       -17.7971
 179   2.0000      -0.651283       -17.7223
 180   2.0000      -0.648558       -17.6482
 181   2.0000      -0.644324       -17.5329
 182   2.0000      -0.640999       -17.4425
 183   2.0000      -0.638576       -17.3765
 184   2.0000      -0.635861       -17.3026
 185   2.0000      -0.628829       -17.1113
 186   2.0000      -0.627152       -17.0657
 187   2.0000      -0.623112       -16.9557
 188   2.0000      -0.622065       -16.9272
 189   2.0000      -0.617011       -16.7897
 190   2.0000      -0.613255       -16.6875
 191   2.0000      -0.607213       -16.5231
 192   2.0000      -0.604647       -16.4533
 193   2.0000      -0.600624       -16.3438
 194   2.0000      -0.597764       -16.2660
 195   2.0000      -0.597443       -16.2572
 196   2.0000      -0.589418       -16.0389
 197   2.0000      -0.587404       -15.9841
 198   2.0000      -0.581575       -15.8255
 199   2.0000      -0.574680       -15.6378
 200   2.0000      -0.572238       -15.5714
 201   2.0000      -0.569114       -15.4864
 202   2.0000      -0.562344       -15.3021
 203   2.0000      -0.561407       -15.2767
 204   2.0000      -0.561043       -15.2668
 205   2.0000      -0.558139       -15.1877
 206   2.0000      -0.557619       -15.1736
 207   2.0000      -0.557035       -15.1577
 208   2.0000      -0.556473       -15.1424
 209   2.0000      -0.550322       -14.9750
 210   2.0000      -0.549450       -14.9513
 211   2.0000      -0.549204       -14.9446
 212   2.0000      -0.545299       -14.8383
 213   2.0000      -0.542563       -14.7639
 214   2.0000      -0.541025       -14.7220
 215   2.0000      -0.538679       -14.6582
 216   2.0000      -0.537207       -14.6181
 217   2.0000      -0.534893       -14.5552
 218   2.0000      -0.530722       -14.4417
 219   2.0000      -0.529085       -14.3971
 220   2.0000      -0.520078       -14.1520
 221   2.0000      -0.519171       -14.1274
 222   2.0000      -0.517200       -14.0737
 223   2.0000      -0.513693       -13.9783
 224   2.0000      -0.510639       -13.8952
 225   2.0000      -0.508219       -13.8293
 226   2.0000      -0.507462       -13.8087
 227   2.0000      -0.506626       -13.7860
 228   2.0000      -0.505806       -13.7637
 229   2.0000      -0.505314       -13.7503
 230   2.0000      -0.503741       -13.7075
 231   2.0000      -0.503529       -13.7017
 232   2.0000      -0.501347       -13.6423
 233   2.0000      -0.500811       -13.6278
 234   2.0000      -0.495721       -13.4893
 235   2.0000      -0.495188       -13.4748
 236   2.0000      -0.493257       -13.4222
 237   2.0000      -0.484554       -13.1854
 238   2.0000      -0.482359       -13.1256
 239   2.0000      -0.478494       -13.0205
 240   2.0000      -0.473173       -12.8757
 241   2.0000      -0.468945       -12.7606
 242   2.0000      -0.467975       -12.7343
 243   2.0000      -0.467529       -12.7221
 244   2.0000      -0.466008       -12.6807
 245   2.0000      -0.465157       -12.6576
 246   2.0000      -0.464808       -12.6481
 247   2.0000      -0.464075       -12.6281
 248   2.0000      -0.463097       -12.6015
 249   2.0000      -0.459916       -12.5150
 250   2.0000      -0.459426       -12.5016
 251   2.0000      -0.457576       -12.4513
 252   2.0000      -0.456782       -12.4297
 253   2.0000      -0.455259       -12.3882
 254   2.0000      -0.452315       -12.3081
 255   2.0000      -0.451820       -12.2946
 256   2.0000      -0.448100       -12.1934
 257   2.0000      -0.447186       -12.1686
 258   2.0000      -0.446345       -12.1457
 259   2.0000      -0.444706       -12.1011
 260   2.0000      -0.444503       -12.0955
 261   2.0000      -0.443982       -12.0814
 262   2.0000      -0.439953       -11.9717
 263   2.0000      -0.437617       -11.9082
 264   2.0000      -0.436472       -11.8770
 265   2.0000      -0.435368       -11.8470
 266   2.0000      -0.433201       -11.7880
 267   2.0000      -0.430957       -11.7269
 268   2.0000      -0.429963       -11.6999
 269   2.0000      -0.428402       -11.6574
 270   2.0000      -0.422402       -11.4941
 271   2.0000      -0.420306       -11.4371
 272   2.0000      -0.416942       -11.3456
 273   2.0000      -0.414166       -11.2700
 274   2.0000      -0.413771       -11.2593
 275   2.0000      -0.410015       -11.1571
 276   2.0000      -0.397372       -10.8130
 277   2.0000      -0.393416       -10.7054
 278   2.0000      -0.388807       -10.5800
 279   2.0000      -0.383254       -10.4289
 280   2.0000      -0.371206       -10.1010
 281   2.0000      -0.363415        -9.8890
 282   2.0000      -0.361111        -9.8263
 283   2.0000      -0.358841        -9.7646
 284   2.0000      -0.357155        -9.7187
 285   2.0000      -0.355246        -9.6667
 286   2.0000      -0.353439        -9.6176
 287   2.0000      -0.352383        -9.5888
 288   2.0000      -0.346362        -9.4250
 289   2.0000      -0.331622        -9.0239
 290   2.0000      -0.328743        -8.9455
 291   2.0000      -0.326180        -8.8758
 292   2.0000      -0.324184        -8.8215
 293   2.0000      -0.312917        -8.5149
 294   2.0000      -0.285563        -7.7706
 295   2.0000      -0.253717        -6.9040
 296   0.0000      -0.142524        -3.8783
 297   0.0000      -0.115633        -3.1465
 298   0.0000      -0.106932        -2.9098
 299   0.0000      -0.095669        -2.6033
 300   0.0000      -0.093495        -2.5441

MULLIKEN ATOMIC CHARGES
-----------------------
   0 C :   -0.087672
   1 C :    0.237605
   2 F :   -0.161904
   3 C :    0.233358
   4 F :   -0.166517
   5 C :   -0.100540
   6 C :   -0.006649
   7 C :    0.042117
   8 C :    0.314765
   9 C :   -0.348868
  10 C :   -0.188607
  11 N :    0.161741
  12 C :   -0.191382
  13 N :    0.160996
  14 C :   -0.092330
  15 C :    0.160776
  16 O :   -0.181227
  17 C :   -0.027306
  18 C :   -0.053014
  19 C :   -0.061367
  20 C :    0.048722
  21 C :   -0.070861
  22 S :    0.243179
  23 C :   -0.077014
  24 C :    0.050134
  25 C :    0.312014
  26 C :   -0.304637
  27 C :   -0.189581
  28 N :    0.182071
  29 C :   -0.196995
  30 N :    0.186833
  31 C :   -0.066010
  32 C :   -0.175193
  33 S :    0.217559
  34 C :    0.199649
  35 C :   -0.065795
  36 C :   -0.060370
  37 N :   -0.057805
  38 C :    0.158356
  39 C :    0.152977
  40 N :    0.004087
  41 F :   -0.122705
  42 F :   -0.127732
  43 C :    0.175887
  44 C :   -0.000647
  45 C :   -0.029084
  46 N :   -0.338669
  47 S :    0.580812
  48 N :   -0.281254
  49 C :   -0.170282
  50 C :   -0.063578
  51 C :    0.045229
  52 C :   -0.066187
  53 S :    0.218128
  54 C :   -0.084782
  55 C :    0.026983
  56 C :    0.306010
  57 C :   -0.298859
  58 C :   -0.191442
  59 N :    0.180245
  60 C :   -0.183979
  61 N :    0.173034
  62 C :    0.003643
  63 C :   -0.091528
  64 S :    0.209061
  65 C :    0.044022
  66 C :   -0.136435
  67 C :    0.137089
  68 O :   -0.131882
  69 C :    0.010508
  70 C :    0.026425
  71 C :   -0.088150
  72 C :    0.239351
  73 C :    0.234286
  74 C :   -0.100041
  75 F :   -0.165656
  76 F :   -0.162446
  77 C :    0.238266
  78 C :   -0.318340
  79 C :   -0.208023
  80 N :    0.177942
  81 C :   -0.178484
  82 N :    0.163455
  83 H :    0.017657
  84 H :    0.010543
  85 H :    0.017702
  86 H :    0.029905
  87 H :    0.025036
  88 H :    0.022395
  89 H :    0.020678
  90 H :    0.036755
  91 H :    0.018815
  92 H :    0.015030
Sum of atomic charges:   -0.0000000

LOEWDIN ATOMIC CHARGES
----------------------
   0 C :   -0.016960
   1 C :    0.075130
   2 F :   -0.040527
   3 C :    0.070582
   4 F :   -0.043368
   5 C :   -0.005043
   6 C :   -0.046063
   7 C :   -0.012965
   8 C :    0.074742
   9 C :   -0.133847
  10 C :   -0.019904
  11 N :   -0.044113
  12 C :   -0.023413
  13 N :   -0.040499
  14 C :   -0.114090
  15 C :    0.085180
  16 O :   -0.168885
  17 C :    0.057232
  18 C :   -0.183387
  19 C :    0.013706
  20 C :   -0.073743
  21 C :   -0.163575
  22 S :    0.545375
  23 C :   -0.189016
  24 C :   -0.059368
  25 C :    0.075946
  26 C :   -0.099240
  27 C :   -0.018534
  28 N :   -0.027046
  29 C :   -0.019965
  30 N :   -0.024416
  31 C :   -0.014248
  32 C :   -0.154823
  33 S :    0.519985
  34 C :   -0.044611
  35 C :   -0.004411
  36 C :   -0.014288
  37 N :   -0.059787
  38 C :    0.068347
  39 C :    0.065074
  40 N :   -0.027918
  41 F :   -0.012119
  42 F :   -0.017845
  43 C :   -0.040078
  44 C :   -0.038028
  45 C :   -0.046613
  46 N :   -0.305313
  47 S :    0.697792
  48 N :   -0.268744
  49 C :   -0.159240
  50 C :   -0.011515
  51 C :   -0.060161
  52 C :   -0.188907
  53 S :    0.519957
  54 C :   -0.149351
  55 C :   -0.068955
  56 C :    0.079480
  57 C :   -0.097718
  58 C :   -0.017799
  59 N :   -0.027561
  60 C :   -0.015579
  61 N :   -0.030880
  62 C :    0.016033
  63 C :   -0.178639
  64 S :    0.510796
  65 C :    0.052663
  66 C :   -0.103677
  67 C :    0.083527
  68 O :   -0.133476
  69 C :   -0.046699
  70 C :   -0.012562
  71 C :   -0.020063
  72 C :    0.075561
  73 C :    0.070709
  74 C :   -0.003144
  75 F :   -0.042838
  76 F :   -0.040502
  77 C :    0.059613
  78 C :   -0.139668
  79 C :   -0.036918
  80 N :   -0.043113
  81 C :   -0.022764
  82 N :   -0.042205
  83 H :    0.052199
  84 H :    0.051849
  85 H :    0.054232
  86 H :    0.048721
  87 H :    0.038249
  88 H :    0.038443
  89 H :    0.047987
  90 H :    0.056408
  91 H :    0.051696
  92 H :    0.053512

  Mayer bond orders larger than 0.100000
B(  0-C ,  1-C ) :   1.3335 B(  0-C ,  5-C ) :   0.1040 B(  0-C ,  7-C ) :   1.3171
B(  0-C , 83-H ) :   0.9914 B(  1-C ,  2-F ) :   1.1482 B(  1-C ,  3-C ) :   1.2906
B(  3-C ,  4-F ) :   1.1334 B(  3-C ,  5-C ) :   1.3163 B(  5-C ,  6-C ) :   1.3164
B(  5-C , 84-H ) :   1.0208 B(  6-C ,  7-C ) :   1.3417 B(  6-C , 15-C ) :   0.9733
B(  7-C ,  8-C ) :   1.0010 B(  8-C ,  9-C ) :   1.6404 B(  8-C , 14-C ) :   1.0824
B(  9-C , 10-C ) :   1.1404 B(  9-C , 12-C ) :   1.1419 B( 10-C , 11-N ) :   2.9777
B( 12-C , 13-N ) :   2.9648 B( 14-C , 15-C ) :   0.9859 B( 14-C , 17-C ) :   1.4853
B( 15-C , 16-O ) :   2.1269 B( 17-C , 18-C ) :   1.2793 B( 17-C , 85-H ) :   0.9381
B( 18-C , 19-C ) :   1.3182 B( 18-C , 22-S ) :   1.0673 B( 19-C , 20-C ) :   1.3408
B( 19-C , 86-H ) :   1.0069 B( 20-C , 21-C ) :   1.3439 B( 20-C , 25-C ) :   0.9835
B( 21-C , 22-S ) :   1.1260 B( 21-C , 23-C ) :   1.2147 B( 23-C , 24-C ) :   1.3904
B( 23-C , 33-S ) :   1.0930 B( 24-C , 25-C ) :   0.9940 B( 24-C , 31-C ) :   1.2748
B( 25-C , 26-C ) :   1.7157 B( 26-C , 27-C ) :   1.1393 B( 26-C , 29-C ) :   1.1361
B( 27-C , 28-N ) :   2.9901 B( 29-C , 30-N ) :   2.9950 B( 31-C , 32-C ) :   1.4052
B( 31-C , 87-H ) :   0.9858 B( 32-C , 33-S ) :   1.1098 B( 32-C , 34-C ) :   1.1829
B( 34-C , 35-C ) :   1.2944 B( 34-C , 43-C ) :   0.1272 B( 34-C , 45-C ) :   1.1925
B( 35-C , 36-C ) :   1.1166 B( 35-C , 40-N ) :   1.4399 B( 36-C , 37-N ) :   1.3761
B( 36-C , 43-C ) :   1.2934 B( 37-N , 38-C ) :   1.6507 B( 38-C , 39-C ) :   1.1008
B( 38-C , 42-F ) :   1.1969 B( 39-C , 40-N ) :   1.6589 B( 39-C , 41-F ) :   1.1914
B( 43-C , 44-C ) :   1.2018 B( 43-C , 49-C ) :   1.1945 B( 44-C , 45-C ) :   1.1135
B( 44-C , 48-N ) :   1.5068 B( 45-C , 46-N ) :   1.4683 B( 46-N , 47-S ) :   1.2730
B( 46-N , 48-N ) :   0.1509 B( 47-S , 48-N ) :   1.2928 B( 49-C , 50-C ) :   1.4092
B( 49-C , 53-S ) :   1.0994 B( 50-C , 51-C ) :   1.2850 B( 50-C , 88-H ) :   0.9817
B( 51-C , 52-C ) :   1.3961 B( 51-C , 56-C ) :   0.9923 B( 52-C , 53-S ) :   1.0824
B( 52-C , 54-C ) :   1.2216 B( 54-C , 55-C ) :   1.3832 B( 54-C , 64-S ) :   1.1574
B( 55-C , 56-C ) :   0.9895 B( 55-C , 62-C ) :   1.3145 B( 56-C , 57-C ) :   1.7167
B( 57-C , 58-C ) :   1.1327 B( 57-C , 60-C ) :   1.1393 B( 58-C , 59-N ) :   2.9950
B( 60-C , 61-N ) :   2.9845 B( 62-C , 63-C ) :   1.3866 B( 62-C , 89-H ) :   1.0003
B( 63-C , 64-S ) :   1.0831 B( 63-C , 65-C ) :   1.1535 B( 65-C , 66-C ) :   1.6278
B( 65-C , 90-H ) :   0.9466 B( 66-C , 67-C ) :   0.9444 B( 66-C , 77-C ) :   1.0412
B( 67-C , 68-O ) :   2.2784 B( 67-C , 69-C ) :   0.9295 B( 69-C , 70-C ) :   1.3452
B( 69-C , 74-C ) :   1.3215 B( 70-C , 71-C ) :   1.3167 B( 70-C , 77-C ) :   1.0182
B( 71-C , 72-C ) :   1.3376 B( 71-C , 74-C ) :   0.1040 B( 71-C , 91-H ) :   0.9959
B( 72-C , 73-C ) :   1.2875 B( 72-C , 76-F ) :   1.1438 B( 73-C , 74-C ) :   1.3212
B( 73-C , 75-F ) :   1.1351 B( 74-C , 92-H ) :   1.0209 B( 77-C , 78-C ) :   1.6603
B( 78-C , 79-C ) :   1.1528 B( 78-C , 81-C ) :   1.1293 B( 79-C , 80-N ) :   3.0230
B( 81-C , 82-N ) :   2.9989

-----------------------------------------------------------------------------
         ABSORPTION SPECTRUM VIA TRANSITION ELECTRIC DIPOLE MOMENTS
-----------------------------------------------------------------------------
State   Energy  Wavelength   fosc         T2         TX        TY        TZ
        (cm-1)    (nm)                  (au**2)     (au)      (au)      (au)
-----------------------------------------------------------------------------
   0    9604.8   1041.1   1.167587958  40.01991   1.82040  -5.93135   1.23494
   1   13870.3    721.0   0.025228340   0.59880   0.08902   0.76818   0.02787
   2   15174.9    659.0   0.008188849   0.17765  -0.13201  -0.12116   0.38151
   3   17766.4    562.9   0.011401648   0.21127   0.33918   0.30762   0.03994
   4   20026.5    499.3   0.506167357   8.32080  -0.83758   1.97957  -1.92369
   5   21179.2    472.2   0.727729994  11.31194  -0.26869   3.14175  -1.17010
   6   22847.6    437.7   0.073740768   1.06253  -0.02549   0.33199  -0.97554
   7   24727.5    404.4   0.017985757   0.23946   0.11217  -0.42723  -0.21060
   8   24930.4    401.1   0.096560395   1.27511  -0.41248   1.04644  -0.09961
   9   25460.3    392.8   0.074381428   0.96178  -0.19571  -0.39383   0.87657
  10   25769.3    388.1   0.046943242   0.59972  -0.09377  -0.66759   0.38111
  11   26043.7    384.0   0.020269649   0.25622  -0.04451  -0.26631   0.42816
  12   26642.4    375.3   0.035888764   0.44347  -0.43640   0.49412  -0.09420
  13   27154.0    368.3   0.119400193   1.44760  -0.12366   1.19152   0.11218
  14   27717.9    360.8   0.113983788   1.35381  -0.02973  -1.10622   0.35945
  15   28553.6    350.2   0.027543780   0.31757   0.16071  -0.06868  -0.53575
  16   28825.2    346.9   0.082462530   0.94180  -0.09673  -0.08656  -0.96174
  17   29028.5    344.5   0.002359093   0.02675   0.14048  -0.08135  -0.02003
  18   29730.9    336.4   0.087587429   0.96986   0.23794   0.40070  -0.86757
  19   29937.2    334.0   0.269406814   2.96260  -0.36368  -0.69772   1.53086
  20   30097.9    332.2   0.016621022   0.18180  -0.14951  -0.23659   0.32167
  21   30494.8    327.9   0.082168279   0.88706   0.11486   0.45999  -0.81381
  22   30633.2    326.4   0.033873864   0.36404   0.16261  -0.40859   0.41310
  23   30797.6    324.7   0.362771433   3.87785   0.50099   0.30501  -1.87985
  24   31018.4    322.4   0.137759770   1.46210  -0.07191  -0.60214   1.04612
  25   31327.3    319.2   0.143129310   1.50411  -0.60054   0.91697   0.55013
  26   31438.0    318.1   0.087190852   0.91304   0.46511  -0.21422  -0.80674
  27   31708.8    315.4   0.446441017   4.63511   0.71124  -1.82000  -0.90381
  28   32210.4    310.5   0.053973446   0.55165  -0.28823   0.62554   0.27798
  29   32372.9    308.9   0.128885722   1.31069   0.44812  -0.96810  -0.41552
  30   32810.0    304.8   0.000687730   0.00690   0.07820  -0.01230   0.02517
  31   33003.4    303.0   0.061046117   0.60894  -0.03849  -0.77844  -0.03856
  32   33156.8    301.6   0.092910706   0.92250   0.12829   0.74395  -0.59379
  33   33542.6    298.1   0.128322746   1.25945  -0.78633   0.13119   0.78989
  34   33860.0    295.3   0.056720553   0.55148  -0.08200   0.69246  -0.25544
  35   34106.5    293.2   0.081963179   0.79115   0.24825  -0.68483  -0.51042
  36   34261.1    291.9   0.302649951   2.90814   0.29350   0.13594  -1.67437
  37   34553.9    289.4   0.022916594   0.21834  -0.18405  -0.42082  -0.08587
  38   34744.1    287.8   0.048329133   0.45794   0.31511   0.03216  -0.59800
  39   35059.7    285.2   0.013881437   0.13035   0.14742   0.30172  -0.13257
  40   35247.9    283.7   0.064454114   0.60200  -0.15690   0.27470   0.70846
  41   35324.9    283.1   0.016317018   0.15207  -0.16547  -0.05798   0.34832
  42   35598.8    280.9   0.767171265   7.09467  -0.63375  -1.71545   1.93656
  43   35734.5    279.8   0.185217431   1.70636   0.04179   0.45759  -1.22279
  44   35921.2    278.4   0.017403057   0.15950  -0.14364   0.32350   0.18496
  45   36024.3    277.6   0.575646412   5.26060  -0.80662   0.91532   1.94220
  46   36418.3    274.6   0.185767243   1.67929  -0.17941   1.26688  -0.20519
  47   36591.6    273.3   0.055488233   0.49922   0.09578  -0.66403  -0.22162
  48   36769.9    272.0   0.296893468   2.65818  -0.50648   0.82413   1.31242
  49   37188.0    268.9   0.015388187   0.13623  -0.11083   0.08884   0.34066
  50   37323.2    267.9   0.053703415   0.47370  -0.08063  -0.67197   0.12509
  51   37557.8    266.3   0.175152777   1.53530   0.62220   1.05153  -0.20605
  52   37643.3    265.7   0.026639858   0.23298  -0.20593  -0.42527  -0.09859
  53   37699.6    265.3   0.054039555   0.47190  -0.27218  -0.38135   0.50239
  54   37731.2    265.0   0.086822577   0.75754   0.13286   0.82040  -0.25851
  55   37900.2    263.9   0.033466654   0.29070  -0.21176  -0.06031   0.49216
  56   38100.0    262.5   0.031659599   0.27356   0.07681  -0.09273  -0.50898
  57   38292.9    261.1   0.009973306   0.08574   0.06982   0.05570  -0.27886
  58   38512.7    259.7   0.000810106   0.00692  -0.07601  -0.00736   0.03307
  59   38747.4    258.1   0.050022663   0.42501  -0.21683   0.54310   0.28817
  60   39017.1    256.3   0.093059531   0.78520  -0.12453  -0.05271   0.87574
  61   39377.3    254.0   0.026856014   0.22453  -0.16887  -0.21823   0.38521
  62   39542.7    252.9   0.133051786   1.10772  -0.14439   0.77788   0.69409
  63   39889.8    250.7   0.075755135   0.62521  -0.18695   0.69915  -0.31850
  64   40170.3    248.9   0.038954188   0.31925  -0.16867   0.03156   0.53833
  65   40248.7    248.5   0.084936121   0.69473  -0.29545   0.73501   0.25922
  66   40280.8    248.3   0.009176467   0.07500  -0.14784   0.20072   0.11338

FINAL SINGLE POINT ENERGY     -5608.415201339441

DIPOLE MOMENT
-------------
                                X             Y             Z
Electronic contribution:     -4.76510      -2.57412       7.05355
Nuclear contribution   :      4.04583       0.36877      -8.72145
                        -----------------------------------------
Total Dipole Moment    :     -0.71927      -2.20535      -1.66790
                        -----------------------------------------
Magnitude (a.u.)       :      2.85706
Magnitude (Debye)      :      7.26208

Rotational constants in cm-1:     0.001659     0.000172     0.000158
Rotational constants in MHz :    49.745709     5.158352     4.735390

                             ****ORCA TERMINATED NORMALLY****
TOTAL RUN TIME: 0 days 0 hours 11 minutes 16 seconds 723 msec
