                         Program Version 4.2.0 -  RELEASE  -
|  1> # ORCA input file
|  2> # SCF done       -219.745703731847          0.000893711268
|  3> ! CAM-B3LYP def2-SVP def2/J RIJCOSX Grid4 TightSCF
|  4> %maxcore 5000
|  5> %tddft
|  6>     Mode sTDDFT
|  7>     Ethresh 5.0
|  8>     maxcore 5000
|  9> end
| 10>
| 11> %pal
| 12>   nprocs 6
| 13>   end
| 14> * xyz 0 1
| 15>    C       -0.08489        -1.02769         2.33624
| 16>    O        0.75038        -0.52137         1.62459
| 17>    C       -1.46171        -0.54715         2.57389
| 18>    C       -2.26481         0.46449         2.16013
| 19>    F       -1.99186         1.45039         1.32868
| 20>    S       -3.85640         0.36946         2.87125
| 21>    C       -3.42669        -1.05669         3.73862
| 22>    C       -2.13994        -1.41773         3.48886
| 23>    C       -1.22319        -2.47793         3.87113
| 24>    N       -1.36698        -3.44066         4.70724
| 25>    N       -2.50193        -3.78721         5.34415
| 26>    O       -2.36294        -4.07887         6.50951
| 27>    O       -3.53086        -3.87078         4.71119
| 28>    C        0.01327        -5.28411         7.29196
| 29>    O        0.54152        -4.96240         6.32630
| 30>    O       -0.46395        -5.63124         8.26880
| 31>    C        0.03237        -2.24495         3.17559
| 32>    C        1.10104        -3.06971         3.41695
| 33>    C        2.39965        -3.08177         2.88921
| 34>    C        3.00603        -2.34585         1.87163
| 35>    C        4.33051        -2.70376         1.68759
| 36>    C        4.76244        -3.72159         2.57856
| 37>    S        3.52337        -4.24444         3.61410
| 38>    C        6.12698        -3.98758         2.34280
| 39>    C        6.56722        -3.14557         1.29783
| 40>    C        5.45321        -2.32656         0.84335
| 41>    C        5.46996        -1.41768        -0.17197
| 42>    C        4.32989        -0.69143        -0.58280
| 43>    N        3.42287        -0.09873        -0.95525
| 44>    C        6.64324        -1.14811        -0.91051
| 45>    N        7.59217        -0.92148        -1.51253
| 46>    C        7.91026        -3.31931         1.00081
| 47>    C        8.50153        -4.28216         1.81292
| 48>    S        7.37626        -4.99108         2.95405
| 49>    C        9.86042        -4.68628         1.80042
| 50>    C       10.33123        -5.66278         2.71091
| 51>    C       11.70193        -6.06464         2.75932
| 52>    N       12.09163        -6.98940         3.65316
| 53>    C       11.20872        -7.50746         4.46133
| 54>    C        9.85647        -7.11203         4.41283
| 55>    N        9.44704        -6.21531         3.55881
| 56>    C       12.68218        -5.51637         1.89750
| 57>    C       12.21536        -4.55914         0.96946
| 58>    C       10.82837        -4.15076         0.92212
| 59>    N       10.62372        -3.23401        -0.02671
| 60>    S       12.00312        -2.91958        -0.77471
| 61>    N       12.94268        -3.91612         0.05295
| 62>    C       14.03912        -5.91368         2.00035
| 63>    C       15.10273        -5.45504         1.22910
| 64>    C       16.30481        -6.02831         1.61221
| 65>    C       16.15997        -6.93632         2.68614
| 66>    S       14.53328        -7.07992         3.21156
| 67>    C       17.43457        -7.45113         3.00391
| 68>    C       18.39098        -6.86249         2.13951
| 69>    C       17.70683        -5.95578         1.23418
| 70>    C       18.26794        -5.21346         0.23888
| 71>    C       17.49731        -4.38148        -0.60088
| 72>    N       16.87338        -3.69920        -1.27860
| 73>    C       19.66201        -5.20929         0.01236
| 74>    N       20.79759        -5.17840        -0.13799
| 75>    C       19.67685        -7.32450         2.35203
| 76>    C       19.73751        -8.27680         3.36441
| 77>    S       18.14385        -8.55530         4.08637
| 78>    C       20.81920        -9.01645         3.86512
| 79>    C       22.07563        -9.22781         3.36547
| 80>    C       23.00602       -10.07826         4.16364
| 81>    O       22.78685       -10.54062         5.25653
| 82>    C       24.20656       -10.21333         3.32402
| 83>    C       25.42842       -10.79930         3.38126
| 84>    S       26.36604       -10.49780         1.94201
| 85>    C       25.08625        -9.56903         1.25637
| 86>    C       24.01403        -9.50594         2.09133
| 87>    C       22.69428        -8.88492         2.10000
| 88>    N       22.09245        -8.25134         1.15815
| 89>    N       22.61286        -7.94082        -0.05577
| 90>    O       21.86743        -8.14874        -0.98336
| 91>    O       23.70498        -7.43254        -0.11718
| 92>    C       19.54491        -9.27323        -0.25715
| 93>    O       20.10958       -10.21922         0.05092
| 94>    O       18.91849        -8.35287        -0.52421
| 95>    F       25.95105       -11.52463         4.35117
| 96>    H       -4.15985        -1.54235         4.35265
| 97>    H        0.90188        -3.83295         4.16319
| 98>    H        2.47737        -1.58682         1.32139
| 99>    H        8.46776        -2.79223         0.24863
|100>    H       11.56236        -8.24850         5.16342
|101>    H        9.11391        -7.53290         5.07509
|102>    H       14.96597        -4.73789         0.44072
|103>    H       20.54953        -6.99843         1.82178
|104>    H       20.63363        -9.54512         4.79714
|105>    H       25.22854        -9.11018         0.29728
|106> *
|107>
|108>                          ****END OF INPUT****

CARTESIAN COORDINATES (ANGSTROEM)
---------------------------------
  C     -0.084890   -1.027690    2.336240
  O      0.750380   -0.521370    1.624590
  C     -1.461710   -0.547150    2.573890
  C     -2.264810    0.464490    2.160130
  F     -1.991860    1.450390    1.328680
  S     -3.856400    0.369460    2.871250
  C     -3.426690   -1.056690    3.738620
  C     -2.139940   -1.417730    3.488860
  C     -1.223190   -2.477930    3.871130
  N     -1.366980   -3.440660    4.707240
  N     -2.501930   -3.787210    5.344150
  O     -2.362940   -4.078870    6.509510
  O     -3.530860   -3.870780    4.711190
  C      0.013270   -5.284110    7.291960
  O      0.541520   -4.962400    6.326300
  O     -0.463950   -5.631240    8.268800
  C      0.032370   -2.244950    3.175590
  C      1.101040   -3.069710    3.416950
  C      2.399650   -3.081770    2.889210
  C      3.006030   -2.345850    1.871630
  C      4.330510   -2.703760    1.687590
  C      4.762440   -3.721590    2.578560
  S      3.523370   -4.244440    3.614100
  C      6.126980   -3.987580    2.342800
  C      6.567220   -3.145570    1.297830
  C      5.453210   -2.326560    0.843350
  C      5.469960   -1.417680   -0.171970
  C      4.329890   -0.691430   -0.582800
  N      3.422870   -0.098730   -0.955250
  C      6.643240   -1.148110   -0.910510
  N      7.592170   -0.921480   -1.512530
  C      7.910260   -3.319310    1.000810
  C      8.501530   -4.282160    1.812920
  S      7.376260   -4.991080    2.954050
  C      9.860420   -4.686280    1.800420
  C     10.331230   -5.662780    2.710910
  C     11.701930   -6.064640    2.759320
  N     12.091630   -6.989400    3.653160
  C     11.208720   -7.507460    4.461330
  C      9.856470   -7.112030    4.412830
  N      9.447040   -6.215310    3.558810
  C     12.682180   -5.516370    1.897500
  C     12.215360   -4.559140    0.969460
  C     10.828370   -4.150760    0.922120
  N     10.623720   -3.234010   -0.026710
  S     12.003120   -2.919580   -0.774710
  N     12.942680   -3.916120    0.052950
  C     14.039120   -5.913680    2.000350
  C     15.102730   -5.455040    1.229100
  C     16.304810   -6.028310    1.612210
  C     16.159970   -6.936320    2.686140
  S     14.533280   -7.079920    3.211560
  C     17.434570   -7.451130    3.003910
  C     18.390980   -6.862490    2.139510
  C     17.706830   -5.955780    1.234180
  C     18.267940   -5.213460    0.238880
  C     17.497310   -4.381480   -0.600880
  N     16.873380   -3.699200   -1.278600
  C     19.662010   -5.209290    0.012360
  N     20.797590   -5.178400   -0.137990
  C     19.676850   -7.324500    2.352030
  C     19.737510   -8.276800    3.364410
  S     18.143850   -8.555300    4.086370
  C     20.819200   -9.016450    3.865120
  C     22.075630   -9.227810    3.365470
  C     23.006020  -10.078260    4.163640
  O     22.786850  -10.540620    5.256530
  C     24.206560  -10.213330    3.324020
  C     25.428420  -10.799300    3.381260
  S     26.366040  -10.497800    1.942010
  C     25.086250   -9.569030    1.256370
  C     24.014030   -9.505940    2.091330
  C     22.694280   -8.884920    2.100000
  N     22.092450   -8.251340    1.158150
  N     22.612860   -7.940820   -0.055770
  O     21.867430   -8.148740   -0.983360
  O     23.704980   -7.432540   -0.117180
  C     19.544910   -9.273230   -0.257150
  O     20.109580  -10.219220    0.050920
  O     18.918490   -8.352870   -0.524210
  F     25.951050  -11.524630    4.351170
  H     -4.159850   -1.542350    4.352650
  H      0.901880   -3.832950    4.163190
  H      2.477370   -1.586820    1.321390
  H      8.467760   -2.792230    0.248630
  H     11.562360   -8.248500    5.163420
  H      9.113910   -7.532900    5.075090
  H     14.965970   -4.737890    0.440720
  H     20.549530   -6.998430    1.821780
  H     20.633630   -9.545120    4.797140
  H     25.228540   -9.110180    0.297280

 Total Charge           Charge          ....    0
 Multiplicity           Mult            ....    1
 Number of Electrons    NEL             ....  604
 Basis Dimension        Dim             .... 1212

ORBITAL ENERGIES
----------------

  NO   OCC          E(Eh)            E(eV)
   0   2.0000     -89.054677     -2423.3009
   1   2.0000     -88.996933     -2421.7297
   2   2.0000     -88.995884     -2421.7011
   3   2.0000     -88.991005     -2421.5684
   4   2.0000     -88.990774     -2421.5621
   5   2.0000     -88.990192     -2421.5462
   6   2.0000     -88.989933     -2421.5392
   7   2.0000     -24.821109      -675.4167
   8   2.0000     -24.819706      -675.3785
   9   2.0000     -19.276208      -524.5323
  10   2.0000     -19.275495      -524.5129
  11   2.0000     -19.274129      -524.4757
  12   2.0000     -19.274108      -524.4751
  13   2.0000     -19.244890      -523.6801
  14   2.0000     -19.243667      -523.6468
  15   2.0000     -19.241316      -523.5828
  16   2.0000     -19.240297      -523.5551
  17   2.0000     -19.217748      -522.9415
  18   2.0000     -19.214857      -522.8628
  19   2.0000     -14.673850      -399.2958
  20   2.0000     -14.671882      -399.2422
  21   2.0000     -14.464849      -393.6085
  22   2.0000     -14.464713      -393.6048
  23   2.0000     -14.461801      -393.5256
  24   2.0000     -14.461615      -393.5205
  25   2.0000     -14.454087      -393.3157
  26   2.0000     -14.447192      -393.1281
  27   2.0000     -14.430859      -392.6836
  28   2.0000     -14.428815      -392.6280
  29   2.0000     -14.427099      -392.5813
  30   2.0000     -14.426677      -392.5698
  31   2.0000     -10.441891      -284.1383
  32   2.0000     -10.440823      -284.1092
  33   2.0000     -10.408378      -283.2264
  34   2.0000     -10.407582      -283.2047
  35   2.0000     -10.377229      -282.3788
  36   2.0000     -10.372870      -282.2601
  37   2.0000     -10.372103      -282.2393
  38   2.0000     -10.366983      -282.1000
  39   2.0000     -10.366486      -282.0864
  40   2.0000     -10.363995      -282.0186
  41   2.0000     -10.358581      -281.8713
  42   2.0000     -10.358252      -281.8624
  43   2.0000     -10.353360      -281.7293
  44   2.0000     -10.353096      -281.7221
  45   2.0000     -10.352998      -281.7194
  46   2.0000     -10.352806      -281.7142
  47   2.0000     -10.352534      -281.7068
  48   2.0000     -10.349874      -281.6344
  49   2.0000     -10.346261      -281.5361
  50   2.0000     -10.346179      -281.5338
  51   2.0000     -10.332597      -281.1643
  52   2.0000     -10.332116      -281.1512
  53   2.0000     -10.330932      -281.1189
  54   2.0000     -10.330032      -281.0945
  55   2.0000     -10.329693      -281.0852
  56   2.0000     -10.329309      -281.0748
  57   2.0000     -10.328865      -281.0627
  58   2.0000     -10.328491      -281.0525
  59   2.0000     -10.328102      -281.0419
  60   2.0000     -10.327608      -281.0285
  61   2.0000     -10.327232      -281.0183
  62   2.0000     -10.327223      -281.0180
  63   2.0000     -10.326960      -281.0109
  64   2.0000     -10.326654      -281.0025
  65   2.0000     -10.326053      -280.9862
  66   2.0000     -10.324628      -280.9474
  67   2.0000     -10.309720      -280.5417
  68   2.0000     -10.308707      -280.5142
  69   2.0000     -10.308075      -280.4970
  70   2.0000     -10.308026      -280.4956
  71   2.0000     -10.307670      -280.4860
  72   2.0000     -10.307408      -280.4788
  73   2.0000     -10.307164      -280.4722
  74   2.0000     -10.307122      -280.4710
  75   2.0000     -10.301387      -280.3150
  76   2.0000     -10.301032      -280.3053
  77   2.0000     -10.298262      -280.2300
  78   2.0000     -10.296161      -280.1728
  79   2.0000     -10.295802      -280.1630
  80   2.0000     -10.295407      -280.1523
  81   2.0000      -8.145576      -221.6524
  82   2.0000      -8.091725      -220.1870
  83   2.0000      -8.090801      -220.1619
  84   2.0000      -8.087456      -220.0709
  85   2.0000      -8.087247      -220.0652
  86   2.0000      -8.082504      -219.9361
  87   2.0000      -8.082188      -219.9275
  88   2.0000      -6.116621      -166.4417
  89   2.0000      -6.108672      -166.2254
  90   2.0000      -6.108619      -166.2240
  91   2.0000      -6.060851      -164.9241
  92   2.0000      -6.059818      -164.8960
  93   2.0000      -6.056736      -164.8122
  94   2.0000      -6.056729      -164.8120
  95   2.0000      -6.056527      -164.8065
  96   2.0000      -6.055758      -164.7856
  97   2.0000      -6.054223      -164.7438
  98   2.0000      -6.053399      -164.7214
  99   2.0000      -6.052309      -164.6917
 100   2.0000      -6.052123      -164.6866
 101   2.0000      -6.052120      -164.6866
 102   2.0000      -6.051808      -164.6781
 103   2.0000      -6.049605      -164.6181
 104   2.0000      -6.049355      -164.6113
 105   2.0000      -6.047246      -164.5539
 106   2.0000      -6.046947      -164.5458
 107   2.0000      -6.044950      -164.4914
 108   2.0000      -6.044630      -164.4827
 109   2.0000      -1.343260       -36.5520
 110   2.0000      -1.340308       -36.4716
 111   2.0000      -1.339969       -36.4624
 112   2.0000      -1.339146       -36.4400
 113   2.0000      -1.228471       -33.4284
 114   2.0000      -1.228216       -33.4215
 115   2.0000      -1.187238       -32.3064
 116   2.0000      -1.187209       -32.3056
 117   2.0000      -1.153316       -31.3833
 118   2.0000      -1.151686       -31.3390
 119   2.0000      -1.148261       -31.2458
 120   2.0000      -1.135914       -30.9098
 121   2.0000      -1.133167       -30.8350
 122   2.0000      -1.121942       -30.5296
 123   2.0000      -1.067766       -29.0554
 124   2.0000      -1.065765       -29.0009
 125   2.0000      -1.052163       -28.6308
 126   2.0000      -1.047605       -28.5068
 127   2.0000      -1.044543       -28.4235
 128   2.0000      -1.021653       -27.8006
 129   2.0000      -1.020064       -27.7574
 130   2.0000      -1.014657       -27.6102
 131   2.0000      -1.014266       -27.5996
 132   2.0000      -1.008916       -27.4540
 133   2.0000      -1.007125       -27.4053
 134   2.0000      -1.005402       -27.3584
 135   2.0000      -1.004594       -27.3364
 136   2.0000      -0.996410       -27.1137
 137   2.0000      -0.982864       -26.7451
 138   2.0000      -0.962576       -26.1930
 139   2.0000      -0.957350       -26.0508
 140   2.0000      -0.948268       -25.8037
 141   2.0000      -0.947662       -25.7872
 142   2.0000      -0.923327       -25.1250
 143   2.0000      -0.916500       -24.9392
 144   2.0000      -0.899969       -24.4894
 145   2.0000      -0.896701       -24.4005
 146   2.0000      -0.883913       -24.0525
 147   2.0000      -0.880719       -23.9656
 148   2.0000      -0.869786       -23.6681
 149   2.0000      -0.863098       -23.4861
 150   2.0000      -0.858653       -23.3651
 151   2.0000      -0.858063       -23.3491
 152   2.0000      -0.853584       -23.2272
 153   2.0000      -0.851754       -23.1774
 154   2.0000      -0.831282       -22.6203
 155   2.0000      -0.823387       -22.4055
 156   2.0000      -0.819871       -22.3098
 157   2.0000      -0.808206       -21.9924
 158   2.0000      -0.801091       -21.7988
 159   2.0000      -0.792838       -21.5742
 160   2.0000      -0.783287       -21.3143
 161   2.0000      -0.778197       -21.1758
 162   2.0000      -0.775854       -21.1121
 163   2.0000      -0.758365       -20.6362
 164   2.0000      -0.743007       -20.2182
 165   2.0000      -0.727720       -19.8023
 166   2.0000      -0.718321       -19.5465
 167   2.0000      -0.712930       -19.3998
 168   2.0000      -0.710250       -19.3269
 169   2.0000      -0.708359       -19.2754
 170   2.0000      -0.705183       -19.1890
 171   2.0000      -0.692026       -18.8310
 172   2.0000      -0.689633       -18.7659
 173   2.0000      -0.689054       -18.7501
 174   2.0000      -0.683848       -18.6084
 175   2.0000      -0.682555       -18.5733
 176   2.0000      -0.680957       -18.5298
 177   2.0000      -0.660705       -17.9787
 178   2.0000      -0.659348       -17.9418
 179   2.0000      -0.656023       -17.8513
 180   2.0000      -0.651381       -17.7250
 181   2.0000      -0.649957       -17.6862
 182   2.0000      -0.648823       -17.6554
 183   2.0000      -0.645142       -17.5552
 184   2.0000      -0.636758       -17.3271
 185   2.0000      -0.636231       -17.3127
 186   2.0000      -0.630265       -17.1504
 187   2.0000      -0.627184       -17.0665
 188   2.0000      -0.624416       -16.9912
 189   2.0000      -0.619032       -16.8447
 190   2.0000      -0.617075       -16.7915
 191   2.0000      -0.614758       -16.7284
 192   2.0000      -0.614509       -16.7216
 193   2.0000      -0.610296       -16.6070
 194   2.0000      -0.606240       -16.4966
 195   2.0000      -0.602232       -16.3876
 196   2.0000      -0.599670       -16.3179
 197   2.0000      -0.594785       -16.1849
 198   2.0000      -0.591335       -16.0910
 199   2.0000      -0.590183       -16.0597
 200   2.0000      -0.589971       -16.0539
 201   2.0000      -0.589036       -16.0285
 202   2.0000      -0.588152       -16.0044
 203   2.0000      -0.585516       -15.9327
 204   2.0000      -0.584515       -15.9055
 205   2.0000      -0.583424       -15.8758
 206   2.0000      -0.581744       -15.8301
 207   2.0000      -0.580402       -15.7936
 208   2.0000      -0.579658       -15.7733
 209   2.0000      -0.579090       -15.7578
 210   2.0000      -0.570975       -15.5370
 211   2.0000      -0.569785       -15.5046
 212   2.0000      -0.568788       -15.4775
 213   2.0000      -0.562586       -15.3087
 214   2.0000      -0.557198       -15.1621
 215   2.0000      -0.555700       -15.1214
 216   2.0000      -0.555472       -15.1152
 217   2.0000      -0.550380       -14.9766
 218   2.0000      -0.546735       -14.8774
 219   2.0000      -0.545828       -14.8527
 220   2.0000      -0.539241       -14.6735
 221   2.0000      -0.533135       -14.5073
 222   2.0000      -0.532808       -14.4985
 223   2.0000      -0.525845       -14.3090
 224   2.0000      -0.523388       -14.2421
 225   2.0000      -0.520811       -14.1720
 226   2.0000      -0.515213       -14.0197
 227   2.0000      -0.511803       -13.9269
 228   2.0000      -0.510372       -13.8879
 229   2.0000      -0.508034       -13.8243
 230   2.0000      -0.507462       -13.8087
 231   2.0000      -0.504108       -13.7175
 232   2.0000      -0.502367       -13.6701
 233   2.0000      -0.500808       -13.6277
 234   2.0000      -0.495058       -13.4712
 235   2.0000      -0.492551       -13.4030
 236   2.0000      -0.491133       -13.3644
 237   2.0000      -0.490685       -13.3522
 238   2.0000      -0.485875       -13.2213
 239   2.0000      -0.480137       -13.0652
 240   2.0000      -0.477791       -13.0014
 241   2.0000      -0.474780       -12.9194
 242   2.0000      -0.473531       -12.8854
 243   2.0000      -0.472252       -12.8506
 244   2.0000      -0.470244       -12.7960
 245   2.0000      -0.467159       -12.7120
 246   2.0000      -0.466556       -12.6956
 247   2.0000      -0.461191       -12.5496
 248   2.0000      -0.460796       -12.5389
 249   2.0000      -0.460350       -12.5268
 250   2.0000      -0.459486       -12.5032
 251   2.0000      -0.456328       -12.4173
 252   2.0000      -0.455796       -12.4028
 253   2.0000      -0.454716       -12.3734
 254   2.0000      -0.453171       -12.3314
 255   2.0000      -0.451870       -12.2960
 256   2.0000      -0.451023       -12.2730
 257   2.0000      -0.448222       -12.1968
 258   2.0000      -0.446892       -12.1606
 259   2.0000      -0.438594       -11.9347
 260   2.0000      -0.438341       -11.9279
 261   2.0000      -0.437775       -11.9125
 262   2.0000      -0.436722       -11.8838
 263   2.0000      -0.435550       -11.8519
 264   2.0000      -0.429056       -11.6752
 265   2.0000      -0.427452       -11.6316
 266   2.0000      -0.426745       -11.6123
 267   2.0000      -0.426589       -11.6081
 268   2.0000      -0.425351       -11.5744
 269   2.0000      -0.424311       -11.5461
 270   2.0000      -0.418603       -11.3908
 271   2.0000      -0.417944       -11.3728
 272   2.0000      -0.417291       -11.3551
 273   2.0000      -0.413421       -11.2498
 274   2.0000      -0.412905       -11.2357
 275   2.0000      -0.397362       -10.8128
 276   2.0000      -0.397008       -10.8031
 277   2.0000      -0.390385       -10.6229
 278   2.0000      -0.387430       -10.5425
 279   2.0000      -0.387090       -10.5332
 280   2.0000      -0.383661       -10.4399
 281   2.0000      -0.382532       -10.4092
 282   2.0000      -0.381372       -10.3777
 283   2.0000      -0.365002        -9.9322
 284   2.0000      -0.363187        -9.8828
 285   2.0000      -0.357992        -9.7415
 286   2.0000      -0.355851        -9.6832
 287   2.0000      -0.352065        -9.5802
 288   2.0000      -0.350689        -9.5427
 289   2.0000      -0.348323        -9.4783
 290   2.0000      -0.347104        -9.4452
 291   2.0000      -0.343846        -9.3565
 292   2.0000      -0.342294        -9.3143
 293   2.0000      -0.340445        -9.2640
 294   2.0000      -0.339869        -9.2483
 295   2.0000      -0.324865        -8.8400
 296   2.0000      -0.324703        -8.8356
 297   2.0000      -0.323676        -8.8077
 298   2.0000      -0.322253        -8.7689
 299   2.0000      -0.310550        -8.4505
 300   2.0000      -0.281483        -7.6595
 301   2.0000      -0.246951        -6.7199
 302   0.0000      -0.138023        -3.7558
 303   0.0000      -0.108127        -2.9423
 304   0.0000      -0.099989        -2.7209
 305   0.0000      -0.084817        -2.3080
 306   0.0000      -0.084065        -2.2875

MULLIKEN ATOMIC CHARGES
-----------------------
   0 C :    0.200116
   1 O :   -0.134820
   2 C :   -0.023339
   3 C :    0.041974
   4 F :   -0.124974
   5 S :    0.127548
   6 C :   -0.144867
   7 C :    0.077936
   8 C :    0.047508
   9 N :   -0.004422
  10 N :    0.286253
  11 O :   -0.236464
  12 O :   -0.241827
  13 C :    0.235327
  14 O :   -0.125659
  15 O :   -0.112046
  16 C :   -0.114543
  17 C :    0.036024
  18 C :   -0.100731
  19 C :   -0.011098
  20 C :    0.000743
  21 C :   -0.090422
  22 S :    0.205408
  23 C :   -0.069145
  24 C :    0.045464
  25 C :    0.315273
  26 C :   -0.298313
  27 C :   -0.197213
  28 N :    0.198887
  29 C :   -0.188911
  30 N :    0.169815
  31 C :   -0.069996
  32 C :   -0.167651
  33 S :    0.202627
  34 C :    0.177996
  35 C :   -0.048493
  36 C :   -0.053247
  37 N :   -0.077377
  38 C :    0.046762
  39 C :    0.049526
  40 N :   -0.079900
  41 C :    0.179668
  42 C :   -0.009691
  43 C :   -0.011196
  44 N :   -0.284457
  45 S :    0.588061
  46 N :   -0.284365
  47 C :   -0.168471
  48 C :   -0.069925
  49 C :    0.048719
  50 C :   -0.071535
  51 S :    0.200595
  52 C :   -0.085009
  53 C :   -0.004262
  54 C :    0.317808
  55 C :   -0.282036
  56 C :   -0.191124
  57 N :    0.174835
  58 C :   -0.180206
  59 N :    0.174029
  60 C :    0.008192
  61 C :   -0.106445
  62 S :    0.196604
  63 C :    0.048863
  64 C :   -0.123792
  65 C :    0.159249
  66 O :   -0.135568
  67 C :    0.011471
  68 C :    0.034029
  69 S :    0.129020
  70 C :   -0.143862
  71 C :    0.040531
  72 C :    0.117625
  73 N :   -0.056200
  74 N :    0.301316
  75 O :   -0.219702
  76 O :   -0.227056
  77 C :    0.252444
  78 O :   -0.126969
  79 O :   -0.138886
  80 F :   -0.127508
  81 H :    0.051514
  82 H :    0.025583
  83 H :    0.038934
  84 H :    0.022907
  85 H :    0.025616
  86 H :    0.025800
  87 H :    0.023975
  88 H :    0.026819
  89 H :    0.017980
  90 H :    0.056348
Sum of atomic charges:   -0.0000000

LOEWDIN ATOMIC CHARGES
----------------------
   0 C :    0.083982
   1 O :   -0.130773
   2 C :   -0.127797
   3 C :   -0.046069
   4 F :   -0.021423
   5 S :    0.461340
   6 C :   -0.145309
   7 C :   -0.077920
   8 C :    0.067002
   9 N :   -0.100592
  10 N :    0.289572
  11 O :   -0.207668
  12 O :   -0.224023
  13 C :    0.110057
  14 O :   -0.075761
  15 O :   -0.050745
  16 C :   -0.111696
  17 C :    0.058186
  18 C :   -0.178630
  19 C :    0.019824
  20 C :   -0.071776
  21 C :   -0.157465
  22 S :    0.494470
  23 C :   -0.195341
  24 C :   -0.058504
  25 C :    0.074290
  26 C :   -0.094189
  27 C :   -0.024971
  28 N :   -0.013488
  29 C :   -0.015081
  30 N :   -0.031549
  31 C :   -0.014055
  32 C :   -0.154880
  33 S :    0.508460
  34 C :   -0.041758
  35 C :   -0.015370
  36 C :   -0.016021
  37 N :   -0.045094
  38 C :    0.023519
  39 C :    0.024300
  40 N :   -0.045816
  41 C :   -0.040014
  42 C :   -0.038201
  43 C :   -0.038047
  44 N :   -0.275000
  45 S :    0.708027
  46 N :   -0.274134
  47 C :   -0.155767
  48 C :   -0.012190
  49 C :   -0.056184
  50 C :   -0.193977
  51 S :    0.507225
  52 C :   -0.157125
  53 C :   -0.068740
  54 C :    0.077406
  55 C :   -0.088429
  56 C :   -0.014640
  57 N :   -0.031281
  58 C :   -0.012174
  59 N :   -0.029596
  60 C :    0.014642
  61 C :   -0.181639
  62 S :    0.482406
  63 C :    0.055333
  64 C :   -0.105943
  65 C :    0.079879
  66 O :   -0.140915
  67 C :   -0.130812
  68 C :   -0.046569
  69 S :    0.462618
  70 C :   -0.146145
  71 C :   -0.074916
  72 C :    0.068062
  73 N :   -0.093012
  74 N :    0.294644
  75 O :   -0.191440
  76 O :   -0.205708
  77 C :    0.103865
  78 O :   -0.063766
  79 O :   -0.069562
  80 F :   -0.023505
  81 H :    0.034073
  82 H :    0.045667
  83 H :    0.044410
  84 H :    0.038653
  85 H :    0.032996
  86 H :    0.033082
  87 H :    0.039199
  88 H :    0.037352
  89 H :    0.045345
  90 H :    0.033310

  Mayer bond orders larger than 0.100000
B(  0-C ,  1-O ) :   2.1954 B(  0-C ,  2-C ) :   0.9351 B(  0-C , 16-C ) :   0.9482
B(  2-C ,  3-C ) :   1.4253 B(  2-C ,  7-C ) :   1.2107 B(  3-C ,  4-F ) :   1.2036
B(  3-C ,  5-S ) :   1.1645 B(  5-S ,  6-C ) :   1.1477 B(  6-C ,  7-C ) :   1.5695
B(  6-C , 81-H ) :   0.9619 B(  7-C ,  8-C ) :   0.9907 B(  8-C ,  9-N ) :   1.8258
B(  8-C , 16-C ) :   1.0820 B(  9-N , 10-N ) :   1.0059 B( 10-N , 11-O ) :   1.5597
B( 10-N , 12-O ) :   1.5527 B( 11-O , 12-O ) :   0.2315 B( 13-C , 14-O ) :   2.1387
B( 13-C , 15-O ) :   2.2167 B( 14-O , 15-O ) :   0.2571 B( 16-C , 17-C ) :   1.6172
B( 17-C , 18-C ) :   1.1835 B( 17-C , 82-H ) :   0.9305 B( 18-C , 19-C ) :   1.3790
B( 18-C , 22-S ) :   1.0708 B( 19-C , 20-C ) :   1.3216 B( 19-C , 83-H ) :   0.9708
B( 20-C , 21-C ) :   1.3599 B( 20-C , 25-C ) :   0.9919 B( 21-C , 22-S ) :   1.1664
B( 21-C , 23-C ) :   1.2190 B( 23-C , 24-C ) :   1.3980 B( 23-C , 33-S ) :   1.0617
B( 24-C , 25-C ) :   0.9901 B( 24-C , 31-C ) :   1.2795 B( 25-C , 26-C ) :   1.7150
B( 26-C , 27-C ) :   1.1325 B( 26-C , 29-C ) :   1.1406 B( 27-C , 28-N ) :   3.0023
B( 29-C , 30-N ) :   2.9820 B( 31-C , 32-C ) :   1.4083 B( 31-C , 84-H ) :   0.9830
B( 32-C , 33-S ) :   1.1016 B( 32-C , 34-C ) :   1.1967 B( 34-C , 35-C ) :   1.2701
B( 34-C , 41-C ) :   0.1340 B( 34-C , 43-C ) :   1.2069 B( 35-C , 36-C ) :   1.1379
B( 35-C , 40-N ) :   1.3976 B( 36-C , 37-N ) :   1.4002 B( 36-C , 41-C ) :   1.2693
B( 37-N , 38-C ) :   1.6533 B( 38-C , 39-C ) :   1.2032 B( 38-C , 85-H ) :   0.9744
B( 39-C , 40-N ) :   1.6534 B( 39-C , 86-H ) :   0.9739 B( 41-C , 42-C ) :   1.2066
B( 41-C , 47-C ) :   1.1986 B( 42-C , 43-C ) :   1.0992 B( 42-C , 46-N ) :   1.5046
B( 43-C , 44-N ) :   1.5056 B( 44-N , 45-S ) :   1.2893 B( 44-N , 46-N ) :   0.1508
B( 45-S , 46-N ) :   1.2912 B( 47-C , 48-C ) :   1.4061 B( 47-C , 51-S ) :   1.1002
B( 48-C , 49-C ) :   1.2821 B( 48-C , 87-H ) :   0.9842 B( 49-C , 50-C ) :   1.3972
B( 49-C , 54-C ) :   0.9909 B( 50-C , 51-S ) :   1.0600 B( 50-C , 52-C ) :   1.2201
B( 52-C , 53-C ) :   1.3781 B( 52-C , 62-S ) :   1.1525 B( 53-C , 54-C ) :   0.9920
B( 53-C , 60-C ) :   1.3325 B( 54-C , 55-C ) :   1.7256 B( 55-C , 56-C ) :   1.1395
B( 55-C , 58-C ) :   1.1348 B( 56-C , 57-N ) :   2.9854 B( 58-C , 59-N ) :   2.9754
B( 60-C , 61-C ) :   1.3783 B( 60-C , 88-H ) :   0.9806 B( 61-C , 62-S ) :   1.0691
B( 61-C , 63-C ) :   1.1705 B( 63-C , 64-C ) :   1.6277 B( 63-C , 89-H ) :   0.9259
B( 64-C , 65-C ) :   0.9629 B( 64-C , 72-C ) :   1.0842 B( 65-C , 66-O ) :   2.2700
B( 65-C , 67-C ) :   0.9086 B( 67-C , 68-C ) :   1.4198 B( 67-C , 71-C ) :   1.2124
B( 68-C , 69-S ) :   1.1671 B( 68-C , 80-F ) :   1.2030 B( 69-S , 70-C ) :   1.1479
B( 70-C , 71-C ) :   1.5744 B( 70-C , 90-H ) :   0.9556 B( 71-C , 72-C ) :   1.0089
B( 72-C , 73-N ) :   1.7408 B( 73-N , 74-N ) :   0.9853 B( 74-N , 75-O ) :   1.5829
B( 74-N , 76-O ) :   1.5636 B( 75-O , 76-O ) :   0.2358 B( 77-C , 78-O ) :   2.1997
B( 77-C , 79-O ) :   2.1530 B( 78-O , 79-O ) :   0.2522

-----------------------------------------------------------------------------
         ABSORPTION SPECTRUM VIA TRANSITION ELECTRIC DIPOLE MOMENTS
-----------------------------------------------------------------------------
State   Energy  Wavelength   fosc         T2         TX        TY        TZ
        (cm-1)    (nm)                  (au**2)     (au)      (au)      (au)
-----------------------------------------------------------------------------
   0    9133.4   1094.9   1.184559677  42.69749   6.25317  -1.89574  -0.03848
   1   14066.6    710.9   0.005485877   0.12839   0.00332   0.16689  -0.31706
   2   15096.2    662.4   0.001926160   0.04200   0.18306  -0.09157  -0.01043
   3   17735.6    563.8   0.003812478   0.07077  -0.05680  -0.07434   0.24903
   4   21189.7    471.9   1.469317968  22.82793  -4.54177   1.42657   0.40633
   5   21686.9    461.1   0.084152830   1.27746   0.85713   0.27218  -0.68462
   6   23170.6    431.6   0.250715037   3.56220   1.77283  -0.51619  -0.39094
   7   23704.2    421.9   0.000884983   0.01229   0.00982  -0.06014  -0.09262
   8   24744.0    404.1   0.049121286   0.65354   0.75641   0.10062  -0.26694
   9   25009.9    399.8   0.044896539   0.59099   0.07944  -0.55731   0.52353
  10   25709.5    389.0   0.014147265   0.18116  -0.08087   0.24107  -0.34133
  11   26094.2    383.2   0.000414976   0.00524  -0.00257  -0.07170  -0.00939
  12   27353.8    365.6   0.004410438   0.05308   0.02654   0.04385  -0.22462
  13   28014.5    357.0   0.002250126   0.02644   0.07859  -0.12440   0.06922
  14   28744.2    347.9   0.001459304   0.01671   0.01036   0.09818  -0.08347
  15   29374.8    340.4   0.014202389   0.15917   0.10840   0.20834  -0.32251
  16   29432.6    339.8   0.020659601   0.23108   0.29934  -0.11688   0.35752
  17   29619.2    337.6   0.049648547   0.55183   0.17367   0.46320  -0.55418
  18   29912.3    334.3   0.015696871   0.17276  -0.25749  -0.30577   0.11385
  19   30003.4    333.3   0.065635693   0.72019   0.03359  -0.51240   0.67565
  20   30318.9    329.8   0.037233318   0.40429   0.09804  -0.25509   0.57412
  21   30560.2    327.2   0.029418794   0.31692   0.14848   0.32155  -0.43758
  22   30670.1    326.1   0.028513554   0.30606   0.00330  -0.35496   0.42433
  23   30730.3    325.4   0.044147280   0.47295  -0.33687  -0.42706   0.42082
  24   30964.8    322.9   0.143023746   1.52060   1.13630  -0.16330  -0.45029
  25   31135.0    321.2   0.141473229   1.49589   0.90687  -0.58155   0.57903
  26   31238.9    320.1   0.236926203   2.49686  -0.87848   1.04622  -0.79407
  27   31466.8    317.8   0.000373350   0.00391  -0.05508  -0.00264   0.02941
  28   31768.6    314.8   0.662378354   6.86410  -2.51712   0.13503   0.71413
  29   32189.2    310.7   0.307205666   3.14192   0.38483  -1.28999   1.15314
  30   32591.4    306.8   0.022217070   0.22442  -0.02556   0.25252  -0.40000
  31   32730.8    305.5   0.123078950   1.23795  -0.19367   0.82168  -0.72477
  32   33400.3    299.4   0.001782008   0.01756   0.10199   0.04402  -0.07227
  33   33499.3    298.5   0.063116536   0.62027  -0.71548  -0.14523   0.29542
  34   34091.5    293.3   0.000596852   0.00576   0.02179  -0.00458   0.07258
  35   34263.6    291.9   0.051455715   0.49440   0.41273  -0.46722   0.32520
  36   34487.4    290.0   0.114161597   1.08977  -1.02012   0.13971   0.17205
  37   34841.4    287.0   0.075994572   0.71806   0.27833   0.58154  -0.54992
  38   35108.2    284.8   0.044580951   0.41804   0.17543  -0.43914   0.44093
  39   35171.4    284.3   0.051423812   0.48134  -0.35191   0.56901  -0.18364
  40   35258.8    283.6   0.169956480   1.58689   0.58176   0.63807  -0.91723
  41   35375.4    282.7   0.029777922   0.27712   0.48490  -0.20482   0.00657
  42   35611.4    280.8   0.063732222   0.58918  -0.59842   0.46453  -0.12362
  43   35809.8    279.3   0.428939993   3.94340  -0.65401  -1.17969   1.45740
  44   36008.1    277.7   0.219394111   2.00586  -0.16904  -0.94636   1.04004
  45   36137.1    276.7   0.053629057   0.48856   0.45682  -0.24177   0.47056
  46   36199.9    276.2   0.156023775   1.41892  -0.65151   0.80517  -0.58836
  47   36371.9    274.9   0.013626883   0.12334   0.15593  -0.29704   0.10388
  48   36558.0    273.5   0.006641860   0.05981  -0.00070   0.21563  -0.11539
  49   36620.1    273.1   0.024075837   0.21644   0.15882   0.22152  -0.37702
  50   36775.9    271.9   0.008840154   0.07914   0.27250  -0.06943  -0.00768
  51   36905.6    271.0   0.006586842   0.05876  -0.08410   0.19942  -0.10915
  52   37174.9    269.0   0.010418779   0.09227  -0.26917   0.12929  -0.05565
  53   37442.3    267.1   0.006513206   0.05727  -0.23245   0.03138   0.04743
  54   37511.9    266.6   0.044251565   0.38836  -0.10285   0.32829  -0.51962
  55   37770.0    264.8   0.008691848   0.07576  -0.26730   0.06346  -0.01682
  56   37892.3    263.9   0.013449110   0.11685   0.33201  -0.07825  -0.02222
  57   38055.4    262.8   0.083836971   0.72526  -0.16370   0.51830  -0.65561
  58   38148.5    262.1   0.021234991   0.18325  -0.17422   0.29434  -0.25741
  59   38413.6    260.3   0.005718547   0.04901  -0.18542   0.11579   0.03494
  60   38524.9    259.6   0.025397610   0.21703  -0.46473  -0.03138   0.00864
  61   38958.5    256.7   0.059448390   0.50236   0.25696   0.45563  -0.47826
  62   39106.4    255.7   0.002069555   0.01742  -0.07050   0.10925   0.02276
  63   39189.7    255.2   0.075413094   0.63351  -0.52429   0.52331  -0.29115
  64   39476.8    253.3   0.063482685   0.52941   0.63822   0.05009  -0.34580
  65   39729.9    251.7   0.072295157   0.59906  -0.41453   0.44218  -0.48135
  66   40012.8    249.9   0.023852946   0.19625  -0.20294  -0.29045   0.26590
  67   40126.1    249.2   0.043718282   0.35868   0.57800  -0.12742  -0.09145
  68   40309.7    248.1   0.024270332   0.19822   0.05034  -0.25708   0.35999

FINAL SINGLE POINT ENERGY     -6302.155814576614

DIPOLE MOMENT
-------------
                                X             Y             Z
Electronic contribution:      2.93108       1.96765      -1.47723
Nuclear contribution   :     -2.97357      -3.68962       3.63756
                        -----------------------------------------
Total Dipole Moment    :     -0.04248      -1.72196       2.16033
                        -----------------------------------------
Magnitude (a.u.)       :      2.76297
Magnitude (Debye)      :      7.02291

Rotational constants in cm-1:     0.002169     0.000150     0.000141
Rotational constants in MHz :    65.011521     4.497297     4.241567

                             ****ORCA TERMINATED NORMALLY****
TOTAL RUN TIME: 0 days 0 hours 10 minutes 3 seconds 334 msec
