                         Program Version 4.2.0 -  RELEASE  -
|  1> # ORCA input file
|  2> # SCF done       -159.884273773183          0.000423112915
|  3> ! CAM-B3LYP def2-SVP def2/J RIJCOSX Grid4 TightSCF
|  4> %maxcore 5000
|  5> %tddft
|  6>     Mode sTDDFT
|  7>     Ethresh 5.0
|  8>     maxcore 5000
|  9> end
| 10>
| 11> %pal
| 12>   nprocs 6
| 13>   end
| 14> * xyz 0 1
| 15>    C        3.45286         0.19670         1.11458
| 16>    C        4.53846         0.93854         0.65790
| 17>    C        4.70099         2.35371         1.11245
| 18>    C        5.47420         0.36670        -0.21877
| 19>    C        6.63710         1.16759        -0.71029
| 20>    C        5.31718        -0.95355        -0.62779
| 21>    C        4.23996        -1.68390        -0.16826
| 22>    C        3.29630        -1.11637         0.70419
| 23>    C        2.28062        -2.11445         1.01235
| 24>    C        1.12132        -1.89409         1.70956
| 25>    C        0.77459        -0.65667         2.28988
| 26>    N        0.44305         0.32369         2.78722
| 27>    C        0.10306        -2.85125         1.90186
| 28>    N       -0.77978        -3.56505         2.07545
| 29>    C        2.67373        -3.35580         0.37082
| 30>    C        3.87951        -3.08337        -0.45934
| 31>    O        4.47550        -3.84558        -1.18996
| 32>    C        2.17420        -4.59172         0.66764
| 33>    C        2.50894        -5.83797         0.08630
| 34>    C        2.77319        -6.04268        -1.25001
| 35>    C        3.08974        -7.37235        -1.62321
| 36>    C        3.06877        -8.29663        -0.59983
| 37>   Si        2.59035        -7.48510         1.01684
| 38>    C        3.35244        -9.67434        -0.72590
| 39>    C        3.25730       -10.46593         0.44387
| 40>    C        3.50440       -11.88340         0.43955
| 41>    N        3.42012       -12.57424         1.57795
| 42>    C        3.10063       -11.95912         2.69346
| 43>    C        2.83250       -10.55162         2.69372
| 44>    N        2.92021        -9.85722         1.58244
| 45>    C        2.48024        -9.89373         3.89729
| 46>    N        2.20634        -9.39160         4.88962
| 47>    C        3.02988       -12.69746         3.89964
| 48>    N        2.97020       -13.26184         4.89450
| 49>    C        3.84405       -12.59196        -0.73726
| 50>    C        3.94811       -11.80512        -1.91153
| 51>    C        3.70886       -10.37607        -1.90568
| 52>    N        3.86124        -9.85017        -3.11902
| 53>    S        4.25979       -11.00960        -4.15605
| 54>    N        4.26440       -12.24348        -3.12820
| 55>    C        4.02320       -13.98684        -0.61775
| 56>    C        4.38012       -14.84308        -1.63506
| 57>    C        4.41403       -16.21506        -1.28226
| 58>    C        4.07941       -16.51777         0.01455
| 59>   Si        3.75911       -14.91516         0.98428
| 60>    C        4.03067       -17.83432         0.53373
| 61>    C        3.54850       -18.96301        -0.05320
| 62>    C        3.89063       -20.29896         0.51007
| 63>    O        4.37899       -20.52097         1.59461
| 64>    C        3.56168       -21.25743        -0.55988
| 65>    C        2.94621       -20.57926        -1.62795
| 66>    C        2.57318       -21.28545        -2.75840
| 67>    C        2.80009       -22.65737        -2.82176
| 68>    C        3.40266       -23.33036        -1.74689
| 69>    C        3.78624       -22.61786        -0.61513
| 70>    C        3.63388       -24.80582        -1.81280
| 71>    C        2.39280       -23.41148        -4.04691
| 72>    C        2.79733       -19.17147        -1.27295
| 73>    C        1.92991       -18.28905        -1.86322
| 74>    C        1.61794       -17.01862        -1.34142
| 75>    N        1.27500       -15.99467        -0.95005
| 76>    C        1.18301       -18.58175        -3.02206
| 77>    N        0.57215       -18.76271        -3.97736
| 78>    H        2.74973         0.65475         1.79174
| 79>    H        3.89555         2.63774         1.78392
| 80>    H        4.69887         3.03216         0.26002
| 81>    H        5.64994         2.48200         1.63224
| 82>    H        7.25163         1.50165         0.12529
| 83>    H        6.29477         2.05529        -1.24126
| 84>    H        7.25496         0.57750        -1.38155
| 85>    H        6.02627        -1.41338        -1.30006
| 86>    H        1.50058        -4.66359         1.51482
| 87>    H        2.69703        -5.26708        -1.99521
| 88>    H        3.32561        -7.63216        -2.64331
| 89>    H        3.64104        -7.37439         2.02645
| 90>    H        1.24727        -7.79397         1.49653
| 91>    H        4.60651       -14.50894        -2.63545
| 92>    H        4.72387       -16.96345        -1.99986
| 93>    H        4.87178       -14.78006         1.92507
| 94>    H        2.41856       -14.99119         1.54366
| 95>    H        4.43759       -17.97507         1.53128
| 96>    H        2.11537       -20.78652        -3.59806
| 97>    H        4.25255       -23.11665         0.22129
| 98>    H        4.27045       -25.05657        -2.66075
| 99>    H        2.69077       -25.33571        -1.94240
|100>    H        4.11002       -25.16188        -0.90347
|101>    H        1.93850       -22.74646        -4.77605
|102>    H        1.67564       -24.19149        -3.79402
|103>    H        3.25582       -23.89444        -4.50424
|104> *
|105>
|106>                          ****END OF INPUT****

CARTESIAN COORDINATES (ANGSTROEM)
---------------------------------
  C      3.452860    0.196700    1.114580
  C      4.538460    0.938540    0.657900
  C      4.700990    2.353710    1.112450
  C      5.474200    0.366700   -0.218770
  C      6.637100    1.167590   -0.710290
  C      5.317180   -0.953550   -0.627790
  C      4.239960   -1.683900   -0.168260
  C      3.296300   -1.116370    0.704190
  C      2.280620   -2.114450    1.012350
  C      1.121320   -1.894090    1.709560
  C      0.774590   -0.656670    2.289880
  N      0.443050    0.323690    2.787220
  C      0.103060   -2.851250    1.901860
  N     -0.779780   -3.565050    2.075450
  C      2.673730   -3.355800    0.370820
  C      3.879510   -3.083370   -0.459340
  O      4.475500   -3.845580   -1.189960
  C      2.174200   -4.591720    0.667640
  C      2.508940   -5.837970    0.086300
  C      2.773190   -6.042680   -1.250010
  C      3.089740   -7.372350   -1.623210
  C      3.068770   -8.296630   -0.599830
  Si     2.590350   -7.485100    1.016840
  C      3.352440   -9.674340   -0.725900
  C      3.257300  -10.465930    0.443870
  C      3.504400  -11.883400    0.439550
  N      3.420120  -12.574240    1.577950
  C      3.100630  -11.959120    2.693460
  C      2.832500  -10.551620    2.693720
  N      2.920210   -9.857220    1.582440
  C      2.480240   -9.893730    3.897290
  N      2.206340   -9.391600    4.889620
  C      3.029880  -12.697460    3.899640
  N      2.970200  -13.261840    4.894500
  C      3.844050  -12.591960   -0.737260
  C      3.948110  -11.805120   -1.911530
  C      3.708860  -10.376070   -1.905680
  N      3.861240   -9.850170   -3.119020
  S      4.259790  -11.009600   -4.156050
  N      4.264400  -12.243480   -3.128200
  C      4.023200  -13.986840   -0.617750
  C      4.380120  -14.843080   -1.635060
  C      4.414030  -16.215060   -1.282260
  C      4.079410  -16.517770    0.014550
  Si     3.759110  -14.915160    0.984280
  C      4.030670  -17.834320    0.533730
  C      3.548500  -18.963010   -0.053200
  C      3.890630  -20.298960    0.510070
  O      4.378990  -20.520970    1.594610
  C      3.561680  -21.257430   -0.559880
  C      2.946210  -20.579260   -1.627950
  C      2.573180  -21.285450   -2.758400
  C      2.800090  -22.657370   -2.821760
  C      3.402660  -23.330360   -1.746890
  C      3.786240  -22.617860   -0.615130
  C      3.633880  -24.805820   -1.812800
  C      2.392800  -23.411480   -4.046910
  C      2.797330  -19.171470   -1.272950
  C      1.929910  -18.289050   -1.863220
  C      1.617940  -17.018620   -1.341420
  N      1.275000  -15.994670   -0.950050
  C      1.183010  -18.581750   -3.022060
  N      0.572150  -18.762710   -3.977360
  H      2.749730    0.654750    1.791740
  H      3.895550    2.637740    1.783920
  H      4.698870    3.032160    0.260020
  H      5.649940    2.482000    1.632240
  H      7.251630    1.501650    0.125290
  H      6.294770    2.055290   -1.241260
  H      7.254960    0.577500   -1.381550
  H      6.026270   -1.413380   -1.300060
  H      1.500580   -4.663590    1.514820
  H      2.697030   -5.267080   -1.995210
  H      3.325610   -7.632160   -2.643310
  H      3.641040   -7.374390    2.026450
  H      1.247270   -7.793970    1.496530
  H      4.606510  -14.508940   -2.635450
  H      4.723870  -16.963450   -1.999860
  H      4.871780  -14.780060    1.925070
  H      2.418560  -14.991190    1.543660
  H      4.437590  -17.975070    1.531280
  H      2.115370  -20.786520   -3.598060
  H      4.252550  -23.116650    0.221290
  H      4.270450  -25.056570   -2.660750
  H      2.690770  -25.335710   -1.942400
  H      4.110020  -25.161880   -0.903470
  H      1.938500  -22.746460   -4.776050
  H      1.675640  -24.191490   -3.794020
  H      3.255820  -23.894440   -4.504240

 Total Charge           Charge          ....    0
 Multiplicity           Mult            ....    1
 Number of Electrons    NEL             ....  444
 Basis Dimension        Dim             .... 1024

ORBITAL ENERGIES
----------------

  NO   OCC          E(Eh)            E(eV)
   0   2.0000     -89.054495     -2423.2960
   1   2.0000     -66.201452     -1801.4331
   2   2.0000     -66.199823     -1801.3888
   3   2.0000     -19.212318      -522.7937
   4   2.0000     -19.209796      -522.7251
   5   2.0000     -14.491000      -394.3201
   6   2.0000     -14.489839      -394.2886
   7   2.0000     -14.464740      -393.6056
   8   2.0000     -14.464102      -393.5882
   9   2.0000     -14.443675      -393.0324
  10   2.0000     -14.443534      -393.0285
  11   2.0000     -14.415268      -392.2594
  12   2.0000     -14.414663      -392.2429
  13   2.0000     -14.407723      -392.0541
  14   2.0000     -14.407302      -392.0426
  15   2.0000     -10.401804      -283.0475
  16   2.0000     -10.401355      -283.0353
  17   2.0000     -10.362885      -281.9884
  18   2.0000     -10.361308      -281.9455
  19   2.0000     -10.360075      -281.9120
  20   2.0000     -10.359702      -281.9018
  21   2.0000     -10.352801      -281.7140
  22   2.0000     -10.352483      -281.7054
  23   2.0000     -10.341433      -281.4047
  24   2.0000     -10.340737      -281.3858
  25   2.0000     -10.336697      -281.2758
  26   2.0000     -10.336435      -281.2687
  27   2.0000     -10.334500      -281.2160
  28   2.0000     -10.332254      -281.1549
  29   2.0000     -10.324637      -280.9476
  30   2.0000     -10.323197      -280.9085
  31   2.0000     -10.319069      -280.7961
  32   2.0000     -10.317833      -280.7625
  33   2.0000     -10.312182      -280.6088
  34   2.0000     -10.310833      -280.5720
  35   2.0000     -10.310194      -280.5546
  36   2.0000     -10.306812      -280.4626
  37   2.0000     -10.301964      -280.3307
  38   2.0000     -10.297726      -280.2154
  39   2.0000     -10.297387      -280.2061
  40   2.0000     -10.296458      -280.1809
  41   2.0000     -10.295508      -280.1550
  42   2.0000     -10.294678      -280.1324
  43   2.0000     -10.294444      -280.1261
  44   2.0000     -10.293513      -280.1007
  45   2.0000     -10.293095      -280.0894
  46   2.0000     -10.292558      -280.0747
  47   2.0000     -10.291263      -280.0395
  48   2.0000     -10.289996      -280.0050
  49   2.0000     -10.289781      -279.9992
  50   2.0000     -10.289445      -279.9900
  51   2.0000     -10.287600      -279.9398
  52   2.0000     -10.284939      -279.8674
  53   2.0000     -10.284084      -279.8442
  54   2.0000     -10.282051      -279.7888
  55   2.0000     -10.278151      -279.6827
  56   2.0000     -10.277820      -279.6737
  57   2.0000     -10.276857      -279.6475
  58   2.0000     -10.276447      -279.6363
  59   2.0000     -10.274922      -279.5948
  60   2.0000     -10.274835      -279.5925
  61   2.0000     -10.272105      -279.5182
  62   2.0000     -10.265139      -279.3286
  63   2.0000      -8.145793      -221.6583
  64   2.0000      -6.116913      -166.4497
  65   2.0000      -6.109000      -166.2343
  66   2.0000      -6.108611      -166.2238
  67   2.0000      -5.367893      -146.0678
  68   2.0000      -5.366885      -146.0404
  69   2.0000      -3.731785      -101.5470
  70   2.0000      -3.730433      -101.5102
  71   2.0000      -3.729728      -101.4911
  72   2.0000      -3.728739      -101.4642
  73   2.0000      -3.728644      -101.4616
  74   2.0000      -3.727840      -101.4397
  75   2.0000      -1.151964       -31.3465
  76   2.0000      -1.144038       -31.1309
  77   2.0000      -1.126856       -30.6633
  78   2.0000      -1.124399       -30.5964
  79   2.0000      -1.073186       -29.2029
  80   2.0000      -1.028024       -27.9740
  81   2.0000      -1.017928       -27.6992
  82   2.0000      -1.017734       -27.6939
  83   2.0000      -1.010366       -27.4935
  84   2.0000      -1.006023       -27.3753
  85   2.0000      -0.995961       -27.1015
  86   2.0000      -0.993774       -27.0420
  87   2.0000      -0.990509       -26.9531
  88   2.0000      -0.989397       -26.9229
  89   2.0000      -0.986060       -26.8321
  90   2.0000      -0.957108       -26.0442
  91   2.0000      -0.951422       -25.8895
  92   2.0000      -0.942570       -25.6486
  93   2.0000      -0.935372       -25.4528
  94   2.0000      -0.921269       -25.0690
  95   2.0000      -0.908858       -24.7313
  96   2.0000      -0.904143       -24.6030
  97   2.0000      -0.897784       -24.4300
  98   2.0000      -0.888063       -24.1654
  99   2.0000      -0.879212       -23.9246
 100   2.0000      -0.872249       -23.7351
 101   2.0000      -0.867368       -23.6023
 102   2.0000      -0.850978       -23.1563
 103   2.0000      -0.838805       -22.8250
 104   2.0000      -0.834439       -22.7062
 105   2.0000      -0.817665       -22.2498
 106   2.0000      -0.809864       -22.0375
 107   2.0000      -0.808086       -21.9891
 108   2.0000      -0.804026       -21.8786
 109   2.0000      -0.776737       -21.1361
 110   2.0000      -0.767657       -20.8890
 111   2.0000      -0.755039       -20.5457
 112   2.0000      -0.749560       -20.3966
 113   2.0000      -0.746533       -20.3142
 114   2.0000      -0.741984       -20.1904
 115   2.0000      -0.729514       -19.8511
 116   2.0000      -0.723790       -19.6953
 117   2.0000      -0.709805       -19.3148
 118   2.0000      -0.707428       -19.2501
 119   2.0000      -0.693970       -18.8839
 120   2.0000      -0.687742       -18.7144
 121   2.0000      -0.684967       -18.6389
 122   2.0000      -0.679875       -18.5003
 123   2.0000      -0.677063       -18.4238
 124   2.0000      -0.671563       -18.2742
 125   2.0000      -0.661738       -18.0068
 126   2.0000      -0.658106       -17.9080
 127   2.0000      -0.649454       -17.6725
 128   2.0000      -0.633219       -17.2308
 129   2.0000      -0.628934       -17.1142
 130   2.0000      -0.619421       -16.8553
 131   2.0000      -0.616023       -16.7628
 132   2.0000      -0.609966       -16.5980
 133   2.0000      -0.607607       -16.5338
 134   2.0000      -0.601503       -16.3677
 135   2.0000      -0.598676       -16.2908
 136   2.0000      -0.597286       -16.2530
 137   2.0000      -0.583553       -15.8793
 138   2.0000      -0.579900       -15.7799
 139   2.0000      -0.573678       -15.6106
 140   2.0000      -0.568890       -15.4803
 141   2.0000      -0.567226       -15.4350
 142   2.0000      -0.564301       -15.3554
 143   2.0000      -0.552704       -15.0398
 144   2.0000      -0.543282       -14.7835
 145   2.0000      -0.539999       -14.6941
 146   2.0000      -0.538200       -14.6452
 147   2.0000      -0.536458       -14.5978
 148   2.0000      -0.535736       -14.5781
 149   2.0000      -0.533709       -14.5230
 150   2.0000      -0.525128       -14.2895
 151   2.0000      -0.524063       -14.2605
 152   2.0000      -0.522199       -14.2098
 153   2.0000      -0.520518       -14.1640
 154   2.0000      -0.517539       -14.0830
 155   2.0000      -0.514613       -14.0033
 156   2.0000      -0.513124       -13.9628
 157   2.0000      -0.502961       -13.6863
 158   2.0000      -0.499998       -13.6056
 159   2.0000      -0.497343       -13.5334
 160   2.0000      -0.496583       -13.5127
 161   2.0000      -0.494992       -13.4694
 162   2.0000      -0.492480       -13.4011
 163   2.0000      -0.492221       -13.3940
 164   2.0000      -0.490142       -13.3374
 165   2.0000      -0.486684       -13.2433
 166   2.0000      -0.482549       -13.1308
 167   2.0000      -0.480444       -13.0735
 168   2.0000      -0.477203       -12.9854
 169   2.0000      -0.476264       -12.9598
 170   2.0000      -0.474310       -12.9066
 171   2.0000      -0.473014       -12.8714
 172   2.0000      -0.469419       -12.7735
 173   2.0000      -0.468567       -12.7503
 174   2.0000      -0.467804       -12.7296
 175   2.0000      -0.467283       -12.7154
 176   2.0000      -0.465582       -12.6691
 177   2.0000      -0.461101       -12.5472
 178   2.0000      -0.458142       -12.4667
 179   2.0000      -0.451624       -12.2893
 180   2.0000      -0.448946       -12.2165
 181   2.0000      -0.448044       -12.1919
 182   2.0000      -0.444964       -12.1081
 183   2.0000      -0.443736       -12.0747
 184   2.0000      -0.441519       -12.0144
 185   2.0000      -0.440599       -11.9893
 186   2.0000      -0.440201       -11.9785
 187   2.0000      -0.439700       -11.9649
 188   2.0000      -0.438663       -11.9366
 189   2.0000      -0.437619       -11.9082
 190   2.0000      -0.436092       -11.8667
 191   2.0000      -0.434228       -11.8159
 192   2.0000      -0.433492       -11.7959
 193   2.0000      -0.432869       -11.7790
 194   2.0000      -0.427601       -11.6356
 195   2.0000      -0.422003       -11.4833
 196   2.0000      -0.419220       -11.4075
 197   2.0000      -0.417655       -11.3650
 198   2.0000      -0.414442       -11.2775
 199   2.0000      -0.412766       -11.2319
 200   2.0000      -0.411661       -11.2019
 201   2.0000      -0.407263       -11.0822
 202   2.0000      -0.405264       -11.0278
 203   2.0000      -0.400932       -10.9099
 204   2.0000      -0.396660       -10.7937
 205   2.0000      -0.395271       -10.7559
 206   2.0000      -0.391440       -10.6516
 207   2.0000      -0.387913       -10.5556
 208   2.0000      -0.375760       -10.2250
 209   2.0000      -0.368599       -10.0301
 210   2.0000      -0.361616        -9.8401
 211   2.0000      -0.354782        -9.6541
 212   2.0000      -0.347394        -9.4531
 213   2.0000      -0.335572        -9.1314
 214   2.0000      -0.334146        -9.0926
 215   2.0000      -0.330122        -8.9831
 216   2.0000      -0.328773        -8.9464
 217   2.0000      -0.319520        -8.6946
 218   2.0000      -0.307588        -8.3699
 219   2.0000      -0.302099        -8.2205
 220   2.0000      -0.287199        -7.8151
 221   2.0000      -0.245464        -6.6794
 222   0.0000      -0.141835        -3.8595
 223   0.0000      -0.085970        -2.3394
 224   0.0000      -0.082611        -2.2480
 225   0.0000      -0.065292        -1.7767
 226   0.0000      -0.059543        -1.6202

MULLIKEN ATOMIC CHARGES
-----------------------
   0 C :   -0.082609
   1 C :   -0.080125
   2 C :    0.115964
   3 C :   -0.075247
   4 C :    0.117801
   5 C :   -0.081611
   6 C :   -0.014712
   7 C :    0.043116
   8 C :    0.295412
   9 C :   -0.345981
  10 C :   -0.180962
  11 N :    0.146696
  12 C :   -0.203727
  13 N :    0.161857
  14 C :   -0.087472
  15 C :    0.144500
  16 O :   -0.150408
  17 C :   -0.003495
  18 C :   -0.177040
  19 C :    0.083694
  20 C :   -0.009965
  21 C :   -0.299459
  22 Si:    0.572607
  23 C :    0.199195
  24 C :   -0.019764
  25 C :   -0.021387
  26 N :   -0.041364
  27 C :   -0.060459
  28 C :   -0.068202
  29 N :   -0.035824
  30 C :   -0.257969
  31 N :    0.260353
  32 C :   -0.257727
  33 N :    0.256930
  34 C :    0.207746
  35 C :    0.009501
  36 C :    0.013472
  37 N :   -0.282503
  38 S :    0.555550
  39 N :   -0.279620
  40 C :   -0.279132
  41 C :    0.002080
  42 C :    0.033910
  43 C :   -0.190428
  44 Si:    0.580740
  45 C :    0.060342
  46 C :   -0.132162
  47 C :    0.136647
  48 O :   -0.140983
  49 C :    0.005999
  50 C :    0.025561
  51 C :   -0.078981
  52 C :   -0.079048
  53 C :   -0.075510
  54 C :   -0.082126
  55 C :    0.115651
  56 C :    0.113295
  57 C :    0.277521
  58 C :   -0.351084
  59 C :   -0.158304
  60 N :    0.156402
  61 C :   -0.186352
  62 N :    0.149378
  63 H :   -0.013488
  64 H :    0.025642
  65 H :    0.026937
  66 H :    0.025457
  67 H :    0.026930
  68 H :    0.027385
  69 H :    0.015280
  70 H :   -0.021728
  71 H :    0.029138
  72 H :   -0.000323
  73 H :    0.007047
  74 H :   -0.076746
  75 H :   -0.064104
  76 H :    0.003968
  77 H :   -0.004178
  78 H :   -0.074575
  79 H :   -0.056897
  80 H :    0.028597
  81 H :   -0.012573
  82 H :   -0.016246
  83 H :    0.027194
  84 H :    0.029561
  85 H :    0.017219
  86 H :    0.024514
  87 H :    0.029284
  88 H :    0.026527
Sum of atomic charges:    0.0000000

LOEWDIN ATOMIC CHARGES
----------------------
   0 C :   -0.005920
   1 C :   -0.004569
   2 C :   -0.042131
   3 C :   -0.007559
   4 C :   -0.042874
   5 C :    0.005162
   6 C :   -0.047646
   7 C :   -0.018199
   8 C :    0.076015
   9 C :   -0.141087
  10 C :   -0.017380
  11 N :   -0.057207
  12 C :   -0.024871
  13 N :   -0.051759
  14 C :   -0.092161
  15 C :    0.082311
  16 O :   -0.142424
  17 C :    0.056773
  18 C :   -0.170983
  19 C :    0.034605
  20 C :    0.020597
  21 C :   -0.163736
  22 Si:    0.535761
  23 C :   -0.026884
  24 C :   -0.001701
  25 C :   -0.002002
  26 N :    0.022961
  27 C :   -0.014088
  28 C :   -0.012926
  29 N :    0.020384
  30 C :   -0.040097
  31 N :    0.010729
  32 C :   -0.039727
  33 N :    0.009209
  34 C :   -0.017589
  35 C :   -0.038454
  36 C :   -0.037112
  37 N :   -0.271329
  38 S :    0.681621
  39 N :   -0.270086
  40 C :   -0.159762
  41 C :    0.026643
  42 C :   -0.002861
  43 C :   -0.152744
  44 Si:    0.532074
  45 C :    0.061546
  46 C :   -0.089441
  47 C :    0.082217
  48 O :   -0.141750
  49 C :   -0.048307
  50 C :   -0.017191
  51 C :   -0.007453
  52 C :   -0.003532
  53 C :   -0.006177
  54 C :    0.007283
  55 C :   -0.042533
  56 C :   -0.042203
  57 C :    0.074547
  58 C :   -0.143336
  59 C :   -0.006656
  60 N :   -0.054189
  61 C :   -0.019454
  62 N :   -0.056954
  63 H :    0.036024
  64 H :    0.036062
  65 H :    0.037805
  66 H :    0.037381
  67 H :    0.038070
  68 H :    0.038029
  69 H :    0.032368
  70 H :    0.034366
  71 H :    0.043920
  72 H :    0.029862
  73 H :    0.029181
  74 H :   -0.088215
  75 H :   -0.080892
  76 H :    0.028709
  77 H :    0.025935
  78 H :   -0.085354
  79 H :   -0.079179
  80 H :    0.047800
  81 H :    0.035545
  82 H :    0.036502
  83 H :    0.038099
  84 H :    0.039011
  85 H :    0.033282
  86 H :    0.035692
  87 H :    0.039040
  88 H :    0.037564

  Mayer bond orders larger than 0.100000
B(  0-C ,  1-C ) :   1.3759 B(  0-C ,  7-C ) :   1.3458 B(  0-C , 63-H ) :   0.9858
B(  1-C ,  2-C ) :   1.0943 B(  1-C ,  3-C ) :   1.3753 B(  2-C , 64-H ) :   0.9508
B(  2-C , 65-H ) :   0.9397 B(  2-C , 66-H ) :   0.9401 B(  3-C ,  4-C ) :   1.0942
B(  3-C ,  5-C ) :   1.3491 B(  4-C , 67-H ) :   0.9401 B(  4-C , 68-H ) :   0.9403
B(  4-C , 69-H ) :   0.9516 B(  5-C ,  6-C ) :   1.3607 B(  5-C , 70-H ) :   1.0105
B(  6-C ,  7-C ) :   1.3313 B(  6-C , 15-C ) :   0.9443 B(  7-C ,  8-C ) :   0.9913
B(  8-C ,  9-C ) :   1.6430 B(  8-C , 14-C ) :   1.0557 B(  9-C , 10-C ) :   1.1430
B(  9-C , 12-C ) :   1.1380 B( 10-C , 11-N ) :   2.9713 B( 12-C , 13-N ) :   3.0024
B( 14-C , 15-C ) :   0.9360 B( 14-C , 17-C ) :   1.6125 B( 15-C , 16-O ) :   2.2199
B( 17-C , 18-C ) :   1.1618 B( 17-C , 71-H ) :   0.9412 B( 18-C , 19-C ) :   1.6174
B( 18-C , 22-Si) :   0.8302 B( 19-C , 20-C ) :   1.1312 B( 19-C , 72-H ) :   0.9899
B( 20-C , 21-C ) :   1.5673 B( 20-C , 73-H ) :   0.9914 B( 21-C , 22-Si) :   0.8742
B( 21-C , 23-C ) :   1.2265 B( 22-Si, 29-N ) :   0.1664 B( 22-Si, 74-H ) :   0.9549
B( 22-Si, 75-H ) :   0.9552 B( 23-C , 24-C ) :   1.2603 B( 23-C , 34-C ) :   0.1237
B( 23-C , 36-C ) :   1.1222 B( 24-C , 25-C ) :   1.1213 B( 24-C , 29-N ) :   1.3498
B( 25-C , 26-N ) :   1.3478 B( 25-C , 34-C ) :   1.2572 B( 26-N , 27-C ) :   1.6461
B( 26-N , 44-Si) :   0.1726 B( 27-C , 28-C ) :   1.2232 B( 27-C , 32-C ) :   1.1700
B( 28-C , 29-N ) :   1.6523 B( 28-C , 30-C ) :   1.1747 B( 30-C , 31-N ) :   3.0304
B( 32-C , 33-N ) :   3.0302 B( 34-C , 35-C ) :   1.1214 B( 34-C , 40-C ) :   1.2424
B( 35-C , 36-C ) :   1.0927 B( 35-C , 39-N ) :   1.5300 B( 36-C , 37-N ) :   1.5296
B( 37-N , 38-S ) :   1.2782 B( 37-N , 39-N ) :   0.1455 B( 38-S , 39-N ) :   1.2812
B( 40-C , 41-C ) :   1.5806 B( 40-C , 44-Si) :   0.8713 B( 41-C , 42-C ) :   1.1201
B( 41-C , 76-H ) :   0.9897 B( 42-C , 43-C ) :   1.6464 B( 42-C , 77-H ) :   0.9958
B( 43-C , 44-Si) :   0.8072 B( 43-C , 45-C ) :   1.0893 B( 44-Si, 78-H ) :   0.9464
B( 44-Si, 79-H ) :   0.9637 B( 45-C , 46-C ) :   1.7020 B( 45-C , 80-H ) :   0.9304
B( 46-C , 47-C ) :   0.9320 B( 46-C , 57-C ) :   1.0249 B( 47-C , 48-O ) :   2.2716
B( 47-C , 49-C ) :   0.9194 B( 49-C , 50-C ) :   1.3329 B( 49-C , 54-C ) :   1.3628
B( 50-C , 51-C ) :   1.3512 B( 50-C , 57-C ) :   1.0032 B( 51-C , 52-C ) :   1.3763
B( 51-C , 81-H ) :   0.9863 B( 52-C , 53-C ) :   1.3741 B( 52-C , 56-C ) :   1.0939
B( 53-C , 54-C ) :   1.3549 B( 53-C , 55-C ) :   1.0933 B( 54-C , 82-H ) :   1.0095
B( 55-C , 83-H ) :   0.9401 B( 55-C , 84-H ) :   0.9407 B( 55-C , 85-H ) :   0.9520
B( 56-C , 86-H ) :   0.9511 B( 56-C , 87-H ) :   0.9394 B( 56-C , 88-H ) :   0.9409
B( 57-C , 58-C ) :   1.6516 B( 58-C , 59-C ) :   1.1737 B( 58-C , 61-C ) :   1.1322
B( 59-C , 60-N ) :   2.9460 B( 61-C , 62-N ) :   2.9853

-----------------------------------------------------------------------------
         ABSORPTION SPECTRUM VIA TRANSITION ELECTRIC DIPOLE MOMENTS
-----------------------------------------------------------------------------
State   Energy  Wavelength   fosc         T2         TX        TY        TZ
        (cm-1)    (nm)                  (au**2)     (au)      (au)      (au)
-----------------------------------------------------------------------------
   0    6916.1   1445.9   0.366757344  17.45796  -0.33767   4.15436   0.29201
   1   16383.5    610.4   0.006532774   0.13127   0.32904  -0.13730   0.06443
   2   18479.1    541.2   0.805259816  14.34600  -0.15880  -3.73241  -0.62442
   3   19836.6    504.1   0.198152403   3.28857   0.48241  -1.72477   0.28465
   4   21464.9    465.9   0.004923519   0.07551  -0.10725   0.00109  -0.25300
   5   22991.0    435.0   0.065623084   0.93967  -0.34698   0.75595   0.49781
   6   23288.1    429.4   0.047513096   0.67167   0.57896  -0.46304  -0.34938
   7   23913.2    418.2   0.028254755   0.38898  -0.23400   0.15682   0.55645
   8   24332.4    411.0   0.040020758   0.54147   0.07281  -0.72870  -0.07189
   9   24568.4    407.0   0.007850514   0.10520  -0.28426  -0.08287  -0.13239
  10   25695.5    389.2   0.033110004   0.42421   0.20227   0.52715  -0.32467
  11   26302.1    380.2   0.020106833   0.25167  -0.13494  -0.45644   0.15849
  12   26992.6    370.5   0.144196395   1.75867   0.13485  -1.31851   0.04480
  13   27285.7    366.5   0.121833122   1.46996  -0.41460  -1.13789   0.05718
  14   28348.6    352.8   0.013951252   0.16202   0.34843  -0.16633   0.11377
  15   29393.0    340.2   0.059339261   0.66462   0.61369  -0.34562  -0.41055
  16   29632.2    337.5   0.007319600   0.08132   0.00739  -0.19633  -0.20668
  17   29814.6    335.4   0.038177053   0.42155   0.45313  -0.33856   0.31874
  18   30538.7    327.5   0.001497031   0.01614   0.02634  -0.01549   0.12331
  19   30649.8    326.3   0.053303147   0.57253  -0.17233  -0.16740   0.71751
  20   30847.6    324.2   0.629118601   6.71409   0.33295   0.05309  -2.56913
  21   31555.8    316.9   0.205856000   2.14763  -0.36431   1.35579   0.42039
  22   31826.7    314.2   0.075032484   0.77613   0.01456   0.77002  -0.42776
  23   31954.0    313.0   0.032201368   0.33176  -0.51371   0.25625   0.04686
  24   32134.4    311.2   0.119238917   1.22158   0.97003   0.38711  -0.36162
  25   32463.2    308.0   0.002436349   0.02471   0.06909   0.03933  -0.13560
  26   32900.6    303.9   0.024597345   0.24613   0.20072  -0.07374  -0.44766
  27   33237.2    300.9   0.072101977   0.71417   0.20276  -0.77042   0.28196
  28   33538.2    298.2   0.018585827   0.18244   0.03565   0.21635   0.36655
  29   33826.6    295.6   0.025601066   0.24916   0.13884  -0.47843  -0.03145
  30   34059.1    293.6   0.047786288   0.46190  -0.26274   0.20682  -0.59169
  31   34700.5    288.2   0.061362118   0.58216   0.06158   0.67927   0.34199
  32   34788.7    287.4   0.044229278   0.41855   0.50788  -0.40034   0.01834
  33   35504.3    281.7   0.168200942   1.55964  -1.22433  -0.07589   0.23432
  34   35569.9    281.1   0.148024761   1.37002  -0.33577   1.11300   0.13605
  35   36084.5    277.1   0.249076342   2.27241  -0.64403  -1.29221   0.43339
  36   36184.5    276.4   0.200044443   1.82004  -1.02401  -0.52718   0.70251
  37   36661.1    272.8   0.050334326   0.45200  -0.64598  -0.09633  -0.15945
  38   36936.2    270.7   0.094112068   0.83882   0.65885  -0.48638  -0.41008
  39   37252.3    268.4   0.094570968   0.83576   0.77980   0.04688  -0.47485
  40   37621.2    265.8   0.190367534   1.66585   0.34776   0.42377  -1.16848
  41   37830.0    264.3   0.255298578   2.22171  -1.11644   0.90899  -0.38604
  42   37949.2    263.5   0.088254414   0.76561  -0.35116  -0.58839   0.54415
  43   38339.6    260.8   0.023825393   0.20458   0.30679  -0.30697  -0.12740
  44   38510.7    259.7   0.021063627   0.18006  -0.01566   0.37919  -0.18983
  45   38634.6    258.8   0.011734504   0.09999  -0.10119  -0.28129  -0.10308
  46   38756.7    258.0   0.187348148   1.59139  -0.08850   0.37109   1.20244
  47   39786.7    251.3   0.013452926   0.11132  -0.17289  -0.25594   0.12617
  48   40084.7    249.5   0.029467269   0.24201   0.06504   0.22805   0.43102

FINAL SINGLE POINT ENERGY     -3516.201103486479

DIPOLE MOMENT
-------------
                                X             Y             Z
Electronic contribution:    -14.40857       3.14175      10.94680
Nuclear contribution   :     18.08246      -4.65101     -14.52836
                        -----------------------------------------
Total Dipole Moment    :      3.67389      -1.50926      -3.58157
                        -----------------------------------------
Magnitude (a.u.)       :      5.34817
Magnitude (Debye)      :     13.59397

Rotational constants in cm-1:     0.003474     0.000340     0.000326
Rotational constants in MHz :   104.142168    10.186964     9.771213

                             ****ORCA TERMINATED NORMALLY****
TOTAL RUN TIME: 0 days 0 hours 8 minutes 26 seconds 779 msec
