                         Program Version 4.2.0 -  RELEASE  -
|  1> # ORCA input file
|  2> # SCF done       -191.918774960980          0.000458482772
|  3> ! CAM-B3LYP def2-SVP def2/J RIJCOSX Grid4 TightSCF
|  4> %maxcore 5000
|  5> %tddft
|  6>     Mode sTDDFT
|  7>     Ethresh 5.0
|  8>     maxcore 5000
|  9> end
| 10>
| 11> %pal
| 12>   nprocs 6
| 13>   end
| 14> * xyz 0 1
| 15>    C       -3.97517        -2.72788        -0.46986
| 16>    C       -5.12145        -2.64970         0.31560
| 17>    C       -6.18686        -1.66383        -0.04200
| 18>    C       -5.28177        -3.48688         1.43208
| 19>    C       -6.51539        -3.40206         2.27118
| 20>    C       -4.28335        -4.39960         1.75433
| 21>    C       -3.15115        -4.47104         0.96828
| 22>    C       -2.98235        -3.64033        -0.15111
| 23>    C       -1.70722        -3.95328        -0.78377
| 24>    C       -1.25050        -3.39460        -1.94898
| 25>    C       -1.94480        -2.40002        -2.67176
| 26>    N       -2.44834        -1.59022        -3.31085
| 27>    C       -0.05615        -3.71981        -2.62657
| 28>    N        0.88394        -3.92616        -3.25415
| 29>    C       -1.06148        -4.99048         0.01226
| 30>    C       -1.98550        -5.35354         1.12067
| 31>    O       -1.82526        -6.17909         1.99444
| 32>    C        0.19855        -5.45654        -0.22988
| 33>    C        0.94845        -6.49180         0.37024
| 34>    C        0.64951        -7.44208         1.33762
| 35>    C        1.70694        -8.31644         1.55595
| 36>    C        2.83541        -8.03467         0.75449
| 37>    S        2.58856        -6.69972        -0.26438
| 38>    C        3.84103        -8.99245         1.03385
| 39>    C        3.34964        -9.88419         2.00665
| 40>    C        1.99780        -9.48508         2.37181
| 41>    C        1.18435       -10.09500         3.27922
| 42>    C        1.60171       -11.23177         4.00579
| 43>    N        1.93587       -12.15441         4.59865
| 44>    C       -0.12896        -9.66072         3.56582
| 45>    N       -1.20142        -9.34850         3.82139
| 46>    C        4.25845       -10.89191         2.32000
| 47>    C        5.42953       -10.76382         1.59360
| 48>    S        5.42148        -9.38345         0.51739
| 49>    C        6.55605       -11.61783         1.60705
| 50>    N        7.63368       -11.40951         0.90844
| 51>    C        8.50835       -12.39797         1.08111
| 52>    C        8.11601       -13.43781         1.94439
| 53>    S        6.55174       -13.11649         2.57528
| 54>    N        8.97744       -14.44104         2.09407
| 55>    C       10.05000       -14.23995         1.38516
| 56>    S       10.07038       -12.72443         0.44520
| 57>    C       11.12406       -15.15642         1.31619
| 58>    C       12.31607       -15.02911         0.62459
| 59>    C       13.11403       -16.16146         0.77070
| 60>    C       12.51441       -17.14907         1.57535
| 61>    S       10.98145       -16.68255         2.16222
| 62>    C       13.38962       -18.26131         1.64452
| 63>    C       14.54201       -17.98043         0.88654
| 64>    C       14.40859       -16.64917         0.31681
| 65>    C       15.30114       -15.99706        -0.48081
| 66>    C       16.52674       -16.57846        -0.87136
| 67>    N       17.52117       -17.04521        -1.19862
| 68>    C       15.05407       -14.69965        -0.97893
| 69>    N       14.85599       -13.64726        -1.38794
| 70>    C       15.44871       -19.03705         0.87584
| 71>    C       15.01730       -20.10779         1.64220
| 72>    S       13.43185       -19.80785         2.34938
| 73>    C       15.67781       -21.35600         1.76577
| 74>    C       15.47638       -22.35283         2.66379
| 75>    C       15.90431       -23.74573         2.32631
| 76>    O       16.66891       -24.07066         1.44900
| 77>    C       15.13694       -24.60507         3.24388
| 78>    C       14.43612       -23.80710         4.16725
| 79>    C       13.62215       -24.40652         5.11181
| 80>    C       13.50960       -25.79349         5.14294
| 81>    C       14.22114       -26.58659         4.22733
| 82>    C       15.03525       -25.98145         3.27522
| 83>    C       14.10563       -28.07614         4.27023
| 84>    C       12.62326       -26.43423         6.16168
| 85>    C       14.76876       -22.40856         3.92792
| 86>    C       14.68758       -21.39949         4.85020
| 87>    C       15.28159       -20.13464         4.66117
| 88>    N       15.78607       -19.10955         4.54984
| 89>    C       14.08565       -21.54503         6.11640
| 90>    N       13.59126       -21.61500         7.14971
| 91>    H       -3.87747        -2.07074        -1.31866
| 92>    H       -5.90814        -1.09757        -0.92627
| 93>    H       -6.35569        -0.96791         0.77906
| 94>    H       -7.12897        -2.17462        -0.23837
| 95>    H       -7.40132        -3.60859         1.67152
| 96>    H       -6.62728        -2.40141         2.68751
| 97>    H       -6.47453        -4.11640         3.08868
| 98>    H       -4.38174        -5.05473         2.60694
| 99>    H        0.73956        -4.96661        -1.03102
|100>    H       -0.29968        -7.46946         1.84311
|101>    H        4.09617       -11.68470         3.02783
|102>    H       12.56775       -14.15431         0.05238
|103>    H       16.39239       -19.03874         0.36081
|104>    H       16.38582       -21.58215         0.97361
|105>    H       13.06235       -23.81212         5.81701
|106>    H       15.58916       -26.57486         2.56333
|107>    H       13.06998       -28.38394         4.12952
|108>    H       14.43284       -28.45796         5.23673
|109>    H       14.71250       -28.53237         3.49316
|110>    H       12.15908       -25.68419         6.79582
|111>    H       13.19471       -27.11574         6.79059
|112>    H       11.83949       -27.01485         5.67603
|113> *
|114>
|115>                          ****END OF INPUT****

CARTESIAN COORDINATES (ANGSTROEM)
---------------------------------
  C     -3.975170   -2.727880   -0.469860
  C     -5.121450   -2.649700    0.315600
  C     -6.186860   -1.663830   -0.042000
  C     -5.281770   -3.486880    1.432080
  C     -6.515390   -3.402060    2.271180
  C     -4.283350   -4.399600    1.754330
  C     -3.151150   -4.471040    0.968280
  C     -2.982350   -3.640330   -0.151110
  C     -1.707220   -3.953280   -0.783770
  C     -1.250500   -3.394600   -1.948980
  C     -1.944800   -2.400020   -2.671760
  N     -2.448340   -1.590220   -3.310850
  C     -0.056150   -3.719810   -2.626570
  N      0.883940   -3.926160   -3.254150
  C     -1.061480   -4.990480    0.012260
  C     -1.985500   -5.353540    1.120670
  O     -1.825260   -6.179090    1.994440
  C      0.198550   -5.456540   -0.229880
  C      0.948450   -6.491800    0.370240
  C      0.649510   -7.442080    1.337620
  C      1.706940   -8.316440    1.555950
  C      2.835410   -8.034670    0.754490
  S      2.588560   -6.699720   -0.264380
  C      3.841030   -8.992450    1.033850
  C      3.349640   -9.884190    2.006650
  C      1.997800   -9.485080    2.371810
  C      1.184350  -10.095000    3.279220
  C      1.601710  -11.231770    4.005790
  N      1.935870  -12.154410    4.598650
  C     -0.128960   -9.660720    3.565820
  N     -1.201420   -9.348500    3.821390
  C      4.258450  -10.891910    2.320000
  C      5.429530  -10.763820    1.593600
  S      5.421480   -9.383450    0.517390
  C      6.556050  -11.617830    1.607050
  N      7.633680  -11.409510    0.908440
  C      8.508350  -12.397970    1.081110
  C      8.116010  -13.437810    1.944390
  S      6.551740  -13.116490    2.575280
  N      8.977440  -14.441040    2.094070
  C     10.050000  -14.239950    1.385160
  S     10.070380  -12.724430    0.445200
  C     11.124060  -15.156420    1.316190
  C     12.316070  -15.029110    0.624590
  C     13.114030  -16.161460    0.770700
  C     12.514410  -17.149070    1.575350
  S     10.981450  -16.682550    2.162220
  C     13.389620  -18.261310    1.644520
  C     14.542010  -17.980430    0.886540
  C     14.408590  -16.649170    0.316810
  C     15.301140  -15.997060   -0.480810
  C     16.526740  -16.578460   -0.871360
  N     17.521170  -17.045210   -1.198620
  C     15.054070  -14.699650   -0.978930
  N     14.855990  -13.647260   -1.387940
  C     15.448710  -19.037050    0.875840
  C     15.017300  -20.107790    1.642200
  S     13.431850  -19.807850    2.349380
  C     15.677810  -21.356000    1.765770
  C     15.476380  -22.352830    2.663790
  C     15.904310  -23.745730    2.326310
  O     16.668910  -24.070660    1.449000
  C     15.136940  -24.605070    3.243880
  C     14.436120  -23.807100    4.167250
  C     13.622150  -24.406520    5.111810
  C     13.509600  -25.793490    5.142940
  C     14.221140  -26.586590    4.227330
  C     15.035250  -25.981450    3.275220
  C     14.105630  -28.076140    4.270230
  C     12.623260  -26.434230    6.161680
  C     14.768760  -22.408560    3.927920
  C     14.687580  -21.399490    4.850200
  C     15.281590  -20.134640    4.661170
  N     15.786070  -19.109550    4.549840
  C     14.085650  -21.545030    6.116400
  N     13.591260  -21.615000    7.149710
  H     -3.877470   -2.070740   -1.318660
  H     -5.908140   -1.097570   -0.926270
  H     -6.355690   -0.967910    0.779060
  H     -7.128970   -2.174620   -0.238370
  H     -7.401320   -3.608590    1.671520
  H     -6.627280   -2.401410    2.687510
  H     -6.474530   -4.116400    3.088680
  H     -4.381740   -5.054730    2.606940
  H      0.739560   -4.966610   -1.031020
  H     -0.299680   -7.469460    1.843110
  H      4.096170  -11.684700    3.027830
  H     12.567750  -14.154310    0.052380
  H     16.392390  -19.038740    0.360810
  H     16.385820  -21.582150    0.973610
  H     13.062350  -23.812120    5.817010
  H     15.589160  -26.574860    2.563330
  H     13.069980  -28.383940    4.129520
  H     14.432840  -28.457960    5.236730
  H     14.712500  -28.532370    3.493160
  H     12.159080  -25.684190    6.795820
  H     13.194710  -27.115740    6.790590
  H     11.839490  -27.014850    5.676030

 Total Charge           Charge          ....    0
 Multiplicity           Mult            ....    1
 Number of Electrons    NEL             ....  552
 Basis Dimension        Dim             .... 1198

ORBITAL ENERGIES
----------------

  NO   OCC          E(Eh)            E(eV)
   0   2.0000     -89.000823     -2421.8355
   1   2.0000     -89.000218     -2421.8191
   2   2.0000     -88.998857     -2421.7820
   3   2.0000     -88.998284     -2421.7664
   4   2.0000     -88.985604     -2421.4214
   5   2.0000     -88.985570     -2421.4205
   6   2.0000     -19.220362      -523.0126
   7   2.0000     -19.217904      -522.9458
   8   2.0000     -14.440300      -392.9405
   9   2.0000     -14.439758      -392.9258
  10   2.0000     -14.436386      -392.8340
  11   2.0000     -14.436232      -392.8299
  12   2.0000     -14.435378      -392.8066
  13   2.0000     -14.431583      -392.7033
  14   2.0000     -14.419562      -392.3762
  15   2.0000     -14.419486      -392.3742
  16   2.0000     -14.418590      -392.3498
  17   2.0000     -14.414516      -392.2389
  18   2.0000     -10.371901      -282.2338
  19   2.0000     -10.371577      -282.2250
  20   2.0000     -10.370827      -282.2045
  21   2.0000     -10.369447      -282.1670
  22   2.0000     -10.368041      -282.1287
  23   2.0000     -10.367993      -282.1274
  24   2.0000     -10.359488      -281.8960
  25   2.0000     -10.358256      -281.8625
  26   2.0000     -10.348179      -281.5883
  27   2.0000     -10.347853      -281.5794
  28   2.0000     -10.346538      -281.5436
  29   2.0000     -10.346460      -281.5415
  30   2.0000     -10.346332      -281.5380
  31   2.0000     -10.345916      -281.5267
  32   2.0000     -10.343453      -281.4597
  33   2.0000     -10.342645      -281.4377
  34   2.0000     -10.341955      -281.4189
  35   2.0000     -10.341568      -281.4084
  36   2.0000     -10.338542      -281.3260
  37   2.0000     -10.337304      -281.2923
  38   2.0000     -10.336402      -281.2678
  39   2.0000     -10.336220      -281.2628
  40   2.0000     -10.335186      -281.2347
  41   2.0000     -10.332043      -281.1492
  42   2.0000     -10.331302      -281.1290
  43   2.0000     -10.330536      -281.1082
  44   2.0000     -10.328041      -281.0403
  45   2.0000     -10.326113      -280.9878
  46   2.0000     -10.322556      -280.8910
  47   2.0000     -10.321887      -280.8728
  48   2.0000     -10.320381      -280.8319
  49   2.0000     -10.317808      -280.7618
  50   2.0000     -10.316892      -280.7369
  51   2.0000     -10.316010      -280.7129
  52   2.0000     -10.315888      -280.7096
  53   2.0000     -10.315770      -280.7064
  54   2.0000     -10.315571      -280.7010
  55   2.0000     -10.312177      -280.6086
  56   2.0000     -10.311683      -280.5951
  57   2.0000     -10.307095      -280.4703
  58   2.0000     -10.306140      -280.4443
  59   2.0000     -10.303743      -280.3791
  60   2.0000     -10.302463      -280.3443
  61   2.0000     -10.301653      -280.3222
  62   2.0000     -10.301214      -280.3103
  63   2.0000     -10.300561      -280.2925
  64   2.0000     -10.297615      -280.2124
  65   2.0000     -10.297119      -280.1989
  66   2.0000     -10.293601      -280.1031
  67   2.0000     -10.293286      -280.0946
  68   2.0000     -10.291993      -280.0594
  69   2.0000     -10.289339      -279.9872
  70   2.0000     -10.289219      -279.9839
  71   2.0000     -10.287392      -279.9342
  72   2.0000     -10.280295      -279.7410
  73   2.0000     -10.279060      -279.7074
  74   2.0000     -10.277303      -279.6596
  75   2.0000     -10.275502      -279.6106
  76   2.0000      -8.094940      -220.2745
  77   2.0000      -8.094375      -220.2591
  78   2.0000      -8.093106      -220.2246
  79   2.0000      -8.092991      -220.2215
  80   2.0000      -8.081293      -219.9032
  81   2.0000      -8.081254      -219.9021
  82   2.0000      -6.064252      -165.0167
  83   2.0000      -6.063678      -165.0011
  84   2.0000      -6.062359      -164.9652
  85   2.0000      -6.062044      -164.9566
  86   2.0000      -6.059943      -164.8994
  87   2.0000      -6.059360      -164.8836
  88   2.0000      -6.058097      -164.8492
  89   2.0000      -6.057946      -164.8451
  90   2.0000      -6.057319      -164.8280
  91   2.0000      -6.056759      -164.8128
  92   2.0000      -6.055604      -164.7814
  93   2.0000      -6.055538      -164.7796
  94   2.0000      -6.050493      -164.6423
  95   2.0000      -6.050482      -164.6420
  96   2.0000      -6.046783      -164.5413
  97   2.0000      -6.046764      -164.5408
  98   2.0000      -6.042966      -164.4375
  99   2.0000      -6.042928      -164.4364
 100   2.0000      -1.135561       -30.9002
 101   2.0000      -1.133373       -30.8407
 102   2.0000      -1.112213       -30.2649
 103   2.0000      -1.073816       -29.2200
 104   2.0000      -1.054122       -28.6841
 105   2.0000      -1.052931       -28.6517
 106   2.0000      -1.028370       -27.9834
 107   2.0000      -1.026823       -27.9413
 108   2.0000      -1.022963       -27.8362
 109   2.0000      -1.020185       -27.7607
 110   2.0000      -1.013488       -27.5784
 111   2.0000      -1.010898       -27.5079
 112   2.0000      -1.007736       -27.4219
 113   2.0000      -1.006255       -27.3816
 114   2.0000      -0.999817       -27.2064
 115   2.0000      -0.998365       -27.1669
 116   2.0000      -0.996982       -27.1293
 117   2.0000      -0.994319       -27.0568
 118   2.0000      -0.969212       -26.3736
 119   2.0000      -0.967787       -26.3348
 120   2.0000      -0.958643       -26.0860
 121   2.0000      -0.956068       -26.0159
 122   2.0000      -0.935986       -25.4695
 123   2.0000      -0.928232       -25.2585
 124   2.0000      -0.922235       -25.0953
 125   2.0000      -0.909385       -24.7456
 126   2.0000      -0.905836       -24.6491
 127   2.0000      -0.901477       -24.5304
 128   2.0000      -0.893559       -24.3150
 129   2.0000      -0.892747       -24.2929
 130   2.0000      -0.883321       -24.0364
 131   2.0000      -0.877432       -23.8761
 132   2.0000      -0.875745       -23.8302
 133   2.0000      -0.872235       -23.7347
 134   2.0000      -0.865581       -23.5537
 135   2.0000      -0.863737       -23.5035
 136   2.0000      -0.859192       -23.3798
 137   2.0000      -0.843618       -22.9560
 138   2.0000      -0.831824       -22.6351
 139   2.0000      -0.817123       -22.2350
 140   2.0000      -0.812458       -22.1081
 141   2.0000      -0.809521       -22.0282
 142   2.0000      -0.787862       -21.4388
 143   2.0000      -0.785680       -21.3794
 144   2.0000      -0.782687       -21.2980
 145   2.0000      -0.769354       -20.9352
 146   2.0000      -0.758571       -20.6418
 147   2.0000      -0.754367       -20.5274
 148   2.0000      -0.746158       -20.3040
 149   2.0000      -0.736630       -20.0447
 150   2.0000      -0.714536       -19.4435
 151   2.0000      -0.712333       -19.3836
 152   2.0000      -0.709342       -19.3022
 153   2.0000      -0.703655       -19.1474
 154   2.0000      -0.698279       -19.0011
 155   2.0000      -0.693989       -18.8844
 156   2.0000      -0.691416       -18.8144
 157   2.0000      -0.688647       -18.7391
 158   2.0000      -0.684269       -18.6199
 159   2.0000      -0.682892       -18.5824
 160   2.0000      -0.676845       -18.4179
 161   2.0000      -0.670273       -18.2391
 162   2.0000      -0.664117       -18.0715
 163   2.0000      -0.650561       -17.7027
 164   2.0000      -0.648707       -17.6522
 165   2.0000      -0.638355       -17.3705
 166   2.0000      -0.633807       -17.2468
 167   2.0000      -0.632923       -17.2227
 168   2.0000      -0.626266       -17.0416
 169   2.0000      -0.623630       -16.9698
 170   2.0000      -0.616383       -16.7726
 171   2.0000      -0.609999       -16.5989
 172   2.0000      -0.609715       -16.5912
 173   2.0000      -0.606546       -16.5050
 174   2.0000      -0.591510       -16.0958
 175   2.0000      -0.589442       -16.0395
 176   2.0000      -0.578337       -15.7374
 177   2.0000      -0.574847       -15.6424
 178   2.0000      -0.566185       -15.4067
 179   2.0000      -0.565318       -15.3831
 180   2.0000      -0.565030       -15.3753
 181   2.0000      -0.557268       -15.1640
 182   2.0000      -0.556884       -15.1536
 183   2.0000      -0.553084       -15.0502
 184   2.0000      -0.547824       -14.9070
 185   2.0000      -0.544264       -14.8102
 186   2.0000      -0.543683       -14.7944
 187   2.0000      -0.542757       -14.7692
 188   2.0000      -0.539905       -14.6916
 189   2.0000      -0.539543       -14.6817
 190   2.0000      -0.531560       -14.4645
 191   2.0000      -0.529533       -14.4093
 192   2.0000      -0.527338       -14.3496
 193   2.0000      -0.527099       -14.3431
 194   2.0000      -0.526523       -14.3274
 195   2.0000      -0.522935       -14.2298
 196   2.0000      -0.521715       -14.1966
 197   2.0000      -0.518666       -14.1136
 198   2.0000      -0.516348       -14.0506
 199   2.0000      -0.513656       -13.9773
 200   2.0000      -0.513198       -13.9648
 201   2.0000      -0.508939       -13.8489
 202   2.0000      -0.505168       -13.7463
 203   2.0000      -0.504042       -13.7157
 204   2.0000      -0.502004       -13.6602
 205   2.0000      -0.498934       -13.5767
 206   2.0000      -0.498261       -13.5584
 207   2.0000      -0.496065       -13.4986
 208   2.0000      -0.493758       -13.4358
 209   2.0000      -0.492849       -13.4111
 210   2.0000      -0.489472       -13.3192
 211   2.0000      -0.488968       -13.3055
 212   2.0000      -0.488226       -13.2853
 213   2.0000      -0.481326       -13.0975
 214   2.0000      -0.479684       -13.0529
 215   2.0000      -0.478250       -13.0139
 216   2.0000      -0.476956       -12.9786
 217   2.0000      -0.476649       -12.9703
 218   2.0000      -0.473532       -12.8855
 219   2.0000      -0.472331       -12.8528
 220   2.0000      -0.466488       -12.6938
 221   2.0000      -0.465661       -12.6713
 222   2.0000      -0.463481       -12.6120
 223   2.0000      -0.461024       -12.5451
 224   2.0000      -0.458663       -12.4809
 225   2.0000      -0.456382       -12.4188
 226   2.0000      -0.453762       -12.3475
 227   2.0000      -0.451281       -12.2800
 228   2.0000      -0.450057       -12.2467
 229   2.0000      -0.449444       -12.2300
 230   2.0000      -0.449294       -12.2259
 231   2.0000      -0.447765       -12.1843
 232   2.0000      -0.447593       -12.1796
 233   2.0000      -0.446196       -12.1416
 234   2.0000      -0.445569       -12.1245
 235   2.0000      -0.445396       -12.1198
 236   2.0000      -0.445292       -12.1170
 237   2.0000      -0.443591       -12.0707
 238   2.0000      -0.443395       -12.0654
 239   2.0000      -0.442358       -12.0372
 240   2.0000      -0.441421       -12.0117
 241   2.0000      -0.439647       -11.9634
 242   2.0000      -0.438492       -11.9320
 243   2.0000      -0.437616       -11.9081
 244   2.0000      -0.432203       -11.7609
 245   2.0000      -0.431012       -11.7284
 246   2.0000      -0.429416       -11.6850
 247   2.0000      -0.429149       -11.6777
 248   2.0000      -0.427424       -11.6308
 249   2.0000      -0.422447       -11.4954
 250   2.0000      -0.421752       -11.4764
 251   2.0000      -0.412416       -11.2224
 252   2.0000      -0.411168       -11.1885
 253   2.0000      -0.410886       -11.1808
 254   2.0000      -0.406655       -11.0656
 255   2.0000      -0.405042       -11.0217
 256   2.0000      -0.395455       -10.7609
 257   2.0000      -0.394585       -10.7372
 258   2.0000      -0.385723       -10.4960
 259   2.0000      -0.365395        -9.9429
 260   2.0000      -0.365230        -9.9384
 261   2.0000      -0.358410        -9.7528
 262   2.0000      -0.356661        -9.7052
 263   2.0000      -0.347110        -9.4454
 264   2.0000      -0.343771        -9.3545
 265   2.0000      -0.340551        -9.2669
 266   2.0000      -0.340365        -9.2618
 267   2.0000      -0.336417        -9.1544
 268   2.0000      -0.333487        -9.0747
 269   2.0000      -0.329180        -8.9575
 270   2.0000      -0.327956        -8.9241
 271   2.0000      -0.313885        -8.5412
 272   2.0000      -0.310268        -8.4428
 273   2.0000      -0.304664        -8.2903
 274   2.0000      -0.279664        -7.6100
 275   2.0000      -0.255031        -6.9397
 276   0.0000      -0.119752        -3.2586
 277   0.0000      -0.114018        -3.1026
 278   0.0000      -0.089523        -2.4360
 279   0.0000      -0.087409        -2.3785
 280   0.0000      -0.068544        -1.8652

MULLIKEN ATOMIC CHARGES
-----------------------
   0 C :   -0.079365
   1 C :   -0.079357
   2 C :    0.115517
   3 C :   -0.076666
   4 C :    0.117823
   5 C :   -0.077716
   6 C :   -0.008240
   7 C :    0.039344
   8 C :    0.318492
   9 C :   -0.359998
  10 C :   -0.178906
  11 N :    0.146904
  12 C :   -0.189042
  13 N :    0.149874
  14 C :   -0.083904
  15 C :    0.156661
  16 O :   -0.146108
  17 C :    0.032167
  18 C :   -0.115265
  19 C :   -0.012644
  20 C :   -0.000410
  21 C :   -0.086123
  22 S :    0.209593
  23 C :   -0.109202
  24 C :    0.017838
  25 C :    0.310497
  26 C :   -0.297179
  27 C :   -0.194530
  28 N :    0.174074
  29 C :   -0.192315
  30 N :    0.199918
  31 C :   -0.054289
  32 C :   -0.042725
  33 S :    0.260066
  34 C :   -0.106576
  35 N :   -0.038361
  36 C :   -0.054870
  37 C :   -0.053371
  38 S :    0.139257
  39 N :   -0.040800
  40 C :   -0.102891
  41 S :    0.141130
  42 C :   -0.047448
  43 C :   -0.048795
  44 C :    0.016568
  45 C :   -0.107845
  46 S :    0.260742
  47 C :   -0.082861
  48 C :    0.024363
  49 C :    0.298721
  50 C :   -0.294257
  51 C :   -0.190110
  52 N :    0.183213
  53 C :   -0.191161
  54 N :    0.180324
  55 C :    0.006572
  56 C :   -0.088225
  57 S :    0.207682
  58 C :    0.043299
  59 C :   -0.137545
  60 C :    0.140748
  61 O :   -0.138814
  62 C :    0.004329
  63 C :    0.029850
  64 C :   -0.073709
  65 C :   -0.081964
  66 C :   -0.077718
  67 C :   -0.075935
  68 C :    0.115620
  69 C :    0.114463
  70 C :    0.240485
  71 C :   -0.326065
  72 C :   -0.208031
  73 N :    0.175788
  74 C :   -0.171600
  75 N :    0.155695
  76 H :   -0.013542
  77 H :    0.025962
  78 H :    0.027307
  79 H :    0.027052
  80 H :    0.028731
  81 H :    0.027824
  82 H :    0.019086
  83 H :   -0.013222
  84 H :    0.004128
  85 H :    0.038385
  86 H :    0.019823
  87 H :    0.018596
  88 H :    0.018063
  89 H :    0.033134
  90 H :   -0.009832
  91 H :   -0.014333
  92 H :    0.027865
  93 H :    0.030108
  94 H :    0.018155
  95 H :    0.024651
  96 H :    0.029224
  97 H :    0.028151
Sum of atomic charges:   -0.0000000

LOEWDIN ATOMIC CHARGES
----------------------
   0 C :   -0.005105
   1 C :   -0.002898
   2 C :   -0.041652
   3 C :   -0.004750
   4 C :   -0.042405
   5 C :    0.009040
   6 C :   -0.047384
   7 C :   -0.019647
   8 C :    0.079256
   9 C :   -0.142333
  10 C :   -0.016872
  11 N :   -0.054277
  12 C :   -0.023460
  13 N :   -0.053821
  14 C :   -0.091486
  15 C :    0.087802
  16 O :   -0.134719
  17 C :    0.036737
  18 C :   -0.174333
  19 C :    0.013746
  20 C :   -0.072690
  21 C :   -0.163993
  22 S :    0.500903
  23 C :   -0.184042
  24 C :   -0.057729
  25 C :    0.075113
  26 C :   -0.093158
  27 C :   -0.015648
  28 N :   -0.030523
  29 C :   -0.023924
  30 N :   -0.012765
  31 C :   -0.025995
  32 C :   -0.189271
  33 S :    0.520724
  34 C :   -0.134026
  35 N :   -0.106202
  36 C :   -0.208902
  37 C :   -0.208311
  38 S :    0.425897
  39 N :   -0.107775
  40 C :   -0.133136
  41 S :    0.425663
  42 C :   -0.190756
  43 C :   -0.023625
  44 C :   -0.059785
  45 C :   -0.180707
  46 S :    0.522699
  47 C :   -0.157307
  48 C :   -0.070372
  49 C :    0.079501
  50 C :   -0.096314
  51 C :   -0.017726
  52 N :   -0.025233
  53 C :   -0.016960
  54 N :   -0.028458
  55 C :    0.010393
  56 C :   -0.174669
  57 S :    0.513021
  58 C :    0.044694
  59 C :   -0.094425
  60 C :    0.084582
  61 O :   -0.139143
  62 C :   -0.049373
  63 C :   -0.015838
  64 C :   -0.007355
  65 C :   -0.001629
  66 C :   -0.006027
  67 C :    0.008623
  68 C :   -0.042319
  69 C :   -0.041764
  70 C :    0.061438
  71 C :   -0.144576
  72 C :   -0.037721
  73 N :   -0.046539
  74 C :   -0.020191
  75 N :   -0.049321
  76 H :    0.036172
  77 H :    0.036149
  78 H :    0.038134
  79 H :    0.038332
  80 H :    0.038946
  81 H :    0.038685
  82 H :    0.033952
  83 H :    0.037672
  84 H :    0.041759
  85 H :    0.042893
  86 H :    0.039104
  87 H :    0.039572
  88 H :    0.047223
  89 H :    0.055061
  90 H :    0.035915
  91 H :    0.037060
  92 H :    0.038449
  93 H :    0.039305
  94 H :    0.033596
  95 H :    0.035865
  96 H :    0.039369
  97 H :    0.038322

  Mayer bond orders larger than 0.100000
B(  0-C ,  1-C ) :   1.3795 B(  0-C ,  7-C ) :   1.3444 B(  0-C , 76-H ) :   0.9840
B(  1-C ,  2-C ) :   1.0940 B(  1-C ,  3-C ) :   1.3716 B(  2-C , 77-H ) :   0.9511
B(  2-C , 78-H ) :   0.9399 B(  2-C , 79-H ) :   0.9399 B(  3-C ,  4-C ) :   1.0933
B(  3-C ,  5-C ) :   1.3487 B(  4-C , 80-H ) :   0.9399 B(  4-C , 81-H ) :   0.9398
B(  4-C , 82-H ) :   0.9518 B(  5-C ,  6-C ) :   1.3590 B(  5-C , 83-H ) :   1.0115
B(  6-C ,  7-C ) :   1.3329 B(  6-C , 15-C ) :   0.9580 B(  7-C ,  8-C ) :   0.9850
B(  8-C ,  9-C ) :   1.6216 B(  8-C , 14-C ) :   1.0746 B(  9-C , 10-C ) :   1.1485
B(  9-C , 12-C ) :   1.1377 B( 10-C , 11-N ) :   2.9641 B( 12-C , 13-N ) :   2.9659
B( 14-C , 15-C ) :   0.9275 B( 14-C , 17-C ) :   1.6182 B( 15-C , 16-O ) :   2.1673
B( 17-C , 18-C ) :   1.2020 B( 17-C , 84-H ) :   0.9063 B( 18-C , 19-C ) :   1.4099
B( 18-C , 22-S ) :   1.0832 B( 19-C , 20-C ) :   1.3008 B( 19-C , 85-H ) :   0.9694
B( 20-C , 21-C ) :   1.3900 B( 20-C , 25-C ) :   0.9964 B( 21-C , 22-S ) :   1.1651
B( 21-C , 23-C ) :   1.1993 B( 23-C , 24-C ) :   1.4306 B( 23-C , 33-S ) :   1.1207
B( 24-C , 25-C ) :   0.9914 B( 24-C , 31-C ) :   1.3206 B( 25-C , 26-C ) :   1.7182
B( 26-C , 27-C ) :   1.1354 B( 26-C , 29-C ) :   1.1355 B( 27-C , 28-N ) :   2.9903
B( 29-C , 30-N ) :   3.0001 B( 31-C , 32-C ) :   1.4520 B( 31-C , 86-H ) :   0.9833
B( 32-C , 33-S ) :   1.1149 B( 32-C , 34-C ) :   1.1487 B( 34-C , 35-N ) :   1.7175
B( 34-C , 38-S ) :   1.0950 B( 35-N , 36-C ) :   1.4049 B( 36-C , 37-C ) :   1.3005
B( 36-C , 41-S ) :   1.0980 B( 37-C , 38-S ) :   1.0992 B( 37-C , 39-N ) :   1.4053
B( 39-N , 40-C ) :   1.7161 B( 40-C , 41-S ) :   1.0953 B( 40-C , 42-C ) :   1.1488
B( 42-C , 43-C ) :   1.4548 B( 42-C , 46-S ) :   1.1143 B( 43-C , 44-C ) :   1.3217
B( 43-C , 87-H ) :   0.9835 B( 44-C , 45-C ) :   1.4291 B( 44-C , 49-C ) :   0.9959
B( 45-C , 46-S ) :   1.1245 B( 45-C , 47-C ) :   1.2038 B( 47-C , 48-C ) :   1.4112
B( 47-C , 57-S ) :   1.1561 B( 48-C , 49-C ) :   0.9944 B( 48-C , 55-C ) :   1.2959
B( 49-C , 50-C ) :   1.7180 B( 50-C , 51-C ) :   1.1337 B( 50-C , 53-C ) :   1.1368
B( 51-C , 52-N ) :   2.9950 B( 53-C , 54-N ) :   2.9933 B( 55-C , 56-C ) :   1.4130
B( 55-C , 88-H ) :   1.0015 B( 56-C , 57-S ) :   1.0915 B( 56-C , 58-C ) :   1.1289
B( 58-C , 59-C ) :   1.6676 B( 58-C , 89-H ) :   0.9464 B( 59-C , 60-C ) :   0.9281
B( 59-C , 70-C ) :   1.0243 B( 60-C , 61-O ) :   2.2722 B( 60-C , 62-C ) :   0.9251
B( 62-C , 63-C ) :   1.3324 B( 62-C , 67-C ) :   1.3670 B( 63-C , 64-C ) :   1.3555
B( 63-C , 70-C ) :   1.0046 B( 64-C , 65-C ) :   1.3772 B( 64-C , 90-H ) :   0.9875
B( 65-C , 66-C ) :   1.3733 B( 65-C , 69-C ) :   1.0933 B( 66-C , 67-C ) :   1.3584
B( 66-C , 68-C ) :   1.0923 B( 67-C , 91-H ) :   1.0087 B( 68-C , 92-H ) :   0.9401
B( 68-C , 93-H ) :   0.9408 B( 68-C , 94-H ) :   0.9521 B( 69-C , 95-H ) :   0.9514
B( 69-C , 96-H ) :   0.9388 B( 69-C , 97-H ) :   0.9409 B( 70-C , 71-C ) :   1.6581
B( 71-C , 72-C ) :   1.1507 B( 71-C , 74-C ) :   1.1330 B( 72-C , 73-N ) :   3.0252
B( 74-C , 75-N ) :   2.9940

-----------------------------------------------------------------------------
         ABSORPTION SPECTRUM VIA TRANSITION ELECTRIC DIPOLE MOMENTS
-----------------------------------------------------------------------------
State   Energy  Wavelength   fosc         T2         TX        TY        TZ
        (cm-1)    (nm)                  (au**2)     (au)      (au)      (au)
-----------------------------------------------------------------------------
   0   13318.1    750.9   0.698139616  17.25747   2.76344  -3.03857   0.62287
   1   14255.0    701.5   0.082727788   1.91056   1.12476  -0.78425   0.17443
   2   20311.3    492.3   1.950122734  31.60819  -3.61202   4.14563  -1.17270
   3   22085.4    452.8   0.198996065   2.96630   1.60883  -0.47576  -0.38937
   4   22341.2    447.6   0.021892688   0.32260   0.50389  -0.18881  -0.18178
   5   23504.5    425.5   0.229755093   3.21803   0.90970  -1.20437   0.96952
   6   25969.3    385.1   0.314555079   3.98760   1.71751  -0.56931  -0.84478
   7   26898.7    371.8   0.144735166   1.77141  -0.58025   1.07646   0.52532
   8   27595.4    362.4   0.150560069   1.79617   0.96034  -0.53913  -0.76372
   9   28403.3    352.1   0.035039323   0.40613  -0.56938  -0.13550   0.25213
  10   28809.7    347.1   0.023284900   0.26608   0.04674   0.44380  -0.25873
  11   29012.7    344.7   0.003498681   0.03970   0.08591  -0.17973   0.00424
  12   29400.6    340.1   0.021872076   0.24491  -0.25423  -0.40920   0.11328
  13   29981.9    333.5   0.088491509   0.97167  -0.24571  -0.83361   0.46517
  14   30055.9    332.7   0.339064286   3.71388  -1.00865  -1.21901   1.10023
  15   30380.7    329.2   0.035707420   0.38693  -0.59501   0.17397  -0.05130
  16   30575.7    327.1   0.174470422   1.87854   1.20227   0.44327  -0.48642
  17   31152.6    321.0   0.109343405   1.15551   0.42211  -0.87002   0.46946
  18   31338.4    319.1   0.746440379   7.84140   0.92387   1.95889  -1.77501
  19   32049.0    312.0   0.247618855   2.54358  -1.14526   0.94310   0.58524
  20   32362.2    309.0   0.063344196   0.64438   0.72670   0.18384  -0.28720
  21   32690.3    305.9   0.030060658   0.30273   0.32352  -0.43863   0.07530
  22   32917.6    303.8   0.061132652   0.61139  -0.28495   0.66045   0.30660
  23   33001.9    303.0   0.051182983   0.51058   0.28863  -0.22795   0.61263
  24   33153.1    301.6   0.009365986   0.09300  -0.16042   0.21528   0.14466
  25   33357.9    299.8   0.005559249   0.05486  -0.01629   0.05487   0.22713
  26   33512.7    298.4   0.202109887   1.98543   1.01824  -0.91281  -0.33970
  27   33708.7    296.7   0.121540071   1.18701   0.53673   0.94738   0.03749
  28   33813.8    295.7   0.003758808   0.03660  -0.14029  -0.09604  -0.08770
  29   34508.3    289.8   0.201297747   1.92040  -1.26939   0.20384   0.51719
  30   35234.1    283.8   0.044714188   0.41779  -0.00435   0.63104  -0.13987
  31   35388.7    282.6   0.231092386   2.14979  -0.66805  -1.10461   0.69523
  32   35446.2    282.1   0.106249634   0.98681   0.14077   0.89588  -0.40546
  33   35799.0    279.3   0.095830215   0.88127  -0.72078  -0.16848   0.57736
  34   35838.9    279.0   0.006467644   0.05941  -0.20522   0.06567   0.11395
  35   35977.8    277.9   0.068267381   0.62468  -0.43845  -0.16604   0.63629
  36   36238.3    276.0   0.465497668   4.22888  -1.30349  -0.08496   1.58826
  37   36398.8    274.7   0.007495748   0.06780   0.20433  -0.06229  -0.14888
  38   36763.1    272.0   0.040313793   0.36101   0.00481   0.56517   0.20388
  39   36957.7    270.6   0.284462225   2.53393   0.15481   1.56655   0.23641
  40   36983.9    270.4   0.135822483   1.20902   0.42712  -0.95295  -0.34420
  41   37195.6    268.8   0.048103671   0.42576  -0.04292  -0.00960   0.65102
  42   37372.0    267.6   0.027841528   0.24526   0.41675   0.26054  -0.06078
  43   37666.0    265.5   0.175681886   1.53551   0.53049   0.53357  -0.98458
  44   38029.3    263.0   0.033217231   0.28756  -0.15026   0.09713   0.50551
  45   38061.5    262.7   0.114903022   0.99385   0.08428  -0.81890   0.56227
  46   38214.5    261.7   0.053481387   0.46073  -0.03880  -0.47985   0.47851
  47   38326.6    260.9   0.051249344   0.44021  -0.26746  -0.39248   0.46329
  48   38920.9    256.9   0.017568177   0.14860   0.27333   0.17482   0.20815
  49   39318.0    254.3   0.107996342   0.90426   0.44840  -0.45619  -0.70362
  50   40089.3    249.4   0.000188122   0.00154   0.00454   0.01259   0.03696
  51   40175.6    248.9   0.133621069   1.09493   0.85752  -0.30613  -0.51563

FINAL SINGLE POINT ENERGY     -5305.925624534989

DIPOLE MOMENT
-------------
                                X             Y             Z
Electronic contribution:     44.36747      19.44888     -16.84287
Nuclear contribution   :    -46.62804     -21.57918      17.69003
                        -----------------------------------------
Total Dipole Moment    :     -2.26057      -2.13030       0.84716
                        -----------------------------------------
Magnitude (a.u.)       :      3.21963
Magnitude (Debye)      :      8.18365

Rotational constants in cm-1:     0.001958     0.000154     0.000145
Rotational constants in MHz :    58.706768     4.618830     4.350905

                             ****ORCA TERMINATED NORMALLY****
TOTAL RUN TIME: 0 days 0 hours 9 minutes 51 seconds 866 msec
