                         Program Version 4.2.0 -  RELEASE  -
|  1> # ORCA input file
|  2> # SCF done       -196.300257970806          0.000955396778
|  3> ! CAM-B3LYP def2-SVP def2/J RIJCOSX Grid4 TightSCF
|  4> %maxcore 5000
|  5> %tddft
|  6>     Mode sTDDFT
|  7>     Ethresh 5.0
|  8>     maxcore 5000
|  9> end
| 10>
| 11> %pal
| 12>   nprocs 6
| 13>   end
| 14> * xyz 0 1
| 15>    C        4.39703        -7.87276        -1.13384
| 16>    C        5.28497        -8.74571        -1.73877
| 17>    C        6.32501        -9.26783        -0.96866
| 18>    C        7.24191       -10.17529        -1.55583
| 19>    N        7.97665       -10.91721        -2.02496
| 20>    C        6.48008        -8.91223         0.38641
| 21>    C        7.55517        -9.44548         1.13752
| 22>    N        8.41596        -9.86853         1.76306
| 23>    C        5.57279        -8.04316         0.99416
| 24>    C        4.53909        -7.54353         0.22963
| 25>    C        3.43114        -6.65216         0.64232
| 26>    O        3.28025        -6.12061         1.71796
| 27>    C        2.51838        -6.60829        -0.53064
| 28>    C        3.24515        -7.15448        -1.66982
| 29>    C        3.06548        -6.82781        -2.98329
| 30>    C        3.90574        -7.28172        -4.02322
| 31>    N        4.57694        -7.61451        -4.89089
| 32>    C        2.08229        -5.91775        -3.42713
| 33>    N        1.33626        -5.13792        -3.81630
| 34>    C        1.22071        -6.23928        -0.39750
| 35>    C        0.17811        -6.51588        -1.34719
| 36>    C        0.12483        -7.66629        -2.12117
| 37>    C        0.93578        -8.89383        -2.02518
| 38>    O        1.41370        -9.42029        -3.00314
| 39>    C        1.05247        -9.49456        -0.64409
| 40>    S       -1.12620        -7.59241        -3.30240
| 41>    C       -1.59775        -6.03984        -2.75246
| 42>    C       -0.85261        -5.58640        -1.70565
| 43>    C       -1.04619        -4.28558        -1.06161
| 44>    C       -1.20193        -4.21168         0.29465
| 45>    C       -1.32152        -2.94780         0.91179
| 46>    C       -1.39848        -2.61039         2.25506
| 47>    C       -1.32477        -3.61573         3.35291
| 48>    C        0.15226        -3.94427         3.68655
| 49>    N        0.83452        -4.46046         2.51382
| 50>    C       -2.07793        -3.25062         4.63706
| 51>    N       -2.26529        -4.44838         5.43897
| 52>    C       -1.42951        -1.16528         2.31462
| 53>    C       -1.46667        -0.29937         3.34419
| 54>    C       -1.46186         1.17505         3.13571
| 55>    C       -1.47582         1.60866         1.70224
| 56>    C       -1.42179         0.73370         0.68009
| 57>    C       -1.39243        -0.65597         0.92981
| 58>    C       -1.31541        -1.75140         0.08848
| 59>    C       -1.20334        -1.87277        -1.31551
| 60>    C       -1.06735        -3.10741        -1.86896
| 61>    C       -0.21633         1.76937         3.75073
| 62>    C       -0.20955         2.85607         4.51225
| 63>    C        1.01394         3.50010         4.98971
| 64>    C        1.35255         3.70802         6.30597
| 65>    C        0.73625         3.32039         7.57573
| 66>    O        1.30011         3.57709         8.61720
| 67>    C       -0.58863         2.60758         7.52215
| 68>    S        2.87405         4.54063         6.46560
| 69>    C        3.01962         4.65536         4.78269
| 70>    C        1.98024         4.06320         4.09393
| 71>    C        1.88285         3.98264         2.66707
| 72>    C        2.42137         4.79653         1.72714
| 73>    C        2.55625         4.29901         0.32965
| 74>    O        2.02615         3.32511        -0.14992
| 75>    C        3.52106         5.22001        -0.31142
| 76>    C        4.09267         5.13374        -1.56303
| 77>    C        5.00869         6.11762        -1.93934
| 78>    C        5.33014         7.16351        -1.05032
| 79>    C        4.73731         7.25011         0.20931
| 80>    C        3.82654         6.27311         0.57746
| 81>    C        3.03609         6.10862         1.79252
| 82>    C        2.71712         7.10515         2.67801
| 83>    C        1.71414         6.96190         3.65866
| 84>    N        0.86215         6.89929         4.42505
| 85>    C        3.27544         8.39886         2.63903
| 86>    N        3.72164         9.45584         2.65010
| 87>    C        6.27783         8.14130        -1.44258
| 88>    N        7.04599         8.93290        -1.74871
| 89>    C        5.62065         6.06237        -3.21410
| 90>    N        6.10654         5.99885        -4.24924
| 91>    H        5.18235        -9.04191        -2.77089
| 92>    H        5.67562        -7.77243         2.03407
| 93>    H        0.94874        -5.72699         0.52092
| 94>    H        0.95625        -8.75637         0.14541
| 95>    H        1.98760       -10.04221        -0.55138
| 96>    H        0.23787       -10.21279        -0.54471
| 97>    H       -2.42777        -5.54469        -3.21654
| 98>    H       -1.22301        -5.10517         0.89835
| 99>    H       -1.76373        -4.54430         2.97301
|100>    H        0.14437        -4.71567         4.45838
|101>    H        0.62640        -3.04093         4.10298
|102>    H        1.68802        -4.94631         2.76831
|103>    H        1.08875        -3.69775         1.89401
|104>    H       -3.02471        -2.75001         4.36934
|105>    H       -1.48113        -2.56104         5.23964
|106>    H       -2.87310        -5.10457         4.96000
|107>    H       -2.69514        -4.22058         6.32819
|108>    H       -1.47011        -0.62579         4.37350
|109>    H       -2.33293         1.60404         3.65076
|110>    H       -1.49713         2.67410         1.53229
|111>    H       -1.40792         1.08332        -0.34146
|112>    H       -1.20995        -0.98624        -1.93155
|113>    H       -0.94650        -3.22639        -2.93463
|114>    H        0.70399         1.26442         3.48995
|115>    H       -1.13788         3.34072         4.78652
|116>    H       -1.35570         3.30102         7.18304
|117>    H       -0.84423         2.25906         8.51951
|118>    H       -0.54548         1.76957         6.83127
|119>    H        3.89254         5.11009         4.35488
|120>    H        1.36323         3.11679         2.27151
|121>    H        3.84042         4.32578        -2.23293
|122>    H        5.00684         8.06111         0.86775
|123> *
|124>
|125>                          ****END OF INPUT****

CARTESIAN COORDINATES (ANGSTROEM)
---------------------------------
  C      4.397030   -7.872760   -1.133840
  C      5.284970   -8.745710   -1.738770
  C      6.325010   -9.267830   -0.968660
  C      7.241910  -10.175290   -1.555830
  N      7.976650  -10.917210   -2.024960
  C      6.480080   -8.912230    0.386410
  C      7.555170   -9.445480    1.137520
  N      8.415960   -9.868530    1.763060
  C      5.572790   -8.043160    0.994160
  C      4.539090   -7.543530    0.229630
  C      3.431140   -6.652160    0.642320
  O      3.280250   -6.120610    1.717960
  C      2.518380   -6.608290   -0.530640
  C      3.245150   -7.154480   -1.669820
  C      3.065480   -6.827810   -2.983290
  C      3.905740   -7.281720   -4.023220
  N      4.576940   -7.614510   -4.890890
  C      2.082290   -5.917750   -3.427130
  N      1.336260   -5.137920   -3.816300
  C      1.220710   -6.239280   -0.397500
  C      0.178110   -6.515880   -1.347190
  C      0.124830   -7.666290   -2.121170
  C      0.935780   -8.893830   -2.025180
  O      1.413700   -9.420290   -3.003140
  C      1.052470   -9.494560   -0.644090
  S     -1.126200   -7.592410   -3.302400
  C     -1.597750   -6.039840   -2.752460
  C     -0.852610   -5.586400   -1.705650
  C     -1.046190   -4.285580   -1.061610
  C     -1.201930   -4.211680    0.294650
  C     -1.321520   -2.947800    0.911790
  C     -1.398480   -2.610390    2.255060
  C     -1.324770   -3.615730    3.352910
  C      0.152260   -3.944270    3.686550
  N      0.834520   -4.460460    2.513820
  C     -2.077930   -3.250620    4.637060
  N     -2.265290   -4.448380    5.438970
  C     -1.429510   -1.165280    2.314620
  C     -1.466670   -0.299370    3.344190
  C     -1.461860    1.175050    3.135710
  C     -1.475820    1.608660    1.702240
  C     -1.421790    0.733700    0.680090
  C     -1.392430   -0.655970    0.929810
  C     -1.315410   -1.751400    0.088480
  C     -1.203340   -1.872770   -1.315510
  C     -1.067350   -3.107410   -1.868960
  C     -0.216330    1.769370    3.750730
  C     -0.209550    2.856070    4.512250
  C      1.013940    3.500100    4.989710
  C      1.352550    3.708020    6.305970
  C      0.736250    3.320390    7.575730
  O      1.300110    3.577090    8.617200
  C     -0.588630    2.607580    7.522150
  S      2.874050    4.540630    6.465600
  C      3.019620    4.655360    4.782690
  C      1.980240    4.063200    4.093930
  C      1.882850    3.982640    2.667070
  C      2.421370    4.796530    1.727140
  C      2.556250    4.299010    0.329650
  O      2.026150    3.325110   -0.149920
  C      3.521060    5.220010   -0.311420
  C      4.092670    5.133740   -1.563030
  C      5.008690    6.117620   -1.939340
  C      5.330140    7.163510   -1.050320
  C      4.737310    7.250110    0.209310
  C      3.826540    6.273110    0.577460
  C      3.036090    6.108620    1.792520
  C      2.717120    7.105150    2.678010
  C      1.714140    6.961900    3.658660
  N      0.862150    6.899290    4.425050
  C      3.275440    8.398860    2.639030
  N      3.721640    9.455840    2.650100
  C      6.277830    8.141300   -1.442580
  N      7.045990    8.932900   -1.748710
  C      5.620650    6.062370   -3.214100
  N      6.106540    5.998850   -4.249240
  H      5.182350   -9.041910   -2.770890
  H      5.675620   -7.772430    2.034070
  H      0.948740   -5.726990    0.520920
  H      0.956250   -8.756370    0.145410
  H      1.987600  -10.042210   -0.551380
  H      0.237870  -10.212790   -0.544710
  H     -2.427770   -5.544690   -3.216540
  H     -1.223010   -5.105170    0.898350
  H     -1.763730   -4.544300    2.973010
  H      0.144370   -4.715670    4.458380
  H      0.626400   -3.040930    4.102980
  H      1.688020   -4.946310    2.768310
  H      1.088750   -3.697750    1.894010
  H     -3.024710   -2.750010    4.369340
  H     -1.481130   -2.561040    5.239640
  H     -2.873100   -5.104570    4.960000
  H     -2.695140   -4.220580    6.328190
  H     -1.470110   -0.625790    4.373500
  H     -2.332930    1.604040    3.650760
  H     -1.497130    2.674100    1.532290
  H     -1.407920    1.083320   -0.341460
  H     -1.209950   -0.986240   -1.931550
  H     -0.946500   -3.226390   -2.934630
  H      0.703990    1.264420    3.489950
  H     -1.137880    3.340720    4.786520
  H     -1.355700    3.301020    7.183040
  H     -0.844230    2.259060    8.519510
  H     -0.545480    1.769570    6.831270
  H      3.892540    5.110090    4.354880
  H      1.363230    3.116790    2.271510
  H      3.840420    4.325780   -2.232930
  H      5.006840    8.061110    0.867750

 Total Charge           Charge          ....    0
 Multiplicity           Mult            ....    1
 Number of Electrons    NEL             ....  526
 Basis Dimension        Dim             .... 1232

ORBITAL ENERGIES
----------------

  NO   OCC          E(Eh)            E(eV)
   0   2.0000     -88.988309     -2421.4950
   1   2.0000     -88.983020     -2421.3511
   2   2.0000     -19.247671      -523.7558
   3   2.0000     -19.246003      -523.7104
   4   2.0000     -19.226279      -523.1736
   5   2.0000     -19.218149      -522.9524
   6   2.0000     -14.441869      -392.9832
   7   2.0000     -14.440173      -392.9371
   8   2.0000     -14.435416      -392.8076
   9   2.0000     -14.434925      -392.7943
  10   2.0000     -14.432774      -392.7357
  11   2.0000     -14.432245      -392.7213
  12   2.0000     -14.432045      -392.7159
  13   2.0000     -14.431029      -392.6883
  14   2.0000     -14.391185      -391.6040
  15   2.0000     -14.385106      -391.4386
  16   2.0000     -10.398550      -282.9589
  17   2.0000     -10.396913      -282.9144
  18   2.0000     -10.385220      -282.5962
  19   2.0000     -10.377663      -282.3906
  20   2.0000     -10.375179      -282.3230
  21   2.0000     -10.371363      -282.2191
  22   2.0000     -10.369112      -282.1579
  23   2.0000     -10.368394      -282.1384
  24   2.0000     -10.367982      -282.1271
  25   2.0000     -10.365289      -282.0539
  26   2.0000     -10.363921      -282.0166
  27   2.0000     -10.361997      -281.9643
  28   2.0000     -10.350088      -281.6402
  29   2.0000     -10.345312      -281.5102
  30   2.0000     -10.343429      -281.4590
  31   2.0000     -10.343083      -281.4496
  32   2.0000     -10.342634      -281.4374
  33   2.0000     -10.341503      -281.4066
  34   2.0000     -10.340483      -281.3788
  35   2.0000     -10.340218      -281.3716
  36   2.0000     -10.337946      -281.3098
  37   2.0000     -10.335849      -281.2527
  38   2.0000     -10.334900      -281.2269
  39   2.0000     -10.333257      -281.1822
  40   2.0000     -10.333005      -281.1754
  41   2.0000     -10.332424      -281.1595
  42   2.0000     -10.331644      -281.1383
  43   2.0000     -10.331248      -281.1276
  44   2.0000     -10.330938      -281.1191
  45   2.0000     -10.328823      -281.0616
  46   2.0000     -10.327055      -281.0135
  47   2.0000     -10.323821      -280.9255
  48   2.0000     -10.322852      -280.8991
  49   2.0000     -10.322735      -280.8959
  50   2.0000     -10.322064      -280.8776
  51   2.0000     -10.319463      -280.8069
  52   2.0000     -10.317421      -280.7513
  53   2.0000     -10.313497      -280.6445
  54   2.0000     -10.313435      -280.6428
  55   2.0000     -10.311923      -280.6017
  56   2.0000     -10.310413      -280.5606
  57   2.0000     -10.310114      -280.5525
  58   2.0000     -10.304847      -280.4091
  59   2.0000     -10.300470      -280.2900
  60   2.0000     -10.295373      -280.1513
  61   2.0000     -10.289028      -279.9787
  62   2.0000     -10.287998      -279.9507
  63   2.0000     -10.287022      -279.9241
  64   2.0000     -10.285442      -279.8811
  65   2.0000     -10.283845      -279.8376
  66   2.0000     -10.283315      -279.8232
  67   2.0000     -10.281596      -279.7765
  68   2.0000     -10.276134      -279.6278
  69   2.0000     -10.275009      -279.5972
  70   2.0000     -10.273976      -279.5691
  71   2.0000     -10.273346      -279.5520
  72   2.0000     -10.272824      -279.5378
  73   2.0000     -10.271982      -279.5149
  74   2.0000     -10.271812      -279.5102
  75   2.0000     -10.269374      -279.4439
  76   2.0000      -8.083764      -219.9704
  77   2.0000      -8.078330      -219.8225
  78   2.0000      -6.052809      -164.7053
  79   2.0000      -6.048332      -164.5835
  80   2.0000      -6.047470      -164.5600
  81   2.0000      -6.046595      -164.5362
  82   2.0000      -6.043079      -164.4405
  83   2.0000      -6.041032      -164.3848
  84   2.0000      -1.162105       -31.6225
  85   2.0000      -1.160980       -31.5919
  86   2.0000      -1.145900       -31.1815
  87   2.0000      -1.138811       -30.9886
  88   2.0000      -1.052624       -28.6433
  89   2.0000      -1.048044       -28.5187
  90   2.0000      -1.037090       -28.2207
  91   2.0000      -1.030997       -28.0549
  92   2.0000      -1.022128       -27.8135
  93   2.0000      -1.019119       -27.7317
  94   2.0000      -1.015281       -27.6272
  95   2.0000      -1.014815       -27.6145
  96   2.0000      -1.014235       -27.5987
  97   2.0000      -1.014216       -27.5982
  98   2.0000      -1.010708       -27.5028
  99   2.0000      -1.006441       -27.3867
 100   2.0000      -0.994316       -27.0567
 101   2.0000      -0.987343       -26.8670
 102   2.0000      -0.983108       -26.7517
 103   2.0000      -0.976050       -26.5597
 104   2.0000      -0.961487       -26.1634
 105   2.0000      -0.956263       -26.0212
 106   2.0000      -0.936344       -25.4792
 107   2.0000      -0.930943       -25.3322
 108   2.0000      -0.930200       -25.3120
 109   2.0000      -0.925891       -25.1948
 110   2.0000      -0.922579       -25.1046
 111   2.0000      -0.913304       -24.8523
 112   2.0000      -0.908509       -24.7218
 113   2.0000      -0.906049       -24.6549
 114   2.0000      -0.883128       -24.0311
 115   2.0000      -0.876052       -23.8386
 116   2.0000      -0.873264       -23.7627
 117   2.0000      -0.869262       -23.6538
 118   2.0000      -0.854221       -23.2445
 119   2.0000      -0.847533       -23.0625
 120   2.0000      -0.841159       -22.8891
 121   2.0000      -0.837844       -22.7989
 122   2.0000      -0.827168       -22.5084
 123   2.0000      -0.821480       -22.3536
 124   2.0000      -0.815297       -22.1854
 125   2.0000      -0.814180       -22.1550
 126   2.0000      -0.808483       -21.9999
 127   2.0000      -0.796732       -21.6802
 128   2.0000      -0.766841       -20.8668
 129   2.0000      -0.763589       -20.7783
 130   2.0000      -0.757928       -20.6243
 131   2.0000      -0.749532       -20.3958
 132   2.0000      -0.741165       -20.1681
 133   2.0000      -0.733119       -19.9492
 134   2.0000      -0.729121       -19.8404
 135   2.0000      -0.723274       -19.6813
 136   2.0000      -0.717525       -19.5248
 137   2.0000      -0.716361       -19.4932
 138   2.0000      -0.706424       -19.2228
 139   2.0000      -0.701398       -19.0860
 140   2.0000      -0.697681       -18.9849
 141   2.0000      -0.691455       -18.8154
 142   2.0000      -0.687883       -18.7182
 143   2.0000      -0.683384       -18.5958
 144   2.0000      -0.669904       -18.2290
 145   2.0000      -0.668822       -18.1996
 146   2.0000      -0.663743       -18.0614
 147   2.0000      -0.663068       -18.0430
 148   2.0000      -0.649333       -17.6692
 149   2.0000      -0.648871       -17.6567
 150   2.0000      -0.644727       -17.5439
 151   2.0000      -0.633631       -17.2420
 152   2.0000      -0.624722       -16.9995
 153   2.0000      -0.618760       -16.8373
 154   2.0000      -0.611648       -16.6438
 155   2.0000      -0.607508       -16.5311
 156   2.0000      -0.604530       -16.4501
 157   2.0000      -0.603116       -16.4116
 158   2.0000      -0.596830       -16.2406
 159   2.0000      -0.590831       -16.0773
 160   2.0000      -0.590255       -16.0616
 161   2.0000      -0.583113       -15.8673
 162   2.0000      -0.578015       -15.7286
 163   2.0000      -0.574312       -15.6278
 164   2.0000      -0.573957       -15.6182
 165   2.0000      -0.573262       -15.5993
 166   2.0000      -0.571050       -15.5391
 167   2.0000      -0.570773       -15.5315
 168   2.0000      -0.568892       -15.4803
 169   2.0000      -0.565460       -15.3870
 170   2.0000      -0.564849       -15.3703
 171   2.0000      -0.555301       -15.1105
 172   2.0000      -0.554067       -15.0769
 173   2.0000      -0.548939       -14.9374
 174   2.0000      -0.546193       -14.8627
 175   2.0000      -0.545494       -14.8436
 176   2.0000      -0.544934       -14.8284
 177   2.0000      -0.542111       -14.7516
 178   2.0000      -0.541282       -14.7290
 179   2.0000      -0.537477       -14.6255
 180   2.0000      -0.536745       -14.6056
 181   2.0000      -0.532924       -14.5016
 182   2.0000      -0.531794       -14.4709
 183   2.0000      -0.530333       -14.4311
 184   2.0000      -0.525806       -14.3079
 185   2.0000      -0.523170       -14.2362
 186   2.0000      -0.522360       -14.2141
 187   2.0000      -0.521316       -14.1857
 188   2.0000      -0.519892       -14.1470
 189   2.0000      -0.516860       -14.0645
 190   2.0000      -0.515284       -14.0216
 191   2.0000      -0.511328       -13.9139
 192   2.0000      -0.507035       -13.7971
 193   2.0000      -0.505000       -13.7417
 194   2.0000      -0.502028       -13.6609
 195   2.0000      -0.500863       -13.6292
 196   2.0000      -0.498405       -13.5623
 197   2.0000      -0.494419       -13.4538
 198   2.0000      -0.492502       -13.4017
 199   2.0000      -0.489628       -13.3234
 200   2.0000      -0.489315       -13.3149
 201   2.0000      -0.480586       -13.0774
 202   2.0000      -0.479128       -13.0377
 203   2.0000      -0.476529       -12.9670
 204   2.0000      -0.474579       -12.9140
 205   2.0000      -0.472695       -12.8627
 206   2.0000      -0.468190       -12.7401
 207   2.0000      -0.467291       -12.7156
 208   2.0000      -0.465944       -12.6790
 209   2.0000      -0.464934       -12.6515
 210   2.0000      -0.463566       -12.6143
 211   2.0000      -0.460510       -12.5311
 212   2.0000      -0.460082       -12.5195
 213   2.0000      -0.459059       -12.4916
 214   2.0000      -0.458324       -12.4716
 215   2.0000      -0.458250       -12.4696
 216   2.0000      -0.457490       -12.4489
 217   2.0000      -0.456084       -12.4107
 218   2.0000      -0.455675       -12.3996
 219   2.0000      -0.454827       -12.3765
 220   2.0000      -0.452890       -12.3238
 221   2.0000      -0.452412       -12.3108
 222   2.0000      -0.448560       -12.2059
 223   2.0000      -0.447209       -12.1692
 224   2.0000      -0.445931       -12.1344
 225   2.0000      -0.444664       -12.0999
 226   2.0000      -0.442048       -12.0287
 227   2.0000      -0.441044       -12.0014
 228   2.0000      -0.438954       -11.9445
 229   2.0000      -0.436890       -11.8884
 230   2.0000      -0.435144       -11.8409
 231   2.0000      -0.434936       -11.8352
 232   2.0000      -0.433941       -11.8081
 233   2.0000      -0.433453       -11.7949
 234   2.0000      -0.431196       -11.7334
 235   2.0000      -0.427143       -11.6232
 236   2.0000      -0.425661       -11.5828
 237   2.0000      -0.422374       -11.4934
 238   2.0000      -0.419088       -11.4040
 239   2.0000      -0.413100       -11.2410
 240   2.0000      -0.401380       -10.9221
 241   2.0000      -0.400340       -10.8938
 242   2.0000      -0.391343       -10.6490
 243   2.0000      -0.384373       -10.4593
 244   2.0000      -0.383438       -10.4339
 245   2.0000      -0.376880       -10.2554
 246   2.0000      -0.373997       -10.1770
 247   2.0000      -0.369402       -10.0519
 248   2.0000      -0.367247        -9.9933
 249   2.0000      -0.364713        -9.9243
 250   2.0000      -0.352579        -9.5942
 251   2.0000      -0.346953        -9.4411
 252   2.0000      -0.345906        -9.4126
 253   2.0000      -0.345191        -9.3931
 254   2.0000      -0.340926        -9.2771
 255   2.0000      -0.334961        -9.1147
 256   2.0000      -0.329275        -8.9600
 257   2.0000      -0.317464        -8.6386
 258   2.0000      -0.316182        -8.6037
 259   2.0000      -0.313809        -8.5392
 260   2.0000      -0.311792        -8.4843
 261   2.0000      -0.304358        -8.2820
 262   2.0000      -0.232446        -6.3252
 263   0.0000      -0.117340        -3.1930
 264   0.0000      -0.109156        -2.9703
 265   0.0000      -0.098309        -2.6751
 266   0.0000      -0.097206        -2.6451
 267   0.0000      -0.078229        -2.1287

MULLIKEN ATOMIC CHARGES
-----------------------
   0 C :    0.026571
   1 C :   -0.024877
   2 C :   -0.060922
   3 C :   -0.173148
   4 N :    0.203555
   5 C :   -0.070807
   6 C :   -0.173047
   7 N :    0.198561
   8 C :   -0.035500
   9 C :    0.009349
  10 C :    0.167420
  11 O :   -0.138217
  12 C :   -0.161465
  13 C :    0.249403
  14 C :   -0.273362
  15 C :   -0.183512
  16 N :    0.181862
  17 C :   -0.177680
  18 N :    0.186745
  19 C :    0.038396
  20 C :    0.093895
  21 C :   -0.251507
  22 C :    0.000568
  23 O :   -0.177894
  24 C :    0.072510
  25 S :    0.206590
  26 C :   -0.105105
  27 C :    0.108953
  28 C :    0.010230
  29 C :   -0.048150
  30 C :    0.015611
  31 C :   -0.056138
  32 C :   -0.027713
  33 C :    0.146751
  34 N :   -0.222201
  35 C :    0.112796
  36 N :   -0.210544
  37 C :    0.109248
  38 C :   -0.152830
  39 C :    0.135228
  40 C :   -0.036193
  41 C :    0.032392
  42 C :   -0.000818
  43 C :    0.047406
  44 C :   -0.006376
  45 C :    0.014282
  46 C :   -0.037593
  47 C :   -0.064930
  48 C :    0.130226
  49 C :   -0.209080
  50 C :    0.024775
  51 O :   -0.181900
  52 C :    0.049284
  53 S :    0.228678
  54 C :   -0.092082
  55 C :    0.032792
  56 C :    0.042957
  57 C :   -0.116448
  58 C :    0.142738
  59 O :   -0.125056
  60 C :    0.009421
  61 C :   -0.032012
  62 C :   -0.070247
  63 C :   -0.058737
  64 C :   -0.035486
  65 C :    0.032557
  66 C :    0.244561
  67 C :   -0.312192
  68 C :   -0.197373
  69 N :    0.188016
  70 C :   -0.177854
  71 N :    0.176931
  72 C :   -0.173571
  73 N :    0.203960
  74 C :   -0.170698
  75 N :    0.201464
  76 H :    0.032508
  77 H :    0.016726
  78 H :   -0.006523
  79 H :    0.033682
  80 H :    0.030266
  81 H :    0.055159
  82 H :    0.031091
  83 H :   -0.016916
  84 H :   -0.022059
  85 H :    0.009719
  86 H :   -0.031133
  87 H :    0.115379
  88 H :    0.111762
  89 H :   -0.005862
  90 H :   -0.003224
  91 H :    0.092283
  92 H :    0.092045
  93 H :   -0.011954
  94 H :    0.027244
  95 H :   -0.010105
  96 H :   -0.027740
  97 H :   -0.032634
  98 H :   -0.011536
  99 H :    0.026204
 100 H :    0.025757
 101 H :    0.042606
 102 H :    0.034213
 103 H :    0.041489
 104 H :    0.042870
 105 H :    0.020681
 106 H :    0.020171
 107 H :    0.024415
Sum of atomic charges:   -0.0000000

LOEWDIN ATOMIC CHARGES
----------------------
   0 C :    0.008162
   1 C :    0.037210
   2 C :   -0.020125
   3 C :   -0.031149
   4 N :   -0.007360
   5 C :   -0.030406
   6 C :   -0.032708
   7 N :   -0.012971
   8 C :    0.049370
   9 C :   -0.035436
  10 C :    0.093926
  11 O :   -0.127817
  12 C :   -0.088821
  13 C :    0.051255
  14 C :   -0.097904
  15 C :   -0.018817
  16 N :   -0.025814
  17 C :   -0.011980
  18 N :   -0.029519
  19 C :    0.088354
  20 C :   -0.064135
  21 C :   -0.205793
  22 C :    0.051636
  23 O :   -0.141739
  24 C :   -0.074716
  25 S :    0.511755
  26 C :   -0.160445
  27 C :   -0.031433
  28 C :   -0.034265
  29 C :   -0.007770
  30 C :   -0.018088
  31 C :   -0.044448
  32 C :   -0.040952
  33 C :    0.031533
  34 N :   -0.107306
  35 C :    0.021493
  36 N :   -0.114394
  37 C :   -0.012429
  38 C :    0.054419
  39 C :   -0.028202
  40 C :   -0.038747
  41 C :   -0.007980
  42 C :   -0.036836
  43 C :   -0.028863
  44 C :   -0.010062
  45 C :   -0.019499
  46 C :    0.010368
  47 C :   -0.036415
  48 C :   -0.016935
  49 C :   -0.212279
  50 C :    0.059687
  51 O :   -0.153346
  52 C :   -0.073413
  53 S :    0.538494
  54 C :   -0.141241
  55 C :   -0.085776
  56 C :    0.089612
  57 C :   -0.096528
  58 C :    0.084953
  59 O :   -0.125526
  60 C :   -0.031639
  61 C :    0.050787
  62 C :   -0.027404
  63 C :   -0.021185
  64 C :    0.032870
  65 C :    0.003498
  66 C :    0.059263
  67 C :   -0.120362
  68 C :   -0.018435
  69 N :   -0.028448
  70 C :   -0.025227
  71 N :   -0.028780
  72 C :   -0.032002
  73 N :   -0.007046
  74 C :   -0.032805
  75 N :   -0.009448
  76 H :    0.056248
  77 H :    0.054055
  78 H :    0.044703
  79 H :    0.033796
  80 H :    0.039254
  81 H :    0.057692
  82 H :    0.030259
  83 H :    0.024452
  84 H :    0.027067
  85 H :    0.019802
  86 H :   -0.002923
  87 H :    0.051866
  88 H :    0.055114
  89 H :    0.000453
  90 H :    0.012483
  91 H :    0.053068
  92 H :    0.055693
  93 H :    0.028615
  94 H :    0.054334
  95 H :    0.024813
  96 H :    0.034035
  97 H :    0.028637
  98 H :    0.032157
  99 H :    0.031842
 100 H :    0.035428
 101 H :    0.046461
 102 H :    0.042745
 103 H :    0.039009
 104 H :    0.028025
 105 H :    0.046647
 106 H :    0.055650
 107 H :    0.053043

  Mayer bond orders larger than 0.100000
B(  0-C ,  1-C ) :   1.3640 B(  0-C ,  9-C ) :   1.3345 B(  0-C , 13-C ) :   0.9752
B(  1-C ,  2-C ) :   1.3869 B(  1-C , 76-H ) :   0.9920 B(  2-C ,  3-C ) :   1.0866
B(  2-C ,  5-C ) :   1.3949 B(  3-C ,  4-N ) :   3.0428 B(  5-C ,  6-C ) :   1.0886
B(  5-C ,  8-C ) :   1.3727 B(  6-C ,  7-N ) :   3.0455 B(  8-C ,  9-C ) :   1.3603
B(  8-C , 77-H ) :   1.0138 B(  9-C , 10-C ) :   0.9079 B( 10-C , 11-O ) :   2.2292
B( 10-C , 12-C ) :   0.9498 B( 12-C , 13-C ) :   0.9977 B( 12-C , 19-C ) :   1.7139
B( 13-C , 14-C ) :   1.7167 B( 14-C , 15-C ) :   1.1312 B( 14-C , 17-C ) :   1.1654
B( 15-C , 16-N ) :   2.9951 B( 17-C , 18-N ) :   2.9959 B( 19-C , 20-C ) :   1.0578
B( 19-C , 78-H ) :   0.9072 B( 20-C , 21-C ) :   1.4555 B( 20-C , 27-C ) :   1.2707
B( 21-C , 22-C ) :   0.9265 B( 21-C , 25-S ) :   1.2020 B( 22-C , 23-O ) :   2.1914
B( 22-C , 24-C ) :   1.0430 B( 24-C , 79-H ) :   0.9523 B( 24-C , 80-H ) :   0.9439
B( 24-C , 81-H ) :   0.9346 B( 25-S , 26-C ) :   1.1626 B( 26-C , 27-C ) :   1.5794
B( 26-C , 82-H ) :   0.9673 B( 27-C , 28-C ) :   0.9497 B( 28-C , 29-C ) :   1.5608
B( 28-C , 45-C ) :   1.1607 B( 29-C , 30-C ) :   1.1409 B( 29-C , 83-H ) :   0.9852
B( 30-C , 31-C ) :   1.5080 B( 30-C , 43-C ) :   1.1227 B( 31-C , 32-C ) :   1.0225
B( 31-C , 37-C ) :   1.0793 B( 32-C , 33-C ) :   1.0129 B( 32-C , 35-C ) :   1.0380
B( 32-C , 84-H ) :   0.8817 B( 33-C , 34-N ) :   1.1057 B( 33-C , 85-H ) :   0.9386
B( 33-C , 86-H ) :   0.9313 B( 34-N , 78-H ) :   0.1471 B( 34-N , 87-H ) :   0.9362
B( 34-N , 88-H ) :   0.9496 B( 35-C , 36-N ) :   1.0891 B( 35-C , 89-H ) :   0.9557
B( 35-C , 90-H ) :   0.9175 B( 36-N , 91-H ) :   0.9699 B( 36-N , 92-H ) :   0.9665
B( 37-C , 38-C ) :   1.6551 B( 37-C , 42-C ) :   1.0417 B( 38-C , 39-C ) :   0.9574
B( 38-C , 93-H ) :   0.9796 B( 39-C , 40-C ) :   0.9919 B( 39-C , 46-C ) :   0.9617
B( 39-C , 94-H ) :   0.8752 B( 40-C , 41-C ) :   1.6969 B( 40-C , 95-H ) :   0.9705
B( 41-C , 42-C ) :   1.1444 B( 41-C , 96-H ) :   0.9905 B( 42-C , 43-C ) :   1.4246
B( 43-C , 44-C ) :   1.1433 B( 44-C , 45-C ) :   1.5854 B( 44-C , 97-H ) :   0.9949
B( 45-C , 98-H ) :   0.9874 B( 46-C , 47-C ) :   1.8610 B( 46-C , 99-H ) :   0.9638
B( 47-C , 48-C ) :   1.0013 B( 47-C ,100-H ) :   0.9533 B( 48-C , 49-C ) :   1.5249
B( 48-C , 55-C ) :   1.2658 B( 49-C , 50-C ) :   0.9517 B( 49-C , 53-S ) :   1.1329
B( 50-C , 51-O ) :   2.1987 B( 50-C , 52-C ) :   1.0824 B( 52-C ,101-H ) :   0.9440
B( 52-C ,102-H ) :   0.9373 B( 52-C ,103-H ) :   0.9351 B( 53-S , 54-C ) :   1.2615
B( 54-C , 55-C ) :   1.4537 B( 54-C ,104-H ) :   0.9616 B( 55-C , 56-C ) :   1.0580
B( 56-C , 57-C ) :   1.7089 B( 56-C ,105-H ) :   0.9276 B( 57-C , 58-C ) :   0.9420
B( 57-C , 66-C ) :   1.0149 B( 58-C , 59-O ) :   2.2692 B( 58-C , 60-C ) :   0.9014
B( 60-C , 61-C ) :   1.3672 B( 60-C , 65-C ) :   1.3305 B( 61-C , 62-C ) :   1.3689
B( 61-C ,106-H ) :   1.0141 B( 62-C , 63-C ) :   1.3991 B( 62-C , 74-C ) :   1.0871
B( 63-C , 64-C ) :   1.3909 B( 63-C , 72-C ) :   1.0851 B( 64-C , 65-C ) :   1.3586
B( 64-C ,107-H ) :   0.9911 B( 65-C , 66-C ) :   0.9800 B( 66-C , 67-C ) :   1.6886
B( 67-C , 68-C ) :   1.1631 B( 67-C , 70-C ) :   1.1274 B( 68-C , 69-N ) :   3.0164
B( 70-C , 71-N ) :   2.9854 B( 72-C , 73-N ) :   3.0433 B( 74-C , 75-N ) :   3.0431

-----------------------------------------------------------------------------
         ABSORPTION SPECTRUM VIA TRANSITION ELECTRIC DIPOLE MOMENTS
-----------------------------------------------------------------------------
State   Energy  Wavelength   fosc         T2         TX        TY        TZ
        (cm-1)    (nm)                  (au**2)     (au)      (au)      (au)
-----------------------------------------------------------------------------
   0   12601.9    793.5   0.003444819   0.08999   0.12798   0.22357  -0.15372
   1   13230.2    755.8   0.004512491   0.11229  -0.09698  -0.32055   0.01132
   2   14447.8    692.1   0.063501842   1.44698  -0.06537   1.11371  -0.44984
   3   15937.4    627.5   0.001039844   0.02148   0.02323  -0.13443   0.05355
   4   16571.0    603.5   0.000895356   0.01779  -0.07747  -0.10432  -0.03007
   5   23818.6    419.8   0.198114266   2.73826  -0.17148  -1.39764   0.86918
   6   24852.1    402.4   0.089494859   1.18552  -0.97221  -0.07831   0.48395
   7   25578.4    391.0   0.059650199   0.76774  -0.45327  -0.70420  -0.25766
   8   25725.9    388.7   0.077162266   0.98744  -0.58510   0.65194   0.46911
   9   26835.4    372.6   0.015924295   0.19536  -0.35890   0.12998  -0.22283
  10   27496.3    363.7   0.007159878   0.08572  -0.23126   0.17742  -0.02767
  11   28164.7    355.1   0.062137269   0.72631  -0.81563   0.02399  -0.24593
  12   28541.4    350.4   0.067970176   0.78400   0.28018   0.56944  -0.61744
  13   28837.7    346.8   0.061755310   0.70500  -0.01571  -0.22513   0.80874
  14   28946.3    345.5   0.006453583   0.07340  -0.17348   0.07896   0.19253
  15   29063.1    344.1   0.036287180   0.41104  -0.16397   0.42746   0.44881
  16   29372.3    340.5   0.075877167   0.85045  -0.42032   0.00583  -0.82082
  17   29758.8    336.0   0.026488152   0.29303  -0.02956   0.33006  -0.42804
  18   30107.0    332.1   0.036551898   0.39969  -0.58105  -0.07410  -0.23785
  19   30337.7    329.6   0.004153786   0.04508  -0.04698  -0.03334   0.20434
  20   30411.7    328.8   0.022582889   0.24446   0.25279  -0.42412  -0.02611
  21   31034.0    322.2   0.012059752   0.12793  -0.14401  -0.32529  -0.03714
  22   31279.0    319.7   0.188739190   1.98649   0.51095  -0.21324  -1.29613
  23   31769.4    314.8   0.081306129   0.84254  -0.02202   0.59095   0.70202
  24   32051.7    312.0   0.020684638   0.21246  -0.17402   0.41451   0.10178
  25   32417.4    308.5   0.104034599   1.05652  -0.61413   0.32928  -0.75560
  26   32487.7    307.8   0.106550221   1.07972  -0.63100   0.41474  -0.71383
  27   32673.5    306.1   0.008229221   0.08292   0.11953  -0.19105  -0.17925
  28   32741.8    305.4   0.058605369   0.58926  -0.38080   0.37349  -0.55205
  29   32819.1    304.7   0.211714176   2.12373   0.55808   0.07756  -1.34397
  30   32879.5    304.1   0.015538922   0.15559   0.32139  -0.11634  -0.19688
  31   33516.0    298.4   0.105095977   1.03231   0.84521  -0.53115   0.18925
  32   33616.5    297.5   0.005821506   0.05701   0.17523   0.14686   0.06882
  33   33828.5    295.6   0.001213943   0.01181   0.05337  -0.09445  -0.00674
  34   33964.6    294.4   0.035213395   0.34132   0.12181  -0.56766   0.06514
  35   34010.3    294.0   0.002244994   0.02173  -0.00917   0.04302   0.14070
  36   34210.7    292.3   0.134893154   1.29809  -0.34350  -0.96706  -0.49487
  37   34495.7    289.9   0.008089935   0.07721  -0.03385   0.27030  -0.05476
  38   34611.7    288.9   0.132938390   1.26446  -0.53896   0.33012   0.93006
  39   34733.7    287.9   0.349272296   3.31046   0.82793  -0.49770  -1.54184
  40   34845.0    287.0   0.035441237   0.33485   0.06815  -0.33332  -0.46808
  41   34949.2    286.1   0.020842255   0.19633  -0.18592   0.27434  -0.29411
  42   35183.0    284.2   0.174994599   1.63745   0.50777  -0.41673   1.09816
  43   35305.6    283.2   0.022735016   0.21200   0.04151  -0.40937   0.20662
  44   35432.2    282.2   0.540612338   5.02300   0.75002  -2.00489  -0.66401
  45   35665.7    280.4   0.313534494   2.89408  -0.78829  -0.11884  -1.50285
  46   35821.6    279.2   0.017955487   0.16502   0.40594   0.01173  -0.00967
  47   36350.7    275.1   0.038103766   0.34509   0.14251   0.26044   0.50690
  48   36440.4    274.4   0.390678025   3.52949   0.30534   1.01152   1.55341
  49   36590.6    273.3   0.003539333   0.03184  -0.03261   0.11711   0.13064
  50   36996.9    270.3   0.015575959   0.13860   0.16967   0.06801   0.32433
  51   37095.4    269.6   0.005748445   0.05102   0.06230  -0.19651  -0.09230
  52   37501.6    266.7   0.063832745   0.56036  -0.17049  -0.55407  -0.47361
  53   37608.0    265.9   0.094838829   0.83020  -0.39652  -0.79324  -0.20914
  54   37667.3    265.5   0.081713314   0.71417  -0.46387   0.34735   0.61510
  55   37823.1    264.4   0.001082093   0.00942  -0.06197  -0.06939   0.02763
  56   38278.4    261.2   0.007210772   0.06202  -0.14013   0.16988  -0.11628
  57   38794.2    257.8   0.007221767   0.06128   0.14607  -0.11024   0.16672
  58   38885.2    257.2   0.002260012   0.01913   0.06289   0.01736  -0.12197
  59   38920.3    256.9   0.031267778   0.26448   0.21738   0.25295  -0.39146
  60   39002.5    256.4   0.017558286   0.14821  -0.19456  -0.09850   0.31725
  61   39333.2    254.2   0.007678055   0.06426  -0.10449   0.22423  -0.05537
  62   39623.0    252.4   0.003847491   0.03197   0.09933   0.14279   0.04136
  63   39689.9    252.0   0.034539962   0.28649   0.48063   0.10495   0.21089
  64   39726.2    251.7   0.019302711   0.15996   0.19458  -0.26951   0.22240
  65   39816.7    251.2   0.126148674   1.04302   0.89330   0.04993   0.49248
  66   40242.9    248.5   0.166926625   1.36556   0.18890   0.90571   0.71384

FINAL SINGLE POINT ENERGY     -3945.956508327979

DIPOLE MOMENT
-------------
                                X             Y             Z
Electronic contribution:     50.51410      21.56242     -41.26233
Nuclear contribution   :    -55.13270     -22.00421      43.98071
                        -----------------------------------------
Total Dipole Moment    :     -4.61860      -0.44180       2.71839
                        -----------------------------------------
Magnitude (a.u.)       :      5.37739
Magnitude (Debye)      :     13.66823

Rotational constants in cm-1:     0.001048     0.000373     0.000336
Rotational constants in MHz :    31.421168    11.173859    10.086811

                             ****ORCA TERMINATED NORMALLY****
TOTAL RUN TIME: 0 days 0 hours 13 minutes 8 seconds 276 msec
