                         Program Version 4.2.0 -  RELEASE  -
|  1> # ORCA input file
|  2> # SCF done       -170.775703810717          0.000320942234
|  3> ! CAM-B3LYP def2-SVP def2/J RIJCOSX Grid4 TightSCF
|  4> %maxcore 5000
|  5> %tddft
|  6>     Mode sTDDFT
|  7>     Ethresh 5.0
|  8>     maxcore 5000
|  9> end
| 10>
| 11> %pal
| 12>   nprocs 6
| 13>   end
| 14> * xyz 0 1
| 15>    C       -2.52012        -2.86777        -4.79878
| 16>    C       -2.63865        -2.45446        -3.46836
| 17>    C       -2.64723        -3.42015        -2.42588
| 18>    C       -2.54248        -4.77404        -2.71006
| 19>    C       -2.42717        -5.15705        -4.03000
| 20>    C       -2.41555        -4.21291        -5.06143
| 21>    S       -2.79309        -2.63216        -0.89066
| 22>    C       -2.82507        -1.08700        -1.75760
| 23>    N       -2.74197        -1.17775        -3.04411
| 24>    C       -2.88888         0.11933        -1.00595
| 25>    N       -2.97018         0.09016         0.31085
| 26>    C       -2.95110         1.38450         0.70675
| 27>    C       -2.85371         2.28950        -0.44371
| 28>    C       -2.79747         3.68720         0.00312
| 29>    O       -2.70425         4.69380        -0.66693
| 30>    C       -2.86910         3.55869         1.47355
| 31>    C       -2.96131         2.13466         1.85745
| 32>    N       -3.01592         2.00532         3.20676
| 33>    C       -2.96628         3.22959         3.67002
| 34>    C       -2.87099         4.24888         2.64191
| 35>    C       -2.81340         1.49072        -1.55960
| 36>    C       -2.68132         1.77383        -2.94184
| 37>    C       -2.53027         3.01264        -3.46155
| 38>    C       -2.34993         3.25688        -4.86871
| 39>    C       -1.97755         2.24834        -5.73548
| 40>    C       -1.81638         2.52385        -7.10095
| 41>    C       -1.40594         1.69650        -8.14496
| 42>    C       -1.04343         0.25860        -8.02724
| 43>    C       -1.74553        -0.61414        -9.08377
| 44>    N       -1.98087        -1.93167        -8.52069
| 45>    C        0.49063         0.06849        -8.04752
| 46>    N        1.01274         0.26122        -6.71095
| 47>    C       -1.30280         2.52953        -9.31808
| 48>    C       -0.75789         2.31090       -10.53487
| 49>    C       -0.50039         3.45579       -11.43345
| 50>    C       -1.33076         4.67401       -11.16345
| 51>    C       -1.89377         4.87412        -9.94222
| 52>    C       -1.78668         3.87804        -8.95946
| 53>    C       -2.06355         3.86423        -7.59811
| 54>    C       -2.42916         4.88164        -6.69247
| 55>    C       -2.54772         4.58280        -5.37018
| 56>    C        0.74555         4.22405       -11.02731
| 57>    C        1.24142         4.22074        -9.76995
| 58>    C        2.18136         5.14263        -9.25844
| 59>    N        2.85429         6.02651        -9.98900
| 60>    C        3.50640         6.80268        -9.10939
| 61>    C        3.21108         6.41229        -7.71903
| 62>    C        3.91735         7.29364        -6.77232
| 63>    O        3.87017         7.28524        -5.56017
| 64>    C        4.66942         8.18611        -7.66717
| 65>    C        4.38442         7.86500        -9.07834
| 66>    N        5.07751         8.68038        -9.90489
| 67>    C        5.76951         9.46656        -9.10886
| 68>    C        5.56642         9.20961        -7.70436
| 69>    C        2.39291         5.31701        -7.79992
| 70>    C        1.82269         4.49043        -6.78732
| 71>    C        1.74991         4.81484        -5.47941
| 72>    C        1.25745         3.89852        -4.50193
| 73>    N        0.99298         2.64973        -4.71050
| 74>    C        0.68027         1.98815        -3.56808
| 75>    C        0.44460         0.61689        -3.45512
| 76>    C        0.22792         0.08549        -2.20415
| 77>    C        0.20867         0.89189        -1.06490
| 78>    C        0.41864         2.25314        -1.15446
| 79>    C        0.66748         2.79609        -2.40409
| 80>    S        1.07094         4.42800        -2.82099
| 81>    H       -2.51459        -2.13769        -5.59232
| 82>    H       -2.55118        -5.50166        -1.91413
| 83>    H       -2.34423        -6.20594        -4.27151
| 84>    H       -2.32483        -4.54837        -6.08315
| 85>    H       -2.99630         3.41104         4.73039
| 86>    H       -2.81632         5.30550         2.81532
| 87>    H       -2.70281         0.90471        -3.58125
| 88>    H       -2.56286         3.87560        -2.80831
| 89>    H       -1.77172         1.25641        -5.36836
| 90>    H       -1.38473        -0.10394        -7.05361
| 91>    H       -1.15160        -0.63431       -10.01278
| 92>    H       -2.72195        -0.18078        -9.31927
| 93>    H       -1.10041        -2.38122        -8.29172
| 94>    H       -2.47390        -2.52261        -9.18027
| 95>    H        0.93316         0.73872        -8.80617
| 96>    H        0.72364        -0.96083        -8.34030
| 97>    H        0.84747         1.20565        -6.36982
| 98>    H        2.01294         0.09869        -6.68521
| 99>    H       -0.37471         1.34679       -10.83351
|100>    H       -0.46708         3.16934       -12.48449
|101>    H       -1.38017         5.42092       -11.93842
|102>    H       -2.41457         5.79284        -9.71807
|103>    H       -2.58955         5.88693        -7.05247
|104>    H       -2.80930         5.35294        -4.65941
|105>    H        1.16911         4.88505       -11.76743
|106>    H        0.82009         3.54878        -9.03797
|107>    H        6.41425        10.22272        -9.52268
|108>    H        6.03723         9.73551        -6.89736
|109>    H        1.42668         3.52982        -7.08803
|110>    H        2.10422         5.77144        -5.12302
|111>    H        0.46908         0.00376        -4.34232
|112>    H        0.08059        -0.97887        -2.09693
|113>    H        0.03706         0.44382        -0.09718
|114>    H        0.40905         2.88039        -0.27648
|115> *
|116>
|117>                          ****END OF INPUT****

CARTESIAN COORDINATES (ANGSTROEM)
---------------------------------
  C     -2.520120   -2.867770   -4.798780
  C     -2.638650   -2.454460   -3.468360
  C     -2.647230   -3.420150   -2.425880
  C     -2.542480   -4.774040   -2.710060
  C     -2.427170   -5.157050   -4.030000
  C     -2.415550   -4.212910   -5.061430
  S     -2.793090   -2.632160   -0.890660
  C     -2.825070   -1.087000   -1.757600
  N     -2.741970   -1.177750   -3.044110
  C     -2.888880    0.119330   -1.005950
  N     -2.970180    0.090160    0.310850
  C     -2.951100    1.384500    0.706750
  C     -2.853710    2.289500   -0.443710
  C     -2.797470    3.687200    0.003120
  O     -2.704250    4.693800   -0.666930
  C     -2.869100    3.558690    1.473550
  C     -2.961310    2.134660    1.857450
  N     -3.015920    2.005320    3.206760
  C     -2.966280    3.229590    3.670020
  C     -2.870990    4.248880    2.641910
  C     -2.813400    1.490720   -1.559600
  C     -2.681320    1.773830   -2.941840
  C     -2.530270    3.012640   -3.461550
  C     -2.349930    3.256880   -4.868710
  C     -1.977550    2.248340   -5.735480
  C     -1.816380    2.523850   -7.100950
  C     -1.405940    1.696500   -8.144960
  C     -1.043430    0.258600   -8.027240
  C     -1.745530   -0.614140   -9.083770
  N     -1.980870   -1.931670   -8.520690
  C      0.490630    0.068490   -8.047520
  N      1.012740    0.261220   -6.710950
  C     -1.302800    2.529530   -9.318080
  C     -0.757890    2.310900  -10.534870
  C     -0.500390    3.455790  -11.433450
  C     -1.330760    4.674010  -11.163450
  C     -1.893770    4.874120   -9.942220
  C     -1.786680    3.878040   -8.959460
  C     -2.063550    3.864230   -7.598110
  C     -2.429160    4.881640   -6.692470
  C     -2.547720    4.582800   -5.370180
  C      0.745550    4.224050  -11.027310
  C      1.241420    4.220740   -9.769950
  C      2.181360    5.142630   -9.258440
  N      2.854290    6.026510   -9.989000
  C      3.506400    6.802680   -9.109390
  C      3.211080    6.412290   -7.719030
  C      3.917350    7.293640   -6.772320
  O      3.870170    7.285240   -5.560170
  C      4.669420    8.186110   -7.667170
  C      4.384420    7.865000   -9.078340
  N      5.077510    8.680380   -9.904890
  C      5.769510    9.466560   -9.108860
  C      5.566420    9.209610   -7.704360
  C      2.392910    5.317010   -7.799920
  C      1.822690    4.490430   -6.787320
  C      1.749910    4.814840   -5.479410
  C      1.257450    3.898520   -4.501930
  N      0.992980    2.649730   -4.710500
  C      0.680270    1.988150   -3.568080
  C      0.444600    0.616890   -3.455120
  C      0.227920    0.085490   -2.204150
  C      0.208670    0.891890   -1.064900
  C      0.418640    2.253140   -1.154460
  C      0.667480    2.796090   -2.404090
  S      1.070940    4.428000   -2.820990
  H     -2.514590   -2.137690   -5.592320
  H     -2.551180   -5.501660   -1.914130
  H     -2.344230   -6.205940   -4.271510
  H     -2.324830   -4.548370   -6.083150
  H     -2.996300    3.411040    4.730390
  H     -2.816320    5.305500    2.815320
  H     -2.702810    0.904710   -3.581250
  H     -2.562860    3.875600   -2.808310
  H     -1.771720    1.256410   -5.368360
  H     -1.384730   -0.103940   -7.053610
  H     -1.151600   -0.634310  -10.012780
  H     -2.721950   -0.180780   -9.319270
  H     -1.100410   -2.381220   -8.291720
  H     -2.473900   -2.522610   -9.180270
  H      0.933160    0.738720   -8.806170
  H      0.723640   -0.960830   -8.340300
  H      0.847470    1.205650   -6.369820
  H      2.012940    0.098690   -6.685210
  H     -0.374710    1.346790  -10.833510
  H     -0.467080    3.169340  -12.484490
  H     -1.380170    5.420920  -11.938420
  H     -2.414570    5.792840   -9.718070
  H     -2.589550    5.886930   -7.052470
  H     -2.809300    5.352940   -4.659410
  H      1.169110    4.885050  -11.767430
  H      0.820090    3.548780   -9.037970
  H      6.414250   10.222720   -9.522680
  H      6.037230    9.735510   -6.897360
  H      1.426680    3.529820   -7.088030
  H      2.104220    5.771440   -5.123020
  H      0.469080    0.003760   -4.342320
  H      0.080590   -0.978870   -2.096930
  H      0.037060    0.443820   -0.097180
  H      0.409050    2.880390   -0.276480

 Total Charge           Charge          ....    0
 Multiplicity           Mult            ....    1
 Number of Electrons    NEL             ....  462
 Basis Dimension        Dim             .... 1102

ORBITAL ENERGIES
----------------

  NO   OCC          E(Eh)            E(eV)
   0   2.0000     -88.964670     -2420.8517
   1   2.0000     -88.949276     -2420.4328
   2   2.0000     -19.205479      -522.6077
   3   2.0000     -19.198063      -522.4058
   4   2.0000     -14.425170      -392.5288
   5   2.0000     -14.414715      -392.2443
   6   2.0000     -14.403618      -391.9424
   7   2.0000     -14.401511      -391.8850
   8   2.0000     -14.392515      -391.6403
   9   2.0000     -14.391986      -391.6258
  10   2.0000     -14.387957      -391.5162
  11   2.0000     -14.374778      -391.1576
  12   2.0000     -10.364586      -282.0347
  13   2.0000     -10.358022      -281.8561
  14   2.0000     -10.347777      -281.5773
  15   2.0000     -10.344100      -281.4773
  16   2.0000     -10.332994      -281.1750
  17   2.0000     -10.329276      -281.0739
  18   2.0000     -10.329002      -281.0664
  19   2.0000     -10.320287      -280.8293
  20   2.0000     -10.319035      -280.7952
  21   2.0000     -10.318499      -280.7806
  22   2.0000     -10.316075      -280.7147
  23   2.0000     -10.312846      -280.6268
  24   2.0000     -10.310939      -280.5749
  25   2.0000     -10.310535      -280.5639
  26   2.0000     -10.309839      -280.5450
  27   2.0000     -10.304540      -280.4008
  28   2.0000     -10.302502      -280.3453
  29   2.0000     -10.297458      -280.2081
  30   2.0000     -10.295480      -280.1543
  31   2.0000     -10.294072      -280.1159
  32   2.0000     -10.293443      -280.0988
  33   2.0000     -10.292399      -280.0704
  34   2.0000     -10.289976      -280.0045
  35   2.0000     -10.287419      -279.9349
  36   2.0000     -10.286657      -279.9142
  37   2.0000     -10.286435      -279.9081
  38   2.0000     -10.286173      -279.9010
  39   2.0000     -10.283915      -279.8395
  40   2.0000     -10.283461      -279.8272
  41   2.0000     -10.283146      -279.8186
  42   2.0000     -10.280739      -279.7531
  43   2.0000     -10.279671      -279.7241
  44   2.0000     -10.278894      -279.7029
  45   2.0000     -10.277740      -279.6715
  46   2.0000     -10.276918      -279.6492
  47   2.0000     -10.276893      -279.6485
  48   2.0000     -10.276467      -279.6369
  49   2.0000     -10.275498      -279.6105
  50   2.0000     -10.275453      -279.6093
  51   2.0000     -10.272448      -279.5275
  52   2.0000     -10.272259      -279.5224
  53   2.0000     -10.272129      -279.5188
  54   2.0000     -10.272047      -279.5166
  55   2.0000     -10.271582      -279.5039
  56   2.0000     -10.271311      -279.4966
  57   2.0000     -10.270703      -279.4800
  58   2.0000     -10.270589      -279.4769
  59   2.0000     -10.269878      -279.4576
  60   2.0000     -10.269581      -279.4495
  61   2.0000     -10.269499      -279.4473
  62   2.0000     -10.265881      -279.3488
  63   2.0000     -10.262966      -279.2695
  64   2.0000     -10.260760      -279.2095
  65   2.0000     -10.259136      -279.1653
  66   2.0000      -8.060113      -219.3268
  67   2.0000      -8.045355      -218.9252
  68   2.0000      -6.029328      -164.0664
  69   2.0000      -6.025484      -163.9617
  70   2.0000      -6.021927      -163.8650
  71   2.0000      -6.014557      -163.6644
  72   2.0000      -6.010827      -163.5629
  73   2.0000      -6.007062      -163.4605
  74   2.0000      -1.119274       -30.4570
  75   2.0000      -1.112032       -30.2599
  76   2.0000      -1.084696       -29.5161
  77   2.0000      -1.069151       -29.0931
  78   2.0000      -1.062037       -28.8995
  79   2.0000      -1.056699       -28.7542
  80   2.0000      -1.054678       -28.6992
  81   2.0000      -1.041169       -28.3317
  82   2.0000      -0.997702       -27.1489
  83   2.0000      -0.976497       -26.5718
  84   2.0000      -0.962246       -26.1840
  85   2.0000      -0.954739       -25.9798
  86   2.0000      -0.951931       -25.9034
  87   2.0000      -0.938867       -25.5479
  88   2.0000      -0.931949       -25.3596
  89   2.0000      -0.926158       -25.2020
  90   2.0000      -0.919309       -25.0157
  91   2.0000      -0.907623       -24.6977
  92   2.0000      -0.901396       -24.5282
  93   2.0000      -0.897172       -24.4133
  94   2.0000      -0.887026       -24.1372
  95   2.0000      -0.881554       -23.9883
  96   2.0000      -0.869481       -23.6598
  97   2.0000      -0.862167       -23.4608
  98   2.0000      -0.851983       -23.1836
  99   2.0000      -0.847627       -23.0651
 100   2.0000      -0.845353       -23.0032
 101   2.0000      -0.841385       -22.8953
 102   2.0000      -0.836836       -22.7715
 103   2.0000      -0.829559       -22.5735
 104   2.0000      -0.828658       -22.5489
 105   2.0000      -0.817009       -22.2319
 106   2.0000      -0.802297       -21.8316
 107   2.0000      -0.799064       -21.7436
 108   2.0000      -0.781169       -21.2567
 109   2.0000      -0.767131       -20.8747
 110   2.0000      -0.762294       -20.7431
 111   2.0000      -0.754293       -20.5254
 112   2.0000      -0.743320       -20.2268
 113   2.0000      -0.732657       -19.9366
 114   2.0000      -0.730452       -19.8766
 115   2.0000      -0.725137       -19.7320
 116   2.0000      -0.716405       -19.4944
 117   2.0000      -0.700741       -19.0681
 118   2.0000      -0.693758       -18.8781
 119   2.0000      -0.692945       -18.8560
 120   2.0000      -0.686319       -18.6757
 121   2.0000      -0.685606       -18.6563
 122   2.0000      -0.682542       -18.5729
 123   2.0000      -0.676131       -18.3985
 124   2.0000      -0.670378       -18.2419
 125   2.0000      -0.659233       -17.9386
 126   2.0000      -0.647916       -17.6307
 127   2.0000      -0.645498       -17.5649
 128   2.0000      -0.643036       -17.4979
 129   2.0000      -0.636066       -17.3082
 130   2.0000      -0.631622       -17.1873
 131   2.0000      -0.624516       -16.9939
 132   2.0000      -0.617950       -16.8153
 133   2.0000      -0.607921       -16.5424
 134   2.0000      -0.605661       -16.4809
 135   2.0000      -0.601457       -16.3665
 136   2.0000      -0.594227       -16.1697
 137   2.0000      -0.589660       -16.0455
 138   2.0000      -0.582813       -15.8592
 139   2.0000      -0.582507       -15.8508
 140   2.0000      -0.576814       -15.6959
 141   2.0000      -0.575315       -15.6551
 142   2.0000      -0.573424       -15.6037
 143   2.0000      -0.567365       -15.4388
 144   2.0000      -0.567127       -15.4323
 145   2.0000      -0.562377       -15.3031
 146   2.0000      -0.557930       -15.1820
 147   2.0000      -0.554948       -15.1009
 148   2.0000      -0.553985       -15.0747
 149   2.0000      -0.546553       -14.8725
 150   2.0000      -0.544559       -14.8182
 151   2.0000      -0.542511       -14.7625
 152   2.0000      -0.536811       -14.6074
 153   2.0000      -0.534130       -14.5344
 154   2.0000      -0.530974       -14.4485
 155   2.0000      -0.529765       -14.4156
 156   2.0000      -0.524854       -14.2820
 157   2.0000      -0.524337       -14.2679
 158   2.0000      -0.522574       -14.2199
 159   2.0000      -0.521476       -14.1901
 160   2.0000      -0.520151       -14.1540
 161   2.0000      -0.518192       -14.1007
 162   2.0000      -0.513544       -13.9742
 163   2.0000      -0.511040       -13.9061
 164   2.0000      -0.510230       -13.8841
 165   2.0000      -0.508599       -13.8397
 166   2.0000      -0.508008       -13.8236
 167   2.0000      -0.502204       -13.6657
 168   2.0000      -0.498199       -13.5567
 169   2.0000      -0.495879       -13.4936
 170   2.0000      -0.492127       -13.3915
 171   2.0000      -0.490353       -13.3432
 172   2.0000      -0.486446       -13.2369
 173   2.0000      -0.483516       -13.1571
 174   2.0000      -0.480238       -13.0679
 175   2.0000      -0.479164       -13.0387
 176   2.0000      -0.477418       -12.9912
 177   2.0000      -0.473302       -12.8792
 178   2.0000      -0.469081       -12.7643
 179   2.0000      -0.468274       -12.7424
 180   2.0000      -0.466126       -12.6839
 181   2.0000      -0.465236       -12.6597
 182   2.0000      -0.461870       -12.5681
 183   2.0000      -0.458792       -12.4844
 184   2.0000      -0.458370       -12.4729
 185   2.0000      -0.453494       -12.3402
 186   2.0000      -0.451877       -12.2962
 187   2.0000      -0.448593       -12.2068
 188   2.0000      -0.443155       -12.0589
 189   2.0000      -0.441201       -12.0057
 190   2.0000      -0.437566       -11.9068
 191   2.0000      -0.436280       -11.8718
 192   2.0000      -0.433538       -11.7972
 193   2.0000      -0.429636       -11.6910
 194   2.0000      -0.428409       -11.6576
 195   2.0000      -0.425871       -11.5885
 196   2.0000      -0.422415       -11.4945
 197   2.0000      -0.419685       -11.4202
 198   2.0000      -0.417355       -11.3568
 199   2.0000      -0.404496       -11.0069
 200   2.0000      -0.403621       -10.9831
 201   2.0000      -0.398732       -10.8500
 202   2.0000      -0.389854       -10.6085
 203   2.0000      -0.387323       -10.5396
 204   2.0000      -0.384580       -10.4649
 205   2.0000      -0.376492       -10.2449
 206   2.0000      -0.371280       -10.1030
 207   2.0000      -0.364047        -9.9062
 208   2.0000      -0.358162        -9.7461
 209   2.0000      -0.350945        -9.5497
 210   2.0000      -0.349469        -9.5095
 211   2.0000      -0.348624        -9.4865
 212   2.0000      -0.348012        -9.4699
 213   2.0000      -0.342647        -9.3239
 214   2.0000      -0.337575        -9.1859
 215   2.0000      -0.335873        -9.1396
 216   2.0000      -0.330215        -8.9856
 217   2.0000      -0.327000        -8.8981
 218   2.0000      -0.324282        -8.8242
 219   2.0000      -0.320162        -8.7121
 220   2.0000      -0.316116        -8.6020
 221   2.0000      -0.315825        -8.5940
 222   2.0000      -0.314038        -8.5454
 223   2.0000      -0.304907        -8.2969
 224   2.0000      -0.301158        -8.1949
 225   2.0000      -0.296576        -8.0702
 226   2.0000      -0.292499        -7.9593
 227   2.0000      -0.289283        -7.8718
 228   2.0000      -0.269406        -7.3309
 229   2.0000      -0.259156        -7.0520
 230   2.0000      -0.223786        -6.0895
 231   0.0000      -0.113718        -3.0944
 232   0.0000      -0.102285        -2.7833
 233   0.0000      -0.081771        -2.2251
 234   0.0000      -0.049115        -1.3365
 235   0.0000      -0.042328        -1.1518

MULLIKEN ATOMIC CHARGES
-----------------------
   0 C :   -0.016742
   1 C :    0.071929
   2 C :   -0.014781
   3 C :   -0.052648
   4 C :    0.040127
   5 C :    0.017433
   6 S :    0.177674
   7 C :   -0.190604
   8 N :   -0.002999
   9 C :    0.079699
  10 N :   -0.035290
  11 C :    0.086119
  12 C :   -0.184847
  13 C :    0.207125
  14 O :   -0.140696
  15 C :   -0.013655
  16 C :   -0.049215
  17 N :   -0.052642
  18 C :    0.087549
  19 C :   -0.100639
  20 C :    0.071641
  21 C :   -0.018208
  22 C :    0.008658
  23 C :    0.092352
  24 C :   -0.064017
  25 C :    0.059226
  26 C :   -0.052196
  27 C :   -0.056904
  28 C :    0.131048
  29 N :   -0.214768
  30 C :    0.177231
  31 N :   -0.238989
  32 C :    0.037313
  33 C :   -0.051624
  34 C :    0.120921
  35 C :   -0.044907
  36 C :    0.015041
  37 C :    0.002760
  38 C :    0.070410
  39 C :   -0.012422
  40 C :    0.001139
  41 C :   -0.047838
  42 C :   -0.000252
  43 C :    0.051476
  44 N :   -0.039190
  45 C :    0.066738
  46 C :   -0.152984
  47 C :    0.207507
  48 O :   -0.146946
  49 C :   -0.022587
  50 C :   -0.052067
  51 N :   -0.059434
  52 C :    0.079122
  53 C :   -0.098191
  54 C :    0.041905
  55 C :   -0.027029
  56 C :    0.074647
  57 C :   -0.099855
  58 N :   -0.066773
  59 C :    0.079046
  60 C :   -0.030522
  61 C :    0.004900
  62 C :    0.034771
  63 C :   -0.043235
  64 C :   -0.016623
  65 S :    0.128803
  66 H :   -0.018601
  67 H :   -0.012426
  68 H :   -0.005420
  69 H :   -0.015222
  70 H :    0.008472
  71 H :   -0.005476
  72 H :   -0.005134
  73 H :   -0.000173
  74 H :   -0.026708
  75 H :    0.006803
  76 H :   -0.016777
  77 H :    0.004770
  78 H :    0.094709
  79 H :    0.094639
  80 H :   -0.024383
  81 H :   -0.025817
  82 H :    0.129500
  83 H :    0.095638
  84 H :    0.000790
  85 H :    0.019975
  86 H :    0.007002
  87 H :   -0.022567
  88 H :   -0.034233
  89 H :   -0.011617
  90 H :    0.037994
  91 H :    0.000147
  92 H :   -0.000170
  93 H :   -0.013834
  94 H :   -0.011406
  95 H :    0.008306
  96 H :   -0.036401
  97 H :   -0.010189
  98 H :   -0.004837
  99 H :   -0.019347
Sum of atomic charges:   -0.0000000

LOEWDIN ATOMIC CHARGES
----------------------
   0 C :   -0.005075
   1 C :   -0.039309
   2 C :   -0.165433
   3 C :   -0.042015
   4 C :   -0.011754
   5 C :   -0.025752
   6 S :    0.438414
   7 C :   -0.130567
   8 N :   -0.055452
   9 C :    0.045225
  10 N :   -0.099321
  11 C :    0.048519
  12 C :   -0.066013
  13 C :    0.067591
  14 O :   -0.143828
  15 C :   -0.041124
  16 C :    0.018435
  17 N :   -0.096578
  18 C :    0.070014
  19 C :   -0.034946
  20 C :   -0.000762
  21 C :   -0.029683
  22 C :    0.023477
  23 C :   -0.029763
  24 C :    0.011140
  25 C :   -0.018553
  26 C :   -0.016376
  27 C :   -0.040403
  28 C :    0.027722
  29 N :   -0.112040
  30 C :    0.028870
  31 N :   -0.109673
  32 C :   -0.018997
  33 C :    0.065032
  34 C :   -0.027290
  35 C :   -0.022142
  36 C :   -0.004268
  37 C :   -0.050890
  38 C :   -0.007117
  39 C :   -0.017622
  40 C :   -0.001344
  41 C :    0.089465
  42 C :   -0.081086
  43 C :    0.075223
  44 N :   -0.122753
  45 C :    0.049842
  46 C :   -0.039889
  47 C :    0.065822
  48 O :   -0.149822
  49 C :   -0.047093
  50 C :    0.003409
  51 N :   -0.101519
  52 C :    0.057501
  53 C :   -0.045885
  54 C :   -0.029989
  55 C :   -0.000183
  56 C :   -0.023979
  57 C :   -0.108595
  58 N :   -0.091954
  59 C :   -0.029680
  60 C :   -0.020961
  61 C :   -0.029946
  62 C :   -0.027808
  63 C :   -0.039633
  64 C :   -0.166927
  65 S :    0.403474
  66 H :    0.035417
  67 H :    0.032441
  68 H :    0.031723
  69 H :    0.029099
  70 H :    0.022896
  71 H :    0.033952
  72 H :    0.025254
  73 H :    0.028685
  74 H :    0.030393
  75 H :    0.033786
  76 H :   -0.002952
  77 H :    0.021761
  78 H :    0.051586
  79 H :    0.056818
  80 H :   -0.003374
  81 H :    0.007356
  82 H :    0.040364
  83 H :    0.057584
  84 H :    0.028354
  85 H :    0.044342
  86 H :    0.030509
  87 H :    0.033671
  88 H :    0.028726
  89 H :    0.033641
  90 H :    0.043320
  91 H :    0.030790
  92 H :    0.019477
  93 H :    0.030808
  94 H :    0.029403
  95 H :    0.034389
  96 H :    0.026321
  97 H :    0.026875
  98 H :    0.029419
  99 H :    0.029780

  Mayer bond orders larger than 0.100000
B(  0-C ,  1-C ) :   1.2876 B(  0-C ,  5-C ) :   1.4369 B(  0-C , 66-H ) :   1.0059
B(  1-C ,  2-C ) :   1.2788 B(  1-C ,  8-N ) :   1.3054 B(  2-C ,  3-C ) :   1.3341
B(  2-C ,  6-S ) :   1.0694 B(  3-C ,  4-C ) :   1.4427 B(  3-C , 67-H ) :   1.0024
B(  4-C ,  5-C ) :   1.3085 B(  4-C , 68-H ) :   0.9909 B(  5-C , 69-H ) :   0.9889
B(  6-S ,  7-C ) :   1.0812 B(  6-S ,  8-N ) :   0.1212 B(  7-C ,  8-N ) :   1.7505
B(  7-C ,  9-C ) :   1.0369 B(  9-C , 10-N ) :   1.6878 B(  9-C , 11-C ) :   0.1255
B(  9-C , 20-C ) :   1.0190 B( 10-N , 11-C ) :   1.3113 B( 11-C , 12-C ) :   1.0647
B( 11-C , 16-C ) :   1.4329 B( 12-C , 13-C ) :   0.9012 B( 12-C , 20-C ) :   1.5106
B( 13-C , 14-O ) :   2.2039 B( 13-C , 15-C ) :   0.9199 B( 15-C , 16-C ) :   1.0692
B( 15-C , 19-C ) :   1.6117 B( 16-C , 17-N ) :   1.3049 B( 17-N , 18-C ) :   1.6675
B( 18-C , 19-C ) :   1.0595 B( 18-C , 70-H ) :   0.9897 B( 19-C , 71-H ) :   1.0109
B( 20-C , 21-C ) :   1.1571 B( 21-C , 22-C ) :   1.6366 B( 21-C , 72-H ) :   0.9302
B( 22-C , 23-C ) :   1.0461 B( 22-C , 73-H ) :   0.9717 B( 23-C , 24-C ) :   1.5030
B( 23-C , 40-C ) :   1.1328 B( 24-C , 25-C ) :   1.1516 B( 24-C , 74-H ) :   0.9874
B( 25-C , 26-C ) :   1.4587 B( 25-C , 38-C ) :   1.1271 B( 26-C , 27-C ) :   1.0615
B( 26-C , 32-C ) :   1.0825 B( 27-C , 28-C ) :   1.0415 B( 27-C , 30-C ) :   1.0227
B( 27-C , 75-H ) :   0.8788 B( 28-C , 29-N ) :   1.0909 B( 28-C , 76-H ) :   0.9261
B( 28-C , 77-H ) :   0.9459 B( 29-N , 78-H ) :   0.9647 B( 29-N , 79-H ) :   0.9658
B( 30-C , 31-N ) :   1.1069 B( 30-C , 80-H ) :   0.9228 B( 30-C , 81-H ) :   0.9299
B( 31-N , 82-H ) :   0.9271 B( 31-N , 83-H ) :   0.9610 B( 31-N , 96-H ) :   0.1072
B( 32-C , 33-C ) :   1.6577 B( 32-C , 37-C ) :   1.0404 B( 33-C , 34-C ) :   1.0080
B( 33-C , 84-H ) :   0.9757 B( 34-C , 35-C ) :   0.9463 B( 34-C , 41-C ) :   0.9280
B( 34-C , 85-H ) :   0.9060 B( 35-C , 36-C ) :   1.6282 B( 35-C , 41-C ) :   0.1372
B( 35-C , 86-H ) :   0.9680 B( 36-C , 37-C ) :   1.1970 B( 36-C , 87-H ) :   0.9880
B( 37-C , 38-C ) :   1.3747 B( 38-C , 39-C ) :   1.1608 B( 39-C , 40-C ) :   1.5718
B( 39-C , 88-H ) :   0.9946 B( 40-C , 89-H ) :   0.9944 B( 41-C , 42-C ) :   1.6722
B( 41-C , 90-H ) :   0.9662 B( 42-C , 43-C ) :   1.2023 B( 42-C , 91-H ) :   0.9197
B( 43-C , 44-N ) :   1.5625 B( 43-C , 45-C ) :   0.1151 B( 43-C , 54-C ) :   1.0071
B( 44-N , 45-C ) :   1.3838 B( 45-C , 46-C ) :   1.0482 B( 45-C , 50-C ) :   1.3797
B( 46-C , 47-C ) :   0.8923 B( 46-C , 54-C ) :   1.5702 B( 47-C , 48-O ) :   2.2146
B( 47-C , 49-C ) :   0.9281 B( 49-C , 50-C ) :   1.0815 B( 49-C , 53-C ) :   1.5689
B( 50-C , 51-N ) :   1.3377 B( 51-N , 52-C ) :   1.6300 B( 52-C , 53-C ) :   1.1026
B( 52-C , 92-H ) :   0.9897 B( 53-C , 93-H ) :   1.0112 B( 54-C , 55-C ) :   1.0938
B( 55-C , 56-C ) :   1.7371 B( 55-C , 94-H ) :   0.9560 B( 56-C , 57-C ) :   1.0669
B( 56-C , 95-H ) :   0.9430 B( 57-C , 58-N ) :   1.7126 B( 57-C , 65-S ) :   1.0762
B( 58-N , 59-C ) :   1.2647 B( 58-N , 65-S ) :   0.1046 B( 59-C , 60-C ) :   1.3277
B( 59-C , 64-C ) :   1.3002 B( 60-C , 61-C ) :   1.3986 B( 60-C , 96-H ) :   0.9815
B( 61-C , 62-C ) :   1.3316 B( 61-C , 97-H ) :   0.9790 B( 62-C , 63-C ) :   1.4230
B( 62-C , 98-H ) :   0.9818 B( 63-C , 64-C ) :   1.3671 B( 63-C , 99-H ) :   0.9989
B( 64-C , 65-S ) :   1.0599

-----------------------------------------------------------------------------
         ABSORPTION SPECTRUM VIA TRANSITION ELECTRIC DIPOLE MOMENTS
-----------------------------------------------------------------------------
State   Energy  Wavelength   fosc         T2         TX        TY        TZ
        (cm-1)    (nm)                  (au**2)     (au)      (au)      (au)
-----------------------------------------------------------------------------
   0   10335.3    967.6   0.113069019   3.60159   0.94595   0.29300  -1.61892
   1   11135.2    898.1   0.224393925   6.63422   1.82245   1.77757  -0.39134
   2   12947.7    772.3   0.054041943   1.37409   1.08971   0.22993   0.36573
   3   16028.3    623.9   0.029039448   0.59645  -0.50525   0.01356   0.58395
   4   17886.8    559.1   0.043447971   0.79967   0.22962   0.73575  -0.45345
   5   19319.5    517.6   0.023137059   0.39427   0.39502   0.44929  -0.19069
   6   20385.1    490.6   0.050155582   0.80999  -0.73092  -0.46793   0.23833
   7   20980.8    476.6   0.003855707   0.06050  -0.10919  -0.19277  -0.10686
   8   21075.2    474.5   0.325965796   5.09185   1.46697   1.09228  -1.32165
   9   21600.3    463.0   0.001273479   0.01941   0.13480   0.03391  -0.00946
  10   22341.2    447.6   0.028291110   0.41689  -0.21757   0.21339  -0.56922
  11   22588.7    442.7   0.056866910   0.82879  -0.57537   0.20813  -0.67411
  12   23208.6    430.9   0.288843644   4.09723   0.15389   1.92985   0.59095
  13   23820.7    419.8   0.154562183   2.13612  -0.59151   0.21871   1.31848
  14   24426.1    409.4   0.518342257   6.98616  -0.20570   1.17029   2.36099
  15   24673.2    405.3   0.117984262   1.57425  -0.70007  -1.02013  -0.20852
  16   25432.5    393.2   0.069270964   0.89668  -0.23289  -0.07779   0.91455
  17   25601.7    390.6   0.159393825   2.04965  -0.32957   0.67791   1.21716
  18   25817.9    387.3   0.030835730   0.39320   0.07403   0.62264   0.00579
  19   25896.6    386.2   0.293515921   3.73134  -0.84218  -1.37117  -1.06862
  20   26006.1    384.5   0.004084539   0.05171  -0.12846  -0.13082  -0.13450
  21   26203.3    381.6   0.022792658   0.28636   0.29369   0.43234   0.11484
  22   27226.1    367.3   0.080802864   0.97705  -0.28108  -0.30956   0.89567
  23   27272.5    366.7   0.101803421   1.22889   0.11159  -0.34845  -1.04643
  24   27411.8    364.8   0.006008916   0.07217  -0.20282   0.05005   0.16889
  25   27756.8    360.3   0.011273551   0.13371  -0.06732   0.11390   0.34089
  26   27915.1    358.2   0.020516775   0.24196  -0.24399  -0.00930  -0.42702
  27   28350.8    352.7   0.095899022   1.11359   0.49600   0.80342  -0.47127
  28   28765.8    347.6   0.579316395   6.63003  -0.90510  -1.29594   2.03257
  29   29126.3    343.3   0.010809979   0.12218   0.26317  -0.18305  -0.13936
  30   29700.0    336.7   0.030718883   0.34051   0.42729   0.39698   0.01840
  31   29732.1    336.3   0.212950554   2.35792  -0.11715  -0.10698   1.52733
  32   29990.2    333.4   0.066609276   0.73119   0.13291   0.64196  -0.54901
  33   30205.8    331.1   0.036682576   0.39980  -0.03839  -0.31032  -0.54957
  34   30465.9    328.2   0.064423118   0.69615   0.36117   0.45147   0.60156
  35   30614.6    326.6   0.021236176   0.22836   0.24205  -0.01717   0.41168
  36   30826.2    324.4   0.004779870   0.05105   0.13345  -0.16584  -0.07573
  37   30852.8    324.1   0.001612598   0.01721  -0.11749   0.00352   0.05822
  38   30931.9    323.3   0.002536939   0.02700  -0.16334  -0.01705  -0.00547
  39   31212.6    320.4   0.010477254   0.11051  -0.23380  -0.15578  -0.17770
  40   31770.2    314.8   0.158514725   1.64258  -0.37255  -0.95044   0.77488
  41   31999.0    312.5   0.023416551   0.24091   0.05573  -0.43556  -0.21930
  42   32190.7    310.6   0.061578350   0.62976   0.19298  -0.60686  -0.47354
  43   32664.1    306.1   0.009161544   0.09234  -0.02990  -0.10027   0.28529
  44   32927.4    303.7   0.032161808   0.32156   0.17931   0.16453  -0.51219
  45   33283.1    300.5   0.157188136   1.55479   0.04314  -0.36304   1.19211
  46   33325.9    300.1   0.021473631   0.21213  -0.02703  -0.09621   0.44960
  47   33392.5    299.5   0.009194513   0.09065   0.06222  -0.00298  -0.29456
  48   33919.3    294.8   0.193358024   1.87668  -0.17165   0.78342   1.11061
  49   34343.6    291.2   0.007200250   0.06902   0.06517   0.11672  -0.22616
  50   34583.7    289.2   0.001343521   0.01279  -0.07014  -0.00298  -0.08866
  51   34807.9    287.3   0.106604356   1.00826   0.36360   0.79580   0.49271
  52   34969.0    286.0   0.076217263   0.71754  -0.77356  -0.32928   0.10350
  53   35288.3    283.4   0.011246410   0.10492   0.25206  -0.09941   0.17749
  54   35382.4    282.6   0.124598866   1.15932  -0.29925   0.15435   1.02271
  55   35516.5    281.6   0.092811340   0.86029   0.68272   0.60703  -0.16032
  56   35639.3    280.6   0.211846387   1.95690   0.74507   1.14731  -0.29231
  57   35754.0    279.7   0.060407763   0.55622   0.53758   0.16010   0.49152
  58   35812.6    279.2   0.030132607   0.27700   0.16940   0.01693   0.49801
  59   36017.4    277.6   0.013341007   0.12194   0.30517   0.12538  -0.11444
  60   36149.1    276.6   0.017835540   0.16243  -0.00817  -0.37950  -0.13543
  61   36367.1    275.0   0.000833301   0.00754   0.04416   0.05334  -0.05242
  62   36455.7    274.3   0.071120088   0.64225   0.13180  -0.18198   0.76926
  63   36712.1    272.4   0.057055466   0.51164  -0.25104  -0.48577  -0.46114
  64   36975.1    270.5   0.065923265   0.58695  -0.13540  -0.13937  -0.74108
  65   37050.6    269.9   0.042769391   0.38003   0.03205   0.04411   0.61405
  66   37195.6    268.8   0.061423725   0.54365  -0.21884  -0.47223   0.52226
  67   37689.4    265.3   0.009433787   0.08240  -0.19916  -0.19374  -0.07213
  68   37793.0    264.6   0.000227347   0.00198  -0.02678  -0.01146  -0.03365
  69   38240.1    261.5   0.056408821   0.48563  -0.08191   0.05727  -0.68967
  70   38806.3    257.7   0.005650814   0.04794  -0.16767   0.12603  -0.06277
  71   39037.1    256.2   0.008328527   0.07024   0.15999   0.12286   0.17189
  72   39097.2    255.8   0.090217951   0.75967   0.12906   0.75796   0.41049
  73   39404.7    253.8   0.015062072   0.12584  -0.04977  -0.12953  -0.32647
  74   39537.1    252.9   0.064509180   0.53715   0.06424  -0.61207  -0.39798
  75   39732.7    251.7   0.007499416   0.06214  -0.15548   0.06626  -0.18323
  76   39813.5    251.2   0.020661333   0.17085   0.04966  -0.38350  -0.14597
  77   40097.1    249.4   0.059861890   0.49149   0.32300  -0.07341  -0.61788

FINAL SINGLE POINT ENERGY     -3459.224156584435

DIPOLE MOMENT
-------------
                                X             Y             Z
Electronic contribution:      1.34228      23.71323      38.65898
Nuclear contribution   :     -2.14710     -25.84838     -40.34958
                        -----------------------------------------
Total Dipole Moment    :     -0.80482      -2.13515      -1.69060
                        -----------------------------------------
Magnitude (a.u.)       :      2.83985
Magnitude (Debye)      :      7.21832

Rotational constants in cm-1:     0.001726     0.000781     0.000613
Rotational constants in MHz :    51.752771    23.405672    18.386330

                             ****ORCA TERMINATED NORMALLY****
TOTAL RUN TIME: 0 days 0 hours 11 minutes 59 seconds 241 msec
