                         Program Version 4.2.0 -  RELEASE  -
|  1> # ORCA input file
|  2> # SCF done       -156.761209472045          0.000782607449
|  3> ! CAM-B3LYP def2-SVP def2/J RIJCOSX Grid4 TightSCF
|  4> %maxcore 5000
|  5> %tddft
|  6>     Mode sTDDFT
|  7>     Ethresh 5.0
|  8>     maxcore 5000
|  9> end
| 10>
| 11> %pal
| 12>   nprocs 6
| 13>   end
| 14> * xyz 0 1
| 15>    C       -1.20244         1.74217         1.98409
| 16>    C       -1.37373         3.09451         2.24808
| 17>    C       -2.59382         3.59004         2.68038
| 18>    C       -3.67945         2.74567         2.87125
| 19>    C       -3.52094         1.39730         2.60829
| 20>    C       -2.28026         0.89078         2.15681
| 21>    C       -2.41142        -0.54695         1.94002
| 22>    C       -1.41352        -1.39632         1.51114
| 23>    C       -0.08921        -0.99506         1.24826
| 24>    N        1.00519        -0.73950         1.01139
| 25>    C       -1.57759        -2.77461         1.28856
| 26>    N       -1.68155        -3.90379         1.08750
| 27>    C       -3.78788        -0.88480         2.21165
| 28>    C       -4.43875         0.27592         2.76297
| 29>    C       -5.58566         0.26332         3.52200
| 30>    C       -6.18755        -0.92006         3.99625
| 31>    N       -6.64804        -1.85096         4.48707
| 32>    C       -6.21308         1.42301         4.01283
| 33>    N       -6.78939         2.34222         4.39024
| 34>    C       -4.37633        -2.10227         1.88890
| 35>    C       -5.69844        -2.37141         1.62974
| 36>    C       -6.38751        -3.57989         1.32436
| 37>    C       -7.65092        -2.84142         1.16771
| 38>    C       -8.95930        -2.69745         0.89393
| 39>    S       -9.37700        -1.00315         0.95917
| 40>    C       -7.73700        -0.51247         1.36311
| 41>    C       -6.96098        -1.60090         1.44778
| 42>    C       -6.07372        -4.92522         1.18326
| 43>    N       -4.79827        -5.45625         1.24627
| 44>    C       -4.88604        -6.79183         1.06022
| 45>    C       -4.14158        -7.95633         0.99480
| 46>    C       -5.06729        -8.99889         0.78590
| 47>    N       -6.34437        -8.47047         0.70731
| 48>    C       -6.26662        -7.12704         0.87817
| 49>    C       -7.00640        -5.96740         0.94593
| 50>    C       -4.87169       -10.38748         0.77562
| 51>    C       -3.65343       -11.04503         0.76767
| 52>    C       -3.53814       -12.40602         0.96270
| 53>    C       -4.39629       -13.49170         1.38679
| 54>    C       -3.30867       -14.45223         1.06989
| 55>    C       -2.73860       -15.66030         0.97127
| 56>    S       -1.07239       -15.46080         0.44976
| 57>    C       -1.19591       -13.72252         0.37152
| 58>    C       -2.44154       -13.35229         0.72362
| 59>    C       -5.62479       -13.74919         1.93034
| 60>    C       -6.63149       -12.88939         2.40968
| 61>    C       -8.04109       -13.23125         2.39859
| 62>    C       -8.61218       -14.43860         2.08004
| 63>    C       -7.93046       -15.61497         1.70571
| 64>    N       -7.46640       -16.61608         1.38488
| 65>    C      -10.00188       -14.68144         2.09065
| 66>    N      -11.11774       -14.95151         2.07164
| 67>    C       -8.77989       -12.01805         2.74850
| 68>    C       -7.84717       -10.99532         3.02367
| 69>    C       -8.27122        -9.72060         3.35129
| 70>    C       -9.63694        -9.46926         3.40321
| 71>    C      -10.55423       -10.47397         3.14559
| 72>    C      -10.13710       -11.75856         2.81790
| 73>    C       -6.50650       -11.56158         2.90708
| 74>    C       -5.33883       -10.93053         3.31712
| 75>    C       -5.25676        -9.57888         3.69012
| 76>    N       -5.10548        -8.46259         3.92003
| 77>    C       -4.14057       -11.61728         3.57169
| 78>    N       -3.14869       -12.13928         3.82406
| 79>    H       -0.24511         1.37503         1.65218
| 80>    H       -0.54094         3.76758         2.11260
| 81>    H       -2.70459         4.64597         2.87449
| 82>    H       -4.62354         3.14189         3.20928
| 83>    H       -3.70384        -2.92994         1.73245
| 84>    H       -9.72709        -3.40860         0.66383
| 85>    H       -7.54244         0.53388         1.49095
| 86>    H       -3.94233        -4.94289         1.38760
| 87>    H       -3.08325        -8.07144         1.10611
| 88>    H       -7.18387        -9.01495         0.60404
| 89>    H       -8.06535        -5.83118         0.86214
| 90>    H       -5.76215       -10.99339         0.66888
| 91>    H       -2.74160       -10.48031         0.63436
| 92>    H       -3.11311       -16.64906         1.14293
| 93>    H       -0.33469       -13.15273         0.08529
| 94>    H       -5.87609       -14.80287         1.94129
| 95>    H       -7.56835        -8.93049         3.56138
| 96>    H       -9.98158        -8.47747         3.65365
| 97>    H      -11.61087       -10.26126         3.19908
| 98>    H      -10.86816       -12.52551         2.62419
| 99> *
|100>
|101>                          ****END OF INPUT****

CARTESIAN COORDINATES (ANGSTROEM)
---------------------------------
  C     -1.202440    1.742170    1.984090
  C     -1.373730    3.094510    2.248080
  C     -2.593820    3.590040    2.680380
  C     -3.679450    2.745670    2.871250
  C     -3.520940    1.397300    2.608290
  C     -2.280260    0.890780    2.156810
  C     -2.411420   -0.546950    1.940020
  C     -1.413520   -1.396320    1.511140
  C     -0.089210   -0.995060    1.248260
  N      1.005190   -0.739500    1.011390
  C     -1.577590   -2.774610    1.288560
  N     -1.681550   -3.903790    1.087500
  C     -3.787880   -0.884800    2.211650
  C     -4.438750    0.275920    2.762970
  C     -5.585660    0.263320    3.522000
  C     -6.187550   -0.920060    3.996250
  N     -6.648040   -1.850960    4.487070
  C     -6.213080    1.423010    4.012830
  N     -6.789390    2.342220    4.390240
  C     -4.376330   -2.102270    1.888900
  C     -5.698440   -2.371410    1.629740
  C     -6.387510   -3.579890    1.324360
  C     -7.650920   -2.841420    1.167710
  C     -8.959300   -2.697450    0.893930
  S     -9.377000   -1.003150    0.959170
  C     -7.737000   -0.512470    1.363110
  C     -6.960980   -1.600900    1.447780
  C     -6.073720   -4.925220    1.183260
  N     -4.798270   -5.456250    1.246270
  C     -4.886040   -6.791830    1.060220
  C     -4.141580   -7.956330    0.994800
  C     -5.067290   -8.998890    0.785900
  N     -6.344370   -8.470470    0.707310
  C     -6.266620   -7.127040    0.878170
  C     -7.006400   -5.967400    0.945930
  C     -4.871690  -10.387480    0.775620
  C     -3.653430  -11.045030    0.767670
  C     -3.538140  -12.406020    0.962700
  C     -4.396290  -13.491700    1.386790
  C     -3.308670  -14.452230    1.069890
  C     -2.738600  -15.660300    0.971270
  S     -1.072390  -15.460800    0.449760
  C     -1.195910  -13.722520    0.371520
  C     -2.441540  -13.352290    0.723620
  C     -5.624790  -13.749190    1.930340
  C     -6.631490  -12.889390    2.409680
  C     -8.041090  -13.231250    2.398590
  C     -8.612180  -14.438600    2.080040
  C     -7.930460  -15.614970    1.705710
  N     -7.466400  -16.616080    1.384880
  C    -10.001880  -14.681440    2.090650
  N    -11.117740  -14.951510    2.071640
  C     -8.779890  -12.018050    2.748500
  C     -7.847170  -10.995320    3.023670
  C     -8.271220   -9.720600    3.351290
  C     -9.636940   -9.469260    3.403210
  C    -10.554230  -10.473970    3.145590
  C    -10.137100  -11.758560    2.817900
  C     -6.506500  -11.561580    2.907080
  C     -5.338830  -10.930530    3.317120
  C     -5.256760   -9.578880    3.690120
  N     -5.105480   -8.462590    3.920030
  C     -4.140570  -11.617280    3.571690
  N     -3.148690  -12.139280    3.824060
  H     -0.245110    1.375030    1.652180
  H     -0.540940    3.767580    2.112600
  H     -2.704590    4.645970    2.874490
  H     -4.623540    3.141890    3.209280
  H     -3.703840   -2.929940    1.732450
  H     -9.727090   -3.408600    0.663830
  H     -7.542440    0.533880    1.490950
  H     -3.942330   -4.942890    1.387600
  H     -3.083250   -8.071440    1.106110
  H     -7.183870   -9.014950    0.604040
  H     -8.065350   -5.831180    0.862140
  H     -5.762150  -10.993390    0.668880
  H     -2.741600  -10.480310    0.634360
  H     -3.113110  -16.649060    1.142930
  H     -0.334690  -13.152730    0.085290
  H     -5.876090  -14.802870    1.941290
  H     -7.568350   -8.930490    3.561380
  H     -9.981580   -8.477470    3.653650
  H    -11.610870  -10.261260    3.199080
  H    -10.868160  -12.525510    2.624190

 Total Charge           Charge          ....    0
 Multiplicity           Mult            ....    1
 Number of Electrons    NEL             ....  434
 Basis Dimension        Dim             .... 1004

ORBITAL ENERGIES
----------------

  NO   OCC          E(Eh)            E(eV)
   0   2.0000     -88.964018     -2420.8340
   1   2.0000     -88.963498     -2420.8199
   2   2.0000     -14.497946      -394.5092
   3   2.0000     -14.493515      -394.3886
   4   2.0000     -14.430333      -392.6693
   5   2.0000     -14.426135      -392.5551
   6   2.0000     -14.424509      -392.5108
   7   2.0000     -14.422946      -392.4683
   8   2.0000     -14.422579      -392.4583
   9   2.0000     -14.414949      -392.2507
  10   2.0000     -14.414345      -392.2343
  11   2.0000     -14.406650      -392.0249
  12   2.0000     -10.354630      -281.7638
  13   2.0000     -10.353561      -281.7347
  14   2.0000     -10.352607      -281.7088
  15   2.0000     -10.350953      -281.6638
  16   2.0000     -10.349525      -281.6249
  17   2.0000     -10.347049      -281.5575
  18   2.0000     -10.343989      -281.4742
  19   2.0000     -10.343183      -281.4523
  20   2.0000     -10.342559      -281.4353
  21   2.0000     -10.342453      -281.4325
  22   2.0000     -10.342329      -281.4291
  23   2.0000     -10.341331      -281.4019
  24   2.0000     -10.340592      -281.3818
  25   2.0000     -10.339546      -281.3534
  26   2.0000     -10.336431      -281.2686
  27   2.0000     -10.335906      -281.2543
  28   2.0000     -10.329121      -281.0697
  29   2.0000     -10.327020      -281.0125
  30   2.0000     -10.325187      -280.9626
  31   2.0000     -10.324106      -280.9332
  32   2.0000     -10.322211      -280.8816
  33   2.0000     -10.319088      -280.7967
  34   2.0000     -10.319018      -280.7948
  35   2.0000     -10.318416      -280.7784
  36   2.0000     -10.318287      -280.7749
  37   2.0000     -10.317721      -280.7595
  38   2.0000     -10.316643      -280.7301
  39   2.0000     -10.316065      -280.7144
  40   2.0000     -10.313465      -280.6437
  41   2.0000     -10.313266      -280.6382
  42   2.0000     -10.313181      -280.6359
  43   2.0000     -10.312754      -280.6243
  44   2.0000     -10.311687      -280.5953
  45   2.0000     -10.311310      -280.5850
  46   2.0000     -10.310640      -280.5668
  47   2.0000     -10.310122      -280.5527
  48   2.0000     -10.308771      -280.5159
  49   2.0000     -10.305861      -280.4367
  50   2.0000     -10.305200      -280.4187
  51   2.0000     -10.304885      -280.4102
  52   2.0000     -10.303333      -280.3679
  53   2.0000     -10.302813      -280.3538
  54   2.0000     -10.302548      -280.3466
  55   2.0000     -10.299775      -280.2711
  56   2.0000     -10.299243      -280.2567
  57   2.0000     -10.296133      -280.1720
  58   2.0000     -10.294814      -280.1361
  59   2.0000     -10.294117      -280.1172
  60   2.0000     -10.293556      -280.1019
  61   2.0000     -10.292091      -280.0620
  62   2.0000     -10.291622      -280.0493
  63   2.0000     -10.288239      -279.9572
  64   2.0000      -8.059649      -219.3142
  65   2.0000      -8.059098      -219.2992
  66   2.0000      -6.029498      -164.0710
  67   2.0000      -6.028873      -164.0540
  68   2.0000      -6.024672      -163.9397
  69   2.0000      -6.024018      -163.9219
  70   2.0000      -6.021282      -163.8474
  71   2.0000      -6.020924      -163.8377
  72   2.0000      -1.131665       -30.7942
  73   2.0000      -1.094002       -29.7693
  74   2.0000      -1.037898       -28.2426
  75   2.0000      -1.033352       -28.1189
  76   2.0000      -1.026287       -27.9267
  77   2.0000      -1.025685       -27.9103
  78   2.0000      -1.020678       -27.7741
  79   2.0000      -1.016446       -27.6589
  80   2.0000      -1.010210       -27.4892
  81   2.0000      -1.003199       -27.2984
  82   2.0000      -1.002806       -27.2877
  83   2.0000      -1.001444       -27.2507
  84   2.0000      -0.997242       -27.1363
  85   2.0000      -0.989025       -26.9127
  86   2.0000      -0.962433       -26.1891
  87   2.0000      -0.956455       -26.0265
  88   2.0000      -0.954134       -25.9633
  89   2.0000      -0.948129       -25.7999
  90   2.0000      -0.941426       -25.6175
  91   2.0000      -0.933935       -25.4137
  92   2.0000      -0.933147       -25.3922
  93   2.0000      -0.911277       -24.7971
  94   2.0000      -0.904952       -24.6250
  95   2.0000      -0.896336       -24.3905
  96   2.0000      -0.890011       -24.2184
  97   2.0000      -0.884261       -24.0620
  98   2.0000      -0.881419       -23.9846
  99   2.0000      -0.868448       -23.6317
 100   2.0000      -0.860014       -23.4022
 101   2.0000      -0.857408       -23.3312
 102   2.0000      -0.836136       -22.7524
 103   2.0000      -0.829650       -22.5759
 104   2.0000      -0.814137       -22.1538
 105   2.0000      -0.811167       -22.0730
 106   2.0000      -0.805203       -21.9107
 107   2.0000      -0.793125       -21.5820
 108   2.0000      -0.784941       -21.3593
 109   2.0000      -0.764280       -20.7971
 110   2.0000      -0.756966       -20.5981
 111   2.0000      -0.733123       -19.9493
 112   2.0000      -0.732417       -19.9301
 113   2.0000      -0.725696       -19.7472
 114   2.0000      -0.720037       -19.5932
 115   2.0000      -0.716604       -19.4998
 116   2.0000      -0.713687       -19.4204
 117   2.0000      -0.710640       -19.3375
 118   2.0000      -0.707050       -19.2398
 119   2.0000      -0.702097       -19.1050
 120   2.0000      -0.688930       -18.7467
 121   2.0000      -0.673754       -18.3338
 122   2.0000      -0.667622       -18.1669
 123   2.0000      -0.666995       -18.1499
 124   2.0000      -0.662503       -18.0276
 125   2.0000      -0.658612       -17.9217
 126   2.0000      -0.656552       -17.8657
 127   2.0000      -0.652351       -17.7514
 128   2.0000      -0.646969       -17.6049
 129   2.0000      -0.633633       -17.2420
 130   2.0000      -0.628599       -17.1051
 131   2.0000      -0.624343       -16.9892
 132   2.0000      -0.611461       -16.6387
 133   2.0000      -0.604265       -16.4429
 134   2.0000      -0.600122       -16.3301
 135   2.0000      -0.595765       -16.2116
 136   2.0000      -0.587428       -15.9847
 137   2.0000      -0.585859       -15.9420
 138   2.0000      -0.583992       -15.8912
 139   2.0000      -0.578926       -15.7534
 140   2.0000      -0.578536       -15.7428
 141   2.0000      -0.566786       -15.4230
 142   2.0000      -0.563419       -15.3314
 143   2.0000      -0.556726       -15.1493
 144   2.0000      -0.547434       -14.8964
 145   2.0000      -0.547068       -14.8865
 146   2.0000      -0.543065       -14.7775
 147   2.0000      -0.538743       -14.6599
 148   2.0000      -0.537255       -14.6194
 149   2.0000      -0.535195       -14.5634
 150   2.0000      -0.534935       -14.5563
 151   2.0000      -0.533186       -14.5087
 152   2.0000      -0.526924       -14.3383
 153   2.0000      -0.526142       -14.3171
 154   2.0000      -0.520101       -14.1527
 155   2.0000      -0.515804       -14.0358
 156   2.0000      -0.512166       -13.9368
 157   2.0000      -0.508401       -13.8343
 158   2.0000      -0.506998       -13.7961
 159   2.0000      -0.500273       -13.6131
 160   2.0000      -0.498859       -13.5746
 161   2.0000      -0.494717       -13.4619
 162   2.0000      -0.490314       -13.3421
 163   2.0000      -0.486963       -13.2509
 164   2.0000      -0.484891       -13.1946
 165   2.0000      -0.481539       -13.1034
 166   2.0000      -0.478468       -13.0198
 167   2.0000      -0.473724       -12.8907
 168   2.0000      -0.470745       -12.8096
 169   2.0000      -0.468565       -12.7503
 170   2.0000      -0.467295       -12.7157
 171   2.0000      -0.463557       -12.6140
 172   2.0000      -0.459705       -12.5092
 173   2.0000      -0.458597       -12.4790
 174   2.0000      -0.456109       -12.4114
 175   2.0000      -0.456078       -12.4105
 176   2.0000      -0.452497       -12.3131
 177   2.0000      -0.451643       -12.2898
 178   2.0000      -0.450277       -12.2527
 179   2.0000      -0.449188       -12.2230
 180   2.0000      -0.447353       -12.1731
 181   2.0000      -0.446421       -12.1477
 182   2.0000      -0.445889       -12.1333
 183   2.0000      -0.443912       -12.0795
 184   2.0000      -0.443496       -12.0682
 185   2.0000      -0.438641       -11.9360
 186   2.0000      -0.434558       -11.8249
 187   2.0000      -0.434168       -11.8143
 188   2.0000      -0.431845       -11.7511
 189   2.0000      -0.429116       -11.6768
 190   2.0000      -0.428732       -11.6664
 191   2.0000      -0.424703       -11.5568
 192   2.0000      -0.423070       -11.5123
 193   2.0000      -0.421181       -11.4609
 194   2.0000      -0.418100       -11.3771
 195   2.0000      -0.416771       -11.3409
 196   2.0000      -0.413495       -11.2518
 197   2.0000      -0.410505       -11.1704
 198   2.0000      -0.407231       -11.0813
 199   2.0000      -0.404645       -11.0110
 200   2.0000      -0.404360       -11.0032
 201   2.0000      -0.397095       -10.8055
 202   2.0000      -0.388877       -10.5819
 203   2.0000      -0.379999       -10.3403
 204   2.0000      -0.375441       -10.2163
 205   2.0000      -0.357630        -9.7316
 206   2.0000      -0.346559        -9.4303
 207   2.0000      -0.336815        -9.1652
 208   2.0000      -0.333632        -9.0786
 209   2.0000      -0.331726        -9.0267
 210   2.0000      -0.328488        -8.9386
 211   2.0000      -0.327603        -8.9145
 212   2.0000      -0.309985        -8.4351
 213   2.0000      -0.307024        -8.3545
 214   2.0000      -0.298813        -8.1311
 215   2.0000      -0.265739        -7.2311
 216   2.0000      -0.246807        -6.7160
 217   0.0000      -0.136956        -3.7268
 218   0.0000      -0.098625        -2.6837
 219   0.0000      -0.091200        -2.4817
 220   0.0000      -0.084573        -2.3013
 221   0.0000      -0.051454        -1.4001

MULLIKEN ATOMIC CHARGES
-----------------------
   0 C :   -0.033853
   1 C :    0.044195
   2 C :    0.047209
   3 C :   -0.041815
   4 C :    0.012774
   5 C :    0.004373
   6 C :    0.314911
   7 C :   -0.371716
   8 C :   -0.183292
   9 N :    0.151744
  10 C :   -0.139623
  11 N :    0.098351
  12 C :   -0.104727
  13 C :    0.245493
  14 C :   -0.353491
  15 C :   -0.211704
  16 N :    0.167022
  17 C :   -0.186577
  18 N :    0.150451
  19 C :    0.021389
  20 C :    0.006539
  21 C :    0.168716
  22 C :    0.125655
  23 C :   -0.193837
  24 S :    0.100111
  25 C :   -0.234945
  26 C :    0.172027
  27 C :    0.042565
  28 N :   -0.024237
  29 C :    0.155386
  30 C :   -0.118865
  31 C :    0.070708
  32 N :   -0.033272
  33 C :    0.150403
  34 C :   -0.151768
  35 C :    0.100076
  36 C :   -0.030120
  37 C :    0.026171
  38 C :    0.050836
  39 C :    0.165524
  40 C :   -0.203349
  41 S :    0.097739
  42 C :   -0.187515
  43 C :    0.158397
  44 C :   -0.027550
  45 C :   -0.070472
  46 C :    0.312001
  47 C :   -0.354268
  48 C :   -0.185288
  49 N :    0.162547
  50 C :   -0.189364
  51 N :    0.157517
  52 C :    0.013059
  53 C :    0.001799
  54 C :   -0.083520
  55 C :    0.045178
  56 C :    0.041784
  57 C :   -0.043896
  58 C :    0.201599
  59 C :   -0.362844
  60 C :   -0.165970
  61 N :    0.138882
  62 C :   -0.206386
  63 N :    0.182161
  64 H :    0.001976
  65 H :    0.000969
  66 H :    0.001910
  67 H :    0.000647
  68 H :   -0.072947
  69 H :    0.029421
  70 H :    0.046047
  71 H :    0.146661
  72 H :    0.001285
  73 H :    0.138206
  74 H :   -0.017390
  75 H :    0.013575
  76 H :    0.000712
  77 H :    0.040655
  78 H :    0.035636
  79 H :    0.012762
  80 H :    0.003064
  81 H :   -0.000903
  82 H :    0.001822
  83 H :    0.004861
Sum of atomic charges:   -0.0000000

LOEWDIN ATOMIC CHARGES
----------------------
   0 C :    0.003754
   1 C :   -0.004258
   2 C :    0.001666
   3 C :   -0.003009
   4 C :   -0.008428
   5 C :   -0.016270
   6 C :    0.083388
   7 C :   -0.156664
   8 C :   -0.022000
   9 N :   -0.056713
  10 C :    0.006115
  11 N :   -0.091966
  12 C :   -0.072952
  13 C :    0.062930
  14 C :   -0.140438
  15 C :   -0.020806
  16 N :   -0.058251
  17 C :   -0.022847
  18 N :   -0.056742
  19 C :    0.022100
  20 C :   -0.033437
  21 C :    0.077806
  22 C :   -0.050469
  23 C :   -0.157852
  24 S :    0.418547
  25 C :   -0.171361
  26 C :   -0.032923
  27 C :    0.003149
  28 N :    0.093471
  29 C :    0.029232
  30 C :   -0.039186
  31 C :    0.012273
  32 N :    0.077442
  33 C :    0.001516
  34 C :   -0.036606
  35 C :    0.043777
  36 C :   -0.040093
  37 C :    0.070079
  38 C :   -0.017479
  39 C :   -0.032181
  40 C :   -0.166424
  41 S :    0.423027
  42 C :   -0.150931
  43 C :   -0.054062
  44 C :    0.007530
  45 C :   -0.074174
  46 C :    0.074290
  47 C :   -0.128961
  48 C :   -0.022570
  49 N :   -0.044987
  50 C :   -0.018125
  51 N :   -0.047327
  52 C :   -0.019593
  53 C :   -0.019507
  54 C :   -0.021493
  55 C :   -0.006189
  56 C :   -0.008619
  57 C :    0.004394
  58 C :    0.033776
  59 C :   -0.140888
  60 C :   -0.018299
  61 N :   -0.059903
  62 C :   -0.014340
  63 N :   -0.041779
  64 H :    0.040391
  65 H :    0.036078
  66 H :    0.036276
  67 H :    0.039513
  68 H :    0.033283
  69 H :    0.026054
  70 H :    0.029206
  71 H :    0.093511
  72 H :    0.039926
  73 H :    0.093531
  74 H :    0.035549
  75 H :    0.042963
  76 H :    0.042349
  77 H :    0.031684
  78 H :    0.029828
  79 H :    0.050770
  80 H :    0.037406
  81 H :    0.035205
  82 H :    0.036345
  83 H :    0.040967

  Mayer bond orders larger than 0.100000
B(  0-C ,  1-C ) :   1.3554 B(  0-C ,  5-C ) :   1.3967 B(  0-C , 64-H ) :   0.9833
B(  1-C ,  2-C ) :   1.3919 B(  1-C , 65-H ) :   0.9861 B(  2-C ,  3-C ) :   1.3475
B(  2-C , 66-H ) :   0.9865 B(  3-C ,  4-C ) :   1.3991 B(  3-C , 67-H ) :   0.9869
B(  4-C ,  5-C ) :   1.3125 B(  4-C , 13-C ) :   1.0019 B(  5-C ,  6-C ) :   0.9860
B(  6-C ,  7-C ) :   1.5674 B(  6-C , 12-C ) :   1.1303 B(  7-C ,  8-C ) :   1.1489
B(  7-C , 10-C ) :   1.1652 B(  8-C ,  9-N ) :   2.9712 B( 10-C , 11-N ) :   2.9472
B( 12-C , 13-C ) :   1.0940 B( 12-C , 19-C ) :   1.4276 B( 13-C , 14-C ) :   1.5907
B( 14-C , 15-C ) :   1.1473 B( 14-C , 17-C ) :   1.1456 B( 15-C , 16-N ) :   3.0188
B( 17-C , 18-N ) :   2.9778 B( 19-C , 20-C ) :   1.3653 B( 19-C , 68-H ) :   0.9027
B( 20-C , 21-C ) :   1.2581 B( 20-C , 26-C ) :   0.8430 B( 21-C , 22-C ) :   0.9488
B( 21-C , 27-C ) :   1.1527 B( 22-C , 23-C ) :   1.5942 B( 22-C , 26-C ) :   1.1412
B( 23-C , 24-S ) :   1.1398 B( 23-C , 69-H ) :   0.9739 B( 24-S , 25-C ) :   1.0853
B( 25-C , 26-C ) :   1.6276 B( 25-C , 70-H ) :   0.9744 B( 27-C , 28-N ) :   1.1991
B( 27-C , 34-C ) :   1.2866 B( 28-N , 29-C ) :   1.2164 B( 28-N , 71-H ) :   0.9062
B( 29-C , 30-C ) :   1.2904 B( 29-C , 33-C ) :   1.2307 B( 30-C , 31-C ) :   1.3318
B( 30-C , 72-H ) :   1.0320 B( 31-C , 32-N ) :   1.1673 B( 31-C , 35-C ) :   1.2105
B( 32-N , 33-C ) :   1.1658 B( 32-N , 73-H ) :   0.9253 B( 33-C , 34-C ) :   1.3178
B( 34-C , 74-H ) :   1.0363 B( 35-C , 36-C ) :   1.4166 B( 35-C , 59-C ) :   0.1882
B( 35-C , 75-H ) :   0.9337 B( 36-C , 37-C ) :   1.3791 B( 36-C , 76-H ) :   0.9590
B( 37-C , 38-C ) :   1.1085 B( 37-C , 43-C ) :   0.9172 B( 38-C , 39-C ) :   0.9109
B( 38-C , 44-C ) :   1.5103 B( 39-C , 40-C ) :   1.6342 B( 39-C , 43-C ) :   1.1435
B( 40-C , 41-S ) :   1.1010 B( 40-C , 77-H ) :   0.9762 B( 41-S , 42-C ) :   1.1479
B( 42-C , 43-C ) :   1.5706 B( 42-C , 78-H ) :   0.9786 B( 44-C , 45-C ) :   1.2752
B( 44-C , 79-H ) :   0.9140 B( 45-C , 46-C ) :   1.1002 B( 45-C , 58-C ) :   1.2362
B( 46-C , 47-C ) :   1.6022 B( 46-C , 52-C ) :   0.9675 B( 47-C , 48-C ) :   1.1425
B( 47-C , 50-C ) :   1.1523 B( 48-C , 49-N ) :   2.9664 B( 50-C , 51-N ) :   2.9699
B( 52-C , 53-C ) :   1.3195 B( 52-C , 57-C ) :   1.3986 B( 53-C , 54-C ) :   1.3937
B( 53-C , 58-C ) :   0.9894 B( 54-C , 55-C ) :   1.3306 B( 54-C , 80-H ) :   0.9895
B( 55-C , 56-C ) :   1.4005 B( 55-C , 81-H ) :   0.9877 B( 56-C , 57-C ) :   1.3440
B( 56-C , 82-H ) :   0.9874 B( 57-C , 83-H ) :   0.9836 B( 58-C , 59-C ) :   1.4234
B( 59-C , 60-C ) :   1.1483 B( 59-C , 62-C ) :   1.1938 B( 60-C , 61-N ) :   2.9146
B( 62-C , 63-N ) :   2.9895

-----------------------------------------------------------------------------
         ABSORPTION SPECTRUM VIA TRANSITION ELECTRIC DIPOLE MOMENTS
-----------------------------------------------------------------------------
State   Energy  Wavelength   fosc         T2         TX        TY        TZ
        (cm-1)    (nm)                  (au**2)     (au)      (au)      (au)
-----------------------------------------------------------------------------
   0    9463.0   1056.8   0.840367666  29.23600  -1.72169  -5.12559   0.00932
   1   13326.4    750.4   0.067397032   1.66495   0.18510  -0.52220  -1.16533
   2   17780.3    562.4   0.041997827   0.77761   0.57953   0.30990   0.58797
   3   18044.2    554.2   0.045269203   0.82592   0.89684  -0.01013   0.14664
   4   18675.5    535.5   0.055644040   0.98090  -0.65488  -0.29194   0.68323
   5   19809.1    504.8   0.852253768  14.16383   1.17702  -3.52269  -0.60752
   6   21182.1    472.1   0.216475685   3.36446   0.71943  -1.50630   0.76024
   7   22327.4    447.9   0.015688677   0.23133   0.29708  -0.18484  -0.33000
   8   23379.6    427.7   0.104665899   1.47382  -1.12678   0.39867   0.21271
   9   23991.9    416.8   0.224552166   3.08125   1.32140  -1.05541  -0.47038
  10   24496.6    408.2   0.201421651   2.70693   1.40700  -0.84383  -0.12337
  11   26204.7    381.6   0.125773452   1.58010  -1.15158  -0.48990  -0.11821
  12   26594.8    376.0   0.033401654   0.41347  -0.25950   0.56423   0.16666
  13   27500.9    363.6   0.036050371   0.43156  -0.51138   0.36333   0.19503
  14   27730.9    360.6   0.040934801   0.48596  -0.40921  -0.55702   0.09076
  15   28210.4    354.5   0.342505233   3.99699  -1.35411   1.45182   0.23579
  16   29063.6    344.1   0.104235286   1.18071   0.72977  -0.73996  -0.31717
  17   29170.1    342.8   0.105474409   1.19038   0.88231   0.35076   0.53747
  18   29526.9    338.7   0.156292106   1.74259  -1.21561  -0.50325   0.10776
  19   30258.3    330.5   0.085515898   0.93042   0.22004  -0.73769  -0.58122
  20   30767.8    325.0   0.440152406   4.70958   1.83575  -0.65800  -0.95218
  21   30981.2    322.8   0.143218404   1.52186   0.58442   0.76372   0.77269
  22   31336.4    319.1   0.301292303   3.16530  -1.64738  -0.66563  -0.09144
  23   31666.9    315.8   0.009413299   0.09786   0.22383   0.20414   0.07801
  24   32363.7    309.0   0.304787469   3.10038  -1.04447   1.31207   0.53658
  25   32929.3    303.7   0.014285402   0.14282  -0.01798  -0.37726   0.01300
  26   33292.8    300.4   0.020522465   0.20293   0.09303   0.44073  -0.00573
  27   33599.9    297.6   0.130429741   1.27795  -0.94999   0.57677  -0.20690
  28   34087.9    293.4   0.056679259   0.54739   0.73537  -0.00913  -0.08090
  29   34335.2    291.2   0.148696597   1.42573   0.79821   0.88712  -0.04012
  30   34498.6    289.9   0.025724369   0.24548  -0.36478  -0.33528  -0.00145
  31   34584.4    289.1   0.023577150   0.22443  -0.32465  -0.33234   0.09266
  32   34699.4    288.2   0.034713381   0.32934  -0.57153   0.05189  -0.00189
  33   34804.0    287.3   0.052447667   0.49610   0.32356   0.59362   0.19756
  34   36104.5    277.0   0.093916048   0.85636  -0.00836   0.91065   0.16434
  35   36303.9    275.5   0.085250345   0.77307  -0.00423   0.86918   0.13256
  36   37097.8    269.6   0.040499335   0.35940  -0.23312   0.42006   0.35861
  37   37860.2    264.1   0.124253041   1.08044   0.64452   0.81185   0.07708
  38   37932.9    263.6   0.046875354   0.40682  -0.31176  -0.53251  -0.16142
  39   38231.0    261.6   0.026459645   0.22785  -0.46881  -0.08270  -0.03503
  40   38406.2    260.4   0.068645263   0.58842   0.76472   0.00128   0.06014
  41   38691.7    258.5   0.115607301   0.98366  -0.47357   0.76180   0.42315
  42   38716.1    258.3   0.036635504   0.31152  -0.45354  -0.30655  -0.10888
  43   38905.0    257.0   0.100395928   0.84954   0.11468  -0.56486  -0.71926
  44   38955.0    256.7   0.050152142   0.42384   0.04165   0.62201   0.18764
  45   39412.3    253.7   0.007403893   0.06184  -0.15992   0.00346  -0.19042
  46   39881.7    250.7   0.298314640   2.46250  -1.16317   0.97704   0.39360
  47   40187.6    248.8   0.023492457   0.19245  -0.08670   0.06326   0.42536
  48   40215.4    248.7   0.250537733   2.05096  -1.21494   0.67935   0.33669

FINAL SINGLE POINT ENERGY     -3333.589115009252

DIPOLE MOMENT
-------------
                                X             Y             Z
Electronic contribution:      2.39157      -8.46501       1.39965
Nuclear contribution   :     -2.95688       9.23036      -3.79533
                        -----------------------------------------
Total Dipole Moment    :     -0.56530       0.76535      -2.39568
                        -----------------------------------------
Magnitude (a.u.)       :      2.57771
Magnitude (Debye)      :      6.55203

Rotational constants in cm-1:     0.002192     0.000517     0.000438
Rotational constants in MHz :    65.714950    15.510000    13.136355

                             ****ORCA TERMINATED NORMALLY****
TOTAL RUN TIME: 0 days 0 hours 13 minutes 40 seconds 79 msec
