                         Program Version 4.2.0 -  RELEASE  -
|  1> # ORCA input file
|  2> # SCF done       -222.046592665437          0.000756754649
|  3> ! CAM-B3LYP def2-SVP def2/J RIJCOSX Grid4 TightSCF
|  4> %maxcore 5000
|  5> %tddft
|  6>     Mode sTDDFT
|  7>     Ethresh 5.0
|  8>     maxcore 5000
|  9> end
| 10>
| 11> %pal
| 12>   nprocs 6
| 13>   end
| 14> * xyz 0 1
| 15>    C       -4.43869         0.35850         6.45119
| 16>    C       -4.93088        -0.38294         7.51398
| 17>    C       -5.48782        -1.63974         7.31509
| 18>    C       -5.57648        -2.18783         6.04528
| 19>    C       -5.09313        -1.45452         4.97265
| 20>    C       -4.51505        -0.17824         5.17437
| 21>    C       -4.05955         0.34650         3.89847
| 22>    C       -3.55501         1.58955         3.65777
| 23>    C       -3.42480         2.59155         4.64728
| 24>    N       -3.29735         3.44689         5.40044
| 25>    C       -3.10766         2.07009         2.40476
| 26>    N       -2.70916         2.53484         1.43446
| 27>    C       -4.23144        -0.73811         2.92112
| 28>    C       -5.08248        -1.75193         3.55355
| 29>    C       -5.84817        -2.68423         2.91507
| 30>    C       -6.02216        -2.75867         1.51854
| 31>    N       -6.24164        -2.83522         0.39425
| 32>    C       -6.64394        -3.64173         3.58473
| 33>    N       -7.29300        -4.45353         4.06888
| 34>    C       -3.55431        -0.82828         1.76214
| 35>    C       -3.44283        -1.96769         0.86717
| 36>    C       -3.72513        -1.80591        -0.48837
| 37>    C       -4.32129        -0.63135        -1.15817
| 38>    O       -4.64047         0.42784        -0.68802
| 39>    N       -4.48404        -1.00493        -2.49900
| 40>    C       -4.05697        -2.31354        -2.74137
| 41>    O       -4.06306        -2.87946        -3.80185
| 42>    C       -3.60129        -2.83086        -1.42317
| 43>    C       -3.16146        -4.09084        -1.06019
| 44>    C       -2.86598        -4.26907         0.28660
| 45>    C       -3.00022        -3.25077         1.23531
| 46>    C       -2.61879        -3.64989         2.60158
| 47>    O       -2.62348        -2.98121         3.59693
| 48>    S       -2.12470        -5.37159         2.60011
| 49>    C       -2.39211        -5.55780         0.82936
| 50>    O       -2.20095        -6.57409         0.23813
| 51>    C       -5.06811        -0.12567        -3.40136
| 52>    C       -5.26067        -0.36502        -4.70754
| 53>    C       -5.89684         0.55275        -5.59591
| 54>    N       -6.03592         0.24202        -6.92947
| 55>    C       -6.68971         1.26261        -7.54655
| 56>    C       -7.19573         1.70579        -8.75770
| 57>    C       -7.77720         2.96181        -8.50170
| 58>    N       -7.62500         3.27007        -7.16376
| 59>    C       -6.96983         2.25012        -6.56023
| 60>    C       -6.46957         1.80298        -5.34098
| 61>    C       -8.42234         3.78749        -9.44559
| 62>    C       -8.98154         4.99362        -9.15249
| 63>    C       -9.70091         5.85100       -10.03102
| 64>    C       -9.60267         5.87905       -11.44570
| 65>    C       -8.66873         5.20181       -12.36714
| 66>    O       -7.74565         4.45783       -12.16522
| 67>    N       -9.01710         5.63159       -13.67019
| 68>    C      -10.06749         6.55042       -13.65407
| 69>    O      -10.55223         7.09709       -14.60780
| 70>    C      -10.40707         6.71775       -12.22175
| 71>    C      -11.33420         7.59137       -11.68683
| 72>    C      -11.40339         7.62119       -10.30050
| 73>    C      -10.62113         6.80116        -9.49160
| 74>    C      -10.86631         7.00790        -8.05528
| 75>    O      -10.36493         6.46560        -7.11096
| 76>    S      -12.11633         8.28768        -7.82938
| 77>    C      -12.31897         8.53728        -9.58685
| 78>    O      -13.07696         9.32311       -10.06758
| 79>    C       -8.37942         5.10986       -14.77334
| 80>    C       -8.72689         5.35372       -16.05019
| 81>    C       -8.05073         4.74419       -17.14092
| 82>    C       -8.51988         4.69571       -18.41856
| 83>    C       -7.71585         4.41170       -19.60501
| 84>    C       -6.50944         3.76990       -19.64683
| 85>    C       -5.85108         3.21351       -18.52882
| 86>    N       -5.26753         2.73446       -17.66419
| 87>    C       -5.77763         3.53527       -20.83115
| 88>    N       -5.13578         3.31229       -21.75577
| 89>    C       -8.45357         4.94097       -20.74317
| 90>    C       -9.72506         5.37841       -20.30424
| 91>    C      -10.62148         5.94573       -21.19511
| 92>    C      -10.24489         6.07144       -22.52377
| 93>    C       -9.00143         5.63379       -22.95830
| 94>    C       -8.09478         5.06525       -22.07660
| 95>    C       -9.84754         5.08694       -18.88423
| 96>    C      -11.01840         4.97474       -18.18543
| 97>    C      -12.28005         5.32815       -18.71242
| 98>    N      -13.32715         5.60719       -19.08887
| 99>    C      -11.13833         4.37142       -16.91385
|100>    N      -11.30586         3.82920       -15.91628
|101>    H       -4.00031         1.32741         6.62525
|102>    H       -4.87339         0.02299         8.51227
|103>    H       -5.85514        -2.20080         8.16056
|104>    H       -5.99994        -3.16891         5.90495
|105>    H       -2.99449         0.03584         1.42648
|106>    H       -3.06344        -4.89916        -1.76699
|107>    H       -5.36631         0.79930        -2.92865
|108>    H       -4.93577        -1.30213        -5.13492
|109>    H       -5.70355        -0.60696        -7.35435
|110>    H       -7.16330         1.22675        -9.71527
|111>    H       -7.98032         4.09910        -6.71903
|112>    H       -6.51000         2.29540        -4.39159
|113>    H       -8.47167         3.38201       -10.44259
|114>    H       -8.96016         5.32512        -8.12616
|115>    H      -11.95131         8.22662       -12.30064
|116>    H       -7.58950         4.41521       -14.51319
|117>    H       -9.53486         6.03814       -16.25864
|118>    H       -7.06556         4.34918       -16.93529
|119>    H      -11.58723         6.29561       -20.86844
|120>    H      -10.93038         6.51744       -23.22793
|121>    H       -8.73127         5.73980       -23.99775
|122>    H       -7.13135         4.73612       -22.42976
|123> *
|124>
|125>                          ****END OF INPUT****

CARTESIAN COORDINATES (ANGSTROEM)
---------------------------------
  C     -4.438690    0.358500    6.451190
  C     -4.930880   -0.382940    7.513980
  C     -5.487820   -1.639740    7.315090
  C     -5.576480   -2.187830    6.045280
  C     -5.093130   -1.454520    4.972650
  C     -4.515050   -0.178240    5.174370
  C     -4.059550    0.346500    3.898470
  C     -3.555010    1.589550    3.657770
  C     -3.424800    2.591550    4.647280
  N     -3.297350    3.446890    5.400440
  C     -3.107660    2.070090    2.404760
  N     -2.709160    2.534840    1.434460
  C     -4.231440   -0.738110    2.921120
  C     -5.082480   -1.751930    3.553550
  C     -5.848170   -2.684230    2.915070
  C     -6.022160   -2.758670    1.518540
  N     -6.241640   -2.835220    0.394250
  C     -6.643940   -3.641730    3.584730
  N     -7.293000   -4.453530    4.068880
  C     -3.554310   -0.828280    1.762140
  C     -3.442830   -1.967690    0.867170
  C     -3.725130   -1.805910   -0.488370
  C     -4.321290   -0.631350   -1.158170
  O     -4.640470    0.427840   -0.688020
  N     -4.484040   -1.004930   -2.499000
  C     -4.056970   -2.313540   -2.741370
  O     -4.063060   -2.879460   -3.801850
  C     -3.601290   -2.830860   -1.423170
  C     -3.161460   -4.090840   -1.060190
  C     -2.865980   -4.269070    0.286600
  C     -3.000220   -3.250770    1.235310
  C     -2.618790   -3.649890    2.601580
  O     -2.623480   -2.981210    3.596930
  S     -2.124700   -5.371590    2.600110
  C     -2.392110   -5.557800    0.829360
  O     -2.200950   -6.574090    0.238130
  C     -5.068110   -0.125670   -3.401360
  C     -5.260670   -0.365020   -4.707540
  C     -5.896840    0.552750   -5.595910
  N     -6.035920    0.242020   -6.929470
  C     -6.689710    1.262610   -7.546550
  C     -7.195730    1.705790   -8.757700
  C     -7.777200    2.961810   -8.501700
  N     -7.625000    3.270070   -7.163760
  C     -6.969830    2.250120   -6.560230
  C     -6.469570    1.802980   -5.340980
  C     -8.422340    3.787490   -9.445590
  C     -8.981540    4.993620   -9.152490
  C     -9.700910    5.851000  -10.031020
  C     -9.602670    5.879050  -11.445700
  C     -8.668730    5.201810  -12.367140
  O     -7.745650    4.457830  -12.165220
  N     -9.017100    5.631590  -13.670190
  C    -10.067490    6.550420  -13.654070
  O    -10.552230    7.097090  -14.607800
  C    -10.407070    6.717750  -12.221750
  C    -11.334200    7.591370  -11.686830
  C    -11.403390    7.621190  -10.300500
  C    -10.621130    6.801160   -9.491600
  C    -10.866310    7.007900   -8.055280
  O    -10.364930    6.465600   -7.110960
  S    -12.116330    8.287680   -7.829380
  C    -12.318970    8.537280   -9.586850
  O    -13.076960    9.323110  -10.067580
  C     -8.379420    5.109860  -14.773340
  C     -8.726890    5.353720  -16.050190
  C     -8.050730    4.744190  -17.140920
  C     -8.519880    4.695710  -18.418560
  C     -7.715850    4.411700  -19.605010
  C     -6.509440    3.769900  -19.646830
  C     -5.851080    3.213510  -18.528820
  N     -5.267530    2.734460  -17.664190
  C     -5.777630    3.535270  -20.831150
  N     -5.135780    3.312290  -21.755770
  C     -8.453570    4.940970  -20.743170
  C     -9.725060    5.378410  -20.304240
  C    -10.621480    5.945730  -21.195110
  C    -10.244890    6.071440  -22.523770
  C     -9.001430    5.633790  -22.958300
  C     -8.094780    5.065250  -22.076600
  C     -9.847540    5.086940  -18.884230
  C    -11.018400    4.974740  -18.185430
  C    -12.280050    5.328150  -18.712420
  N    -13.327150    5.607190  -19.088870
  C    -11.138330    4.371420  -16.913850
  N    -11.305860    3.829200  -15.916280
  H     -4.000310    1.327410    6.625250
  H     -4.873390    0.022990    8.512270
  H     -5.855140   -2.200800    8.160560
  H     -5.999940   -3.168910    5.904950
  H     -2.994490    0.035840    1.426480
  H     -3.063440   -4.899160   -1.766990
  H     -5.366310    0.799300   -2.928650
  H     -4.935770   -1.302130   -5.134920
  H     -5.703550   -0.606960   -7.354350
  H     -7.163300    1.226750   -9.715270
  H     -7.980320    4.099100   -6.719030
  H     -6.510000    2.295400   -4.391590
  H     -8.471670    3.382010  -10.442590
  H     -8.960160    5.325120   -8.126160
  H    -11.951310    8.226620  -12.300640
  H     -7.589500    4.415210  -14.513190
  H     -9.534860    6.038140  -16.258640
  H     -7.065560    4.349180  -16.935290
  H    -11.587230    6.295610  -20.868440
  H    -10.930380    6.517440  -23.227930
  H     -8.731270    5.739800  -23.997750
  H     -7.131350    4.736120  -22.429760

 Total Charge           Charge          ....    0
 Multiplicity           Mult            ....    1
 Number of Electrons    NEL             ....  586
 Basis Dimension        Dim             .... 1322

ORBITAL ENERGIES
----------------

  NO   OCC          E(Eh)            E(eV)
   0   2.0000     -88.970307     -2421.0051
   1   2.0000     -88.950289     -2420.4604
   2   2.0000     -19.263941      -524.1985
   3   2.0000     -19.261698      -524.1374
   4   2.0000     -19.248893      -523.7890
   5   2.0000     -19.246845      -523.7333
   6   2.0000     -19.243859      -523.6520
   7   2.0000     -19.242352      -523.6110
   8   2.0000     -19.242309      -523.6098
   9   2.0000     -19.242270      -523.6088
  10   2.0000     -14.497227      -394.4896
  11   2.0000     -14.495741      -394.4492
  12   2.0000     -14.464241      -393.5920
  13   2.0000     -14.459978      -393.4760
  14   2.0000     -14.442757      -393.0074
  15   2.0000     -14.438365      -392.8879
  16   2.0000     -14.435088      -392.7987
  17   2.0000     -14.434644      -392.7866
  18   2.0000     -14.423576      -392.4854
  19   2.0000     -14.421292      -392.4233
  20   2.0000     -14.421099      -392.4181
  21   2.0000     -14.419996      -392.3880
  22   2.0000     -10.427550      -283.7481
  23   2.0000     -10.426948      -283.7317
  24   2.0000     -10.425859      -283.7020
  25   2.0000     -10.422560      -283.6123
  26   2.0000     -10.422514      -283.6110
  27   2.0000     -10.420107      -283.5455
  28   2.0000     -10.406749      -283.1820
  29   2.0000     -10.403175      -283.0848
  30   2.0000     -10.371967      -282.2356
  31   2.0000     -10.369131      -282.1584
  32   2.0000     -10.367667      -282.1186
  33   2.0000     -10.363769      -282.0125
  34   2.0000     -10.358366      -281.8655
  35   2.0000     -10.353454      -281.7318
  36   2.0000     -10.351813      -281.6871
  37   2.0000     -10.349534      -281.6251
  38   2.0000     -10.349336      -281.6197
  39   2.0000     -10.349029      -281.6114
  40   2.0000     -10.347638      -281.5735
  41   2.0000     -10.345589      -281.5178
  42   2.0000     -10.345335      -281.5109
  43   2.0000     -10.344389      -281.4851
  44   2.0000     -10.343638      -281.4647
  45   2.0000     -10.340601      -281.3821
  46   2.0000     -10.340122      -281.3690
  47   2.0000     -10.339788      -281.3599
  48   2.0000     -10.339679      -281.3570
  49   2.0000     -10.336015      -281.2573
  50   2.0000     -10.335762      -281.2504
  51   2.0000     -10.335525      -281.2439
  52   2.0000     -10.328680      -281.0577
  53   2.0000     -10.328225      -281.0453
  54   2.0000     -10.326785      -281.0061
  55   2.0000     -10.325653      -280.9753
  56   2.0000     -10.325591      -280.9736
  57   2.0000     -10.324758      -280.9510
  58   2.0000     -10.324125      -280.9337
  59   2.0000     -10.323551      -280.9181
  60   2.0000     -10.323122      -280.9064
  61   2.0000     -10.322687      -280.8946
  62   2.0000     -10.321137      -280.8524
  63   2.0000     -10.320816      -280.8437
  64   2.0000     -10.316987      -280.7395
  65   2.0000     -10.316604      -280.7291
  66   2.0000     -10.314935      -280.6837
  67   2.0000     -10.314478      -280.6712
  68   2.0000     -10.313939      -280.6565
  69   2.0000     -10.313698      -280.6500
  70   2.0000     -10.313636      -280.6483
  71   2.0000     -10.313445      -280.6431
  72   2.0000     -10.313059      -280.6326
  73   2.0000     -10.306068      -280.4424
  74   2.0000     -10.302015      -280.3321
  75   2.0000     -10.301962      -280.3306
  76   2.0000     -10.301616      -280.3212
  77   2.0000     -10.300716      -280.2967
  78   2.0000     -10.299905      -280.2747
  79   2.0000     -10.296800      -280.1902
  80   2.0000     -10.293930      -280.1121
  81   2.0000     -10.293806      -280.1087
  82   2.0000     -10.289586      -279.9939
  83   2.0000     -10.275563      -279.6123
  84   2.0000     -10.272954      -279.5413
  85   2.0000     -10.266595      -279.3683
  86   2.0000      -8.069409      -219.5798
  87   2.0000      -8.049504      -219.0381
  88   2.0000      -6.038269      -164.3096
  89   2.0000      -6.034988      -164.2204
  90   2.0000      -6.030476      -164.0976
  91   2.0000      -6.018385      -163.7686
  92   2.0000      -6.015106      -163.6793
  93   2.0000      -6.010556      -163.5555
  94   2.0000      -1.193728       -32.4830
  95   2.0000      -1.190484       -32.3947
  96   2.0000      -1.187719       -32.3195
  97   2.0000      -1.183242       -32.1977
  98   2.0000      -1.170348       -31.8468
  99   2.0000      -1.167742       -31.7759
 100   2.0000      -1.165998       -31.7284
 101   2.0000      -1.163561       -31.6621
 102   2.0000      -1.095122       -29.7998
 103   2.0000      -1.086936       -29.5770
 104   2.0000      -1.083442       -29.4820
 105   2.0000      -1.058595       -28.8058
 106   2.0000      -1.054382       -28.6912
 107   2.0000      -1.036868       -28.2146
 108   2.0000      -1.036666       -28.2091
 109   2.0000      -1.031364       -28.0648
 110   2.0000      -1.023854       -27.8605
 111   2.0000      -1.018778       -27.7224
 112   2.0000      -1.017791       -27.6955
 113   2.0000      -1.012549       -27.5529
 114   2.0000      -1.010065       -27.4853
 115   2.0000      -1.008001       -27.4291
 116   2.0000      -1.000634       -27.2286
 117   2.0000      -0.998955       -27.1829
 118   2.0000      -0.976967       -26.5846
 119   2.0000      -0.971298       -26.4304
 120   2.0000      -0.963222       -26.2106
 121   2.0000      -0.958393       -26.0792
 122   2.0000      -0.956636       -26.0314
 123   2.0000      -0.941329       -25.6149
 124   2.0000      -0.941065       -25.6077
 125   2.0000      -0.926940       -25.2233
 126   2.0000      -0.916640       -24.9430
 127   2.0000      -0.916021       -24.9262
 128   2.0000      -0.911775       -24.8107
 129   2.0000      -0.895817       -24.3764
 130   2.0000      -0.890240       -24.2247
 131   2.0000      -0.888106       -24.1666
 132   2.0000      -0.881746       -23.9935
 133   2.0000      -0.880788       -23.9675
 134   2.0000      -0.879102       -23.9216
 135   2.0000      -0.867224       -23.5984
 136   2.0000      -0.867212       -23.5980
 137   2.0000      -0.851618       -23.1737
 138   2.0000      -0.849065       -23.1042
 139   2.0000      -0.823005       -22.3951
 140   2.0000      -0.810722       -22.0609
 141   2.0000      -0.809371       -22.0241
 142   2.0000      -0.808337       -21.9960
 143   2.0000      -0.805314       -21.9137
 144   2.0000      -0.795641       -21.6505
 145   2.0000      -0.792203       -21.5569
 146   2.0000      -0.781428       -21.2637
 147   2.0000      -0.767212       -20.8769
 148   2.0000      -0.764683       -20.8081
 149   2.0000      -0.753520       -20.5043
 150   2.0000      -0.740784       -20.1578
 151   2.0000      -0.733577       -19.9616
 152   2.0000      -0.731717       -19.9110
 153   2.0000      -0.725062       -19.7300
 154   2.0000      -0.719378       -19.5753
 155   2.0000      -0.717514       -19.5246
 156   2.0000      -0.712532       -19.3890
 157   2.0000      -0.706899       -19.2357
 158   2.0000      -0.701260       -19.0823
 159   2.0000      -0.697341       -18.9756
 160   2.0000      -0.692623       -18.8472
 161   2.0000      -0.691821       -18.8254
 162   2.0000      -0.689762       -18.7694
 163   2.0000      -0.681989       -18.5579
 164   2.0000      -0.676580       -18.4107
 165   2.0000      -0.675168       -18.3723
 166   2.0000      -0.668211       -18.1829
 167   2.0000      -0.662860       -18.0373
 168   2.0000      -0.660884       -17.9836
 169   2.0000      -0.653882       -17.7930
 170   2.0000      -0.649584       -17.6761
 171   2.0000      -0.643758       -17.5176
 172   2.0000      -0.640908       -17.4400
 173   2.0000      -0.630175       -17.1479
 174   2.0000      -0.626938       -17.0598
 175   2.0000      -0.623932       -16.9780
 176   2.0000      -0.620522       -16.8853
 177   2.0000      -0.618157       -16.8209
 178   2.0000      -0.608469       -16.5573
 179   2.0000      -0.606935       -16.5155
 180   2.0000      -0.604870       -16.4593
 181   2.0000      -0.597001       -16.2452
 182   2.0000      -0.596451       -16.2303
 183   2.0000      -0.593859       -16.1597
 184   2.0000      -0.590030       -16.0555
 185   2.0000      -0.587855       -15.9963
 186   2.0000      -0.584465       -15.9041
 187   2.0000      -0.580615       -15.7993
 188   2.0000      -0.575885       -15.6706
 189   2.0000      -0.574659       -15.6373
 190   2.0000      -0.573817       -15.6144
 191   2.0000      -0.569600       -15.4996
 192   2.0000      -0.567792       -15.4504
 193   2.0000      -0.565041       -15.3756
 194   2.0000      -0.560080       -15.2406
 195   2.0000      -0.559411       -15.2223
 196   2.0000      -0.556329       -15.1385
 197   2.0000      -0.554294       -15.0831
 198   2.0000      -0.553725       -15.0676
 199   2.0000      -0.551663       -15.0115
 200   2.0000      -0.548953       -14.9378
 201   2.0000      -0.547235       -14.8910
 202   2.0000      -0.545607       -14.8467
 203   2.0000      -0.544461       -14.8155
 204   2.0000      -0.539906       -14.6916
 205   2.0000      -0.539323       -14.6757
 206   2.0000      -0.538767       -14.6606
 207   2.0000      -0.538701       -14.6588
 208   2.0000      -0.538128       -14.6432
 209   2.0000      -0.533669       -14.5219
 210   2.0000      -0.532588       -14.4924
 211   2.0000      -0.530556       -14.4372
 212   2.0000      -0.527762       -14.3611
 213   2.0000      -0.525692       -14.3048
 214   2.0000      -0.523562       -14.2468
 215   2.0000      -0.519511       -14.1366
 216   2.0000      -0.517085       -14.0706
 217   2.0000      -0.514916       -14.0116
 218   2.0000      -0.512416       -13.9436
 219   2.0000      -0.510598       -13.8941
 220   2.0000      -0.510001       -13.8778
 221   2.0000      -0.508810       -13.8454
 222   2.0000      -0.506375       -13.7792
 223   2.0000      -0.505573       -13.7573
 224   2.0000      -0.504127       -13.7180
 225   2.0000      -0.499716       -13.5980
 226   2.0000      -0.494347       -13.4519
 227   2.0000      -0.491415       -13.3721
 228   2.0000      -0.489694       -13.3252
 229   2.0000      -0.485354       -13.2071
 230   2.0000      -0.483224       -13.1492
 231   2.0000      -0.481042       -13.0898
 232   2.0000      -0.479891       -13.0585
 233   2.0000      -0.477532       -12.9943
 234   2.0000      -0.475246       -12.9321
 235   2.0000      -0.474165       -12.9027
 236   2.0000      -0.471484       -12.8297
 237   2.0000      -0.468641       -12.7524
 238   2.0000      -0.466259       -12.6875
 239   2.0000      -0.465550       -12.6683
 240   2.0000      -0.464442       -12.6381
 241   2.0000      -0.460961       -12.5434
 242   2.0000      -0.459904       -12.5146
 243   2.0000      -0.457872       -12.4593
 244   2.0000      -0.455644       -12.3987
 245   2.0000      -0.455266       -12.3884
 246   2.0000      -0.454419       -12.3654
 247   2.0000      -0.453002       -12.3268
 248   2.0000      -0.451891       -12.2966
 249   2.0000      -0.449097       -12.2206
 250   2.0000      -0.447913       -12.1883
 251   2.0000      -0.446979       -12.1629
 252   2.0000      -0.445003       -12.1092
 253   2.0000      -0.443635       -12.0719
 254   2.0000      -0.441682       -12.0188
 255   2.0000      -0.436151       -11.8683
 256   2.0000      -0.435568       -11.8524
 257   2.0000      -0.432710       -11.7746
 258   2.0000      -0.432228       -11.7615
 259   2.0000      -0.430508       -11.7147
 260   2.0000      -0.430176       -11.7057
 261   2.0000      -0.426240       -11.5986
 262   2.0000      -0.422261       -11.4903
 263   2.0000      -0.416160       -11.3243
 264   2.0000      -0.413120       -11.2416
 265   2.0000      -0.407408       -11.0861
 266   2.0000      -0.402221       -10.9450
 267   2.0000      -0.398535       -10.8447
 268   2.0000      -0.393398       -10.7049
 269   2.0000      -0.389837       -10.6080
 270   2.0000      -0.388737       -10.5781
 271   2.0000      -0.385938       -10.5019
 272   2.0000      -0.384000       -10.4492
 273   2.0000      -0.378992       -10.3129
 274   2.0000      -0.377859       -10.2821
 275   2.0000      -0.374434       -10.1889
 276   2.0000      -0.372417       -10.1340
 277   2.0000      -0.370507       -10.0820
 278   2.0000      -0.368933       -10.0392
 279   2.0000      -0.367618       -10.0034
 280   2.0000      -0.364835        -9.9277
 281   2.0000      -0.353340        -9.6149
 282   2.0000      -0.351435        -9.5630
 283   2.0000      -0.347845        -9.4654
 284   2.0000      -0.347105        -9.4452
 285   2.0000      -0.343948        -9.3593
 286   2.0000      -0.335536        -9.1304
 287   2.0000      -0.321633        -8.7521
 288   2.0000      -0.320979        -8.7343
 289   2.0000      -0.307027        -8.3546
 290   2.0000      -0.294387        -8.0107
 291   2.0000      -0.291516        -7.9325
 292   2.0000      -0.232134        -6.3167
 293   0.0000      -0.116431        -3.1683
 294   0.0000      -0.108886        -2.9629
 295   0.0000      -0.099549        -2.7089
 296   0.0000      -0.095352        -2.5947
 297   0.0000      -0.094671        -2.5761

MULLIKEN ATOMIC CHARGES
-----------------------
   0 C :   -0.032083
   1 C :    0.050605
   2 C :    0.050272
   3 C :   -0.024059
   4 C :    0.019536
   5 C :    0.021675
   6 C :    0.284201
   7 C :   -0.336246
   8 C :   -0.194324
   9 N :    0.174206
  10 C :   -0.183695
  11 N :    0.182144
  12 C :   -0.000450
  13 C :    0.262815
  14 C :   -0.354453
  15 C :   -0.161424
  16 N :    0.165161
  17 C :   -0.192164
  18 N :    0.179285
  19 C :   -0.013904
  20 C :   -0.075725
  21 C :    0.015113
  22 C :    0.199742
  23 O :   -0.133238
  24 N :   -0.229867
  25 C :    0.219258
  26 O :   -0.139258
  27 C :    0.041989
  28 C :   -0.060027
  29 C :    0.054481
  30 C :    0.074598
  31 C :    0.044213
  32 O :   -0.140118
  33 S :    0.030207
  34 C :    0.047083
  35 O :   -0.105724
  36 C :    0.070524
  37 C :    0.007270
  38 C :    0.098684
  39 N :   -0.031104
  40 C :    0.120004
  41 C :   -0.154779
  42 C :    0.051579
  43 N :   -0.030272
  44 C :    0.118746
  45 C :   -0.169237
  46 C :    0.097093
  47 C :   -0.107452
  48 C :    0.103254
  49 C :   -0.052022
  50 C :    0.195330
  51 O :   -0.145923
  52 N :   -0.229476
  53 C :    0.223986
  54 O :   -0.133948
  55 C :    0.011359
  56 C :   -0.087440
  57 C :    0.045451
  58 C :    0.034574
  59 C :    0.034093
  60 O :   -0.145825
  61 S :    0.012941
  62 C :    0.050959
  63 O :   -0.117212
  64 C :    0.108287
  65 C :   -0.021805
  66 C :    0.031248
  67 C :   -0.066133
  68 C :    0.297921
  69 C :   -0.338688
  70 C :   -0.187984
  71 N :    0.159433
  72 C :   -0.187959
  73 N :    0.157850
  74 C :    0.010890
  75 C :    0.011744
  76 C :   -0.033627
  77 C :    0.049578
  78 C :    0.046214
  79 C :   -0.031723
  80 C :    0.238871
  81 C :   -0.323635
  82 C :   -0.184081
  83 N :    0.163379
  84 C :   -0.195169
  85 N :    0.167712
  86 H :    0.009572
  87 H :    0.009994
  88 H :    0.009917
  89 H :    0.009440
  90 H :    0.053090
  91 H :    0.024692
  92 H :    0.032724
  93 H :    0.006366
  94 H :    0.125975
  95 H :   -0.024034
  96 H :    0.136829
  97 H :   -0.030512
  98 H :   -0.003622
  99 H :   -0.020681
 100 H :    0.017797
 101 H :    0.050627
 102 H :    0.065045
 103 H :    0.019375
 104 H :    0.007448
 105 H :    0.006252
 106 H :    0.004984
 107 H :    0.005419
Sum of atomic charges:   -0.0000000

LOEWDIN ATOMIC CHARGES
----------------------
   0 C :    0.008256
   1 C :    0.009759
   2 C :    0.010137
   3 C :    0.009254
   4 C :   -0.004876
   5 C :   -0.007050
   6 C :    0.078394
   7 C :   -0.113885
   8 C :   -0.018118
   9 N :   -0.033372
  10 C :   -0.023628
  11 N :   -0.025555
  12 C :   -0.012548
  13 C :    0.079915
  14 C :   -0.127639
  15 C :   -0.012282
  16 N :   -0.049899
  17 C :   -0.020520
  18 N :   -0.031171
  19 C :    0.056323
  20 C :    0.013743
  21 C :   -0.018239
  22 C :    0.101672
  23 O :   -0.121809
  24 N :   -0.004340
  25 C :    0.105181
  26 O :   -0.126685
  27 C :   -0.013781
  28 C :    0.053133
  29 C :   -0.047834
  30 C :   -0.056212
  31 C :   -0.046147
  32 O :   -0.122039
  33 S :    0.314679
  34 C :   -0.042237
  35 O :   -0.098537
  36 C :    0.028350
  37 C :   -0.048740
  38 C :    0.013357
  39 N :    0.073853
  40 C :   -0.029964
  41 C :   -0.059323
  42 C :   -0.015722
  43 N :    0.074578
  44 C :    0.000756
  45 C :   -0.100614
  46 C :    0.035522
  47 C :   -0.091852
  48 C :    0.045353
  49 C :   -0.057112
  50 C :    0.111202
  51 O :   -0.127813
  52 N :   -0.008883
  53 C :    0.107312
  54 O :   -0.121866
  55 C :   -0.022419
  56 C :    0.019507
  57 C :   -0.044375
  58 C :   -0.070457
  59 C :   -0.037193
  60 O :   -0.127648
  61 S :    0.301378
  62 C :   -0.048734
  63 O :   -0.110023
  64 C :    0.088977
  65 C :   -0.058356
  66 C :    0.068068
  67 C :   -0.059978
  68 C :    0.079828
  69 C :   -0.131842
  70 C :   -0.021364
  71 N :   -0.044980
  72 C :   -0.018964
  73 N :   -0.045447
  74 C :   -0.014049
  75 C :   -0.009515
  76 C :    0.002692
  77 C :    0.005429
  78 C :    0.001917
  79 C :    0.005678
  80 C :    0.071564
  81 C :   -0.125268
  82 C :   -0.018219
  83 N :   -0.041784
  84 C :   -0.017347
  85 N :   -0.048817
  86 H :    0.042924
  87 H :    0.040270
  88 H :    0.040216
  89 H :    0.042752
  90 H :    0.056633
  91 H :    0.054873
  92 H :    0.035346
  93 H :    0.033459
  94 H :    0.092215
  95 H :    0.030141
  96 H :    0.094439
  97 H :    0.025732
  98 H :    0.035340
  99 H :    0.019898
 100 H :    0.050247
 101 H :    0.043852
 102 H :    0.037582
 103 H :    0.046235
 104 H :    0.041533
 105 H :    0.038245
 106 H :    0.037921
 107 H :    0.041450

  Mayer bond orders larger than 0.100000
B(  0-C ,  1-C ) :   1.3771 B(  0-C ,  5-C ) :   1.3741 B(  0-C , 86-H ) :   0.9838
B(  1-C ,  2-C ) :   1.3664 B(  1-C , 87-H ) :   0.9864 B(  2-C ,  3-C ) :   1.3751
B(  2-C , 88-H ) :   0.9863 B(  3-C ,  4-C ) :   1.3753 B(  3-C , 89-H ) :   0.9847
B(  4-C ,  5-C ) :   1.2989 B(  4-C , 13-C ) :   1.0276 B(  5-C ,  6-C ) :   1.0134
B(  6-C ,  7-C ) :   1.6809 B(  6-C , 12-C ) :   1.0113 B(  7-C ,  8-C ) :   1.1439
B(  7-C , 10-C ) :   1.1328 B(  8-C ,  9-N ) :   2.9861 B( 10-C , 11-N ) :   2.9818
B( 12-C , 13-C ) :   0.9677 B( 12-C , 19-C ) :   1.8047 B( 13-C , 14-C ) :   1.6655
B( 14-C , 15-C ) :   1.1667 B( 14-C , 17-C ) :   1.1317 B( 15-C , 16-N ) :   2.9798
B( 17-C , 18-N ) :   2.9993 B( 19-C , 20-C ) :   1.0102 B( 19-C , 90-H ) :   0.9057
B( 20-C , 21-C ) :   1.4220 B( 20-C , 30-C ) :   1.3737 B( 21-C , 22-C ) :   0.8872
B( 21-C , 27-C ) :   1.3950 B( 22-C , 23-O ) :   2.1796 B( 22-C , 24-N ) :   1.0464
B( 24-N , 25-C ) :   1.0342 B( 24-N , 36-C ) :   1.0106 B( 25-C , 26-O ) :   2.2030
B( 25-C , 27-C ) :   0.8736 B( 27-C , 28-C ) :   1.3247 B( 28-C , 29-C ) :   1.3368
B( 28-C , 91-H ) :   1.0253 B( 29-C , 30-C ) :   1.3328 B( 29-C , 34-C ) :   0.8371
B( 30-C , 31-C ) :   0.8541 B( 31-C , 32-O ) :   2.1468 B( 31-C , 33-S ) :   1.0461
B( 32-O , 33-S ) :   0.1089 B( 33-S , 34-C ) :   1.0157 B( 33-S , 35-O ) :   0.1053
B( 34-C , 35-O ) :   2.2349 B( 36-C , 37-C ) :   1.7246 B( 36-C , 92-H ) :   0.9718
B( 37-C , 38-C ) :   1.0823 B( 37-C , 93-H ) :   0.9527 B( 38-C , 39-N ) :   1.1982
B( 38-C , 45-C ) :   1.4158 B( 39-N , 40-C ) :   1.1515 B( 39-N , 94-H ) :   0.9351
B( 40-C , 41-C ) :   1.2688 B( 40-C , 44-C ) :   1.2946 B( 41-C , 42-C ) :   1.3183
B( 41-C , 95-H ) :   1.0439 B( 42-C , 43-N ) :   1.1771 B( 42-C , 46-C ) :   1.2303
B( 43-N , 44-C ) :   1.1938 B( 43-N , 96-H ) :   0.9288 B( 44-C , 45-C ) :   1.2589
B( 45-C , 97-H ) :   1.0298 B( 46-C , 47-C ) :   1.5245 B( 46-C , 98-H ) :   0.9443
B( 47-C , 48-C ) :   1.2256 B( 47-C , 99-H ) :   0.9414 B( 48-C , 49-C ) :   1.2714
B( 48-C , 58-C ) :   1.2939 B( 49-C , 50-C ) :   0.9233 B( 49-C , 55-C ) :   1.3946
B( 50-C , 51-O ) :   2.1587 B( 50-C , 52-N ) :   0.9985 B( 52-N , 53-C ) :   1.0121
B( 52-N , 64-C ) :   1.0655 B( 53-C , 54-O ) :   2.2019 B( 53-C , 55-C ) :   0.8851
B( 55-C , 56-C ) :   1.3357 B( 56-C , 57-C ) :   1.3293 B( 56-C ,100-H ) :   1.0283
B( 57-C , 58-C ) :   1.3565 B( 57-C , 62-C ) :   0.8380 B( 58-C , 59-C ) :   0.8779
B( 59-C , 60-O ) :   2.1232 B( 59-C , 61-S ) :   1.0292 B( 61-S , 62-C ) :   1.0279
B( 61-S , 63-O ) :   0.1089 B( 62-C , 63-O ) :   2.2235 B( 64-C , 65-C ) :   1.6605
B( 64-C ,101-H ) :   0.9741 B( 65-C , 66-C ) :   1.1320 B( 65-C ,102-H ) :   0.9369
B( 66-C , 67-C ) :   1.6104 B( 66-C ,103-H ) :   0.9481 B( 67-C , 68-C ) :   1.0381
B( 67-C , 80-C ) :   1.0180 B( 68-C , 69-C ) :   1.6498 B( 68-C , 74-C ) :   1.0039
B( 69-C , 70-C ) :   1.1337 B( 69-C , 72-C ) :   1.1441 B( 70-C , 71-N ) :   2.9847
B( 72-C , 73-N ) :   2.9789 B( 74-C , 75-C ) :   1.3096 B( 74-C , 79-C ) :   1.3824
B( 75-C , 76-C ) :   1.3827 B( 75-C , 80-C ) :   1.0130 B( 76-C , 77-C ) :   1.3679
B( 76-C ,104-H ) :   0.9859 B( 77-C , 78-C ) :   1.3756 B( 77-C ,105-H ) :   0.9859
B( 78-C , 79-C ) :   1.3723 B( 78-C ,106-H ) :   0.9863 B( 79-C ,107-H ) :   0.9837
B( 80-C , 81-C ) :   1.6511 B( 81-C , 82-C ) :   1.1394 B( 81-C , 84-C ) :   1.1543
B( 82-C , 83-N ) :   2.9939 B( 84-C , 85-N ) :   2.9994

-----------------------------------------------------------------------------
         ABSORPTION SPECTRUM VIA TRANSITION ELECTRIC DIPOLE MOMENTS
-----------------------------------------------------------------------------
State   Energy  Wavelength   fosc         T2         TX        TY        TZ
        (cm-1)    (nm)                  (au**2)     (au)      (au)      (au)
-----------------------------------------------------------------------------
   0   13277.9    753.1   0.018189677   0.45099  -0.25470   0.44208  -0.43668
   1   13874.7    720.7   0.047702878   1.13187   0.17165  -0.06244  -1.04810
   2   14930.9    669.8   0.327867847   7.22916  -0.97774   1.27901  -2.15345
   3   18037.4    554.4   0.818276547  14.93490  -1.57455   2.13657  -2.80905
   4   18856.0    530.3   0.001152129   0.02012  -0.01394  -0.06104   0.12726
   5   21591.1    463.2   0.695454204  10.60398  -1.59601   2.21883  -1.77017
   6   22490.7    444.6   0.008007064   0.11720   0.33673  -0.06098   0.00995
   7   25019.8    399.7   0.022615253   0.29757   0.51750  -0.01694   0.17168
   8   25279.3    395.6   0.291170630   3.79191   0.17371   0.79176   1.77055
   9   25593.4    390.7   0.046042851   0.59226  -0.39695  -0.00310  -0.65930
  10   25958.3    385.2   0.329293572   4.17621   1.49165  -0.76104  -1.17133
  11   26250.6    380.9   0.028381444   0.35593   0.22536   0.08084   0.54645
  12   27051.9    369.7   0.008687700   0.10573  -0.25521   0.20012  -0.02338
  13   27631.8    361.9   0.000661264   0.00788   0.01091   0.01854   0.08611
  14   28260.1    353.9   0.000881112   0.01026   0.00122  -0.01372  -0.10037
  15   28494.5    350.9   0.027525111   0.31801  -0.06297  -0.25180  -0.50064
  16   28696.7    348.5   0.009874004   0.11328   0.00417   0.21750   0.25681
  17   28820.1    347.0   0.032973240   0.37665  -0.16935   0.20716   0.55232
  18   28965.2    345.2   0.003057791   0.03475  -0.16868   0.07857  -0.01136
  19   29730.9    336.4   0.005404437   0.05984   0.17702   0.15181  -0.07390
  20   29831.3    335.2   0.290854874   3.20982  -0.05648   0.14492   1.78483
  21   29986.4    333.5   0.243568529   2.67407   0.76590   1.43879  -0.13166
  22   30054.2    332.7   0.017031718   0.18656   0.37907  -0.18945   0.08357
  23   30237.0    330.7   0.017859272   0.19445   0.12852  -0.07708   0.41472
  24   30626.8    326.5   0.012200500   0.13115  -0.01344  -0.07465  -0.35411
  25   30773.5    325.0   0.109325072   1.16955   0.10735   0.78227   0.73898
  26   31497.2    317.5   0.131292992   1.37229  -0.03567   1.06648   0.48336
  27   31946.2    313.0   0.420912407   4.33759   1.77452  -0.49264  -0.97261
  28   32306.5    309.5   0.117598172   1.19836   0.61302   0.90370   0.07676
  29   32726.3    305.6   0.027515603   0.27679  -0.39609  -0.34546  -0.02385
  30   32824.7    304.6   0.002671325   0.02679   0.09131   0.12706   0.04805
  31   32868.9    304.2   0.051911635   0.51994   0.40726   0.56180   0.19613
  32   33060.9    302.5   0.019171210   0.19090  -0.08970  -0.36622  -0.22077
  33   33167.7    301.5   0.021186074   0.21029   0.15046  -0.28262   0.32829
  34   33464.1    298.8   0.000994442   0.00978  -0.00761   0.00193  -0.09860
  35   33524.5    298.3   0.308805258   3.03248   0.19553   1.64619   0.53322
  36   33647.5    297.2   0.001305083   0.01277  -0.03034   0.10872  -0.00538
  37   34115.5    293.1   0.133916806   1.29228   0.83800  -0.05812   0.76594
  38   34225.9    292.2   0.001198834   0.01153  -0.00568  -0.08808  -0.06117
  39   34399.2    290.7   0.018686528   0.17884   0.35783  -0.13164   0.18294
  40   34449.3    290.3   0.065639818   0.62728  -0.51872   0.59556  -0.05928
  41   34578.0    289.2   0.249806593   2.37837   1.51118  -0.17782  -0.25121
  42   34923.9    286.3   0.063280925   0.59652  -0.17949   0.01663  -0.75102
  43   34963.4    286.0   0.001124246   0.01059  -0.03666  -0.04338   0.08579
  44   35084.2    285.0   0.625875166   5.87290   0.56342  -1.06419   2.10308
  45   35168.2    284.3   0.113449978   1.06201  -0.45870  -0.17494   0.90609
  46   35222.9    283.9   0.109982122   1.02795   0.14848  -0.30920   0.95409
  47   35469.0    281.9   0.324809927   3.01479  -0.33839  -0.18812   1.69260
  48   35899.4    278.6   0.112292102   1.02976   0.47282  -0.45299  -0.77525
  49   35991.2    277.8   0.008294807   0.07587  -0.19732   0.18252   0.06021
  50   36048.4    277.4   0.020792071   0.18988  -0.37040   0.00778   0.22941
  51   36707.4    272.4   0.000273243   0.00245   0.03669   0.00442  -0.03294
  52   36988.2    270.4   0.022347379   0.19890   0.12276  -0.12947  -0.40874
  53   37005.0    270.2   0.070110390   0.62373  -0.22941   0.21369   0.72487
  54   37371.0    267.6   0.055825051   0.49178  -0.36044   0.09164   0.59453
  55   37804.8    264.5   0.056139066   0.48887   0.04744   0.05655   0.69529
  56   37909.3    263.8   0.173089175   1.50314   0.03228  -0.20251   1.20875
  57   38091.8    262.5   0.134653313   1.16375   0.16656  -0.08712  -1.06227
  58   38365.5    260.7   0.000252101   0.00216  -0.03291   0.02740   0.01816
  59   38815.3    257.6   0.001263372   0.01072   0.00863  -0.01836   0.10151
  60   38847.2    257.4   0.005393847   0.04571  -0.07884   0.01468  -0.19819
  61   39254.6    254.7   0.021122653   0.17715   0.00091  -0.00140  -0.42089
  62   39575.0    252.7   0.020980480   0.17453   0.02782   0.01327  -0.41663
  63   39740.9    251.6   0.014876053   0.12323   0.03663   0.08229  -0.33929
  64   39962.9    250.2   0.010872074   0.08956  -0.00880  -0.05165   0.29465
  65   40088.1    249.5   0.014728716   0.12096  -0.05236   0.11314   0.32468
  66   40137.3    249.1   0.050717455   0.41599   0.15008  -0.06020  -0.62437
  67   40230.8    248.6   0.015771277   0.12906  -0.16873   0.27484   0.15828

FINAL SINGLE POINT ENERGY     -4502.292896583202

DIPOLE MOMENT
-------------
                                X             Y             Z
Electronic contribution:      5.30053      -8.92482      27.02232
Nuclear contribution   :     -4.02575       8.23042     -24.62940
                        -----------------------------------------
Total Dipole Moment    :      1.27478      -0.69439       2.39292
                        -----------------------------------------
Magnitude (a.u.)       :      2.79880
Magnitude (Debye)      :      7.11400

Rotational constants in cm-1:     0.001273     0.000152     0.000141
Rotational constants in MHz :    38.160015     4.564096     4.218634

                             ****ORCA TERMINATED NORMALLY****
TOTAL RUN TIME: 0 days 0 hours 13 minutes 21 seconds 97 msec
