                         Program Version 4.2.0 -  RELEASE  -
|  1> # ORCA input file
|  2> # SCF done       -229.465801018530          0.000775675343
|  3> ! CAM-B3LYP def2-SVP def2/J RIJCOSX Grid4 TightSCF
|  4> %maxcore 5000
|  5> %tddft
|  6>     Mode sTDDFT
|  7>     Ethresh 5.0
|  8>     maxcore 5000
|  9> end
| 10>
| 11> %pal
| 12>   nprocs 6
| 13>   end
| 14> * xyz 0 1
| 15>    C        0.31709        -0.19030         1.74103
| 16>    C       -0.07583        -1.23258         2.53194
| 17>    C        0.46178        -1.48880         3.81246
| 18>    N        0.91180        -1.76182         4.83145
| 19>    C       -1.06629        -2.16804         2.16510
| 20>    N       -1.88077        -2.93872         1.92165
| 21>    C        1.18777         0.91003         2.12935
| 22>    C        1.09458         1.93634         1.16924
| 23>    C        1.82714         3.10115         1.28292
| 24>    C        2.66432         3.25594         2.38313
| 25>    C        2.74171         2.24570         3.35139
| 26>    C        2.01441         1.06945         3.23246
| 27>   Cl        3.74230         2.46653         4.72489
| 28>   Cl        3.59627         4.68172         2.56016
| 29>    C        0.16014         1.53679         0.09378
| 30>    O       -0.22160         2.18047        -0.84593
| 31>    C       -0.14736         0.09762         0.38821
| 32>    C       -0.53905        -0.72268        -0.60402
| 33>    C       -0.47412        -2.17365        -0.60105
| 34>    C        0.65755        -2.86406        -0.16081
| 35>    C        1.94814        -2.32804         0.33322
| 36>    O        2.35751        -1.19421         0.29448
| 37>    N        2.64366        -3.42394         0.83354
| 38>    C        2.00869        -4.63869         0.53404
| 39>    O        2.44969        -5.72370         0.78280
| 40>    C        0.71731        -4.25789        -0.10306
| 41>    C       -0.33168        -5.05353        -0.52511
| 42>    C       -1.45045        -4.37980        -1.00515
| 43>    C       -1.52770        -2.99067        -1.03931
| 44>    C       -2.82671        -2.45806        -1.49837
| 45>    O       -3.15085        -1.31186        -1.57724
| 46>    S       -3.89348        -3.83057        -1.93359
| 47>    C       -2.67028        -5.07000        -1.48652
| 48>    O       -2.84993        -6.24306        -1.58159
| 49>    C        3.83435        -3.33979         1.56558
| 50>    C        4.10696        -2.23965         2.27819
| 51>    C        5.25395        -1.90705         3.06158
| 52>    S        5.08331        -0.47933         4.03099
| 53>    C        6.70160        -0.62436         4.61648
| 54>    C        7.33998        -1.70997         4.06627
| 55>    C        6.51840        -2.44410         3.18127
| 56>    C        6.98326        -3.68410         2.48522
| 57>    C        8.51140        -3.83555         2.54820
| 58>    C        8.87537        -5.18038         2.15771
| 59>    N        9.13742        -6.25048         1.85825
| 60>    C        9.01748        -3.52766         3.97269
| 61>    C       10.42647        -3.82569         4.09425
| 62>    N       11.54821        -4.01958         4.18612
| 63>    C        8.78348        -2.04128         4.27033
| 64>    C        7.16526         0.32570         5.61002
| 65>    C        7.55689        -0.07021         6.89249
| 66>    C        7.60436        -1.42638         7.48618
| 67>    O        7.36116        -2.49320         6.98905
| 68>    N        8.01022        -1.24719         8.81894
| 69>    C        8.22232         0.10550         9.13406
| 70>    O        8.57003         0.54100        10.19252
| 71>    C        7.90851         0.84798         7.88293
| 72>    C        7.88891         2.21295         7.66408
| 73>    C        7.50951         2.61967         6.38972
| 74>    C        7.16401         1.71519         5.38813
| 75>    C        6.86734         2.34583         4.08377
| 76>    O        6.64648         1.81155         3.03898
| 77>    S        6.95546         4.13193         4.26480
| 78>    C        7.43605         4.04410         5.98993
| 79>    O        7.65496         4.99840         6.66855
| 80>    C        8.14867        -2.33749         9.65849
| 81>    C        8.59352        -2.31737        10.92795
| 82>    C        8.67192        -3.53750        11.65890
| 83>    C        9.13456        -3.66076        12.93110
| 84>    C        9.22455        -4.88751        13.71215
| 85>    C        8.78464        -6.13043        13.34765
| 86>    C        8.89379        -7.28046        14.16149
| 87>    N        8.95151        -8.25001        14.77201
| 88>    C        8.15048        -6.45511        12.12818
| 89>    N        7.62471        -6.80262        11.16871
| 90>    C        9.85412        -4.55070        14.98532
| 91>    C       10.11663        -3.16968        15.01872
| 92>    C        9.67521        -2.54363        13.75537
| 93>    O        9.75106        -1.37309        13.46375
| 94>    C       10.70981        -2.56624        16.10939
| 95>    C       11.05342        -3.35934        17.19654
| 96>    C       10.79853        -4.73719        17.17185
| 97>    C       10.19950        -5.33992        16.07196
| 98>   Cl       11.23120        -5.70716        18.51956
| 99>   Cl       11.79328        -2.64951        18.57147
|100>    H        1.74971         3.87443         0.53488
|101>    H        2.11064         0.31174         3.99348
|102>    H       -0.88194        -0.25135        -1.51914
|103>    H       -0.29974        -6.13032        -0.47670
|104>    H        4.42752        -4.23938         1.53322
|105>    H        3.37255        -1.44571         2.27070
|106>    H        6.66108        -3.66908         1.44087
|107>    H        6.51703        -4.55323         2.96295
|108>    H        8.98692        -3.13829         1.84648
|109>    H        8.46769        -4.13660         4.70066
|110>    H        9.39254        -1.43336         3.59070
|111>    H        9.10094        -1.80952         5.28710
|112>    H        8.14551         2.92561         8.43151
|113>    H        7.85573        -3.26252         9.17311
|114>    H        8.89353        -1.40088        11.41253
|115>    H        8.33516        -4.42354        11.13599
|116>    H       10.90044        -1.50455        16.11233
|117>    H       10.02117        -6.40245        16.09024
|118> *
|119>
|120>                          ****END OF INPUT****

CARTESIAN COORDINATES (ANGSTROEM)
---------------------------------
  C      0.317090   -0.190300    1.741030
  C     -0.075830   -1.232580    2.531940
  C      0.461780   -1.488800    3.812460
  N      0.911800   -1.761820    4.831450
  C     -1.066290   -2.168040    2.165100
  N     -1.880770   -2.938720    1.921650
  C      1.187770    0.910030    2.129350
  C      1.094580    1.936340    1.169240
  C      1.827140    3.101150    1.282920
  C      2.664320    3.255940    2.383130
  C      2.741710    2.245700    3.351390
  C      2.014410    1.069450    3.232460
  Cl     3.742300    2.466530    4.724890
  Cl     3.596270    4.681720    2.560160
  C      0.160140    1.536790    0.093780
  O     -0.221600    2.180470   -0.845930
  C     -0.147360    0.097620    0.388210
  C     -0.539050   -0.722680   -0.604020
  C     -0.474120   -2.173650   -0.601050
  C      0.657550   -2.864060   -0.160810
  C      1.948140   -2.328040    0.333220
  O      2.357510   -1.194210    0.294480
  N      2.643660   -3.423940    0.833540
  C      2.008690   -4.638690    0.534040
  O      2.449690   -5.723700    0.782800
  C      0.717310   -4.257890   -0.103060
  C     -0.331680   -5.053530   -0.525110
  C     -1.450450   -4.379800   -1.005150
  C     -1.527700   -2.990670   -1.039310
  C     -2.826710   -2.458060   -1.498370
  O     -3.150850   -1.311860   -1.577240
  S     -3.893480   -3.830570   -1.933590
  C     -2.670280   -5.070000   -1.486520
  O     -2.849930   -6.243060   -1.581590
  C      3.834350   -3.339790    1.565580
  C      4.106960   -2.239650    2.278190
  C      5.253950   -1.907050    3.061580
  S      5.083310   -0.479330    4.030990
  C      6.701600   -0.624360    4.616480
  C      7.339980   -1.709970    4.066270
  C      6.518400   -2.444100    3.181270
  C      6.983260   -3.684100    2.485220
  C      8.511400   -3.835550    2.548200
  C      8.875370   -5.180380    2.157710
  N      9.137420   -6.250480    1.858250
  C      9.017480   -3.527660    3.972690
  C     10.426470   -3.825690    4.094250
  N     11.548210   -4.019580    4.186120
  C      8.783480   -2.041280    4.270330
  C      7.165260    0.325700    5.610020
  C      7.556890   -0.070210    6.892490
  C      7.604360   -1.426380    7.486180
  O      7.361160   -2.493200    6.989050
  N      8.010220   -1.247190    8.818940
  C      8.222320    0.105500    9.134060
  O      8.570030    0.541000   10.192520
  C      7.908510    0.847980    7.882930
  C      7.888910    2.212950    7.664080
  C      7.509510    2.619670    6.389720
  C      7.164010    1.715190    5.388130
  C      6.867340    2.345830    4.083770
  O      6.646480    1.811550    3.038980
  S      6.955460    4.131930    4.264800
  C      7.436050    4.044100    5.989930
  O      7.654960    4.998400    6.668550
  C      8.148670   -2.337490    9.658490
  C      8.593520   -2.317370   10.927950
  C      8.671920   -3.537500   11.658900
  C      9.134560   -3.660760   12.931100
  C      9.224550   -4.887510   13.712150
  C      8.784640   -6.130430   13.347650
  C      8.893790   -7.280460   14.161490
  N      8.951510   -8.250010   14.772010
  C      8.150480   -6.455110   12.128180
  N      7.624710   -6.802620   11.168710
  C      9.854120   -4.550700   14.985320
  C     10.116630   -3.169680   15.018720
  C      9.675210   -2.543630   13.755370
  O      9.751060   -1.373090   13.463750
  C     10.709810   -2.566240   16.109390
  C     11.053420   -3.359340   17.196540
  C     10.798530   -4.737190   17.171850
  C     10.199500   -5.339920   16.071960
  Cl    11.231200   -5.707160   18.519560
  Cl    11.793280   -2.649510   18.571470
  H      1.749710    3.874430    0.534880
  H      2.110640    0.311740    3.993480
  H     -0.881940   -0.251350   -1.519140
  H     -0.299740   -6.130320   -0.476700
  H      4.427520   -4.239380    1.533220
  H      3.372550   -1.445710    2.270700
  H      6.661080   -3.669080    1.440870
  H      6.517030   -4.553230    2.962950
  H      8.986920   -3.138290    1.846480
  H      8.467690   -4.136600    4.700660
  H      9.392540   -1.433360    3.590700
  H      9.100940   -1.809520    5.287100
  H      8.145510    2.925610    8.431510
  H      7.855730   -3.262520    9.173110
  H      8.893530   -1.400880   11.412530
  H      8.335160   -4.423540   11.135990
  H     10.900440   -1.504550   16.112330
  H     10.021170   -6.402450   16.090240

 Total Charge           Charge          ....    0
 Multiplicity           Mult            ....    1
 Number of Electrons    NEL             ....  630
 Basis Dimension        Dim             .... 1308

ORBITAL ENERGIES
----------------

  NO   OCC          E(Eh)            E(eV)
   0   2.0000    -101.628457     -2765.4509
   1   2.0000    -101.620503     -2765.2345
   2   2.0000    -101.605069     -2764.8145
   3   2.0000    -101.603373     -2764.7683
   4   2.0000     -88.979260     -2421.2488
   5   2.0000     -88.969249     -2420.9764
   6   2.0000     -88.965161     -2420.8651
   7   2.0000     -19.263760      -524.1935
   8   2.0000     -19.262281      -524.1533
   9   2.0000     -19.260779      -524.1124
  10   2.0000     -19.260461      -524.1038
  11   2.0000     -19.260343      -524.1006
  12   2.0000     -19.257892      -524.0339
  13   2.0000     -19.253952      -523.9267
  14   2.0000     -19.253803      -523.9226
  15   2.0000     -19.243989      -523.6556
  16   2.0000     -19.229166      -523.2522
  17   2.0000     -14.514534      -394.9606
  18   2.0000     -14.504559      -394.6891
  19   2.0000     -14.444649      -393.0589
  20   2.0000     -14.443975      -393.0405
  21   2.0000     -14.426786      -392.5728
  22   2.0000     -14.423595      -392.4860
  23   2.0000     -14.415351      -392.2616
  24   2.0000     -14.414543      -392.2397
  25   2.0000     -10.443010      -284.1688
  26   2.0000     -10.439871      -284.0833
  27   2.0000     -10.436696      -283.9969
  28   2.0000     -10.433138      -283.9001
  29   2.0000     -10.424956      -283.6775
  30   2.0000     -10.423724      -283.6440
  31   2.0000     -10.420883      -283.5667
  32   2.0000     -10.418914      -283.5131
  33   2.0000     -10.395203      -282.8679
  34   2.0000     -10.379921      -282.4520
  35   2.0000     -10.379846      -282.4500
  36   2.0000     -10.378724      -282.4195
  37   2.0000     -10.375111      -282.3211
  38   2.0000     -10.373345      -282.2731
  39   2.0000     -10.364356      -282.0285
  40   2.0000     -10.361913      -281.9620
  41   2.0000     -10.361461      -281.9497
  42   2.0000     -10.358777      -281.8766
  43   2.0000     -10.358136      -281.8592
  44   2.0000     -10.354773      -281.7677
  45   2.0000     -10.352530      -281.7067
  46   2.0000     -10.350313      -281.6463
  47   2.0000     -10.349916      -281.6355
  48   2.0000     -10.349624      -281.6276
  49   2.0000     -10.349195      -281.6159
  50   2.0000     -10.347053      -281.5576
  51   2.0000     -10.346296      -281.5370
  52   2.0000     -10.345969      -281.5281
  53   2.0000     -10.345775      -281.5228
  54   2.0000     -10.345395      -281.5125
  55   2.0000     -10.345284      -281.5095
  56   2.0000     -10.345182      -281.5067
  57   2.0000     -10.344990      -281.5015
  58   2.0000     -10.344053      -281.4760
  59   2.0000     -10.343609      -281.4639
  60   2.0000     -10.342742      -281.4403
  61   2.0000     -10.341737      -281.4130
  62   2.0000     -10.340240      -281.3722
  63   2.0000     -10.333227      -281.1814
  64   2.0000     -10.330757      -281.1142
  65   2.0000     -10.330258      -281.1006
  66   2.0000     -10.328886      -281.0633
  67   2.0000     -10.328512      -281.0531
  68   2.0000     -10.327325      -281.0208
  69   2.0000     -10.327027      -281.0127
  70   2.0000     -10.325868      -280.9812
  71   2.0000     -10.325687      -280.9762
  72   2.0000     -10.322244      -280.8826
  73   2.0000     -10.315208      -280.6911
  74   2.0000     -10.315169      -280.6900
  75   2.0000     -10.314936      -280.6837
  76   2.0000     -10.314500      -280.6718
  77   2.0000     -10.313366      -280.6410
  78   2.0000     -10.312552      -280.6188
  79   2.0000     -10.312025      -280.6045
  80   2.0000     -10.311595      -280.5928
  81   2.0000     -10.308629      -280.5121
  82   2.0000     -10.307619      -280.4846
  83   2.0000     -10.306184      -280.4455
  84   2.0000     -10.298446      -280.2350
  85   2.0000      -9.582957      -260.7655
  86   2.0000      -9.575483      -260.5621
  87   2.0000      -9.560161      -260.1452
  88   2.0000      -9.558459      -260.0989
  89   2.0000      -8.074645      -219.7223
  90   2.0000      -8.068307      -219.5498
  91   2.0000      -8.064336      -219.4417
  92   2.0000      -7.353214      -200.0911
  93   2.0000      -7.345875      -199.8914
  94   2.0000      -7.343371      -199.8233
  95   2.0000      -7.342504      -199.7997
  96   2.0000      -7.335761      -199.6162
  97   2.0000      -7.334945      -199.5940
  98   2.0000      -7.330545      -199.4743
  99   2.0000      -7.328877      -199.4289
 100   2.0000      -7.320424      -199.1989
 101   2.0000      -7.319663      -199.1782
 102   2.0000      -7.318693      -199.1518
 103   2.0000      -7.317958      -199.1318
 104   2.0000      -6.043886      -164.4625
 105   2.0000      -6.039765      -164.3504
 106   2.0000      -6.037143      -164.2790
 107   2.0000      -6.036732      -164.2678
 108   2.0000      -6.033929      -164.1915
 109   2.0000      -6.033212      -164.1720
 110   2.0000      -6.029910      -164.0822
 111   2.0000      -6.029361      -164.0672
 112   2.0000      -6.025377      -163.9588
 113   2.0000      -1.209669       -32.9168
 114   2.0000      -1.202729       -32.7279
 115   2.0000      -1.187216       -32.3058
 116   2.0000      -1.186152       -32.2768
 117   2.0000      -1.184312       -32.2268
 118   2.0000      -1.183080       -32.1932
 119   2.0000      -1.179812       -32.1043
 120   2.0000      -1.178835       -32.0777
 121   2.0000      -1.161351       -31.6020
 122   2.0000      -1.145113       -31.1601
 123   2.0000      -1.102780       -30.0082
 124   2.0000      -1.095377       -29.8067
 125   2.0000      -1.056084       -28.7375
 126   2.0000      -1.044835       -28.4314
 127   2.0000      -1.041188       -28.3322
 128   2.0000      -1.037065       -28.2200
 129   2.0000      -1.032838       -28.1049
 130   2.0000      -1.024023       -27.8651
 131   2.0000      -1.023843       -27.8602
 132   2.0000      -1.021819       -27.8051
 133   2.0000      -1.016583       -27.6626
 134   2.0000      -1.008903       -27.4536
 135   2.0000      -1.003606       -27.3095
 136   2.0000      -0.998121       -27.1603
 137   2.0000      -0.997959       -27.1558
 138   2.0000      -0.986593       -26.8466
 139   2.0000      -0.978966       -26.6390
 140   2.0000      -0.973836       -26.4994
 141   2.0000      -0.966878       -26.3101
 142   2.0000      -0.964996       -26.2589
 143   2.0000      -0.961435       -26.1620
 144   2.0000      -0.946255       -25.7489
 145   2.0000      -0.944177       -25.6924
 146   2.0000      -0.938800       -25.5460
 147   2.0000      -0.929928       -25.3046
 148   2.0000      -0.917846       -24.9759
 149   2.0000      -0.916013       -24.9260
 150   2.0000      -0.910027       -24.7631
 151   2.0000      -0.898404       -24.4468
 152   2.0000      -0.890035       -24.2191
 153   2.0000      -0.884329       -24.0638
 154   2.0000      -0.881277       -23.9808
 155   2.0000      -0.871946       -23.7269
 156   2.0000      -0.870635       -23.6912
 157   2.0000      -0.866741       -23.5852
 158   2.0000      -0.852437       -23.1960
 159   2.0000      -0.836766       -22.7696
 160   2.0000      -0.819066       -22.2879
 161   2.0000      -0.813618       -22.1397
 162   2.0000      -0.811642       -22.0859
 163   2.0000      -0.807606       -21.9761
 164   2.0000      -0.796446       -21.6724
 165   2.0000      -0.787764       -21.4361
 166   2.0000      -0.779087       -21.2000
 167   2.0000      -0.776101       -21.1188
 168   2.0000      -0.771432       -20.9917
 169   2.0000      -0.770216       -20.9586
 170   2.0000      -0.768282       -20.9060
 171   2.0000      -0.758770       -20.6472
 172   2.0000      -0.748101       -20.3569
 173   2.0000      -0.735678       -20.0188
 174   2.0000      -0.727435       -19.7945
 175   2.0000      -0.721020       -19.6199
 176   2.0000      -0.715445       -19.4683
 177   2.0000      -0.711894       -19.3716
 178   2.0000      -0.707116       -19.2416
 179   2.0000      -0.702338       -19.1116
 180   2.0000      -0.700023       -19.0486
 181   2.0000      -0.693477       -18.8705
 182   2.0000      -0.686208       -18.6727
 183   2.0000      -0.678843       -18.4723
 184   2.0000      -0.676822       -18.4173
 185   2.0000      -0.660318       -17.9682
 186   2.0000      -0.657048       -17.8792
 187   2.0000      -0.651321       -17.7234
 188   2.0000      -0.646769       -17.5995
 189   2.0000      -0.642480       -17.4828
 190   2.0000      -0.639620       -17.4050
 191   2.0000      -0.638484       -17.3740
 192   2.0000      -0.636708       -17.3257
 193   2.0000      -0.633098       -17.2275
 194   2.0000      -0.631618       -17.1872
 195   2.0000      -0.626704       -17.0535
 196   2.0000      -0.624433       -16.9917
 197   2.0000      -0.620630       -16.8882
 198   2.0000      -0.616799       -16.7840
 199   2.0000      -0.614914       -16.7327
 200   2.0000      -0.604646       -16.4533
 201   2.0000      -0.604022       -16.4363
 202   2.0000      -0.601395       -16.3648
 203   2.0000      -0.590964       -16.0809
 204   2.0000      -0.590436       -16.0666
 205   2.0000      -0.587846       -15.9961
 206   2.0000      -0.587200       -15.9785
 207   2.0000      -0.585492       -15.9320
 208   2.0000      -0.584496       -15.9049
 209   2.0000      -0.581661       -15.8278
 210   2.0000      -0.577152       -15.7051
 211   2.0000      -0.574481       -15.6324
 212   2.0000      -0.573427       -15.6037
 213   2.0000      -0.572155       -15.5691
 214   2.0000      -0.569105       -15.4861
 215   2.0000      -0.566348       -15.4111
 216   2.0000      -0.565111       -15.3775
 217   2.0000      -0.560844       -15.2614
 218   2.0000      -0.558303       -15.1922
 219   2.0000      -0.556909       -15.1543
 220   2.0000      -0.556045       -15.1308
 221   2.0000      -0.552992       -15.0477
 222   2.0000      -0.552219       -15.0266
 223   2.0000      -0.551216       -14.9994
 224   2.0000      -0.550258       -14.9733
 225   2.0000      -0.549122       -14.9424
 226   2.0000      -0.548279       -14.9194
 227   2.0000      -0.546467       -14.8701
 228   2.0000      -0.540960       -14.7203
 229   2.0000      -0.538912       -14.6646
 230   2.0000      -0.537654       -14.6303
 231   2.0000      -0.537065       -14.6143
 232   2.0000      -0.535341       -14.5674
 233   2.0000      -0.530582       -14.4379
 234   2.0000      -0.528906       -14.3923
 235   2.0000      -0.527970       -14.3668
 236   2.0000      -0.526235       -14.3196
 237   2.0000      -0.524155       -14.2630
 238   2.0000      -0.521356       -14.1868
 239   2.0000      -0.520806       -14.1718
 240   2.0000      -0.517637       -14.0856
 241   2.0000      -0.515084       -14.0162
 242   2.0000      -0.514502       -14.0003
 243   2.0000      -0.512750       -13.9526
 244   2.0000      -0.511180       -13.9099
 245   2.0000      -0.509394       -13.8613
 246   2.0000      -0.505975       -13.7683
 247   2.0000      -0.504477       -13.7275
 248   2.0000      -0.502909       -13.6849
 249   2.0000      -0.496018       -13.4973
 250   2.0000      -0.495720       -13.4892
 251   2.0000      -0.492283       -13.3957
 252   2.0000      -0.489867       -13.3299
 253   2.0000      -0.488977       -13.3057
 254   2.0000      -0.488159       -13.2835
 255   2.0000      -0.484398       -13.1811
 256   2.0000      -0.478511       -13.0209
 257   2.0000      -0.477752       -13.0003
 258   2.0000      -0.473651       -12.8887
 259   2.0000      -0.473348       -12.8805
 260   2.0000      -0.470258       -12.7964
 261   2.0000      -0.465862       -12.6768
 262   2.0000      -0.460628       -12.5343
 263   2.0000      -0.459223       -12.4961
 264   2.0000      -0.458581       -12.4786
 265   2.0000      -0.457808       -12.4576
 266   2.0000      -0.456852       -12.4316
 267   2.0000      -0.451708       -12.2916
 268   2.0000      -0.451559       -12.2875
 269   2.0000      -0.446541       -12.1510
 270   2.0000      -0.444300       -12.0900
 271   2.0000      -0.443822       -12.0770
 272   2.0000      -0.440652       -11.9908
 273   2.0000      -0.440128       -11.9765
 274   2.0000      -0.438553       -11.9336
 275   2.0000      -0.436268       -11.8714
 276   2.0000      -0.435833       -11.8596
 277   2.0000      -0.433562       -11.7978
 278   2.0000      -0.427945       -11.6450
 279   2.0000      -0.425671       -11.5831
 280   2.0000      -0.425077       -11.5669
 281   2.0000      -0.419840       -11.4244
 282   2.0000      -0.418781       -11.3956
 283   2.0000      -0.413363       -11.2482
 284   2.0000      -0.412699       -11.2301
 285   2.0000      -0.411606       -11.2004
 286   2.0000      -0.410600       -11.1730
 287   2.0000      -0.405828       -11.0431
 288   2.0000      -0.404445       -11.0055
 289   2.0000      -0.403039       -10.9672
 290   2.0000      -0.398348       -10.8396
 291   2.0000      -0.397022       -10.8035
 292   2.0000      -0.392253       -10.6737
 293   2.0000      -0.390851       -10.6356
 294   2.0000      -0.389152       -10.5894
 295   2.0000      -0.386782       -10.5249
 296   2.0000      -0.386042       -10.5047
 297   2.0000      -0.384774       -10.4702
 298   2.0000      -0.380842       -10.3632
 299   2.0000      -0.378374       -10.2961
 300   2.0000      -0.373008       -10.1501
 301   2.0000      -0.366461        -9.9719
 302   2.0000      -0.364851        -9.9281
 303   2.0000      -0.363696        -9.8967
 304   2.0000      -0.362810        -9.8726
 305   2.0000      -0.361748        -9.8437
 306   2.0000      -0.357441        -9.7265
 307   2.0000      -0.347118        -9.4456
 308   2.0000      -0.346608        -9.4317
 309   2.0000      -0.344770        -9.3817
 310   2.0000      -0.332532        -9.0487
 311   2.0000      -0.331220        -9.0129
 312   2.0000      -0.319614        -8.6971
 313   2.0000      -0.304992        -8.2993
 314   2.0000      -0.291438        -7.9304
 315   0.0000      -0.119380        -3.2485
 316   0.0000      -0.116064        -3.1583
 317   0.0000      -0.108412        -2.9500
 318   0.0000      -0.102454        -2.7879
 319   0.0000      -0.085278        -2.3205

MULLIKEN ATOMIC CHARGES
-----------------------
   0 C :    0.255050
   1 C :   -0.343050
   2 C :   -0.196495
   3 N :    0.178033
   4 C :   -0.176651
   5 N :    0.174526
   6 C :    0.051155
   7 C :    0.007434
   8 C :   -0.036327
   9 C :    0.073715
  10 C :    0.057243
  11 C :   -0.026471
  12 Cl:   -0.038331
  13 Cl:   -0.025124
  14 C :    0.143206
  15 O :   -0.110312
  16 C :   -0.082808
  17 C :    0.043582
  18 C :   -0.053713
  19 C :   -0.026748
  20 C :    0.211288
  21 O :   -0.157815
  22 N :   -0.248517
  23 C :    0.202077
  24 O :   -0.114573
  25 C :    0.021641
  26 C :   -0.060261
  27 C :    0.068038
  28 C :    0.081997
  29 C :    0.048791
  30 O :   -0.121911
  31 S :    0.028062
  32 C :    0.052092
  33 O :   -0.107100
  34 C :    0.064257
  35 C :    0.082885
  36 C :   -0.114429
  37 S :    0.161178
  38 C :   -0.218006
  39 C :    0.021680
  40 C :   -0.099434
  41 C :    0.183492
  42 C :   -0.094931
  43 C :   -0.259252
  44 N :    0.168361
  45 C :   -0.130296
  46 C :   -0.248352
  47 N :    0.163088
  48 C :    0.233398
  49 C :    0.017555
  50 C :   -0.012770
  51 C :    0.191976
  52 O :   -0.133342
  53 N :   -0.231093
  54 C :    0.214008
  55 O :   -0.101642
  56 C :    0.003331
  57 C :   -0.060918
  58 C :    0.048370
  59 C :    0.034471
  60 C :    0.024826
  61 O :   -0.112846
  62 S :    0.022642
  63 C :    0.048314
  64 O :   -0.110062
  65 C :    0.113798
  66 C :   -0.006928
  67 C :   -0.050470
  68 C :   -0.062675
  69 C :    0.329047
  70 C :   -0.344263
  71 C :   -0.186774
  72 N :    0.161030
  73 C :   -0.190654
  74 N :    0.156005
  75 C :    0.031532
  76 C :   -0.016110
  77 C :    0.146413
  78 O :   -0.131610
  79 C :   -0.028734
  80 C :    0.063311
  81 C :    0.047870
  82 C :   -0.014484
  83 Cl:   -0.031277
  84 Cl:   -0.038320
  85 H :    0.009566
  86 H :    0.003513
  87 H :    0.050911
  88 H :    0.027694
  89 H :    0.031532
  90 H :    0.000560
  91 H :    0.040157
  92 H :    0.047882
  93 H :    0.050593
  94 H :    0.062114
  95 H :    0.030308
  96 H :    0.014960
  97 H :    0.027523
  98 H :    0.050870
  99 H :    0.059218
 100 H :    0.014642
 101 H :    0.001735
 102 H :    0.001327
Sum of atomic charges:   -0.0000000

LOEWDIN ATOMIC CHARGES
----------------------
   0 C :    0.074615
   1 C :   -0.135652
   2 C :   -0.023652
   3 N :   -0.033925
   4 C :   -0.017754
   5 N :   -0.043061
   6 C :   -0.006999
   7 C :   -0.034420
   8 C :    0.007920
   9 C :   -0.127208
  10 C :   -0.128180
  11 C :   -0.018837
  12 Cl:    0.176486
  13 Cl:    0.175055
  14 C :    0.091723
  15 O :   -0.110484
  16 C :   -0.053918
  17 C :    0.071040
  18 C :    0.014772
  19 C :   -0.031811
  20 C :    0.097105
  21 O :   -0.140029
  22 N :   -0.012221
  23 C :    0.099633
  24 O :   -0.115875
  25 C :   -0.027187
  26 C :    0.056162
  27 C :   -0.040214
  28 C :   -0.039734
  29 C :   -0.042337
  30 O :   -0.103322
  31 S :    0.316242
  32 C :   -0.041047
  33 O :   -0.099015
  34 C :    0.027211
  35 C :   -0.045000
  36 C :   -0.156990
  37 S :    0.486188
  38 C :   -0.188805
  39 C :   -0.036625
  40 C :   -0.060312
  41 C :   -0.006758
  42 C :   -0.031537
  43 C :   -0.039429
  44 N :   -0.040644
  45 C :   -0.031214
  46 C :   -0.037475
  47 N :   -0.044619
  48 C :   -0.002975
  49 C :    0.015388
  50 C :   -0.037859
  51 C :    0.103396
  52 O :   -0.123395
  53 N :   -0.012782
  54 C :    0.102827
  55 O :   -0.098625
  56 C :   -0.026994
  57 C :    0.045969
  58 C :   -0.046863
  59 C :   -0.060278
  60 C :   -0.062300
  61 O :   -0.109772
  62 S :    0.308970
  63 C :   -0.049400
  64 O :   -0.103026
  65 C :    0.073385
  66 C :   -0.045326
  67 C :    0.073457
  68 C :   -0.092578
  69 C :    0.074303
  70 C :   -0.129740
  71 C :   -0.019712
  72 N :   -0.041613
  73 C :   -0.020116
  74 N :   -0.043749
  75 C :   -0.014079
  76 C :   -0.044224
  77 C :    0.084830
  78 O :   -0.127720
  79 C :    0.001850
  80 C :   -0.133080
  81 C :   -0.129648
  82 C :   -0.011574
  83 Cl:    0.165513
  84 Cl:    0.163015
  85 H :    0.049920
  86 H :    0.038294
  87 H :    0.057049
  88 H :    0.056026
  89 H :    0.033398
  90 H :    0.028964
  91 H :    0.043054
  92 H :    0.046952
  93 H :    0.058734
  94 H :    0.063421
  95 H :    0.044136
  96 H :    0.034716
  97 H :    0.055670
  98 H :    0.042553
  99 H :    0.039727
 100 H :    0.042408
 101 H :    0.046783
 102 H :    0.044858

  Mayer bond orders larger than 0.100000
B(  0-C ,  1-C ) :   1.6749 B(  0-C ,  6-C ) :   1.0343 B(  0-C , 16-C ) :   0.9867
B(  1-C ,  2-C ) :   1.1256 B(  1-C ,  4-C ) :   1.1694 B(  2-C ,  3-N ) :   2.9825
B(  4-C ,  5-N ) :   2.9955 B(  6-C ,  7-C ) :   1.3291 B(  6-C , 11-C ) :   1.3306
B(  7-C ,  8-C ) :   1.3398 B(  7-C , 14-C ) :   0.9147 B(  8-C ,  9-C ) :   1.3463
B(  8-C , 85-H ) :   1.0155 B(  9-C , 10-C ) :   1.3997 B(  9-C , 13-Cl) :   1.0613
B( 10-C , 11-C ) :   1.3745 B( 10-C , 12-Cl) :   1.0549 B( 11-C , 86-H ) :   0.9820
B( 14-C , 15-O ) :   2.3032 B( 14-C , 16-C ) :   0.9173 B( 16-C , 17-C ) :   1.8142
B( 17-C , 18-C ) :   1.0033 B( 17-C , 87-H ) :   0.9264 B( 18-C , 19-C ) :   1.3907
B( 18-C , 28-C ) :   1.3995 B( 19-C , 20-C ) :   0.8867 B( 19-C , 25-C ) :   1.3709
B( 20-C , 21-O ) :   2.1347 B( 20-C , 22-N ) :   1.0696 B( 22-N , 23-C ) :   1.0096
B( 22-N , 34-C ) :   0.9752 B( 23-C , 24-O ) :   2.2683 B( 23-C , 25-C ) :   0.8686
B( 25-C , 26-C ) :   1.3427 B( 26-C , 27-C ) :   1.3240 B( 26-C , 88-H ) :   1.0255
B( 27-C , 28-C ) :   1.3532 B( 27-C , 32-C ) :   0.8310 B( 28-C , 29-C ) :   0.8472
B( 29-C , 30-O ) :   2.1700 B( 29-C , 31-S ) :   1.0390 B( 30-O , 31-S ) :   0.1087
B( 31-S , 32-C ) :   1.0223 B( 31-S , 33-O ) :   0.1078 B( 32-C , 33-O ) :   2.2357
B( 34-C , 35-C ) :   1.7337 B( 34-C , 89-H ) :   0.9780 B( 35-C , 36-C ) :   1.1402
B( 35-C , 90-H ) :   0.9193 B( 36-C , 37-S ) :   1.1418 B( 36-C , 38-C ) :   0.1156
B( 36-C , 40-C ) :   1.5336 B( 37-S , 38-C ) :   1.1444 B( 38-C , 39-C ) :   1.5644
B( 38-C , 49-C ) :   1.0012 B( 39-C , 40-C ) :   1.2960 B( 39-C , 48-C ) :   1.0696
B( 40-C , 41-C ) :   1.0551 B( 41-C , 42-C ) :   1.0823 B( 41-C , 91-H ) :   0.9040
B( 41-C , 92-H ) :   0.8956 B( 42-C , 43-C ) :   1.0769 B( 42-C , 45-C ) :   1.0519
B( 42-C , 93-H ) :   0.8604 B( 43-C , 44-N ) :   3.1275 B( 45-C , 46-C ) :   1.0862
B( 45-C , 48-C ) :   1.1038 B( 45-C , 94-H ) :   0.8649 B( 46-C , 47-N ) :   3.1246
B( 48-C , 95-H ) :   0.8804 B( 48-C , 96-H ) :   0.8947 B( 49-C , 50-C ) :   1.4207
B( 49-C , 59-C ) :   1.3894 B( 50-C , 51-C ) :   0.8863 B( 50-C , 56-C ) :   1.3729
B( 51-C , 52-O ) :   2.1803 B( 51-C , 53-N ) :   1.0297 B( 53-N , 54-C ) :   0.9971
B( 53-N , 65-C ) :   1.0374 B( 54-C , 55-O ) :   2.2467 B( 54-C , 56-C ) :   0.8755
B( 56-C , 57-C ) :   1.3361 B( 57-C , 58-C ) :   1.3263 B( 57-C , 97-H ) :   1.0281
B( 58-C , 59-C ) :   1.3393 B( 58-C , 63-C ) :   0.8316 B( 59-C , 60-C ) :   0.8408
B( 60-C , 61-O ) :   2.1926 B( 60-C , 62-S ) :   1.0192 B( 61-O , 62-S ) :   0.1066
B( 62-S , 63-C ) :   1.0322 B( 62-S , 64-O ) :   0.1108 B( 63-C , 64-O ) :   2.2291
B( 65-C , 66-C ) :   1.6295 B( 65-C , 98-H ) :   0.9657 B( 66-C , 67-C ) :   1.1150
B( 66-C , 99-H ) :   0.9657 B( 67-C , 68-C ) :   1.5997 B( 67-C ,100-H ) :   0.9559
B( 68-C , 69-C ) :   1.0537 B( 68-C , 77-C ) :   0.9357 B( 69-C , 70-C ) :   1.6494
B( 69-C , 75-C ) :   0.9970 B( 70-C , 71-C ) :   1.1363 B( 70-C , 73-C ) :   1.1466
B( 71-C , 72-N ) :   2.9741 B( 73-C , 74-N ) :   2.9644 B( 75-C , 76-C ) :   1.3301
B( 75-C , 82-C ) :   1.3343 B( 76-C , 77-C ) :   0.9409 B( 76-C , 79-C ) :   1.3443
B( 77-C , 78-O ) :   2.2233 B( 79-C , 80-C ) :   1.3430 B( 79-C ,101-H ) :   1.0167
B( 80-C , 81-C ) :   1.3991 B( 80-C , 84-Cl) :   1.0513 B( 81-C , 82-C ) :   1.3653
B( 81-C , 83-Cl) :   1.0806 B( 82-C ,102-H ) :   0.9862

-----------------------------------------------------------------------------
         ABSORPTION SPECTRUM VIA TRANSITION ELECTRIC DIPOLE MOMENTS
-----------------------------------------------------------------------------
State   Energy  Wavelength   fosc         T2         TX        TY        TZ
        (cm-1)    (nm)                  (au**2)     (au)      (au)      (au)
-----------------------------------------------------------------------------
   0   19907.8    502.3   0.013898942   0.22984  -0.05517   0.39230  -0.27000
   1   20483.5    488.2   0.053714824   0.86331  -0.76638   0.13857  -0.50672
   2   23994.0    416.8   0.053327000   0.73168  -0.61994  -0.22695  -0.54392
   3   24914.4    401.4   0.004547615   0.06009  -0.06751  -0.17418  -0.15872
   4   25522.1    391.8   0.367572624   4.74136   0.89441   0.18862   1.97631
   5   26441.4    378.2   0.063951184   0.79623   0.34877   0.00569   0.82132
   6   26913.9    371.6   0.026287620   0.32155   0.38010   0.23783  -0.34715
   7   27511.2    363.5   0.716062422   8.56873  -0.28977   2.27200  -1.82285
   8   28342.1    352.8   0.060661013   0.70462   0.41376   0.51688  -0.51599
   9   29087.5    343.8   0.038420196   0.43484   0.52593   0.13715   0.37340
  10   29332.1    340.9   0.177806126   1.99562   0.55026   1.24538   0.37664
  11   29381.2    340.4   0.014833850   0.16621   0.18927   0.24667   0.26371
  12   29568.5    338.2   0.014589375   0.16244   0.14978   0.27177   0.25718
  13   29600.8    337.8   0.029841053   0.33188   0.21128   0.52776   0.09336
  14   30113.2    332.1   0.092212385   1.00811  -0.63741  -0.70411  -0.32563
  15   30700.8    325.7   0.004154809   0.04455   0.16749  -0.06374   0.11153
  16   31012.8    322.4   0.063240493   0.67132   0.21588   0.42487   0.66649
  17   31753.0    314.9   0.030982342   0.32122  -0.12646   0.35768  -0.42106
  18   31834.1    314.1   0.040152584   0.41524   0.29522   0.03197   0.57189
  19   31982.3    312.7   0.493408343   5.07893  -1.00438  -0.20141  -2.00738
  20   32199.6    310.6   0.013921356   0.14233  -0.10822  -0.05031   0.35790
  21   32336.5    309.2   0.089978639   0.91606   0.52116   0.52948   0.60340
  22   32399.4    308.6   0.013201010   0.13414   0.10013  -0.02008   0.35172
  23   32462.5    308.0   0.130536433   1.32381  -0.36505   0.26374  -1.05877
  24   32621.1    306.6   0.015715759   0.15860   0.23122  -0.11797  -0.30203
  25   32693.7    305.9   0.007904355   0.07959  -0.11125   0.25289  -0.05715
  26   32878.0    304.2   0.006621662   0.06630  -0.18927  -0.08207  -0.15410
  27   33441.5    299.0   0.014806707   0.14576  -0.24791   0.28629  -0.04844
  28   33598.1    297.6   0.005150859   0.05047   0.01108   0.18050   0.13329
  29   33684.8    296.9   0.023906197   0.23364  -0.10888  -0.47052   0.01986
  30   33798.7    295.9   0.005091864   0.04960  -0.12435   0.15699   0.09740
  31   34061.0    293.6   0.005710181   0.05519  -0.06592  -0.22525   0.01041
  32   34265.1    291.8   0.013928648   0.13382   0.26023   0.24941  -0.06242
  33   34446.4    290.3   0.018166742   0.17362   0.22743   0.34847  -0.02162
  34   34636.8    288.7   0.226251606   2.15045  -0.61503  -0.85381  -1.02137
  35   34874.5    286.7   0.321871603   3.03844  -1.27647  -0.06498  -1.18526
  36   35159.1    284.4   0.241077934   2.25733   0.52963   0.49734   1.31510
  37   35423.8    282.3   0.029956413   0.27840  -0.38481  -0.07503  -0.35312
  38   35524.2    281.5   0.051815860   0.48019   0.13877  -0.59025   0.33546
  39   35695.3    280.1   0.008863620   0.08175   0.12353   0.17766   0.18688
  40   35899.8    278.6   0.084646144   0.77623   0.58046  -0.51425   0.41815
  41   35995.0    277.8   0.682677164   6.24379  -1.20619  -2.17884   0.20378
  42   36170.7    276.5   0.193065592   1.75721  -0.46807  -1.22250   0.20884
  43   36250.9    275.9   0.037165892   0.33752  -0.26615  -0.51419  -0.04791
  44   36698.3    272.5   0.021560236   0.19341  -0.01230   0.15058  -0.41302
  45   36877.0    271.2   0.191839628   1.71261   0.36035   1.24123   0.20521
  46   36959.0    270.6   0.024002118   0.21380   0.21512   0.38523   0.13826
  47   37180.6    269.0   0.079593642   0.70475  -0.25740  -0.40405  -0.68938
  48   37436.0    267.1   0.010760718   0.09463  -0.13975  -0.03143  -0.27223
  49   37487.0    266.8   0.044183062   0.38802  -0.39157   0.07528  -0.47856
  50   37698.3    265.3   0.010151877   0.08865   0.01867   0.20556   0.21459
  51   38413.6    260.3   0.002179391   0.01868   0.01702  -0.12463  -0.05344
  52   38531.7    259.5   0.009071629   0.07751  -0.23470  -0.12861  -0.07669
  53   38659.0    258.7   0.059405247   0.50588  -0.42326  -0.42851  -0.37830
  54   38685.0    258.5   0.001835931   0.01562   0.12386   0.01401   0.00932
  55   38870.2    257.3   0.037250793   0.31550  -0.21459  -0.15255  -0.49616
  56   38957.3    256.7   0.006443441   0.05445   0.15952   0.15411  -0.07250
  57   39253.0    254.8   0.004107154   0.03445   0.03080   0.13060   0.12822
  58   39690.9    251.9   0.047580339   0.39465   0.31292   0.43915   0.32231
  59   39836.3    251.0   0.032855398   0.27152  -0.08288   0.29881  -0.41877
  60   39926.8    250.5   0.001083771   0.00894  -0.05882   0.00856  -0.07350
  61   40068.9    249.6   0.001071410   0.00880   0.02733  -0.03305   0.08345
  62   40288.8    248.2   0.020314110   0.16599  -0.00992   0.29835  -0.27727

FINAL SINGLE POINT ENERGY     -6517.629732265182

DIPOLE MOMENT
-------------
                                X             Y             Z
Electronic contribution:     -6.98513      21.15516      32.16267
Nuclear contribution   :      6.48565     -17.63683     -32.93331
                        -----------------------------------------
Total Dipole Moment    :     -0.49949       3.51833      -0.77064
                        -----------------------------------------
Magnitude (a.u.)       :      3.63621
Magnitude (Debye)      :      9.24252

Rotational constants in cm-1:     0.000976     0.000247     0.000224
Rotational constants in MHz :    29.273853     7.406593     6.718136

                             ****ORCA TERMINATED NORMALLY****
TOTAL RUN TIME: 0 days 0 hours 13 minutes 29 seconds 390 msec
