                         Program Version 4.2.0 -  RELEASE  -
|  1> # ORCA input file
|  2> # SCF done       -191.801589747336          0.000376432818
|  3> ! CAM-B3LYP def2-SVP def2/J RIJCOSX Grid4 TightSCF
|  4> %maxcore 5000
|  5> %tddft
|  6>     Mode sTDDFT
|  7>     Ethresh 5.0
|  8>     maxcore 5000
|  9> end
| 10>
| 11> %pal
| 12>   nprocs 6
| 13>   end
| 14> * xyz 0 1
| 15>    C       -0.78372         2.86871         7.42770
| 16>    C       -0.63065         1.63675         6.83293
| 17>    C       -0.44457         0.43381         7.54279
| 18>    N       -0.29607        -0.58737         8.04825
| 19>    C       -0.61274         1.37618         5.44947
| 20>    N       -0.57782         1.07696         4.33845
| 21>    C       -0.72799         3.10384         8.86708
| 22>    C       -0.82402         4.50422         9.09353
| 23>    C       -0.80153         5.03772        10.34832
| 24>    C       -0.68134         4.17486        11.46157
| 25>    C       -0.58632         2.77087        11.24475
| 26>    C       -0.61096         2.24887         9.93026
| 27>    C       -0.46933         1.91837        12.36117
| 28>    C       -0.44791         2.42629        13.63166
| 29>    C       -0.54282         3.80935        13.84390
| 30>    C       -0.65621         4.66490        12.78157
| 31>    C       -0.95256         5.20549         7.80010
| 32>    O       -1.04814         6.40913         7.66224
| 33>    C       -0.96938         4.14682         6.77073
| 34>    C       -1.21477         4.25929         5.42155
| 35>    C       -1.34005         5.37138         4.57971
| 36>    N       -1.68677         5.22298         3.24238
| 37>    C       -1.95851         3.96563         2.58644
| 38>    C       -3.33781         3.40863         2.93806
| 39>    C       -1.65590         6.43515         2.64030
| 40>    C       -1.27693         7.38879         3.59315
| 41>    C       -1.09792         6.73893         4.79492
| 42>    C       -1.95339         6.71337         1.24595
| 43>    C       -3.02349         6.16567         0.58706
| 44>    C       -3.27930         6.51020        -0.75917
| 45>    C       -4.27792         6.10082        -1.62803
| 46>    C       -5.39062         5.15806        -1.30029
| 47>    C       -6.71070         5.93576        -1.14161
| 48>    N       -7.69648         5.11795        -0.45375
| 49>    C       -5.49526         3.96773        -2.28251
| 50>    N       -6.29169         4.25103        -3.47079
| 51>    C       -4.05897         6.80425        -2.86829
| 52>    C       -4.73100         6.77904        -4.03448
| 53>    C       -4.33804         7.65203        -5.17664
| 54>    C       -3.08126         8.43766        -4.96350
| 55>    C       -2.41325         8.43781        -3.79487
| 56>    C       -2.86784         7.65171        -2.70979
| 57>    C       -2.40065         7.46187        -1.42512
| 58>    C       -1.30904         8.01361        -0.71526
| 59>    C       -1.09941         7.65179         0.57493
| 60>    C       -5.46564         8.62919        -5.39673
| 61>    C       -6.18438         8.70209        -6.52133
| 62>    C       -7.23717         9.65230        -6.74563
| 63>    N       -8.02053         9.67583        -7.85481
| 64>    C       -7.92577         8.74816        -8.95792
| 65>    C       -6.99597         9.27048       -10.05183
| 66>    C       -8.89757        10.74699        -7.77120
| 67>    C       -8.65360        11.38502        -6.54229
| 68>    C       -7.63188        10.70990        -5.91358
| 69>    C       -9.81212        11.01795        -8.79913
| 70>    C      -10.75336        12.00478        -8.97038
| 71>    C      -11.64016        12.04297       -10.11890
| 72>    C      -11.81448        11.06866       -11.07472
| 73>    C      -12.71064        11.17441       -12.15786
| 74>    N      -13.41197        11.18527       -13.06760
| 75>    C      -11.16764         9.81901       -11.12027
| 76>    N      -10.69357         8.77522       -11.22451
| 77>    C      -12.39168        13.29229       -10.06852
| 78>    C      -12.02839        13.98345        -8.88022
| 79>    C      -11.01747        13.20107        -8.14286
| 80>    O      -10.52135        13.52199        -7.08118
| 81>    C      -12.57450        15.18827        -8.54774
| 82>    C      -13.52834        15.77359        -9.41099
| 83>    C      -13.89327        15.09214       -10.60701
| 84>    C      -13.31079        13.84247       -10.92198
| 85>    C      -14.84222        15.68585       -11.46374
| 86>    C      -15.40556        16.89407       -11.15502
| 87>    C      -15.04576        17.56390        -9.97643
| 88>    C      -14.12718        17.01523        -9.12291
| 89>    H       -0.87589         6.10569        10.49123
| 90>    H       -0.54157         1.18048         9.80236
| 91>    H       -0.39638         0.85381        12.19233
| 92>    H       -0.35805         1.76454        14.48035
| 93>    H       -0.52511         4.19376        14.85307
| 94>    H       -0.72907         5.73133        12.93883
| 95>    H       -1.32833         3.31144         4.91574
| 96>    H       -1.19057         3.23605         2.86293
| 97>    H       -1.88721         4.13149         1.50874
| 98>    H       -3.49862         2.47803         2.40112
| 99>    H       -4.12515         4.10941         2.66974
|100>    H       -3.41778         3.20905         4.00346
|101>    H       -1.18355         8.44112         3.41086
|102>    H       -0.82445         7.17368         5.73362
|103>    H       -3.71191         5.51196         1.09849
|104>    H       -5.17514         4.72236        -0.32005
|105>    H       -7.03795         6.30555        -2.12533
|106>    H       -6.51416         6.80609        -0.50867
|107>    H       -7.98776         4.33701        -1.03137
|108>    H       -8.52136         5.66421        -0.23394
|109>    H       -5.88454         3.10159        -1.72475
|110>    H       -4.48475         3.71799        -2.61680
|111>    H       -7.27967         4.27184        -3.24036
|112>    H       -6.15680         3.51501        -4.15505
|113>    H       -5.58624         6.13163        -4.17253
|114>    H       -4.23708         7.03273        -6.07782
|115>    H       -2.75477         9.03898        -5.79847
|116>    H       -1.51645         9.02877        -3.67426
|117>    H       -0.65435         8.71845        -1.20646
|118>    H       -0.26430         8.05419         1.12794
|119>    H       -5.65287         9.29397        -4.56750
|120>    H       -5.95592         8.01538        -7.32538
|121>    H       -8.91943         8.56235        -9.37220
|122>    H       -7.55867         7.79254        -8.57856
|123>    H       -7.35388        10.22385       -10.43303
|124>    H       -6.96197         8.56156       -10.87413
|125>    H       -5.98927         9.41273        -9.66435
|126>    H       -9.17761        12.24787        -6.18698
|127>    H       -7.20221        10.94995        -4.96219
|128>    H       -9.76015        10.32138        -9.62294
|129>    H      -12.28196        15.68972        -7.63704
|130>    H      -13.60724        13.35582       -11.83732
|131>    H      -15.11677        15.16548       -12.36974
|132>    H      -16.13201        17.34032       -11.81770
|133>    H      -15.49972        18.51675        -9.74801
|134>    H      -13.84601        17.52651        -8.21365
|135> *
|136>
|137>                          ****END OF INPUT****

CARTESIAN COORDINATES (ANGSTROEM)
---------------------------------
  C     -0.783720    2.868710    7.427700
  C     -0.630650    1.636750    6.832930
  C     -0.444570    0.433810    7.542790
  N     -0.296070   -0.587370    8.048250
  C     -0.612740    1.376180    5.449470
  N     -0.577820    1.076960    4.338450
  C     -0.727990    3.103840    8.867080
  C     -0.824020    4.504220    9.093530
  C     -0.801530    5.037720   10.348320
  C     -0.681340    4.174860   11.461570
  C     -0.586320    2.770870   11.244750
  C     -0.610960    2.248870    9.930260
  C     -0.469330    1.918370   12.361170
  C     -0.447910    2.426290   13.631660
  C     -0.542820    3.809350   13.843900
  C     -0.656210    4.664900   12.781570
  C     -0.952560    5.205490    7.800100
  O     -1.048140    6.409130    7.662240
  C     -0.969380    4.146820    6.770730
  C     -1.214770    4.259290    5.421550
  C     -1.340050    5.371380    4.579710
  N     -1.686770    5.222980    3.242380
  C     -1.958510    3.965630    2.586440
  C     -3.337810    3.408630    2.938060
  C     -1.655900    6.435150    2.640300
  C     -1.276930    7.388790    3.593150
  C     -1.097920    6.738930    4.794920
  C     -1.953390    6.713370    1.245950
  C     -3.023490    6.165670    0.587060
  C     -3.279300    6.510200   -0.759170
  C     -4.277920    6.100820   -1.628030
  C     -5.390620    5.158060   -1.300290
  C     -6.710700    5.935760   -1.141610
  N     -7.696480    5.117950   -0.453750
  C     -5.495260    3.967730   -2.282510
  N     -6.291690    4.251030   -3.470790
  C     -4.058970    6.804250   -2.868290
  C     -4.731000    6.779040   -4.034480
  C     -4.338040    7.652030   -5.176640
  C     -3.081260    8.437660   -4.963500
  C     -2.413250    8.437810   -3.794870
  C     -2.867840    7.651710   -2.709790
  C     -2.400650    7.461870   -1.425120
  C     -1.309040    8.013610   -0.715260
  C     -1.099410    7.651790    0.574930
  C     -5.465640    8.629190   -5.396730
  C     -6.184380    8.702090   -6.521330
  C     -7.237170    9.652300   -6.745630
  N     -8.020530    9.675830   -7.854810
  C     -7.925770    8.748160   -8.957920
  C     -6.995970    9.270480  -10.051830
  C     -8.897570   10.746990   -7.771200
  C     -8.653600   11.385020   -6.542290
  C     -7.631880   10.709900   -5.913580
  C     -9.812120   11.017950   -8.799130
  C    -10.753360   12.004780   -8.970380
  C    -11.640160   12.042970  -10.118900
  C    -11.814480   11.068660  -11.074720
  C    -12.710640   11.174410  -12.157860
  N    -13.411970   11.185270  -13.067600
  C    -11.167640    9.819010  -11.120270
  N    -10.693570    8.775220  -11.224510
  C    -12.391680   13.292290  -10.068520
  C    -12.028390   13.983450   -8.880220
  C    -11.017470   13.201070   -8.142860
  O    -10.521350   13.521990   -7.081180
  C    -12.574500   15.188270   -8.547740
  C    -13.528340   15.773590   -9.410990
  C    -13.893270   15.092140  -10.607010
  C    -13.310790   13.842470  -10.921980
  C    -14.842220   15.685850  -11.463740
  C    -15.405560   16.894070  -11.155020
  C    -15.045760   17.563900   -9.976430
  C    -14.127180   17.015230   -9.122910
  H     -0.875890    6.105690   10.491230
  H     -0.541570    1.180480    9.802360
  H     -0.396380    0.853810   12.192330
  H     -0.358050    1.764540   14.480350
  H     -0.525110    4.193760   14.853070
  H     -0.729070    5.731330   12.938830
  H     -1.328330    3.311440    4.915740
  H     -1.190570    3.236050    2.862930
  H     -1.887210    4.131490    1.508740
  H     -3.498620    2.478030    2.401120
  H     -4.125150    4.109410    2.669740
  H     -3.417780    3.209050    4.003460
  H     -1.183550    8.441120    3.410860
  H     -0.824450    7.173680    5.733620
  H     -3.711910    5.511960    1.098490
  H     -5.175140    4.722360   -0.320050
  H     -7.037950    6.305550   -2.125330
  H     -6.514160    6.806090   -0.508670
  H     -7.987760    4.337010   -1.031370
  H     -8.521360    5.664210   -0.233940
  H     -5.884540    3.101590   -1.724750
  H     -4.484750    3.717990   -2.616800
  H     -7.279670    4.271840   -3.240360
  H     -6.156800    3.515010   -4.155050
  H     -5.586240    6.131630   -4.172530
  H     -4.237080    7.032730   -6.077820
  H     -2.754770    9.038980   -5.798470
  H     -1.516450    9.028770   -3.674260
  H     -0.654350    8.718450   -1.206460
  H     -0.264300    8.054190    1.127940
  H     -5.652870    9.293970   -4.567500
  H     -5.955920    8.015380   -7.325380
  H     -8.919430    8.562350   -9.372200
  H     -7.558670    7.792540   -8.578560
  H     -7.353880   10.223850  -10.433030
  H     -6.961970    8.561560  -10.874130
  H     -5.989270    9.412730   -9.664350
  H     -9.177610   12.247870   -6.186980
  H     -7.202210   10.949950   -4.962190
  H     -9.760150   10.321380   -9.622940
  H    -12.281960   15.689720   -7.637040
  H    -13.607240   13.355820  -11.837320
  H    -15.116770   15.165480  -12.369740
  H    -16.132010   17.340320  -11.817700
  H    -15.499720   18.516750   -9.748010
  H    -13.846010   17.526510   -8.213650

 Total Charge           Charge          ....    0
 Multiplicity           Mult            ....    1
 Number of Electrons    NEL             ....  502
 Basis Dimension        Dim             .... 1266

ORBITAL ENERGIES
----------------

  NO   OCC          E(Eh)            E(eV)
   0   2.0000     -19.205559      -522.6098
   1   2.0000     -19.199276      -522.4389
   2   2.0000     -14.478011      -393.9667
   3   2.0000     -14.470386      -393.7592
   4   2.0000     -14.413831      -392.2203
   5   2.0000     -14.407082      -392.0366
   6   2.0000     -14.405464      -391.9926
   7   2.0000     -14.403844      -391.9485
   8   2.0000     -14.398718      -391.8090
   9   2.0000     -14.388866      -391.5410
  10   2.0000     -10.357180      -281.8332
  11   2.0000     -10.351151      -281.6691
  12   2.0000     -10.332076      -281.1501
  13   2.0000     -10.328489      -281.0525
  14   2.0000     -10.326258      -280.9918
  15   2.0000     -10.324470      -280.9431
  16   2.0000     -10.322547      -280.8908
  17   2.0000     -10.322351      -280.8854
  18   2.0000     -10.319110      -280.7973
  19   2.0000     -10.315844      -280.7084
  20   2.0000     -10.312673      -280.6221
  21   2.0000     -10.312205      -280.6094
  22   2.0000     -10.311145      -280.5805
  23   2.0000     -10.309655      -280.5400
  24   2.0000     -10.308430      -280.5066
  25   2.0000     -10.306653      -280.4583
  26   2.0000     -10.303461      -280.3714
  27   2.0000     -10.301725      -280.3242
  28   2.0000     -10.299811      -280.2721
  29   2.0000     -10.298373      -280.2330
  30   2.0000     -10.297525      -280.2099
  31   2.0000     -10.294167      -280.1185
  32   2.0000     -10.293678      -280.1052
  33   2.0000     -10.293229      -280.0930
  34   2.0000     -10.289971      -280.0044
  35   2.0000     -10.289528      -279.9923
  36   2.0000     -10.288694      -279.9696
  37   2.0000     -10.288368      -279.9607
  38   2.0000     -10.288301      -279.9589
  39   2.0000     -10.287401      -279.9344
  40   2.0000     -10.287306      -279.9318
  41   2.0000     -10.285958      -279.8951
  42   2.0000     -10.285610      -279.8857
  43   2.0000     -10.285160      -279.8734
  44   2.0000     -10.283571      -279.8302
  45   2.0000     -10.282567      -279.8029
  46   2.0000     -10.280306      -279.7413
  47   2.0000     -10.279579      -279.7216
  48   2.0000     -10.279324      -279.7146
  49   2.0000     -10.279223      -279.7119
  50   2.0000     -10.278845      -279.7016
  51   2.0000     -10.278714      -279.6980
  52   2.0000     -10.276856      -279.6475
  53   2.0000     -10.276302      -279.6324
  54   2.0000     -10.276245      -279.6308
  55   2.0000     -10.275595      -279.6132
  56   2.0000     -10.275430      -279.6087
  57   2.0000     -10.274950      -279.5956
  58   2.0000     -10.274024      -279.5704
  59   2.0000     -10.273895      -279.5669
  60   2.0000     -10.273617      -279.5593
  61   2.0000     -10.273110      -279.5455
  62   2.0000     -10.273022      -279.5431
  63   2.0000     -10.272157      -279.5196
  64   2.0000     -10.270655      -279.4787
  65   2.0000     -10.267842      -279.4022
  66   2.0000     -10.266506      -279.3658
  67   2.0000     -10.266482      -279.3652
  68   2.0000     -10.265561      -279.3401
  69   2.0000     -10.264649      -279.3153
  70   2.0000     -10.264255      -279.3046
  71   2.0000     -10.263309      -279.2788
  72   2.0000     -10.261973      -279.2425
  73   2.0000     -10.257281      -279.1148
  74   2.0000      -1.120094       -30.4793
  75   2.0000      -1.113755       -30.3068
  76   2.0000      -1.101150       -29.9638
  77   2.0000      -1.093446       -29.7542
  78   2.0000      -1.011760       -27.5314
  79   2.0000      -1.005631       -27.3646
  80   2.0000      -0.992285       -27.0014
  81   2.0000      -0.991947       -26.9923
  82   2.0000      -0.986628       -26.8475
  83   2.0000      -0.985672       -26.8215
  84   2.0000      -0.980336       -26.6763
  85   2.0000      -0.979939       -26.6655
  86   2.0000      -0.963499       -26.2181
  87   2.0000      -0.961802       -26.1720
  88   2.0000      -0.958709       -26.0878
  89   2.0000      -0.950264       -25.8580
  90   2.0000      -0.925499       -25.1841
  91   2.0000      -0.921266       -25.0689
  92   2.0000      -0.917079       -24.9550
  93   2.0000      -0.914168       -24.8758
  94   2.0000      -0.910429       -24.7740
  95   2.0000      -0.902761       -24.5654
  96   2.0000      -0.890766       -24.2390
  97   2.0000      -0.886845       -24.1323
  98   2.0000      -0.876479       -23.8502
  99   2.0000      -0.873288       -23.7634
 100   2.0000      -0.870410       -23.6850
 101   2.0000      -0.867829       -23.6148
 102   2.0000      -0.860594       -23.4180
 103   2.0000      -0.841662       -22.9028
 104   2.0000      -0.838107       -22.8060
 105   2.0000      -0.832759       -22.6605
 106   2.0000      -0.831300       -22.6208
 107   2.0000      -0.825332       -22.4584
 108   2.0000      -0.820520       -22.3275
 109   2.0000      -0.816296       -22.2125
 110   2.0000      -0.815528       -22.1916
 111   2.0000      -0.800696       -21.7880
 112   2.0000      -0.776173       -21.1207
 113   2.0000      -0.761285       -20.7156
 114   2.0000      -0.758653       -20.6440
 115   2.0000      -0.753463       -20.5028
 116   2.0000      -0.748030       -20.3549
 117   2.0000      -0.744051       -20.2467
 118   2.0000      -0.737879       -20.0787
 119   2.0000      -0.734024       -19.9738
 120   2.0000      -0.728904       -19.8345
 121   2.0000      -0.708586       -19.2816
 122   2.0000      -0.704326       -19.1657
 123   2.0000      -0.697914       -18.9912
 124   2.0000      -0.694845       -18.9077
 125   2.0000      -0.693372       -18.8676
 126   2.0000      -0.689498       -18.7622
 127   2.0000      -0.688600       -18.7377
 128   2.0000      -0.680071       -18.5057
 129   2.0000      -0.679469       -18.4893
 130   2.0000      -0.669608       -18.2210
 131   2.0000      -0.665812       -18.1177
 132   2.0000      -0.658237       -17.9115
 133   2.0000      -0.655734       -17.8434
 134   2.0000      -0.654026       -17.7969
 135   2.0000      -0.637646       -17.3512
 136   2.0000      -0.633488       -17.2381
 137   2.0000      -0.628932       -17.1141
 138   2.0000      -0.625136       -17.0108
 139   2.0000      -0.623271       -16.9601
 140   2.0000      -0.618784       -16.8380
 141   2.0000      -0.614856       -16.7311
 142   2.0000      -0.605014       -16.4633
 143   2.0000      -0.600465       -16.3395
 144   2.0000      -0.598391       -16.2831
 145   2.0000      -0.596641       -16.2354
 146   2.0000      -0.594082       -16.1658
 147   2.0000      -0.591636       -16.0992
 148   2.0000      -0.582616       -15.8538
 149   2.0000      -0.577808       -15.7230
 150   2.0000      -0.574055       -15.6208
 151   2.0000      -0.562900       -15.3173
 152   2.0000      -0.560476       -15.2513
 153   2.0000      -0.559257       -15.2182
 154   2.0000      -0.558151       -15.1881
 155   2.0000      -0.555270       -15.1097
 156   2.0000      -0.549016       -14.9395
 157   2.0000      -0.546327       -14.8663
 158   2.0000      -0.540517       -14.7082
 159   2.0000      -0.539531       -14.6814
 160   2.0000      -0.537618       -14.6293
 161   2.0000      -0.535887       -14.5822
 162   2.0000      -0.534099       -14.5336
 163   2.0000      -0.533119       -14.5069
 164   2.0000      -0.527880       -14.3644
 165   2.0000      -0.526669       -14.3314
 166   2.0000      -0.525054       -14.2874
 167   2.0000      -0.524091       -14.2613
 168   2.0000      -0.521792       -14.1987
 169   2.0000      -0.521500       -14.1907
 170   2.0000      -0.520555       -14.1650
 171   2.0000      -0.517395       -14.0790
 172   2.0000      -0.515675       -14.0322
 173   2.0000      -0.515012       -14.0142
 174   2.0000      -0.511278       -13.9126
 175   2.0000      -0.507872       -13.8199
 176   2.0000      -0.507483       -13.8093
 177   2.0000      -0.504108       -13.7175
 178   2.0000      -0.501645       -13.6504
 179   2.0000      -0.501049       -13.6342
 180   2.0000      -0.500461       -13.6182
 181   2.0000      -0.495805       -13.4915
 182   2.0000      -0.494217       -13.4483
 183   2.0000      -0.490042       -13.3347
 184   2.0000      -0.487951       -13.2778
 185   2.0000      -0.484537       -13.1849
 186   2.0000      -0.483370       -13.1532
 187   2.0000      -0.482409       -13.1270
 188   2.0000      -0.478805       -13.0290
 189   2.0000      -0.477648       -12.9975
 190   2.0000      -0.476537       -12.9672
 191   2.0000      -0.473554       -12.8861
 192   2.0000      -0.472869       -12.8674
 193   2.0000      -0.467917       -12.7327
 194   2.0000      -0.466916       -12.7054
 195   2.0000      -0.463804       -12.6208
 196   2.0000      -0.460646       -12.5348
 197   2.0000      -0.459138       -12.4938
 198   2.0000      -0.455707       -12.4004
 199   2.0000      -0.455480       -12.3942
 200   2.0000      -0.452532       -12.3140
 201   2.0000      -0.449717       -12.2374
 202   2.0000      -0.448926       -12.2159
 203   2.0000      -0.448190       -12.1959
 204   2.0000      -0.442651       -12.0451
 205   2.0000      -0.441474       -12.0131
 206   2.0000      -0.439984       -11.9726
 207   2.0000      -0.438491       -11.9320
 208   2.0000      -0.435926       -11.8621
 209   2.0000      -0.433630       -11.7997
 210   2.0000      -0.432107       -11.7582
 211   2.0000      -0.430292       -11.7088
 212   2.0000      -0.427901       -11.6438
 213   2.0000      -0.426525       -11.6063
 214   2.0000      -0.425898       -11.5893
 215   2.0000      -0.421410       -11.4672
 216   2.0000      -0.420418       -11.4401
 217   2.0000      -0.419735       -11.4216
 218   2.0000      -0.418877       -11.3982
 219   2.0000      -0.414617       -11.2823
 220   2.0000      -0.413789       -11.2598
 221   2.0000      -0.412792       -11.2326
 222   2.0000      -0.411607       -11.2004
 223   2.0000      -0.408888       -11.1264
 224   2.0000      -0.406784       -11.0692
 225   2.0000      -0.400454       -10.8969
 226   2.0000      -0.398375       -10.8403
 227   2.0000      -0.395032       -10.7494
 228   2.0000      -0.394836       -10.7440
 229   2.0000      -0.391200       -10.6451
 230   2.0000      -0.382501       -10.4084
 231   2.0000      -0.371625       -10.1124
 232   2.0000      -0.366768        -9.9803
 233   2.0000      -0.366579        -9.9751
 234   2.0000      -0.349267        -9.5040
 235   2.0000      -0.341757        -9.2997
 236   2.0000      -0.332041        -9.0353
 237   2.0000      -0.329654        -8.9703
 238   2.0000      -0.326404        -8.8819
 239   2.0000      -0.325993        -8.8707
 240   2.0000      -0.323852        -8.8125
 241   2.0000      -0.319433        -8.6922
 242   2.0000      -0.315772        -8.5926
 243   2.0000      -0.309439        -8.4203
 244   2.0000      -0.307039        -8.3550
 245   2.0000      -0.303645        -8.2626
 246   2.0000      -0.288098        -7.8395
 247   2.0000      -0.283781        -7.7221
 248   2.0000      -0.259355        -7.0574
 249   2.0000      -0.257428        -7.0050
 250   2.0000      -0.225417        -6.1339
 251   0.0000      -0.084280        -2.2934
 252   0.0000      -0.079386        -2.1602
 253   0.0000      -0.063567        -1.7297
 254   0.0000      -0.048774        -1.3272
 255   0.0000      -0.042047        -1.1442

MULLIKEN ATOMIC CHARGES
-----------------------
   0 C :    0.324137
   1 C :   -0.378247
   2 C :   -0.185565
   3 N :    0.135541
   4 C :   -0.175237
   5 N :    0.123991
   6 C :    0.039275
   7 C :   -0.000546
   8 C :   -0.089472
   9 C :    0.099548
  10 C :    0.095387
  11 C :   -0.083793
  12 C :   -0.021463
  13 C :    0.032309
  14 C :    0.034963
  15 C :   -0.018254
  16 C :    0.150475
  17 O :   -0.161582
  18 C :   -0.102629
  19 C :   -0.025006
  20 C :    0.111779
  21 N :   -0.163244
  22 C :    0.062579
  23 C :    0.015892
  24 C :    0.099780
  25 C :   -0.034078
  26 C :   -0.007337
  27 C :    0.046294
  28 C :   -0.067527
  29 C :    0.050881
  30 C :   -0.039586
  31 C :    0.001611
  32 C :    0.102500
  33 N :   -0.209517
  34 C :    0.100787
  35 N :   -0.210501
  36 C :    0.084538
  37 C :   -0.114722
  38 C :    0.128242
  39 C :   -0.040919
  40 C :    0.020968
  41 C :    0.012572
  42 C :    0.037431
  43 C :    0.000195
  44 C :   -0.002370
  45 C :   -0.030918
  46 C :    0.006126
  47 C :    0.137416
  48 N :   -0.164486
  49 C :    0.061247
  50 C :    0.022828
  51 C :    0.106307
  52 C :   -0.011355
  53 C :   -0.044878
  54 C :   -0.017569
  55 C :   -0.097134
  56 C :    0.322228
  57 C :   -0.382515
  58 C :   -0.180586
  59 N :    0.135787
  60 C :   -0.168256
  61 N :    0.120783
  62 C :    0.042951
  63 C :   -0.000724
  64 C :    0.152887
  65 O :   -0.159217
  66 C :   -0.087946
  67 C :    0.098757
  68 C :    0.093865
  69 C :   -0.082208
  70 C :   -0.018366
  71 C :    0.032286
  72 C :    0.036809
  73 C :   -0.016306
  74 H :   -0.017780
  75 H :   -0.010333
  76 H :   -0.011241
  77 H :   -0.008347
  78 H :   -0.009898
  79 H :   -0.020050
  80 H :   -0.011422
  81 H :    0.051956
  82 H :    0.040788
  83 H :    0.034779
  84 H :    0.026800
  85 H :    0.020338
  86 H :   -0.020431
  87 H :    0.005433
  88 H :   -0.058083
  89 H :   -0.023067
  90 H :   -0.009797
  91 H :    0.005174
  92 H :    0.077488
  93 H :    0.098336
  94 H :    0.000279
  95 H :    0.012022
  96 H :    0.092693
  97 H :    0.105861
  98 H :   -0.016564
  99 H :    0.018369
 100 H :   -0.012315
 101 H :   -0.034554
 102 H :   -0.034624
 103 H :   -0.021071
 104 H :    0.015170
 105 H :   -0.018582
 106 H :    0.052523
 107 H :    0.026326
 108 H :    0.025165
 109 H :    0.037872
 110 H :    0.016517
 111 H :    0.007004
 112 H :   -0.021735
 113 H :   -0.020408
 114 H :   -0.018160
 115 H :   -0.011518
 116 H :   -0.011864
 117 H :   -0.007385
 118 H :   -0.008594
 119 H :   -0.020960
Sum of atomic charges:   -0.0000000

LOEWDIN ATOMIC CHARGES
----------------------
   0 C :    0.082421
   1 C :   -0.164601
   2 C :   -0.018450
   3 N :   -0.069569
   4 C :   -0.016651
   5 N :   -0.077642
   6 C :   -0.026357
   7 C :   -0.051094
   8 C :    0.025035
   9 C :   -0.009203
  10 C :   -0.008786
  11 C :    0.016594
  12 C :   -0.006699
  13 C :   -0.018345
  14 C :   -0.016058
  15 C :   -0.012118
  16 C :    0.082940
  17 O :   -0.152993
  18 C :   -0.117167
  19 C :    0.059300
  20 C :   -0.032645
  21 N :    0.077947
  22 C :    0.034686
  23 C :   -0.057124
  24 C :    0.037948
  25 C :   -0.070774
  26 C :    0.003808
  27 C :   -0.039313
  28 C :   -0.012366
  29 C :   -0.024725
  30 C :   -0.031813
  31 C :   -0.038282
  32 C :    0.022353
  33 N :   -0.118596
  34 C :    0.022338
  35 N :   -0.091170
  36 C :   -0.025652
  37 C :    0.073883
  38 C :   -0.029931
  39 C :   -0.035917
  40 C :   -0.014576
  41 C :   -0.036506
  42 C :   -0.032893
  43 C :   -0.005520
  44 C :   -0.025943
  45 C :    0.031239
  46 C :   -0.056904
  47 C :    0.025812
  48 N :    0.075187
  49 C :    0.036887
  50 C :   -0.056495
  51 C :   -0.031490
  52 C :    0.001804
  53 C :   -0.065870
  54 C :    0.055760
  55 C :   -0.114356
  56 C :    0.082921
  57 C :   -0.163760
  58 C :   -0.018545
  59 N :   -0.066990
  60 C :   -0.014420
  61 N :   -0.078527
  62 C :   -0.026921
  63 C :   -0.051985
  64 C :    0.084018
  65 O :   -0.151270
  66 C :    0.026562
  67 C :   -0.008931
  68 C :   -0.008604
  69 C :    0.017860
  70 C :   -0.005827
  71 C :   -0.017293
  72 C :   -0.014672
  73 C :   -0.011480
  74 H :    0.036637
  75 H :    0.038070
  76 H :    0.033696
  77 H :    0.031443
  78 H :    0.030834
  79 H :    0.030465
  80 H :    0.041061
  81 H :    0.034191
  82 H :    0.035462
  83 H :    0.036968
  84 H :    0.024059
  85 H :    0.027188
  86 H :    0.027457
  87 H :    0.030943
  88 H :    0.024284
  89 H :    0.028804
  90 H :   -0.001327
  91 H :    0.024657
  92 H :    0.043696
  93 H :    0.057970
  94 H :    0.005877
  95 H :    0.025184
  96 H :    0.049493
  97 H :    0.061226
  98 H :    0.019557
  99 H :    0.050467
 100 H :    0.024207
 101 H :    0.030227
 102 H :    0.028311
 103 H :    0.028835
 104 H :    0.031922
 105 H :    0.027663
 106 H :    0.035196
 107 H :    0.029961
 108 H :    0.029062
 109 H :    0.037084
 110 H :    0.025117
 111 H :    0.031096
 112 H :    0.026208
 113 H :    0.040658
 114 H :    0.036829
 115 H :    0.038090
 116 H :    0.033786
 117 H :    0.031931
 118 H :    0.031397
 119 H :    0.030574

  Mayer bond orders larger than 0.100000
B(  0-C ,  1-C ) :   1.5765 B(  0-C ,  6-C ) :   0.9774 B(  0-C , 18-C ) :   1.1199
B(  1-C ,  2-C ) :   1.1535 B(  1-C ,  4-C ) :   1.1572 B(  2-C ,  3-N ) :   2.9587
B(  4-C ,  5-N ) :   2.9448 B(  6-C ,  7-C ) :   1.2179 B(  6-C , 11-C ) :   1.4555
B(  7-C ,  8-C ) :   1.4814 B(  7-C , 16-C ) :   0.9428 B(  8-C ,  9-C ) :   1.1690
B(  8-C , 74-H ) :   1.0159 B(  9-C , 10-C ) :   1.2621 B(  9-C , 15-C ) :   1.2481
B( 10-C , 11-C ) :   1.2010 B( 10-C , 12-C ) :   1.2409 B( 11-C , 75-H ) :   0.9891
B( 12-C , 13-C ) :   1.4875 B( 12-C , 76-H ) :   0.9969 B( 13-C , 14-C ) :   1.2627
B( 13-C , 77-H ) :   0.9883 B( 14-C , 15-C ) :   1.4846 B( 14-C , 78-H ) :   0.9893
B( 15-C , 79-H ) :   0.9975 B( 16-C , 17-O ) :   2.1833 B( 16-C , 18-C ) :   0.9482
B( 18-C , 19-C ) :   1.4934 B( 19-C , 20-C ) :   1.2357 B( 19-C , 80-H ) :   0.9091
B( 20-C , 21-N ) :   1.1003 B( 20-C , 26-C ) :   1.3371 B( 21-N , 22-C ) :   0.9466
B( 21-N , 24-C ) :   1.3020 B( 22-C , 23-C ) :   1.1149 B( 22-C , 81-H ) :   0.9305
B( 22-C , 82-H ) :   0.9359 B( 23-C , 83-H ) :   0.9642 B( 23-C , 84-H ) :   0.9583
B( 23-C , 85-H ) :   0.9596 B( 24-C , 25-C ) :   1.3526 B( 24-C , 27-C ) :   0.9646
B( 25-C , 26-C ) :   1.3784 B( 25-C , 86-H ) :   1.0107 B( 26-C , 87-H ) :   0.9956
B( 27-C , 28-C ) :   1.5369 B( 27-C , 44-C ) :   1.1537 B( 28-C , 29-C ) :   1.1252
B( 28-C , 88-H ) :   0.9955 B( 29-C , 30-C ) :   1.4994 B( 29-C , 42-C ) :   1.1235
B( 30-C , 31-C ) :   1.0407 B( 30-C , 36-C ) :   1.0858 B( 31-C , 32-C ) :   1.0524
B( 31-C , 34-C ) :   1.0213 B( 31-C , 89-H ) :   0.8694 B( 32-C , 33-N ) :   1.0999
B( 32-C , 90-H ) :   0.9365 B( 32-C , 91-H ) :   0.9379 B( 33-N , 92-H ) :   0.9751
B( 33-N , 93-H ) :   0.9665 B( 34-C , 35-N ) :   1.0705 B( 34-C , 94-H ) :   0.9464
B( 34-C , 95-H ) :   0.9484 B( 35-N , 96-H ) :   0.9645 B( 35-N , 97-H ) :   0.9636
B( 35-N , 98-H ) :   0.1561 B( 36-C , 37-C ) :   1.6467 B( 36-C , 41-C ) :   1.0514
B( 37-C , 38-C ) :   0.9622 B( 37-C , 98-H ) :   0.9269 B( 38-C , 39-C ) :   0.9804
B( 38-C , 45-C ) :   0.9530 B( 38-C , 99-H ) :   0.8793 B( 39-C , 40-C ) :   1.7100
B( 39-C ,100-H ) :   0.9748 B( 40-C , 41-C ) :   1.1316 B( 40-C ,101-H ) :   0.9904
B( 41-C , 42-C ) :   1.4222 B( 42-C , 43-C ) :   1.1433 B( 43-C , 44-C ) :   1.5934
B( 43-C ,102-H ) :   0.9937 B( 44-C ,103-H ) :   0.9866 B( 45-C , 46-C ) :   1.7997
B( 45-C ,104-H ) :   0.9634 B( 46-C , 47-C ) :   1.0490 B( 46-C ,105-H ) :   0.9643
B( 47-C , 48-N ) :   1.2580 B( 47-C , 53-C ) :   1.3391 B( 48-N , 49-C ) :   0.9508
B( 48-N , 51-C ) :   1.1107 B( 49-C , 50-C ) :   1.1153 B( 49-C ,106-H ) :   0.9295
B( 49-C ,107-H ) :   0.9408 B( 50-C ,108-H ) :   0.9641 B( 50-C ,109-H ) :   0.9666
B( 50-C ,110-H ) :   0.9625 B( 51-C , 52-C ) :   1.3321 B( 51-C , 54-C ) :   1.2353
B( 52-C , 53-C ) :   1.3894 B( 52-C ,111-H ) :   0.9953 B( 53-C ,112-H ) :   1.0049
B( 54-C , 55-C ) :   1.5031 B( 54-C ,113-H ) :   0.9069 B( 55-C , 56-C ) :   1.1169
B( 55-C , 64-C ) :   0.9416 B( 56-C , 57-C ) :   1.5773 B( 56-C , 62-C ) :   0.9761
B( 57-C , 58-C ) :   1.1522 B( 57-C , 60-C ) :   1.1589 B( 58-C , 59-N ) :   2.9598
B( 60-C , 61-N ) :   2.9344 B( 62-C , 63-C ) :   1.2171 B( 62-C , 69-C ) :   1.4527
B( 63-C , 64-C ) :   0.9482 B( 63-C , 66-C ) :   1.4762 B( 64-C , 65-O ) :   2.1780
B( 66-C , 67-C ) :   1.1709 B( 66-C ,114-H ) :   1.0166 B( 67-C , 68-C ) :   1.2621
B( 67-C , 73-C ) :   1.2453 B( 68-C , 69-C ) :   1.2004 B( 68-C , 70-C ) :   1.2422
B( 69-C ,115-H ) :   0.9899 B( 70-C , 71-C ) :   1.4861 B( 70-C ,116-H ) :   0.9975
B( 71-C , 72-C ) :   1.2615 B( 71-C ,117-H ) :   0.9889 B( 72-C , 73-C ) :   1.4866
B( 72-C ,118-H ) :   0.9886 B( 73-C ,119-H ) :   0.9976

-----------------------------------------------------------------------------
         ABSORPTION SPECTRUM VIA TRANSITION ELECTRIC DIPOLE MOMENTS
-----------------------------------------------------------------------------
State   Energy  Wavelength   fosc         T2         TX        TY        TZ
        (cm-1)    (nm)                  (au**2)     (au)      (au)      (au)
-----------------------------------------------------------------------------
   0   15236.9    656.3   0.074034734   1.59961   1.13689   0.14735   0.53421
   1   19680.2    508.1   1.518552303  25.40242   2.26440  -2.32036   3.85886
   2   19834.1    504.2   0.253862368   4.21368   0.16665   1.07078  -1.74337
   3   22505.0    444.3   0.936874013  13.70493  -2.41832   1.20694  -2.52982
   4   23065.9    433.5   0.169359842   2.41721  -0.52521  -0.93678   1.12420
   5   26658.2    375.1   0.148122976   1.82922   0.22217   0.52551   1.22625
   6   26786.8    373.3   0.055561050   0.68285  -0.35395   0.66787  -0.33395
   7   27180.9    367.9   0.025830199   0.31285  -0.31309   0.45698   0.07739
   8   27623.8    362.0   0.047087246   0.56117   0.35462   0.53273   0.38938
   9   28315.8    353.2   0.382185878   4.44346   1.27206  -1.50179   0.75494
  10   28690.6    348.5   0.264504339   3.03507  -0.06292  -0.17195   1.73250
  11   29511.8    338.8   0.073678749   0.82191  -0.18022   0.20651  -0.86416
  12   29626.8    337.5   0.007493790   0.08327   0.18361  -0.20852   0.07795
  13   29869.9    334.8   0.010427525   0.11493  -0.14878   0.05954   0.29874
  14   30329.6    329.7   0.033974590   0.36878   0.22390   0.00265   0.56448
  15   30699.2    325.7   0.160551037   1.72172   0.61311  -1.03953  -0.51497
  16   30891.4    323.7   0.025412754   0.27083  -0.43874   0.27978  -0.00754
  17   31692.3    315.5   0.127428512   1.32369   0.08126   0.58799   0.98558
  18   31955.5    312.9   0.154729862   1.59406  -0.02960  -0.63488   1.09092
  19   32963.5    303.4   0.180258002   1.80026  -0.74872   0.40612  -1.03670
  20   33024.8    302.8   0.009350716   0.09321  -0.20439   0.07313  -0.21468
  21   33490.1    298.6   0.011405880   0.11212   0.09717  -0.30113  -0.10954
  22   33762.4    296.2   0.005394466   0.05260  -0.06705   0.01560  -0.21877
  23   34210.7    292.3   0.666720195   6.41589  -1.25979   2.19721  -0.03262
  24   34400.2    290.7   0.659620031   6.31260  -0.19654   0.85938   2.35275
  25   34589.4    289.1   0.281178836   2.67618  -0.12668  -0.74942  -1.44862
  26   34754.4    287.7   0.060525961   0.57333  -0.38157   0.56760   0.32491
  27   34964.4    286.0   0.054184480   0.51018   0.07446  -0.54910  -0.45070
  28   35237.0    283.8   0.036980449   0.34550   0.10165   0.47926   0.32477
  29   36382.5    274.9   0.096829469   0.87618   0.65109  -0.30986   0.59687
  30   37338.5    267.8   0.060237847   0.53112  -0.06692  -0.65688  -0.30847
  31   37757.2    264.9   0.014234014   0.12411   0.08925  -0.24156  -0.24040
  32   37795.3    264.6   0.059097851   0.51477   0.55858   0.20483   0.40100
  33   38292.6    261.1   0.001802825   0.01550  -0.02151  -0.05083   0.11159
  34   38659.3    258.7   0.011588987   0.09869   0.03469  -0.29769  -0.09416
  35   38878.8    257.2   0.005278597   0.04470  -0.09948   0.02029  -0.18544
  36   39098.1    255.8   0.004386454   0.03693  -0.06624   0.17042   0.05920
  37   39232.1    254.9   0.003264936   0.02740   0.01890  -0.16022  -0.03699
  38   39558.7    252.8   0.109171333   0.90854  -0.20961  -0.67427  -0.64029
  39   39649.3    252.2   0.316326827   2.62649   0.66433  -0.59261   1.35424
  40   39795.5    251.3   0.111498672   0.92238  -0.36666  -0.46971  -0.75321
  41   40065.5    249.6   0.078782267   0.64734   0.35536  -0.68340   0.23244
  42   40161.1    249.0   0.212873373   1.74498  -0.34521  -1.19861  -0.43492

FINAL SINGLE POINT ENERGY     -3050.962943071948

DIPOLE MOMENT
-------------
                                X             Y             Z
Electronic contribution:      0.83842      11.95905      13.14330
Nuclear contribution   :     -1.47989     -10.20352     -13.48909
                        -----------------------------------------
Total Dipole Moment    :     -0.64147       1.75553      -0.34579
                        -----------------------------------------
Magnitude (a.u.)       :      1.90078
Magnitude (Debye)      :      4.83139

Rotational constants in cm-1:     0.002271     0.000182     0.000176
Rotational constants in MHz :    68.069662     5.460656     5.274859

                             ****ORCA TERMINATED NORMALLY****
TOTAL RUN TIME: 0 days 0 hours 11 minutes 50 seconds 413 msec
