                         Program Version 4.2.0 -  RELEASE  -
|  1> # ORCA input file
|  2> # SCF done       -178.455357681972          0.000706661041
|  3> ! CAM-B3LYP def2-SVP def2/J RIJCOSX Grid4 TightSCF
|  4> %maxcore 5000
|  5> %tddft
|  6>     Mode sTDDFT
|  7>     Ethresh 5.0
|  8>     maxcore 5000
|  9> end
| 10>
| 11> %pal
| 12>   nprocs 6
| 13>   end
| 14> * xyz 0 1
| 15>    C       -5.14398        -6.49334        -0.16957
| 16>    S       -6.84819        -6.66372         0.08171
| 17>    C       -7.17267        -5.54119        -1.19438
| 18>    C       -8.32488        -4.98577        -1.76982
| 19>    C       -8.00376        -4.10160        -2.76996
| 20>    C       -8.84223        -3.27184        -3.64488
| 21>    O       -8.36505        -2.52965        -4.46058
| 22>    O      -10.17203        -3.38077        -3.48724
| 23>    S       -6.28806        -3.93668        -3.02342
| 24>    C       -5.99212        -5.07803        -1.76449
| 25>    C       -4.81873        -5.62606        -1.17821
| 26>    N       -3.58303        -5.24019        -1.64618
| 27>    C       -2.33697        -5.55016        -1.21532
| 28>    S       -2.02551        -6.71529         0.02577
| 29>    C       -0.31640        -6.51096        -0.21864
| 30>    N        0.53956        -7.25905         0.58230
| 31>    O        1.74028        -7.13835         0.40699
| 32>    O        0.01696        -7.99254         1.41008
| 33>    C       -0.02319        -5.60324        -1.20298
| 34>    C       -1.16551        -5.02253        -1.77673
| 35>    C       -1.08302        -4.03728        -2.83472
| 36>    C       -1.97069        -3.06965        -3.11658
| 37>    C       -1.87937        -2.12243        -4.21038
| 38>    C       -0.70399        -1.92654        -4.94902
| 39>    C       -0.69323        -1.01613        -5.97577
| 40>    C       -1.84915        -0.28597        -6.30589
| 41>    C       -3.01838        -0.47075        -5.58209
| 42>    C       -3.01873        -1.37693        -4.54050
| 43>    C       -1.53998         0.58766        -7.41623
| 44>    C       -0.18977         0.40594        -7.76558
| 45>    C        0.45654        -0.63086        -6.87656
| 46>    C        0.96274        -1.83429        -7.69298
| 47>    C       -0.13449        -2.48809        -8.52427
| 48>    C        1.62132        -0.02998        -6.06774
| 49>    C        1.19923         1.16624        -5.22326
| 50>    C        0.36911         1.12681        -8.78849
| 51>    C       -0.41025         2.05492        -9.50523
| 52>    C       -1.75896         2.21696        -9.14633
| 53>    C       -2.32351         1.49754        -8.11453
| 54>    C        0.21672         2.79619       -10.56067
| 55>    C       -0.36158         3.69485       -11.40202
| 56>    C        0.36325         4.37729       -12.39507
| 57>    C       -0.16321         5.28092       -13.28287
| 58>    C        0.54653         5.99139       -14.28127
| 59>    C       -0.22434         6.82372       -15.03448
| 60>    C       -1.59071         6.81999       -14.67956
| 61>    S       -1.86453         5.72235       -13.34204
| 62>    C       -2.61137         7.54310       -15.26880
| 63>    C       -2.50307         8.45637       -16.34171
| 64>    C       -3.68538         9.00776       -16.73094
| 65>    C       -4.80852         8.57068       -15.98856
| 66>    S       -4.27509         7.42796       -14.75057
| 67>    C       -6.13428         8.90923       -16.06995
| 68>    C       -6.78703         9.72237       -17.02567
| 69>    C       -6.36048        10.22511       -18.25330
| 70>    C       -7.41687        10.97763       -18.83184
| 71>    C       -7.50571        11.66401       -20.01959
| 72>    C       -8.71379        12.32703       -20.30525
| 73>    C       -9.10820        13.09150       -21.38898
| 74>    C      -10.45349        13.54423       -21.17794
| 75>    C      -10.88416        13.05427       -19.96227
| 76>    C       -9.82918        12.28394       -19.37407
| 77>    C       -9.74851        11.59759       -18.19565
| 78>    C       -8.53581        10.92893       -17.90635
| 79>    C       -8.14844        10.15961       -16.83218
| 80>    C      -11.23530        14.36851       -22.06705
| 81>    C      -10.82216        14.86274       -23.23117
| 82>    H       -4.48993        -7.05676         0.46268
| 83>    H       -9.32179        -5.23357        -1.44967
| 84>    H      -10.42382        -4.01087        -2.80079
| 85>    H       -3.60880        -4.66554        -2.48148
| 86>    H        0.98696        -5.35851        -1.47768
| 87>    H       -0.17906        -4.11324        -3.42280
| 88>    H       -2.84203        -2.92734        -2.48853
| 89>    H        0.19279        -2.47181        -4.69755
| 90>    H       -3.91241         0.08408        -5.82257
| 91>    H       -3.92605        -1.52687        -3.97142
| 92>    H        1.38578        -2.57107        -7.00642
| 93>    H        1.76411        -1.49599        -8.35327
| 94>    H       -0.93795        -2.84821        -7.88527
| 95>    H        0.26886        -3.33166        -9.08002
| 96>    H       -0.55346        -1.77719        -9.23289
| 97>    H        2.40724         0.27565        -6.76165
| 98>    H        2.03358        -0.80490        -5.41770
| 99>    H        0.80085         1.95869        -5.85287
|100>    H        2.05330         1.55757        -4.67527
|101>    H        0.43226         0.87966        -4.50700
|102>    H        1.40771         0.99216        -9.05704
|103>    H       -2.36709         2.92597        -9.68612
|104>    H       -3.36149         1.64119        -7.85329
|105>    H        1.27607         2.60571       -10.69139
|106>    H       -1.41780         3.91694       -11.33448
|107>    H        1.42566         4.18184       -12.47130
|108>    H        1.60719         5.86320       -14.40855
|109>    H        0.15262         7.43588       -15.83402
|110>    H       -1.55558         8.68709       -16.79507
|111>    H       -3.76992         9.74265       -17.50868
|112>    H       -6.77569         8.50344       -15.29700
|113>    H       -5.41699        10.05021       -18.73266
|114>    H       -6.68014        11.70277       -20.71651
|115>    H       -8.50839        13.31238       -22.25292
|116>    H      -11.84860        13.21766       -19.51675
|117>    H      -10.57391        11.55709       -17.49835
|118>    H       -8.74298         9.92155       -15.96784
|119>    H      -12.23916        14.58434       -21.72230
|120>    H       -9.83386        14.67782       -23.61532
|121>    H      -11.46279        15.47332       -23.84346
|122> *
|123>
|124>                          ****END OF INPUT****

CARTESIAN COORDINATES (ANGSTROEM)
---------------------------------
  C     -5.143980   -6.493340   -0.169570
  S     -6.848190   -6.663720    0.081710
  C     -7.172670   -5.541190   -1.194380
  C     -8.324880   -4.985770   -1.769820
  C     -8.003760   -4.101600   -2.769960
  C     -8.842230   -3.271840   -3.644880
  O     -8.365050   -2.529650   -4.460580
  O    -10.172030   -3.380770   -3.487240
  S     -6.288060   -3.936680   -3.023420
  C     -5.992120   -5.078030   -1.764490
  C     -4.818730   -5.626060   -1.178210
  N     -3.583030   -5.240190   -1.646180
  C     -2.336970   -5.550160   -1.215320
  S     -2.025510   -6.715290    0.025770
  C     -0.316400   -6.510960   -0.218640
  N      0.539560   -7.259050    0.582300
  O      1.740280   -7.138350    0.406990
  O      0.016960   -7.992540    1.410080
  C     -0.023190   -5.603240   -1.202980
  C     -1.165510   -5.022530   -1.776730
  C     -1.083020   -4.037280   -2.834720
  C     -1.970690   -3.069650   -3.116580
  C     -1.879370   -2.122430   -4.210380
  C     -0.703990   -1.926540   -4.949020
  C     -0.693230   -1.016130   -5.975770
  C     -1.849150   -0.285970   -6.305890
  C     -3.018380   -0.470750   -5.582090
  C     -3.018730   -1.376930   -4.540500
  C     -1.539980    0.587660   -7.416230
  C     -0.189770    0.405940   -7.765580
  C      0.456540   -0.630860   -6.876560
  C      0.962740   -1.834290   -7.692980
  C     -0.134490   -2.488090   -8.524270
  C      1.621320   -0.029980   -6.067740
  C      1.199230    1.166240   -5.223260
  C      0.369110    1.126810   -8.788490
  C     -0.410250    2.054920   -9.505230
  C     -1.758960    2.216960   -9.146330
  C     -2.323510    1.497540   -8.114530
  C      0.216720    2.796190  -10.560670
  C     -0.361580    3.694850  -11.402020
  C      0.363250    4.377290  -12.395070
  C     -0.163210    5.280920  -13.282870
  C      0.546530    5.991390  -14.281270
  C     -0.224340    6.823720  -15.034480
  C     -1.590710    6.819990  -14.679560
  S     -1.864530    5.722350  -13.342040
  C     -2.611370    7.543100  -15.268800
  C     -2.503070    8.456370  -16.341710
  C     -3.685380    9.007760  -16.730940
  C     -4.808520    8.570680  -15.988560
  S     -4.275090    7.427960  -14.750570
  C     -6.134280    8.909230  -16.069950
  C     -6.787030    9.722370  -17.025670
  C     -6.360480   10.225110  -18.253300
  C     -7.416870   10.977630  -18.831840
  C     -7.505710   11.664010  -20.019590
  C     -8.713790   12.327030  -20.305250
  C     -9.108200   13.091500  -21.388980
  C    -10.453490   13.544230  -21.177940
  C    -10.884160   13.054270  -19.962270
  C     -9.829180   12.283940  -19.374070
  C     -9.748510   11.597590  -18.195650
  C     -8.535810   10.928930  -17.906350
  C     -8.148440   10.159610  -16.832180
  C    -11.235300   14.368510  -22.067050
  C    -10.822160   14.862740  -23.231170
  H     -4.489930   -7.056760    0.462680
  H     -9.321790   -5.233570   -1.449670
  H    -10.423820   -4.010870   -2.800790
  H     -3.608800   -4.665540   -2.481480
  H      0.986960   -5.358510   -1.477680
  H     -0.179060   -4.113240   -3.422800
  H     -2.842030   -2.927340   -2.488530
  H      0.192790   -2.471810   -4.697550
  H     -3.912410    0.084080   -5.822570
  H     -3.926050   -1.526870   -3.971420
  H      1.385780   -2.571070   -7.006420
  H      1.764110   -1.495990   -8.353270
  H     -0.937950   -2.848210   -7.885270
  H      0.268860   -3.331660   -9.080020
  H     -0.553460   -1.777190   -9.232890
  H      2.407240    0.275650   -6.761650
  H      2.033580   -0.804900   -5.417700
  H      0.800850    1.958690   -5.852870
  H      2.053300    1.557570   -4.675270
  H      0.432260    0.879660   -4.507000
  H      1.407710    0.992160   -9.057040
  H     -2.367090    2.925970   -9.686120
  H     -3.361490    1.641190   -7.853290
  H      1.276070    2.605710  -10.691390
  H     -1.417800    3.916940  -11.334480
  H      1.425660    4.181840  -12.471300
  H      1.607190    5.863200  -14.408550
  H      0.152620    7.435880  -15.834020
  H     -1.555580    8.687090  -16.795070
  H     -3.769920    9.742650  -17.508680
  H     -6.775690    8.503440  -15.297000
  H     -5.416990   10.050210  -18.732660
  H     -6.680140   11.702770  -20.716510
  H     -8.508390   13.312380  -22.252920
  H    -11.848600   13.217660  -19.516750
  H    -10.573910   11.557090  -17.498350
  H     -8.742980    9.921550  -15.967840
  H    -12.239160   14.584340  -21.722300
  H     -9.833860   14.677820  -23.615320
  H    -11.462790   15.473320  -23.843460

 Total Charge           Charge          ....    0
 Multiplicity           Mult            ....    1
 Number of Electrons    NEL             ....  502
 Basis Dimension        Dim             .... 1158

ORBITAL ENERGIES
----------------

  NO   OCC          E(Eh)            E(eV)
   0   2.0000     -88.984054     -2421.3792
   1   2.0000     -88.982468     -2421.3360
   2   2.0000     -88.973726     -2421.0982
   3   2.0000     -88.936189     -2420.0767
   4   2.0000     -88.932922     -2419.9878
   5   2.0000     -19.271156      -524.3948
   6   2.0000     -19.226109      -523.1690
   7   2.0000     -19.225854      -523.1621
   8   2.0000     -19.207252      -522.6559
   9   2.0000     -14.638590      -398.3363
  10   2.0000     -14.482181      -394.0802
  11   2.0000     -10.417077      -283.4631
  12   2.0000     -10.368376      -282.1379
  13   2.0000     -10.349572      -281.6262
  14   2.0000     -10.331767      -281.1417
  15   2.0000     -10.328097      -281.0418
  16   2.0000     -10.322326      -280.8848
  17   2.0000     -10.321352      -280.8583
  18   2.0000     -10.320465      -280.8341
  19   2.0000     -10.312259      -280.6108
  20   2.0000     -10.302856      -280.3550
  21   2.0000     -10.302217      -280.3376
  22   2.0000     -10.301735      -280.3244
  23   2.0000     -10.298076      -280.2249
  24   2.0000     -10.296790      -280.1899
  25   2.0000     -10.293403      -280.0977
  26   2.0000     -10.292808      -280.0815
  27   2.0000     -10.291878      -280.0562
  28   2.0000     -10.288500      -279.9643
  29   2.0000     -10.283969      -279.8410
  30   2.0000     -10.281595      -279.7764
  31   2.0000     -10.280017      -279.7335
  32   2.0000     -10.278942      -279.7042
  33   2.0000     -10.278315      -279.6872
  34   2.0000     -10.278056      -279.6801
  35   2.0000     -10.276410      -279.6353
  36   2.0000     -10.275864      -279.6205
  37   2.0000     -10.274055      -279.5713
  38   2.0000     -10.272706      -279.5345
  39   2.0000     -10.271417      -279.4995
  40   2.0000     -10.270396      -279.4717
  41   2.0000     -10.268640      -279.4239
  42   2.0000     -10.268579      -279.4223
  43   2.0000     -10.268442      -279.4185
  44   2.0000     -10.268264      -279.4137
  45   2.0000     -10.267844      -279.4022
  46   2.0000     -10.267653      -279.3971
  47   2.0000     -10.267161      -279.3837
  48   2.0000     -10.267013      -279.3796
  49   2.0000     -10.266672      -279.3703
  50   2.0000     -10.265834      -279.3475
  51   2.0000     -10.265461      -279.3374
  52   2.0000     -10.265062      -279.3265
  53   2.0000     -10.264016      -279.2981
  54   2.0000     -10.263941      -279.2960
  55   2.0000     -10.263693      -279.2893
  56   2.0000     -10.263239      -279.2769
  57   2.0000     -10.262677      -279.2616
  58   2.0000     -10.261266      -279.2232
  59   2.0000     -10.260691      -279.2076
  60   2.0000     -10.260565      -279.2042
  61   2.0000     -10.260367      -279.1988
  62   2.0000     -10.260150      -279.1929
  63   2.0000     -10.260055      -279.1903
  64   2.0000     -10.254439      -279.0375
  65   2.0000     -10.243063      -278.7279
  66   2.0000     -10.242683      -278.7176
  67   2.0000      -8.078480      -219.8266
  68   2.0000      -8.077571      -219.8019
  69   2.0000      -8.069227      -219.5748
  70   2.0000      -8.032366      -218.5718
  71   2.0000      -8.029443      -218.4923
  72   2.0000      -6.047960      -164.5733
  73   2.0000      -6.047249      -164.5540
  74   2.0000      -6.043815      -164.4606
  75   2.0000      -6.042753      -164.4317
  76   2.0000      -6.040336      -164.3659
  77   2.0000      -6.039133      -164.3332
  78   2.0000      -6.038964      -164.3286
  79   2.0000      -6.034725      -164.2132
  80   2.0000      -6.030520      -164.0988
  81   2.0000      -6.002098      -163.3254
  82   2.0000      -5.999213      -163.2469
  83   2.0000      -5.998180      -163.2188
  84   2.0000      -5.995264      -163.1394
  85   2.0000      -5.993215      -163.0837
  86   2.0000      -5.990182      -163.0011
  87   2.0000      -1.306097       -35.5407
  88   2.0000      -1.193091       -32.4657
  89   2.0000      -1.124763       -30.6063
  90   2.0000      -1.108393       -30.1609
  91   2.0000      -1.092312       -29.7233
  92   2.0000      -1.026637       -27.9362
  93   2.0000      -0.997185       -27.1348
  94   2.0000      -0.985927       -26.8284
  95   2.0000      -0.983873       -26.7726
  96   2.0000      -0.980988       -26.6940
  97   2.0000      -0.964227       -26.2379
  98   2.0000      -0.959809       -26.1177
  99   2.0000      -0.954166       -25.9642
 100   2.0000      -0.944435       -25.6994
 101   2.0000      -0.922092       -25.0914
 102   2.0000      -0.907720       -24.7003
 103   2.0000      -0.897772       -24.4296
 104   2.0000      -0.892074       -24.2746
 105   2.0000      -0.888947       -24.1895
 106   2.0000      -0.875578       -23.8257
 107   2.0000      -0.868769       -23.6404
 108   2.0000      -0.863408       -23.4945
 109   2.0000      -0.857750       -23.3406
 110   2.0000      -0.850429       -23.1414
 111   2.0000      -0.841861       -22.9082
 112   2.0000      -0.836045       -22.7499
 113   2.0000      -0.834619       -22.7111
 114   2.0000      -0.833935       -22.6925
 115   2.0000      -0.829961       -22.5844
 116   2.0000      -0.828205       -22.5366
 117   2.0000      -0.825716       -22.4689
 118   2.0000      -0.821264       -22.3477
 119   2.0000      -0.811852       -22.0916
 120   2.0000      -0.799883       -21.7659
 121   2.0000      -0.792372       -21.5615
 122   2.0000      -0.779721       -21.2173
 123   2.0000      -0.765206       -20.8223
 124   2.0000      -0.757478       -20.6120
 125   2.0000      -0.753355       -20.4998
 126   2.0000      -0.747010       -20.3272
 127   2.0000      -0.744018       -20.2458
 128   2.0000      -0.733652       -19.9637
 129   2.0000      -0.718374       -19.5480
 130   2.0000      -0.714681       -19.4475
 131   2.0000      -0.707777       -19.2596
 132   2.0000      -0.698880       -19.0175
 133   2.0000      -0.694141       -18.8885
 134   2.0000      -0.687240       -18.7008
 135   2.0000      -0.679852       -18.4997
 136   2.0000      -0.671737       -18.2789
 137   2.0000      -0.671063       -18.2606
 138   2.0000      -0.667627       -18.1670
 139   2.0000      -0.663658       -18.0590
 140   2.0000      -0.656783       -17.8720
 141   2.0000      -0.646598       -17.5948
 142   2.0000      -0.644946       -17.5499
 143   2.0000      -0.642003       -17.4698
 144   2.0000      -0.632709       -17.2169
 145   2.0000      -0.628026       -17.0895
 146   2.0000      -0.624118       -16.9831
 147   2.0000      -0.623240       -16.9592
 148   2.0000      -0.619842       -16.8667
 149   2.0000      -0.619395       -16.8546
 150   2.0000      -0.616312       -16.7707
 151   2.0000      -0.611569       -16.6416
 152   2.0000      -0.607600       -16.5336
 153   2.0000      -0.604374       -16.4459
 154   2.0000      -0.600636       -16.3441
 155   2.0000      -0.589848       -16.0506
 156   2.0000      -0.588942       -16.0259
 157   2.0000      -0.581064       -15.8116
 158   2.0000      -0.575256       -15.6535
 159   2.0000      -0.571702       -15.5568
 160   2.0000      -0.565358       -15.3842
 161   2.0000      -0.559720       -15.2307
 162   2.0000      -0.553706       -15.0671
 163   2.0000      -0.552566       -15.0361
 164   2.0000      -0.549501       -14.9527
 165   2.0000      -0.543843       -14.7987
 166   2.0000      -0.541054       -14.7228
 167   2.0000      -0.539630       -14.6841
 168   2.0000      -0.538838       -14.6625
 169   2.0000      -0.536873       -14.6091
 170   2.0000      -0.530011       -14.4223
 171   2.0000      -0.526968       -14.3395
 172   2.0000      -0.525054       -14.2875
 173   2.0000      -0.522594       -14.2205
 174   2.0000      -0.517167       -14.0728
 175   2.0000      -0.514330       -13.9956
 176   2.0000      -0.513434       -13.9713
 177   2.0000      -0.511796       -13.9267
 178   2.0000      -0.508190       -13.8285
 179   2.0000      -0.505627       -13.7588
 180   2.0000      -0.504398       -13.7254
 181   2.0000      -0.503632       -13.7045
 182   2.0000      -0.500740       -13.6258
 183   2.0000      -0.495207       -13.4753
 184   2.0000      -0.493610       -13.4318
 185   2.0000      -0.490660       -13.3515
 186   2.0000      -0.487792       -13.2735
 187   2.0000      -0.486569       -13.2402
 188   2.0000      -0.484040       -13.1714
 189   2.0000      -0.479423       -13.0458
 190   2.0000      -0.477581       -12.9956
 191   2.0000      -0.475677       -12.9438
 192   2.0000      -0.468975       -12.7615
 193   2.0000      -0.467256       -12.7147
 194   2.0000      -0.466527       -12.6948
 195   2.0000      -0.465744       -12.6735
 196   2.0000      -0.464495       -12.6396
 197   2.0000      -0.463602       -12.6152
 198   2.0000      -0.460650       -12.5349
 199   2.0000      -0.459877       -12.5139
 200   2.0000      -0.455976       -12.4077
 201   2.0000      -0.454040       -12.3550
 202   2.0000      -0.451444       -12.2844
 203   2.0000      -0.449482       -12.2310
 204   2.0000      -0.447020       -12.1640
 205   2.0000      -0.444898       -12.1063
 206   2.0000      -0.442530       -12.0419
 207   2.0000      -0.438562       -11.9339
 208   2.0000      -0.435764       -11.8577
 209   2.0000      -0.432772       -11.7763
 210   2.0000      -0.428580       -11.6623
 211   2.0000      -0.428472       -11.6593
 212   2.0000      -0.422571       -11.4987
 213   2.0000      -0.421586       -11.4719
 214   2.0000      -0.420922       -11.4539
 215   2.0000      -0.418111       -11.3774
 216   2.0000      -0.416578       -11.3357
 217   2.0000      -0.414614       -11.2822
 218   2.0000      -0.411346       -11.1933
 219   2.0000      -0.409882       -11.1535
 220   2.0000      -0.404242       -11.0000
 221   2.0000      -0.400250       -10.8914
 222   2.0000      -0.398812       -10.8522
 223   2.0000      -0.397514       -10.8169
 224   2.0000      -0.390307       -10.6208
 225   2.0000      -0.388557       -10.5732
 226   2.0000      -0.384203       -10.4547
 227   2.0000      -0.383470       -10.4348
 228   2.0000      -0.378842       -10.3088
 229   2.0000      -0.375163       -10.2087
 230   2.0000      -0.371598       -10.1117
 231   2.0000      -0.368901       -10.0383
 232   2.0000      -0.365087        -9.9345
 233   2.0000      -0.364247        -9.9117
 234   2.0000      -0.361189        -9.8285
 235   2.0000      -0.355180        -9.6649
 236   2.0000      -0.350062        -9.5257
 237   2.0000      -0.333425        -9.0730
 238   2.0000      -0.329316        -8.9611
 239   2.0000      -0.322392        -8.7727
 240   2.0000      -0.317203        -8.6315
 241   2.0000      -0.316709        -8.6181
 242   2.0000      -0.313561        -8.5324
 243   2.0000      -0.311056        -8.4643
 244   2.0000      -0.308029        -8.3819
 245   2.0000      -0.289044        -7.8653
 246   2.0000      -0.270447        -7.3592
 247   2.0000      -0.264159        -7.1881
 248   2.0000      -0.252803        -6.8791
 249   2.0000      -0.238709        -6.4956
 250   2.0000      -0.194177        -5.2838
 251   0.0000      -0.093079        -2.5328
 252   0.0000      -0.067103        -1.8260
 253   0.0000      -0.049361        -1.3432
 254   0.0000      -0.042143        -1.1468
 255   0.0000      -0.031531        -0.8580

MULLIKEN ATOMIC CHARGES
-----------------------
   0 C :   -0.213843
   1 S :    0.151214
   2 C :   -0.070192
   3 C :   -0.006909
   4 C :   -0.188134
   5 C :    0.198485
   6 O :   -0.177088
   7 O :   -0.153061
   8 S :    0.190969
   9 C :   -0.081027
  10 C :    0.140450
  11 N :   -0.015523
  12 C :   -0.087909
  13 S :    0.134151
  14 C :   -0.010423
  15 N :    0.282566
  16 O :   -0.260550
  17 O :   -0.278251
  18 C :    0.016944
  19 C :    0.102188
  20 C :   -0.016293
  21 C :   -0.047725
  22 C :    0.120722
  23 C :   -0.087916
  24 C :    0.010171
  25 C :    0.108307
  26 C :   -0.046480
  27 C :   -0.026168
  28 C :    0.100793
  29 C :    0.020890
  30 C :   -0.136587
  31 C :    0.066732
  32 C :    0.027757
  33 C :    0.069219
  34 C :    0.027002
  35 C :   -0.112951
  36 C :    0.134163
  37 C :   -0.015163
  38 C :   -0.040574
  39 C :   -0.017619
  40 C :    0.025315
  41 C :   -0.023526
  42 C :   -0.016252
  43 C :    0.031973
  44 C :    0.024061
  45 C :   -0.044688
  46 S :    0.069076
  47 C :   -0.047908
  48 C :    0.017896
  49 C :    0.025006
  50 C :   -0.056202
  51 S :    0.079671
  52 C :    0.029380
  53 C :    0.071755
  54 C :   -0.054500
  55 C :    0.061872
  56 C :   -0.013596
  57 C :    0.053050
  58 C :   -0.025837
  59 C :    0.064512
  60 C :   -0.030475
  61 C :    0.062092
  62 C :   -0.009792
  63 C :    0.060667
  64 C :   -0.036683
  65 C :    0.011008
  66 C :   -0.026976
  67 H :    0.043737
  68 H :   -0.011902
  69 H :    0.181155
  70 H :    0.135646
  71 H :    0.006137
  72 H :   -0.002147
  73 H :   -0.017520
  74 H :   -0.046824
  75 H :   -0.029716
  76 H :   -0.032471
  77 H :   -0.006319
  78 H :   -0.002604
  79 H :    0.019530
  80 H :    0.007156
  81 H :    0.024247
  82 H :   -0.003865
  83 H :   -0.004618
  84 H :    0.022744
  85 H :    0.007479
  86 H :    0.021474
  87 H :   -0.043604
  88 H :   -0.030026
  89 H :   -0.035001
  90 H :   -0.029250
  91 H :   -0.001552
  92 H :   -0.020360
  93 H :   -0.015621
  94 H :   -0.016836
  95 H :   -0.018398
  96 H :   -0.019266
  97 H :   -0.024965
  98 H :   -0.036644
  99 H :   -0.029008
 100 H :   -0.026610
 101 H :   -0.031183
 102 H :   -0.027149
 103 H :   -0.024491
 104 H :   -0.020790
 105 H :    0.006605
 106 H :    0.019595
Sum of atomic charges:   -0.0000000

LOEWDIN ATOMIC CHARGES
----------------------
   0 C :   -0.222265
   1 S :    0.432509
   2 C :   -0.203120
   3 C :   -0.053304
   4 C :   -0.224752
   5 C :    0.058656
   6 O :   -0.162251
   7 O :   -0.026885
   8 S :    0.469288
   9 C :   -0.209319
  10 C :   -0.029682
  11 N :    0.032431
  12 C :   -0.090610
  13 S :    0.467580
  14 C :   -0.223773
  15 N :    0.274979
  16 O :   -0.226064
  17 O :   -0.244402
  18 C :    0.004828
  19 C :   -0.108789
  20 C :   -0.023800
  21 C :   -0.036120
  22 C :   -0.029852
  23 C :   -0.019977
  24 C :    0.006370
  25 C :   -0.014100
  26 C :   -0.016281
  27 C :   -0.020616
  28 C :   -0.020962
  29 C :    0.001962
  30 C :   -0.035687
  31 C :   -0.011997
  32 C :   -0.057475
  33 C :   -0.011596
  34 C :   -0.057498
  35 C :   -0.022653
  36 C :   -0.023729
  37 C :   -0.013502
  38 C :   -0.015445
  39 C :   -0.019085
  40 C :   -0.028725
  41 C :   -0.056576
  42 C :   -0.146925
  43 C :   -0.037655
  44 C :   -0.034308
  45 C :   -0.180370
  46 S :    0.363351
  47 C :   -0.182097
  48 C :   -0.027131
  49 C :   -0.041006
  50 C :   -0.143867
  51 S :    0.364409
  52 C :   -0.055276
  53 C :   -0.055294
  54 C :   -0.014014
  55 C :   -0.050198
  56 C :    0.058565
  57 C :   -0.058545
  58 C :    0.039648
  59 C :   -0.057202
  60 C :    0.007052
  61 C :   -0.055438
  62 C :    0.064226
  63 C :   -0.062684
  64 C :    0.038484
  65 C :   -0.020335
  66 C :   -0.056619
  67 H :    0.015740
  68 H :    0.031442
  69 H :    0.094106
  70 H :    0.086950
  71 H :    0.045181
  72 H :    0.031407
  73 H :    0.020398
  74 H :    0.021463
  75 H :    0.029380
  76 H :    0.022952
  77 H :    0.018219
  78 H :    0.019845
  79 H :    0.024859
  80 H :    0.023352
  81 H :    0.026680
  82 H :    0.019563
  83 H :    0.018633
  84 H :    0.026233
  85 H :    0.023489
  86 H :    0.025393
  87 H :    0.022533
  88 H :    0.026392
  89 H :    0.027606
  90 H :    0.025239
  91 H :    0.021183
  92 H :    0.031118
  93 H :    0.032015
  94 H :    0.030361
  95 H :    0.030328
  96 H :    0.030126
  97 H :    0.027776
  98 H :    0.018009
  99 H :    0.032688
 100 H :    0.023823
 101 H :    0.022792
 102 H :    0.033774
 103 H :    0.024566
 104 H :    0.028851
 105 H :    0.017257
 106 H :    0.023799

  Mayer bond orders larger than 0.100000
B(  0-C ,  1-S ) :   1.1044 B(  0-C , 10-C ) :   1.5476 B(  0-C , 67-H ) :   0.9626
B(  1-S ,  2-C ) :   1.0898 B(  2-C ,  3-C ) :   1.2864 B(  2-C ,  9-C ) :   1.4766
B(  3-C ,  4-C ) :   1.5300 B(  3-C , 68-H ) :   0.9848 B(  4-C ,  5-C ) :   0.9403
B(  4-C ,  8-S ) :   1.1161 B(  5-C ,  6-O ) :   2.1919 B(  5-C ,  7-O ) :   1.2491
B(  7-O , 69-H ) :   0.9565 B(  8-S ,  9-C ) :   1.0732 B(  9-C , 10-C ) :   1.2375
B( 10-C , 11-N ) :   1.1218 B( 11-N , 12-C ) :   1.2243 B( 11-N , 70-H ) :   0.8880
B( 12-C , 13-S ) :   1.1413 B( 12-C , 19-C ) :   1.3650 B( 13-S , 14-C ) :   1.0657
B( 14-C , 15-N ) :   0.9914 B( 14-C , 18-C ) :   1.4593 B( 15-N , 16-O ) :   1.5251
B( 15-N , 17-O ) :   1.4970 B( 16-O , 17-O ) :   0.2494 B( 18-C , 19-C ) :   1.2561
B( 18-C , 71-H ) :   1.0080 B( 19-C , 20-C ) :   1.0506 B( 20-C , 21-C ) :   1.7327
B( 20-C , 72-H ) :   0.9587 B( 21-C , 22-C ) :   1.0553 B( 21-C , 73-H ) :   0.9661
B( 22-C , 23-C ) :   1.3078 B( 22-C , 27-C ) :   1.3396 B( 23-C , 24-C ) :   1.4114
B( 23-C , 74-H ) :   0.9968 B( 24-C , 25-C ) :   1.3552 B( 24-C , 30-C ) :   0.9151
B( 25-C , 26-C ) :   1.3450 B( 25-C , 28-C ) :   0.9977 B( 26-C , 27-C ) :   1.3777
B( 26-C , 75-H ) :   0.9923 B( 27-C , 76-H ) :   0.9914 B( 28-C , 29-C ) :   1.3642
B( 28-C , 38-C ) :   1.3277 B( 29-C , 30-C ) :   0.9152 B( 29-C , 35-C ) :   1.3839
B( 30-C , 31-C ) :   1.0354 B( 30-C , 33-C ) :   1.0388 B( 31-C , 32-C ) :   1.1022
B( 31-C , 77-H ) :   0.9392 B( 31-C , 78-H ) :   0.9394 B( 32-C , 79-H ) :   0.9641
B( 32-C , 80-H ) :   0.9638 B( 32-C , 81-H ) :   0.9643 B( 33-C , 34-C ) :   1.1009
B( 33-C , 82-H ) :   0.9387 B( 33-C , 83-H ) :   0.9388 B( 34-C , 84-H ) :   0.9646
B( 34-C , 85-H ) :   0.9639 B( 34-C , 86-H ) :   0.9641 B( 35-C , 36-C ) :   1.2759
B( 35-C , 87-H ) :   1.0122 B( 36-C , 37-C ) :   1.3314 B( 36-C , 39-C ) :   1.0763
B( 37-C , 38-C ) :   1.4074 B( 37-C , 88-H ) :   0.9853 B( 38-C , 89-H ) :   0.9891
B( 39-C , 40-C ) :   1.6422 B( 39-C , 90-H ) :   0.9871 B( 40-C , 41-C ) :   1.1562
B( 40-C , 91-H ) :   0.9638 B( 41-C , 42-C ) :   1.5595 B( 41-C , 92-H ) :   0.9829
B( 42-C , 43-C ) :   1.1443 B( 42-C , 46-S ) :   1.0265 B( 43-C , 44-C ) :   1.5835
B( 43-C , 93-H ) :   0.9989 B( 44-C , 45-C ) :   1.1956 B( 44-C , 94-H ) :   0.9935
B( 45-C , 46-S ) :   1.0424 B( 45-C , 47-C ) :   1.4939 B( 47-C , 48-C ) :   1.1948
B( 47-C , 51-S ) :   1.0532 B( 48-C , 49-C ) :   1.5933 B( 48-C , 95-H ) :   0.9927
B( 49-C , 50-C ) :   1.1545 B( 49-C , 96-H ) :   0.9922 B( 50-C , 51-S ) :   1.0278
B( 50-C , 52-C ) :   1.5735 B( 52-C , 53-C ) :   1.1573 B( 52-C , 97-H ) :   0.9498
B( 53-C , 54-C ) :   1.4620 B( 53-C , 64-C ) :   1.1147 B( 54-C , 55-C ) :   1.1152
B( 54-C , 98-H ) :   1.0091 B( 55-C , 56-C ) :   1.4489 B( 55-C , 63-C ) :   1.1228
B( 56-C , 57-C ) :   1.1264 B( 56-C , 99-H ) :   1.0036 B( 57-C , 58-C ) :   1.4527
B( 57-C , 61-C ) :   1.1226 B( 58-C , 59-C ) :   1.1330 B( 58-C ,100-H ) :   1.0074
B( 59-C , 60-C ) :   1.5219 B( 59-C , 65-C ) :   1.0855 B( 60-C , 61-C ) :   1.0745
B( 60-C ,101-H ) :   1.0171 B( 61-C , 62-C ) :   1.4850 B( 62-C , 63-C ) :   1.1100
B( 62-C ,102-H ) :   1.0049 B( 63-C , 64-C ) :   1.4544 B( 64-C ,103-H ) :   1.0153
B( 65-C , 66-C ) :   1.9318 B( 65-C ,104-H ) :   0.9664 B( 66-C ,105-H ) :   0.9520
B( 66-C ,106-H ) :   0.9500

-----------------------------------------------------------------------------
         ABSORPTION SPECTRUM VIA TRANSITION ELECTRIC DIPOLE MOMENTS
-----------------------------------------------------------------------------
State   Energy  Wavelength   fosc         T2         TX        TY        TZ
        (cm-1)    (nm)                  (au**2)     (au)      (au)      (au)
-----------------------------------------------------------------------------
   0    6921.5   1444.8   0.107795145   5.12715   1.21035  -1.31357   1.39167
   1   14189.5    704.7   2.242366759  52.02528  -3.37749   4.44147  -4.57069
   2   15409.4    649.0   0.089700037   1.91638   0.85703  -0.85374   0.67305
   3   22450.9    445.4   0.208955539   3.06404  -0.76571   1.09204  -1.13365
   4   22888.8    436.9   0.029246609   0.42066   0.61145  -0.20525   0.06823
   5   24488.5    408.4   0.572289136   7.69360   2.18861   1.08469  -1.31416
   6   25068.3    398.9   0.040355666   0.52997  -0.30223  -0.41399   0.51695
   7   25950.2    385.4   0.013473035   0.17092   0.37774  -0.16804   0.00093
   8   26408.0    378.7   0.064361934   0.80236  -0.80966   0.26585  -0.27591
   9   27808.6    359.6   0.093566144   1.10768   0.99436   0.11918  -0.32360
  10   28209.1    354.5   0.297639414   3.47357   1.83286  -0.21495   0.26077
  11   28836.8    346.8   0.086592373   0.98857  -0.18522   0.64766  -0.73130
  12   29113.5    343.5   0.660993957   7.47445   0.15196  -1.77188   2.07649
  13   29647.3    337.3   0.108207324   1.20157  -0.78762   0.56462  -0.51228
  14   30484.6    328.0   0.120302817   1.29918   0.34115   0.79487  -0.74229
  15   30862.8    324.0   0.059001341   0.62936  -0.31456   0.60351  -0.40767
  16   32359.1    309.0   0.031703633   0.32254  -0.18097   0.34103  -0.41653
  17   32676.6    306.0   0.009286491   0.09356  -0.27993   0.03817  -0.11723
  18   32740.7    305.4   0.028472750   0.28630  -0.39637  -0.00801  -0.35934
  19   33483.4    298.7   0.303683430   2.98584  -0.29454   0.99806  -1.37948
  20   34011.7    294.0   0.187620834   1.81605  -0.93766   0.62910  -0.73558
  21   34385.1    290.8   0.000891989   0.00854   0.06332   0.04249  -0.05220
  22   34832.2    287.1   0.389494707   3.68126  -0.36135  -1.11939   1.51581
  23   35378.2    282.7   0.131104827   1.22000   0.30232  -0.66490   0.82856
  24   35583.5    281.0   0.123611196   1.14363  -0.01775   0.69893  -0.80921
  25   35874.9    278.7   0.043768517   0.40165  -0.37699  -0.10509   0.49848
  26   35967.8    278.0   0.034985384   0.32022   0.44071   0.23994  -0.26158
  27   36977.2    270.4   0.040600021   0.36147   0.15444  -0.35952   0.45647
  28   37501.6    266.7   0.047042604   0.41297   0.39585  -0.34504   0.37043
  29   37751.2    264.9   0.016714044   0.14576  -0.36121   0.05548   0.11048
  30   37860.9    264.1   0.073536542   0.63942  -0.60111   0.42989  -0.30543
  31   38043.0    262.9   0.019691414   0.17040   0.38705  -0.04651   0.13576
  32   39064.1    256.0   0.056601905   0.47701  -0.19338  -0.29436   0.59411
  33   39250.1    254.8   0.025201447   0.21138   0.04315   0.25876  -0.37757
  34   39415.4    253.7   0.007676136   0.06411   0.08252   0.18203  -0.15547
  35   39934.9    250.4   0.006699819   0.05523  -0.16164  -0.12056   0.12070
  36   40257.4    248.4   0.047308739   0.38688  -0.46834   0.34036  -0.22735

FINAL SINGLE POINT ENERGY     -4555.335632277444

DIPOLE MOMENT
-------------
                                X             Y             Z
Electronic contribution:    -26.34140     -53.43028      61.24546
Nuclear contribution   :     25.15605      54.21014     -62.23219
                        -----------------------------------------
Total Dipole Moment    :     -1.18535       0.77987      -0.98674
                        -----------------------------------------
Magnitude (a.u.)       :      1.72827
Magnitude (Debye)      :      4.39290

Rotational constants in cm-1:     0.001474     0.000173     0.000156
Rotational constants in MHz :    44.176111     5.195688     4.676403

                             ****ORCA TERMINATED NORMALLY****
TOTAL RUN TIME: 0 days 0 hours 16 minutes 59 seconds 856 msec
