                         Program Version 4.2.0 -  RELEASE  -
|  1> # ORCA input file
|  2> # SCF done       -187.019849061723          0.000780859251
|  3> ! CAM-B3LYP def2-SVP def2/J RIJCOSX Grid4 TightSCF
|  4> %maxcore 5000
|  5> %tddft
|  6>     Mode sTDDFT
|  7>     Ethresh 5.0
|  8>     maxcore 5000
|  9> end
| 10>
| 11> %pal
| 12>   nprocs 6
| 13>   end
| 14> * xyz 0 1
| 15>    C       -3.56356        -1.06189         0.40508
| 16>    C       -4.06440        -2.27027         0.82690
| 17>    C       -3.27007        -3.40376         1.08206
| 18>    N       -2.66599        -4.35482         1.30772
| 19>    C       -5.42487        -2.51673         1.10040
| 20>    N       -6.50854        -2.79268         1.36293
| 21>    C       -2.15281        -0.75009         0.19269
| 22>    C       -2.04445         0.62864        -0.11243
| 23>    C       -0.84368         1.23599        -0.38355
| 24>    C        0.31172         0.45028        -0.32450
| 25>    C        0.19598        -0.92197        -0.00919
| 26>    C       -1.02375        -1.54244         0.24379
| 27>    S        1.75080        -1.69140         0.01831
| 28>    C        2.52671        -0.19540        -0.37191
| 29>    C        1.66709         0.83488        -0.52492
| 30>    C       -3.38352         1.24679        -0.07960
| 31>    O       -3.62482         2.41723        -0.31936
| 32>    C       -4.32490         0.14431         0.20268
| 33>    C       -5.69153         0.24054         0.05323
| 34>    C       -6.39697         1.45669         0.10567
| 35>    C       -5.95786         2.54815         0.89260
| 36>    C       -6.49457         3.86715         0.70130
| 37>    N       -5.86632         4.88927         1.26175
| 38>    C       -4.86564         4.69465         2.09894
| 39>    C       -4.57195         3.36524         2.52009
| 40>    N       -5.09385         2.33986         1.88692
| 41>    C       -3.72878         3.12855         3.63190
| 42>    N       -3.03397         2.96422         4.52917
| 43>    C       -4.11865         5.78868         2.57795
| 44>    N       -3.45377         6.63497         2.97674
| 45>    C       -7.65793         4.13955        -0.08887
| 46>    C       -8.22769         2.98588        -0.70406
| 47>    C       -7.59418         1.68398        -0.61734
| 48>    N       -8.22092         0.77191        -1.34736
| 49>    S       -9.49195         1.45322        -2.06849
| 50>    N       -9.28780         2.94891        -1.50163
| 51>    C       -8.03955         5.48052        -0.27724
| 52>    S       -6.84894         6.71085         0.08591
| 53>    C       -7.86046         7.97076        -0.57787
| 54>    C       -9.12857         7.44739        -0.92650
| 55>    C       -9.22813         6.08039        -0.75988
| 56>    C      -10.52690         5.37341        -0.97520
| 57>    C      -11.68946         6.35769        -0.91356
| 58>    C      -11.45076         7.50234        -1.89400
| 59>    O      -12.62833         8.28388        -1.94252
| 60>    C      -12.69083         9.19441        -3.00933
| 61>    C      -10.23557         8.31831        -1.43027
| 62>    C       -7.43639         9.28455        -0.67877
| 63>    C       -6.14728         9.74706        -0.42251
| 64>    C       -5.69880        11.07603        -0.52372
| 65>    C       -4.36114        11.24115        -0.25662
| 66>    C       -3.70835        10.04482         0.06172
| 67>    S       -4.82921         8.70494         0.03265
| 68>    C       -2.36396         9.80269         0.35640
| 69>    C       -1.28528        10.69975         0.42867
| 70>    C       -0.09370        10.09382         0.72740
| 71>    C       -0.18049         8.69730         0.91435
| 72>    S       -1.83785         8.18189         0.67969
| 73>    C        0.87102         7.85455         1.22119
| 74>    C        0.83555         6.47884         1.48316
| 75>    C       -0.31021         5.62220         1.59151
| 76>    C        0.11828         4.34573         1.90405
| 77>    C       -0.60900         3.16786         2.15202
| 78>    C        0.09894         2.04532         2.50086
| 79>    C       -0.31905         0.73119         2.83414
| 80>    C        0.80698        -0.05593         3.07117
| 81>    C        1.95611         0.75751         2.90184
| 82>    C        1.55287         2.05369         2.56166
| 83>    C        2.27956         3.21412         2.30954
| 84>    C        1.57011         4.36678         1.99204
| 85>    C        1.97847         5.68307         1.73150
| 86>    C        0.76691        -1.45809         3.41170
| 87>    C        1.82889        -2.23738         3.59721
| 88>    H       -0.79339         2.28689        -0.62427
| 89>    H       -1.06045        -2.59590         0.46629
| 90>    H        3.59490        -0.18245        -0.46905
| 91>    H        1.96406         1.83984        -0.76569
| 92>    H       -6.26864        -0.64195        -0.19166
| 93>    H      -10.65152         4.59471        -0.22267
| 94>    H      -10.51443         4.87678        -1.94729
| 95>    H      -11.78989         6.77256         0.09033
| 96>    H      -12.62323         5.85714        -1.16766
| 97>    H      -11.24885         7.08464        -2.89550
| 98>    H      -13.69554         9.61262        -2.99439
| 99>    H      -12.52074         8.69275        -3.97024
|100>    H      -11.96372        10.00767        -2.90224
|101>    H      -10.56341         8.98608        -0.62588
|102>    H       -9.86337         8.94200        -2.24764
|103>    H       -8.15104        10.02635        -1.01049
|104>    H       -6.36365        11.87853        -0.79094
|105>    H       -3.85148        12.18740        -0.29156
|106>    H       -1.40380        11.75523         0.26204
|107>    H        0.84088        10.61799         0.82649
|108>    H        1.84698         8.32375         1.27222
|109>    H       -1.33587         5.92105         1.49456
|110>    H       -1.68428         3.15875         2.06554
|111>    H       -1.34130         0.40729         2.90032
|112>    H        2.97408         0.43353         3.01709
|113>    H        3.35885         3.22044         2.37339
|114>    H        2.99334         6.03713         1.72096
|115>    H       -0.22756        -1.87585         3.50384
|116>    H        2.83630        -1.86751         3.51036
|117>    H        1.72304        -3.27963         3.84092
|118> *
|119>
|120>                          ****END OF INPUT****

CARTESIAN COORDINATES (ANGSTROEM)
---------------------------------
  C     -3.563560   -1.061890    0.405080
  C     -4.064400   -2.270270    0.826900
  C     -3.270070   -3.403760    1.082060
  N     -2.665990   -4.354820    1.307720
  C     -5.424870   -2.516730    1.100400
  N     -6.508540   -2.792680    1.362930
  C     -2.152810   -0.750090    0.192690
  C     -2.044450    0.628640   -0.112430
  C     -0.843680    1.235990   -0.383550
  C      0.311720    0.450280   -0.324500
  C      0.195980   -0.921970   -0.009190
  C     -1.023750   -1.542440    0.243790
  S      1.750800   -1.691400    0.018310
  C      2.526710   -0.195400   -0.371910
  C      1.667090    0.834880   -0.524920
  C     -3.383520    1.246790   -0.079600
  O     -3.624820    2.417230   -0.319360
  C     -4.324900    0.144310    0.202680
  C     -5.691530    0.240540    0.053230
  C     -6.396970    1.456690    0.105670
  C     -5.957860    2.548150    0.892600
  C     -6.494570    3.867150    0.701300
  N     -5.866320    4.889270    1.261750
  C     -4.865640    4.694650    2.098940
  C     -4.571950    3.365240    2.520090
  N     -5.093850    2.339860    1.886920
  C     -3.728780    3.128550    3.631900
  N     -3.033970    2.964220    4.529170
  C     -4.118650    5.788680    2.577950
  N     -3.453770    6.634970    2.976740
  C     -7.657930    4.139550   -0.088870
  C     -8.227690    2.985880   -0.704060
  C     -7.594180    1.683980   -0.617340
  N     -8.220920    0.771910   -1.347360
  S     -9.491950    1.453220   -2.068490
  N     -9.287800    2.948910   -1.501630
  C     -8.039550    5.480520   -0.277240
  S     -6.848940    6.710850    0.085910
  C     -7.860460    7.970760   -0.577870
  C     -9.128570    7.447390   -0.926500
  C     -9.228130    6.080390   -0.759880
  C    -10.526900    5.373410   -0.975200
  C    -11.689460    6.357690   -0.913560
  C    -11.450760    7.502340   -1.894000
  O    -12.628330    8.283880   -1.942520
  C    -12.690830    9.194410   -3.009330
  C    -10.235570    8.318310   -1.430270
  C     -7.436390    9.284550   -0.678770
  C     -6.147280    9.747060   -0.422510
  C     -5.698800   11.076030   -0.523720
  C     -4.361140   11.241150   -0.256620
  C     -3.708350   10.044820    0.061720
  S     -4.829210    8.704940    0.032650
  C     -2.363960    9.802690    0.356400
  C     -1.285280   10.699750    0.428670
  C     -0.093700   10.093820    0.727400
  C     -0.180490    8.697300    0.914350
  S     -1.837850    8.181890    0.679690
  C      0.871020    7.854550    1.221190
  C      0.835550    6.478840    1.483160
  C     -0.310210    5.622200    1.591510
  C      0.118280    4.345730    1.904050
  C     -0.609000    3.167860    2.152020
  C      0.098940    2.045320    2.500860
  C     -0.319050    0.731190    2.834140
  C      0.806980   -0.055930    3.071170
  C      1.956110    0.757510    2.901840
  C      1.552870    2.053690    2.561660
  C      2.279560    3.214120    2.309540
  C      1.570110    4.366780    1.992040
  C      1.978470    5.683070    1.731500
  C      0.766910   -1.458090    3.411700
  C      1.828890   -2.237380    3.597210
  H     -0.793390    2.286890   -0.624270
  H     -1.060450   -2.595900    0.466290
  H      3.594900   -0.182450   -0.469050
  H      1.964060    1.839840   -0.765690
  H     -6.268640   -0.641950   -0.191660
  H    -10.651520    4.594710   -0.222670
  H    -10.514430    4.876780   -1.947290
  H    -11.789890    6.772560    0.090330
  H    -12.623230    5.857140   -1.167660
  H    -11.248850    7.084640   -2.895500
  H    -13.695540    9.612620   -2.994390
  H    -12.520740    8.692750   -3.970240
  H    -11.963720   10.007670   -2.902240
  H    -10.563410    8.986080   -0.625880
  H     -9.863370    8.942000   -2.247640
  H     -8.151040   10.026350   -1.010490
  H     -6.363650   11.878530   -0.790940
  H     -3.851480   12.187400   -0.291560
  H     -1.403800   11.755230    0.262040
  H      0.840880   10.617990    0.826490
  H      1.846980    8.323750    1.272220
  H     -1.335870    5.921050    1.494560
  H     -1.684280    3.158750    2.065540
  H     -1.341300    0.407290    2.900320
  H      2.974080    0.433530    3.017090
  H      3.358850    3.220440    2.373390
  H      2.993340    6.037130    1.720960
  H     -0.227560   -1.875850    3.503840
  H      2.836300   -1.867510    3.510360
  H      1.723040   -3.279630    3.840920

 Total Charge           Charge          ....    0
 Multiplicity           Mult            ....    1
 Number of Electrons    NEL             ....  530
 Basis Dimension        Dim             .... 1192

ORBITAL ENERGIES
----------------

  NO   OCC          E(Eh)            E(eV)
   0   2.0000     -89.004286     -2421.9298
   1   2.0000     -88.969751     -2420.9900
   2   2.0000     -88.964915     -2420.8584
   3   2.0000     -88.955317     -2420.5972
   4   2.0000     -88.946173     -2420.3484
   5   2.0000     -19.206936      -522.6473
   6   2.0000     -19.192303      -522.2491
   7   2.0000     -14.441540      -392.9743
   8   2.0000     -14.428476      -392.6188
   9   2.0000     -14.427663      -392.5967
  10   2.0000     -14.419685      -392.3796
  11   2.0000     -14.416458      -392.2918
  12   2.0000     -14.415806      -392.2740
  13   2.0000     -14.390518      -391.5859
  14   2.0000     -14.385165      -391.4402
  15   2.0000     -10.358001      -281.8555
  16   2.0000     -10.351108      -281.6680
  17   2.0000     -10.342272      -281.4275
  18   2.0000     -10.341645      -281.4105
  19   2.0000     -10.328685      -281.0578
  20   2.0000     -10.327864      -281.0355
  21   2.0000     -10.324644      -280.9478
  22   2.0000     -10.324361      -280.9401
  23   2.0000     -10.323385      -280.9136
  24   2.0000     -10.321539      -280.8634
  25   2.0000     -10.321016      -280.8491
  26   2.0000     -10.314965      -280.6845
  27   2.0000     -10.314557      -280.6734
  28   2.0000     -10.314077      -280.6603
  29   2.0000     -10.313457      -280.6434
  30   2.0000     -10.313225      -280.6371
  31   2.0000     -10.312812      -280.6259
  32   2.0000     -10.312747      -280.6241
  33   2.0000     -10.311829      -280.5991
  34   2.0000     -10.310479      -280.5624
  35   2.0000     -10.310076      -280.5514
  36   2.0000     -10.308286      -280.5027
  37   2.0000     -10.306051      -280.4419
  38   2.0000     -10.306044      -280.4417
  39   2.0000     -10.305864      -280.4368
  40   2.0000     -10.304324      -280.3949
  41   2.0000     -10.303262      -280.3660
  42   2.0000     -10.302896      -280.3561
  43   2.0000     -10.300327      -280.2862
  44   2.0000     -10.300116      -280.2804
  45   2.0000     -10.296238      -280.1749
  46   2.0000     -10.295725      -280.1609
  47   2.0000     -10.295028      -280.1420
  48   2.0000     -10.292028      -280.0603
  49   2.0000     -10.289184      -279.9829
  50   2.0000     -10.288236      -279.9571
  51   2.0000     -10.287988      -279.9504
  52   2.0000     -10.287486      -279.9367
  53   2.0000     -10.287391      -279.9341
  54   2.0000     -10.285992      -279.8961
  55   2.0000     -10.285537      -279.8837
  56   2.0000     -10.284311      -279.8503
  57   2.0000     -10.283940      -279.8402
  58   2.0000     -10.283757      -279.8353
  59   2.0000     -10.283616      -279.8314
  60   2.0000     -10.282704      -279.8066
  61   2.0000     -10.280692      -279.7519
  62   2.0000     -10.280384      -279.7435
  63   2.0000     -10.279032      -279.7067
  64   2.0000     -10.278907      -279.7033
  65   2.0000     -10.272721      -279.5350
  66   2.0000     -10.271196      -279.4934
  67   2.0000     -10.270663      -279.4789
  68   2.0000     -10.264384      -279.3081
  69   2.0000     -10.262318      -279.2519
  70   2.0000     -10.261089      -279.2184
  71   2.0000     -10.258911      -279.1592
  72   2.0000     -10.253604      -279.0148
  73   2.0000      -8.096357      -220.3131
  74   2.0000      -8.065376      -219.4700
  75   2.0000      -8.060082      -219.3260
  76   2.0000      -8.051059      -219.0804
  77   2.0000      -8.039863      -218.7758
  78   2.0000      -6.067779      -165.1127
  79   2.0000      -6.060123      -164.9043
  80   2.0000      -6.058184      -164.8516
  81   2.0000      -6.034898      -164.2179
  82   2.0000      -6.030639      -164.1020
  83   2.0000      -6.029594      -164.0736
  84   2.0000      -6.026905      -164.0004
  85   2.0000      -6.025227      -163.9548
  86   2.0000      -6.021846      -163.8628
  87   2.0000      -6.020567      -163.8280
  88   2.0000      -6.016273      -163.7111
  89   2.0000      -6.012822      -163.6172
  90   2.0000      -6.009734      -163.5332
  91   2.0000      -6.004971      -163.4036
  92   2.0000      -6.001265      -163.3027
  93   2.0000      -1.110481       -30.2177
  94   2.0000      -1.109757       -30.1980
  95   2.0000      -1.107392       -30.1337
  96   2.0000      -1.097157       -29.8551
  97   2.0000      -1.025976       -27.9182
  98   2.0000      -1.015705       -27.6387
  99   2.0000      -1.005736       -27.3675
 100   2.0000      -1.002524       -27.2801
 101   2.0000      -0.999116       -27.1873
 102   2.0000      -0.996596       -27.1188
 103   2.0000      -0.992175       -26.9984
 104   2.0000      -0.987159       -26.8620
 105   2.0000      -0.984531       -26.7905
 106   2.0000      -0.978096       -26.6153
 107   2.0000      -0.967530       -26.3278
 108   2.0000      -0.965510       -26.2729
 109   2.0000      -0.962185       -26.1824
 110   2.0000      -0.951833       -25.9007
 111   2.0000      -0.922222       -25.0949
 112   2.0000      -0.911521       -24.8038
 113   2.0000      -0.909899       -24.7596
 114   2.0000      -0.901500       -24.5311
 115   2.0000      -0.889695       -24.2098
 116   2.0000      -0.884871       -24.0786
 117   2.0000      -0.881590       -23.9893
 118   2.0000      -0.877018       -23.8649
 119   2.0000      -0.868400       -23.6304
 120   2.0000      -0.865451       -23.5501
 121   2.0000      -0.860928       -23.4271
 122   2.0000      -0.855412       -23.2769
 123   2.0000      -0.848037       -23.0763
 124   2.0000      -0.837916       -22.8008
 125   2.0000      -0.830372       -22.5956
 126   2.0000      -0.821033       -22.3415
 127   2.0000      -0.818434       -22.2707
 128   2.0000      -0.815218       -22.1832
 129   2.0000      -0.807674       -21.9779
 130   2.0000      -0.805580       -21.9209
 131   2.0000      -0.792900       -21.5759
 132   2.0000      -0.783970       -21.3329
 133   2.0000      -0.773127       -21.0378
 134   2.0000      -0.764910       -20.8143
 135   2.0000      -0.762045       -20.7363
 136   2.0000      -0.755843       -20.5675
 137   2.0000      -0.738672       -20.1003
 138   2.0000      -0.732884       -19.9428
 139   2.0000      -0.720223       -19.5983
 140   2.0000      -0.713005       -19.4018
 141   2.0000      -0.702949       -19.1282
 142   2.0000      -0.699520       -19.0349
 143   2.0000      -0.693362       -18.8674
 144   2.0000      -0.683666       -18.6035
 145   2.0000      -0.682803       -18.5800
 146   2.0000      -0.675242       -18.3743
 147   2.0000      -0.674704       -18.3596
 148   2.0000      -0.667594       -18.1662
 149   2.0000      -0.663657       -18.0590
 150   2.0000      -0.661086       -17.9891
 151   2.0000      -0.658362       -17.9149
 152   2.0000      -0.653342       -17.7783
 153   2.0000      -0.643458       -17.5094
 154   2.0000      -0.642004       -17.4698
 155   2.0000      -0.636156       -17.3107
 156   2.0000      -0.633420       -17.2362
 157   2.0000      -0.631267       -17.1776
 158   2.0000      -0.629719       -17.1355
 159   2.0000      -0.612619       -16.6702
 160   2.0000      -0.609142       -16.5756
 161   2.0000      -0.605013       -16.4632
 162   2.0000      -0.601857       -16.3774
 163   2.0000      -0.597799       -16.2669
 164   2.0000      -0.595155       -16.1950
 165   2.0000      -0.591746       -16.1022
 166   2.0000      -0.589308       -16.0359
 167   2.0000      -0.579686       -15.7741
 168   2.0000      -0.575707       -15.6658
 169   2.0000      -0.572711       -15.5843
 170   2.0000      -0.566655       -15.4195
 171   2.0000      -0.562424       -15.3043
 172   2.0000      -0.557873       -15.1805
 173   2.0000      -0.551326       -15.0024
 174   2.0000      -0.544891       -14.8272
 175   2.0000      -0.543516       -14.7898
 176   2.0000      -0.541251       -14.7282
 177   2.0000      -0.537727       -14.6323
 178   2.0000      -0.535015       -14.5585
 179   2.0000      -0.531649       -14.4669
 180   2.0000      -0.529190       -14.4000
 181   2.0000      -0.525610       -14.3026
 182   2.0000      -0.525284       -14.2937
 183   2.0000      -0.521196       -14.1825
 184   2.0000      -0.517515       -14.0823
 185   2.0000      -0.515379       -14.0242
 186   2.0000      -0.514186       -13.9917
 187   2.0000      -0.513514       -13.9734
 188   2.0000      -0.508701       -13.8425
 189   2.0000      -0.507942       -13.8218
 190   2.0000      -0.505689       -13.7605
 191   2.0000      -0.503315       -13.6959
 192   2.0000      -0.499095       -13.5811
 193   2.0000      -0.497340       -13.5333
 194   2.0000      -0.495109       -13.4726
 195   2.0000      -0.492816       -13.4102
 196   2.0000      -0.492165       -13.3925
 197   2.0000      -0.489363       -13.3162
 198   2.0000      -0.488179       -13.2840
 199   2.0000      -0.480478       -13.0745
 200   2.0000      -0.479973       -13.0607
 201   2.0000      -0.478413       -13.0183
 202   2.0000      -0.474602       -12.9146
 203   2.0000      -0.472792       -12.8653
 204   2.0000      -0.471551       -12.8316
 205   2.0000      -0.469379       -12.7725
 206   2.0000      -0.467036       -12.7087
 207   2.0000      -0.466000       -12.6805
 208   2.0000      -0.463685       -12.6175
 209   2.0000      -0.460005       -12.5174
 210   2.0000      -0.459341       -12.4993
 211   2.0000      -0.457036       -12.4366
 212   2.0000      -0.453004       -12.3269
 213   2.0000      -0.452107       -12.3025
 214   2.0000      -0.450270       -12.2525
 215   2.0000      -0.448746       -12.2110
 216   2.0000      -0.446286       -12.1441
 217   2.0000      -0.445091       -12.1116
 218   2.0000      -0.439530       -11.9602
 219   2.0000      -0.439325       -11.9547
 220   2.0000      -0.437615       -11.9081
 221   2.0000      -0.432171       -11.7600
 222   2.0000      -0.429113       -11.6768
 223   2.0000      -0.427792       -11.6408
 224   2.0000      -0.425264       -11.5720
 225   2.0000      -0.424116       -11.5408
 226   2.0000      -0.420162       -11.4332
 227   2.0000      -0.419869       -11.4252
 228   2.0000      -0.419210       -11.4073
 229   2.0000      -0.416844       -11.3429
 230   2.0000      -0.415747       -11.3130
 231   2.0000      -0.412681       -11.2296
 232   2.0000      -0.409101       -11.1322
 233   2.0000      -0.407547       -11.0899
 234   2.0000      -0.402280       -10.9466
 235   2.0000      -0.400799       -10.9063
 236   2.0000      -0.398157       -10.8344
 237   2.0000      -0.396741       -10.7959
 238   2.0000      -0.392213       -10.6727
 239   2.0000      -0.388820       -10.5803
 240   2.0000      -0.387781       -10.5520
 241   2.0000      -0.385376       -10.4866
 242   2.0000      -0.383185       -10.4270
 243   2.0000      -0.375009       -10.2045
 244   2.0000      -0.371556       -10.1105
 245   2.0000      -0.366745        -9.9796
 246   2.0000      -0.361041        -9.8244
 247   2.0000      -0.350899        -9.5485
 248   2.0000      -0.350083        -9.5263
 249   2.0000      -0.348993        -9.4966
 250   2.0000      -0.336998        -9.1702
 251   2.0000      -0.333776        -9.0825
 252   2.0000      -0.330975        -9.0063
 253   2.0000      -0.328286        -8.9331
 254   2.0000      -0.322150        -8.7662
 255   2.0000      -0.317150        -8.6301
 256   2.0000      -0.311378        -8.4730
 257   2.0000      -0.302868        -8.2414
 258   2.0000      -0.297897        -8.1062
 259   2.0000      -0.297023        -8.0824
 260   2.0000      -0.285553        -7.7703
 261   2.0000      -0.273998        -7.4559
 262   2.0000      -0.268323        -7.3014
 263   2.0000      -0.242866        -6.6087
 264   2.0000      -0.207117        -5.6359
 265   0.0000      -0.119876        -3.2620
 266   0.0000      -0.112628        -3.0648
 267   0.0000      -0.081367        -2.2141
 268   0.0000      -0.059820        -1.6278
 269   0.0000      -0.040303        -1.0967

MULLIKEN ATOMIC CHARGES
-----------------------
   0 C :    0.293608
   1 C :   -0.357352
   2 C :   -0.194982
   3 N :    0.131907
   4 C :   -0.209394
   5 N :    0.157092
   6 C :    0.023835
   7 C :   -0.029013
   8 C :   -0.062995
   9 C :    0.096711
  10 C :   -0.085934
  11 C :   -0.053286
  12 S :    0.138777
  13 C :   -0.076866
  14 C :    0.047066
  15 C :    0.142972
  16 O :   -0.194008
  17 C :   -0.097417
  18 C :   -0.040740
  19 C :    0.043958
  20 C :   -0.036884
  21 C :   -0.034688
  22 N :   -0.029924
  23 C :   -0.089476
  24 C :   -0.155480
  25 N :    0.037322
  26 C :   -0.209813
  27 N :    0.209904
  28 C :   -0.212351
  29 N :    0.174402
  30 C :    0.149185
  31 C :   -0.003862
  32 C :    0.002719
  33 N :   -0.276391
  34 S :    0.483932
  35 N :   -0.303229
  36 C :   -0.175461
  37 S :    0.089177
  38 C :   -0.016244
  39 C :   -0.101737
  40 C :   -0.075550
  41 C :    0.172037
  42 C :    0.090400
  43 C :    0.079074
  44 O :   -0.370497
  45 C :    0.196088
  46 C :    0.153894
  47 C :   -0.047097
  48 C :   -0.012395
  49 C :    0.007814
  50 C :    0.045758
  51 C :   -0.055065
  52 S :    0.117416
  53 C :    0.004819
  54 C :    0.008250
  55 C :    0.058150
  56 C :   -0.055491
  57 S :    0.126255
  58 C :    0.038015
  59 C :    0.035824
  60 C :   -0.001277
  61 C :    0.036304
  62 C :    0.051658
  63 C :    0.062574
  64 C :    0.018740
  65 C :    0.063256
  66 C :    0.008997
  67 C :    0.053934
  68 C :    0.003731
  69 C :    0.052347
  70 C :   -0.020988
  71 C :    0.002964
  72 C :   -0.007462
  73 H :   -0.022495
  74 H :   -0.012540
  75 H :    0.026260
  76 H :   -0.018326
  77 H :    0.032729
  78 H :    0.007176
  79 H :    0.026430
  80 H :    0.002124
  81 H :    0.003465
  82 H :   -0.017523
  83 H :    0.026992
  84 H :   -0.003270
  85 H :   -0.001058
  86 H :    0.018473
  87 H :    0.013087
  88 H :   -0.014325
  89 H :   -0.012727
  90 H :   -0.012019
  91 H :   -0.007548
  92 H :   -0.001977
  93 H :   -0.005897
  94 H :    0.002273
  95 H :   -0.031297
  96 H :    0.005286
  97 H :   -0.018650
  98 H :   -0.018910
  99 H :   -0.019240
 100 H :   -0.001114
 101 H :    0.004303
 102 H :    0.032797
Sum of atomic charges:   -0.0000000

LOEWDIN ATOMIC CHARGES
----------------------
   0 C :    0.071315
   1 C :   -0.158544
   2 C :   -0.019193
   3 N :   -0.077099
   4 C :   -0.024852
   5 N :   -0.062560
   6 C :   -0.019026
   7 C :   -0.055197
   8 C :    0.017001
   9 C :   -0.042740
  10 C :   -0.147000
  11 C :   -0.019044
  12 S :    0.434566
  13 C :   -0.166727
  14 C :   -0.057790
  15 C :    0.077319
  16 O :   -0.181190
  17 C :   -0.119407
  18 C :    0.089344
  19 C :   -0.110303
  20 C :    0.042771
  21 C :   -0.003703
  22 N :   -0.028799
  23 C :   -0.060469
  24 C :   -0.034494
  25 N :   -0.010929
  26 C :   -0.034037
  27 N :   -0.027920
  28 C :   -0.034502
  29 N :   -0.052022
  30 C :   -0.041371
  31 C :   -0.053381
  32 C :   -0.026221
  33 N :   -0.294941
  34 S :    0.609348
  35 N :   -0.266126
  36 C :   -0.139539
  37 S :    0.452096
  38 C :   -0.140604
  39 C :   -0.054182
  40 C :   -0.017879
  41 C :   -0.027264
  42 C :   -0.027468
  43 C :    0.067863
  44 O :   -0.169538
  45 C :    0.066852
  46 C :   -0.039686
  47 C :   -0.094834
  48 C :   -0.126872
  49 C :   -0.059769
  50 C :   -0.017028
  51 C :   -0.215831
  52 S :    0.437435
  53 C :   -0.125996
  54 C :   -0.060892
  55 C :    0.005952
  56 C :   -0.184580
  57 S :    0.464590
  58 C :    0.031187
  59 C :   -0.083223
  60 C :    0.039825
  61 C :   -0.058738
  62 C :    0.104426
  63 C :   -0.055217
  64 C :    0.077248
  65 C :   -0.053561
  66 C :    0.076222
  67 C :   -0.062781
  68 C :    0.091748
  69 C :   -0.071654
  70 C :    0.044603
  71 C :   -0.026507
  72 C :   -0.037421
  73 H :    0.034451
  74 H :    0.038641
  75 H :    0.023366
  76 H :    0.030243
  77 H :    0.044876
  78 H :    0.033740
  79 H :    0.034773
  80 H :    0.023929
  81 H :    0.027345
  82 H :    0.005308
  83 H :    0.023335
  84 H :    0.005665
  85 H :    0.001956
  86 H :    0.037011
  87 H :    0.028668
  88 H :    0.035466
  89 H :    0.032746
  90 H :    0.033192
  91 H :    0.034242
  92 H :    0.037680
  93 H :    0.042719
  94 H :    0.018045
  95 H :    0.039978
  96 H :    0.037102
  97 H :    0.028082
  98 H :    0.037651
  99 H :    0.027373
 100 H :    0.035467
 101 H :    0.015933
 102 H :    0.029951

  Mayer bond orders larger than 0.100000
B(  0-C ,  1-C ) :   1.6014 B(  0-C ,  6-C ) :   0.9762 B(  0-C , 17-C ) :   1.1232
B(  1-C ,  2-C ) :   1.1524 B(  1-C ,  4-C ) :   1.1463 B(  2-C ,  3-N ) :   2.9636
B(  4-C ,  5-N ) :   2.9993 B(  6-C ,  7-C ) :   1.2724 B(  6-C , 11-C ) :   1.4202
B(  7-C ,  8-C ) :   1.4396 B(  7-C , 15-C ) :   0.9489 B(  8-C ,  9-C ) :   1.2261
B(  8-C , 73-H ) :   1.0045 B(  9-C , 10-C ) :   1.3242 B(  9-C , 14-C ) :   1.1837
B( 10-C , 11-C ) :   1.2870 B( 10-C , 12-S ) :   1.1012 B( 11-C , 74-H ) :   0.9874
B( 12-S , 13-C ) :   1.1266 B( 13-C , 14-C ) :   1.6090 B( 13-C , 75-H ) :   0.9714
B( 14-C , 76-H ) :   0.9966 B( 15-C , 16-O ) :   2.1270 B( 15-C , 17-C ) :   0.9948
B( 17-C , 18-C ) :   1.4206 B( 18-C , 19-C ) :   1.3204 B( 18-C , 77-H ) :   0.9445
B( 19-C , 20-C ) :   1.1848 B( 19-C , 32-C ) :   1.1172 B( 20-C , 21-C ) :   1.1335
B( 20-C , 25-N ) :   1.4655 B( 21-C , 22-N ) :   1.4818 B( 21-C , 30-C ) :   1.1014
B( 22-N , 23-C ) :   1.5604 B( 23-C , 24-C ) :   1.2721 B( 23-C , 28-C ) :   1.1586
B( 24-C , 25-N ) :   1.6649 B( 24-C , 26-C ) :   1.1433 B( 26-C , 27-N ) :   3.0279
B( 28-C , 29-N ) :   2.9539 B( 30-C , 31-C ) :   1.1054 B( 30-C , 36-C ) :   1.4404
B( 31-C , 32-C ) :   1.1243 B( 31-C , 35-N ) :   1.5690 B( 32-C , 33-N ) :   1.6271
B( 33-N , 34-S ) :   1.2078 B( 33-N , 35-N ) :   0.1252 B( 34-S , 35-N ) :   1.2307
B( 36-C , 37-S ) :   1.0735 B( 36-C , 40-C ) :   1.2210 B( 37-S , 38-C ) :   1.0262
B( 38-C , 39-C ) :   1.2136 B( 38-C , 47-C ) :   1.4382 B( 39-C , 40-C ) :   1.5686
B( 39-C , 46-C ) :   1.0458 B( 40-C , 41-C ) :   1.0650 B( 41-C , 42-C ) :   1.0560
B( 41-C , 78-H ) :   0.9111 B( 41-C , 79-H ) :   0.8777 B( 42-C , 43-C ) :   1.0409
B( 42-C , 80-H ) :   0.9335 B( 42-C , 81-H ) :   0.9283 B( 43-C , 44-O ) :   1.0392
B( 43-C , 46-C ) :   1.0425 B( 43-C , 82-H ) :   0.9285 B( 44-O , 45-C ) :   0.9986
B( 45-C , 83-H ) :   0.9830 B( 45-C , 84-H ) :   0.9627 B( 45-C , 85-H ) :   0.9652
B( 46-C , 86-H ) :   0.8873 B( 46-C , 87-H ) :   0.9014 B( 47-C , 48-C ) :   1.3046
B( 47-C , 88-H ) :   0.9643 B( 48-C , 49-C ) :   1.2787 B( 48-C , 52-S ) :   1.1279
B( 49-C , 50-C ) :   1.4397 B( 49-C , 89-H ) :   0.9992 B( 50-C , 51-C ) :   1.3179
B( 50-C , 90-H ) :   0.9943 B( 51-C , 52-S ) :   1.0585 B( 51-C , 53-C ) :   1.3165
B( 53-C , 54-C ) :   1.2763 B( 53-C , 57-S ) :   1.1562 B( 54-C , 55-C ) :   1.4872
B( 54-C , 91-H ) :   0.9957 B( 55-C , 56-C ) :   1.2180 B( 55-C , 92-H ) :   0.9991
B( 56-C , 57-S ) :   1.0468 B( 56-C , 58-C ) :   1.4438 B( 58-C , 59-C ) :   1.2313
B( 58-C , 93-H ) :   0.9720 B( 59-C , 60-C ) :   1.1571 B( 59-C , 70-C ) :   1.2717
B( 60-C , 61-C ) :   1.4456 B( 60-C , 94-H ) :   0.9885 B( 61-C , 62-C ) :   1.1509
B( 61-C , 69-C ) :   1.1323 B( 62-C , 63-C ) :   1.4009 B( 62-C , 95-H ) :   1.0038
B( 63-C , 64-C ) :   1.1435 B( 63-C , 67-C ) :   1.1268 B( 64-C , 65-C ) :   1.3786
B( 64-C , 96-H ) :   1.0172 B( 65-C , 66-C ) :   1.2578 B( 65-C , 71-C ) :   1.0786
B( 66-C , 67-C ) :   1.2703 B( 66-C , 97-H ) :   1.0104 B( 67-C , 68-C ) :   1.2715
B( 68-C , 69-C ) :   1.2584 B( 68-C , 98-H ) :   1.0071 B( 69-C , 70-C ) :   1.2564
B( 70-C , 99-H ) :   1.0183 B( 71-C , 72-C ) :   1.9374 B( 71-C ,100-H ) :   0.9664
B( 72-C ,101-H ) :   0.9527 B( 72-C ,102-H ) :   0.9481

-----------------------------------------------------------------------------
         ABSORPTION SPECTRUM VIA TRANSITION ELECTRIC DIPOLE MOMENTS
-----------------------------------------------------------------------------
State   Energy  Wavelength   fosc         T2         TX        TY        TZ
        (cm-1)    (nm)                  (au**2)     (au)      (au)      (au)
-----------------------------------------------------------------------------
   0    4634.4   2157.8   0.109061006   7.74726   2.08463   1.77400   0.50445
   1    5645.9   1771.2   0.021051022   1.22749   0.42546   1.02292   0.01061
   2    9905.0   1009.6   0.019332482   0.64255  -0.10746  -0.78939   0.08867
   3   13048.9    766.3   0.050052038   1.26277  -1.04363   0.18572  -0.37297
   4   14076.3    710.4   0.933161517  21.82453   3.28073  -3.16815   1.01202
   5   16189.2    617.7   0.322304035   6.55413   1.53655  -2.02075  -0.33122
   6   16864.9    592.9   0.031449749   0.61392   0.26213  -0.73270   0.09140
   7   17709.7    564.7   0.020829070   0.38720  -0.51161  -0.33713   0.10862
   8   19431.5    514.6   0.210104730   3.55963   0.22726  -1.81517   0.46166
   9   19697.9    507.7   0.058910607   0.98458   0.15016  -0.97589   0.09829
  10   19855.4    503.6   0.038319789   0.63536   0.05216  -0.54530   0.57905
  11   20666.8    483.9   0.114370755   1.82187  -0.12910  -1.25774   0.47253
  12   21523.8    464.6   0.239617547   3.66502   0.89158  -1.65668   0.35428
  13   21625.6    462.4   0.269524148   4.10304  -0.38203   1.97882  -0.20335
  14   21894.1    456.7   0.007575807   0.11391   0.05900  -0.32573  -0.06585
  15   22551.3    443.4   0.428743497   6.25895  -1.10584   2.13255  -0.69878
  16   22860.1    437.4   0.311660690   4.48828  -0.23965  -2.03176   0.55029
  17   23995.6    416.7   0.026498805   0.36356   0.43715   0.36161   0.20419
  18   24087.4    415.2   0.124634701   1.70343   1.03816  -0.76819   0.18848
  19   24679.2    405.2   0.028071921   0.37447   0.28084  -0.52753   0.13156
  20   25185.4    397.1   0.012450384   0.16275   0.31364   0.17561   0.18313
  21   25640.9    390.0   0.046023188   0.59091   0.41317  -0.36162   0.53799
  22   25809.7    387.5   0.007883744   0.10056  -0.13193  -0.27799  -0.07665
  23   25979.3    384.9   0.192808430   2.44328   0.74095   1.35326  -0.25094
  24   26570.1    376.4   0.077472148   0.95990  -0.47565  -0.85026  -0.10353
  25   26894.6    371.8   0.161843766   1.98110  -1.29315  -0.35989  -0.42350
  26   27592.3    362.4   0.010463856   0.12485  -0.32574   0.11148  -0.07947
  27   27936.0    358.0   0.214068060   2.52269  -0.84755  -1.31013   0.29649
  28   28625.7    349.3   0.095816857   1.10195   0.00294   0.98025  -0.37558
  29   28782.6    347.4   0.033922830   0.38801   0.50485  -0.35492   0.08466
  30   29354.5    340.7   0.001998674   0.02242   0.12866  -0.05392   0.05435
  31   29640.6    337.4   0.003863515   0.04291   0.08699  -0.15024   0.11302
  32   29763.4    336.0   0.014493545   0.16031  -0.36300  -0.06542   0.15578
  33   29849.6    335.0   0.026021590   0.28699   0.25402   0.37757   0.28268
  34   30185.6    331.3   0.116473124   1.27028  -0.83231   0.58058   0.49037
  35   30559.0    327.2   0.224874985   2.42258  -1.55071  -0.00609  -0.13352
  36   30582.2    327.0   0.223749092   2.40862   0.65591   1.36244   0.34951
  37   30829.5    324.4   0.063601301   0.67917   0.56393   0.59706   0.06833
  38   30937.1    323.2   0.175155343   1.86388  -1.02828  -0.85649  -0.27010
  39   31076.0    321.8   0.003084954   0.03268   0.11608   0.08983   0.10554
  40   31282.5    319.7   0.023608083   0.24845   0.44028   0.19301   0.13171
  41   31540.1    317.1   0.005235411   0.05465   0.17323   0.11012   0.11186
  42   31676.7    315.7   0.359939999   3.74081   1.55871   0.78474   0.83392
  43   31976.1    312.7   0.010178183   0.10479   0.05157  -0.02199   0.31882
  44   32158.0    311.0   0.011927313   0.12210   0.10978   0.00779   0.33165
  45   32325.0    309.4   0.009632766   0.09810  -0.15951  -0.26259   0.06086
  46   32417.0    308.5   0.038745018   0.39348   0.32058   0.33177   0.42501
  47   32594.5    306.8   0.023361452   0.23596  -0.19272   0.35810   0.26567
  48   32681.1    306.0   0.036004928   0.36269   0.32111   0.50039   0.09589
  49   32872.3    304.2   0.004883311   0.04891   0.03823   0.03597   0.21483
  50   32959.0    303.4   0.015571821   0.15554   0.21156  -0.11794  -0.31125
  51   33364.2    299.7   0.075738514   0.74733   0.76743   0.37423  -0.13537
  52   33556.7    298.0   0.078374860   0.76891  -0.55639  -0.67425  -0.06867
  53   33654.9    297.1   0.027241567   0.26648   0.15465   0.47845  -0.11681
  54   33685.9    296.9   0.055329275   0.54073  -0.15752   0.39914  -0.59717
  55   33972.7    294.4   0.022288086   0.21598  -0.29324  -0.21256   0.29123
  56   34220.1    292.2   0.001170389   0.01126   0.06319  -0.05363   0.06626
  57   34244.8    292.0   0.037732355   0.36274   0.51745  -0.30795  -0.01224
  58   34565.0    289.3   0.048276290   0.45980  -0.02135   0.66655  -0.12272
  59   34600.9    289.0   0.100949470   0.96049   0.91171   0.17162  -0.31593
  60   34781.9    287.5   0.036302307   0.34360   0.37986  -0.12064   0.42983
  61   34898.0    286.5   0.192124753   1.81242  -0.66645  -1.02673   0.56044
  62   35059.7    285.2   0.066085609   0.62055   0.59994   0.37450   0.34695
  63   35402.8    282.5   0.001394786   0.01297  -0.00506   0.07090  -0.08898
  64   35568.2    281.2   0.040288123   0.37290  -0.57713  -0.15031  -0.13126
  65   36202.3    276.2   0.006822522   0.06204  -0.00633  -0.19140   0.15927
  66   36408.7    274.7   0.161008565   1.45586  -0.73230  -0.89836   0.33548
  67   36580.4    273.4   0.022934090   0.20640  -0.45125  -0.04244  -0.03115
  68   36748.3    272.1   0.035431483   0.31742   0.44262   0.31876  -0.14105
  69   36960.4    270.6   0.083003916   0.73933   0.58238  -0.62957   0.06164
  70   37241.0    268.5   0.009594041   0.08481   0.08804   0.19176  -0.20072
  71   37548.2    266.3   0.011385766   0.09983   0.12166   0.27339  -0.10140
  72   37823.1    264.4   0.000261937   0.00228   0.01033   0.01430   0.04437
  73   37919.8    263.7   0.088721997   0.77027   0.63227  -0.45187   0.40782
  74   38270.6    261.3   0.039502338   0.33981   0.22911   0.13210   0.51949
  75   38504.9    259.7   0.104020717   0.88936   0.73509  -0.07249   0.58630
  76   38567.4    259.3   0.013574962   0.11588   0.03716  -0.31133   0.13254
  77   38637.8    258.8   0.012325507   0.10502  -0.15374   0.26341  -0.10952
  78   38688.5    258.5   0.019403329   0.16511  -0.37954   0.14067   0.03563
  79   38840.5    257.5   0.001869773   0.01585   0.09094   0.08668  -0.00813
  80   39117.8    255.6   0.072106885   0.60685  -0.08968  -0.77087   0.06756
  81   39153.6    255.4   0.012691304   0.10671  -0.03668   0.32432   0.01350
  82   39347.1    254.1   0.033243865   0.27815  -0.16932   0.49800   0.03847
  83   39555.9    252.8   0.142234472   1.18377  -0.68047   0.81462  -0.23900
  84   39864.9    250.8   0.013389476   0.11057  -0.09432   0.17698  -0.26525
  85   40020.3    249.9   0.013831232   0.11378   0.10750   0.31853  -0.02755
  86   40209.5    248.7   0.106781972   0.87427   0.15866  -0.90298   0.18363
  87   40221.9    248.6   0.021535585   0.17627   0.28164   0.31109  -0.01304

FINAL SINGLE POINT ENERGY     -4803.234116359056

DIPOLE MOMENT
-------------
                                X             Y             Z
Electronic contribution:     10.35445     -30.11230       8.75098
Nuclear contribution   :     -6.76166      35.97038     -10.60402
                        -----------------------------------------
Total Dipole Moment    :      3.59279       5.85808      -1.85304
                        -----------------------------------------
Magnitude (a.u.)       :      7.11752
Magnitude (Debye)      :     18.09129

Rotational constants in cm-1:     0.001252     0.000682     0.000475
Rotational constants in MHz :    37.526950    20.453634    14.249798

                             ****ORCA TERMINATED NORMALLY****
TOTAL RUN TIME: 0 days 0 hours 19 minutes 32 seconds 447 msec
