                         Program Version 4.2.0 -  RELEASE  -
|  1> # ORCA input file
|  2> # SCF done       -198.539913325573          0.000778846313
|  3> ! CAM-B3LYP def2-SVP def2/J RIJCOSX Grid4 TightSCF
|  4> %maxcore 5000
|  5> %tddft
|  6>     Mode sTDDFT
|  7>     Ethresh 5.0
|  8>     maxcore 5000
|  9> end
| 10>
| 11> %pal
| 12>   nprocs 6
| 13>   end
| 14> * xyz 0 1
| 15>    C       -5.59603        -2.83744         8.66451
| 16>    C       -4.93009        -2.81294         7.45346
| 17>    C       -3.55958        -2.53565         7.31106
| 18>    N       -2.44946        -2.30631         7.11737
| 19>    C       -5.49616        -3.06632         6.19583
| 20>    N       -5.84217        -3.28809         5.11967
| 21>    C       -4.95385        -2.63439         9.96393
| 22>    C       -5.94853        -2.69251        10.96814
| 23>    C       -5.66405        -2.56878        12.30388
| 24>    C       -4.32309        -2.39935        12.67130
| 25>    C       -3.33644        -2.35033        11.66285
| 26>    C       -3.62888        -2.45735        10.30690
| 27>    S       -1.74230        -2.17916        12.33787
| 28>    C       -2.42046        -2.17808        13.94539
| 29>    C       -3.76787        -2.29477        13.97654
| 30>   Br       -1.28103        -2.02666        15.42873
| 31>    C       -7.26345        -2.94070        10.32961
| 32>    O       -8.32652        -3.04324        10.91438
| 33>    C       -6.99095        -3.04954         8.89064
| 34>    C       -7.95977        -3.31487         7.92634
| 35>    C       -9.30784        -3.45994         8.18129
| 36>    C      -10.24804        -3.72973         7.19103
| 37>    C      -11.63790        -3.85754         7.36720
| 38>    C      -12.32340        -4.13537         6.21283
| 39>    C      -11.49392        -4.24996         5.08722
| 40>    S       -9.82537        -3.96266         5.51810
| 41>    C      -11.83834        -4.58270         3.77970
| 42>    C      -13.11335        -4.77870         3.22013
| 43>    C      -13.08365        -5.11797         1.89433
| 44>    C      -11.78682        -5.21909         1.35312
| 45>    S      -10.59713        -4.84382         2.58697
| 46>    C      -11.45127        -5.57528         0.06090
| 47>    C      -10.17133        -5.73251        -0.44898
| 48>    S       -8.70570        -5.52763         0.49427
| 49>    C       -7.67119        -5.94819        -0.83295
| 50>    C       -8.42244        -6.22319        -1.98632
| 51>    C       -9.82579        -6.10764        -1.75999
| 52>    N      -10.71092        -6.37792        -2.73655
| 53>    C      -10.21326        -6.74736        -3.89227
| 54>    O      -11.03551        -7.04994        -4.89651
| 55>    C      -12.43209        -6.95172        -4.62704
| 56>    C      -13.18520        -7.35058        -5.88288
| 57>    C       -8.79881        -6.85681        -4.13185
| 58>    C       -8.27972        -7.27633        -5.47570
| 59>    N       -8.64586        -6.29740        -6.48921
| 60>    N       -7.93983        -6.59870        -3.18834
| 61>    N       -6.35348        -6.02787        -0.57587
| 62>    C       -5.28195        -6.08805        -1.44720
| 63>    C       -5.21804        -5.70633        -2.75561
| 64>    S       -3.62378        -5.82583        -3.38015
| 65>    C       -3.01308        -6.39539        -1.87897
| 66>    C       -3.99778        -6.50405        -0.94638
| 67>    N       -3.87604        -6.99138         0.35181
| 68>    C       -3.03257        -6.54773         1.30668
| 69>    C       -3.27496        -6.79774         2.61961
| 70>    C       -2.60508        -6.17694         3.68738
| 71>    C       -3.13439        -5.98061         4.93430
| 72>    C       -4.48384        -6.10034         5.42661
| 73>    C       -5.66175        -6.09657         4.70840
| 74>    C       -6.93801        -6.22082         5.29687
| 75>    N       -8.00074        -6.37773         5.70275
| 76>    C       -5.81960        -5.94008         3.32470
| 77>    N       -6.07486        -5.84089         2.20522
| 78>    C       -4.41991        -6.01776         6.88669
| 79>    C       -3.09032        -5.71067         7.27177
| 80>    C       -2.24138        -5.63178         6.06451
| 81>    O       -1.05576        -5.40226         6.00614
| 82>    C       -2.71600        -5.53878         8.58070
| 83>    C       -3.69899        -5.68512         9.56558
| 84>    C       -5.02440        -5.98713         9.17542
| 85>    C       -5.40388        -6.15535         7.84883
| 86>    S       -6.07995        -6.12932        10.54970
| 87>    C       -4.74058        -5.79569        11.61335
| 88>    C       -3.56488        -5.58209        10.97713
| 89>   Br       -5.01284        -5.77403        13.46378
| 90>    H       -6.44448        -2.62088        13.04686
| 91>    H       -2.83855        -2.41417         9.57664
| 92>    H       -4.34921        -2.32025        14.87986
| 93>    H       -7.63807        -3.41102         6.89615
| 94>    H       -9.66585        -3.35722         9.19534
| 95>    H      -12.09469        -3.74572         8.33451
| 96>    H      -13.38842        -4.27488         6.15937
| 97>    H      -14.01432        -4.65974         3.79445
| 98>    H      -13.95866        -5.30503         1.29685
| 99>    H      -12.25504        -5.76554        -0.63818
|100>    H      -12.66456        -5.92331        -4.32904
|101>    H      -12.67694        -7.61162        -3.78708
|102>    H      -12.93755        -6.67909        -6.70091
|103>    H      -14.25415        -7.30239        -5.69802
|104>    H      -12.92099        -8.36434        -6.17250
|105>    H       -8.66868        -8.28896        -5.68703
|106>    H       -7.18952        -7.32443        -5.41869
|107>    H       -9.65670        -6.24013        -6.55965
|108>    H       -8.28782        -6.58774        -7.39246
|109>    H       -6.12558        -5.88923         0.42080
|110>    H       -6.01626        -5.37306        -3.38453
|111>    H       -1.97464        -6.63502        -1.77456
|112>    H       -4.69712        -7.47617         0.69611
|113>    H       -2.22071        -5.91431         0.98034
|114>    H       -4.11482        -7.43351         2.86560
|115>    H       -1.59170        -5.82153         3.54117
|116>    H       -1.69659        -5.29597         8.83570
|117>    H       -6.42733        -6.38928         7.60854
|118>    H       -2.63832        -5.37022        11.47874
|119> *
|120>
|121>                          ****END OF INPUT****

CARTESIAN COORDINATES (ANGSTROEM)
---------------------------------
  C     -5.596030   -2.837440    8.664510
  C     -4.930090   -2.812940    7.453460
  C     -3.559580   -2.535650    7.311060
  N     -2.449460   -2.306310    7.117370
  C     -5.496160   -3.066320    6.195830
  N     -5.842170   -3.288090    5.119670
  C     -4.953850   -2.634390    9.963930
  C     -5.948530   -2.692510   10.968140
  C     -5.664050   -2.568780   12.303880
  C     -4.323090   -2.399350   12.671300
  C     -3.336440   -2.350330   11.662850
  C     -3.628880   -2.457350   10.306900
  S     -1.742300   -2.179160   12.337870
  C     -2.420460   -2.178080   13.945390
  C     -3.767870   -2.294770   13.976540
  Br    -1.281030   -2.026660   15.428730
  C     -7.263450   -2.940700   10.329610
  O     -8.326520   -3.043240   10.914380
  C     -6.990950   -3.049540    8.890640
  C     -7.959770   -3.314870    7.926340
  C     -9.307840   -3.459940    8.181290
  C    -10.248040   -3.729730    7.191030
  C    -11.637900   -3.857540    7.367200
  C    -12.323400   -4.135370    6.212830
  C    -11.493920   -4.249960    5.087220
  S     -9.825370   -3.962660    5.518100
  C    -11.838340   -4.582700    3.779700
  C    -13.113350   -4.778700    3.220130
  C    -13.083650   -5.117970    1.894330
  C    -11.786820   -5.219090    1.353120
  S    -10.597130   -4.843820    2.586970
  C    -11.451270   -5.575280    0.060900
  C    -10.171330   -5.732510   -0.448980
  S     -8.705700   -5.527630    0.494270
  C     -7.671190   -5.948190   -0.832950
  C     -8.422440   -6.223190   -1.986320
  C     -9.825790   -6.107640   -1.759990
  N    -10.710920   -6.377920   -2.736550
  C    -10.213260   -6.747360   -3.892270
  O    -11.035510   -7.049940   -4.896510
  C    -12.432090   -6.951720   -4.627040
  C    -13.185200   -7.350580   -5.882880
  C     -8.798810   -6.856810   -4.131850
  C     -8.279720   -7.276330   -5.475700
  N     -8.645860   -6.297400   -6.489210
  N     -7.939830   -6.598700   -3.188340
  N     -6.353480   -6.027870   -0.575870
  C     -5.281950   -6.088050   -1.447200
  C     -5.218040   -5.706330   -2.755610
  S     -3.623780   -5.825830   -3.380150
  C     -3.013080   -6.395390   -1.878970
  C     -3.997780   -6.504050   -0.946380
  N     -3.876040   -6.991380    0.351810
  C     -3.032570   -6.547730    1.306680
  C     -3.274960   -6.797740    2.619610
  C     -2.605080   -6.176940    3.687380
  C     -3.134390   -5.980610    4.934300
  C     -4.483840   -6.100340    5.426610
  C     -5.661750   -6.096570    4.708400
  C     -6.938010   -6.220820    5.296870
  N     -8.000740   -6.377730    5.702750
  C     -5.819600   -5.940080    3.324700
  N     -6.074860   -5.840890    2.205220
  C     -4.419910   -6.017760    6.886690
  C     -3.090320   -5.710670    7.271770
  C     -2.241380   -5.631780    6.064510
  O     -1.055760   -5.402260    6.006140
  C     -2.716000   -5.538780    8.580700
  C     -3.698990   -5.685120    9.565580
  C     -5.024400   -5.987130    9.175420
  C     -5.403880   -6.155350    7.848830
  S     -6.079950   -6.129320   10.549700
  C     -4.740580   -5.795690   11.613350
  C     -3.564880   -5.582090   10.977130
  Br    -5.012840   -5.774030   13.463780
  H     -6.444480   -2.620880   13.046860
  H     -2.838550   -2.414170    9.576640
  H     -4.349210   -2.320250   14.879860
  H     -7.638070   -3.411020    6.896150
  H     -9.665850   -3.357220    9.195340
  H    -12.094690   -3.745720    8.334510
  H    -13.388420   -4.274880    6.159370
  H    -14.014320   -4.659740    3.794450
  H    -13.958660   -5.305030    1.296850
  H    -12.255040   -5.765540   -0.638180
  H    -12.664560   -5.923310   -4.329040
  H    -12.676940   -7.611620   -3.787080
  H    -12.937550   -6.679090   -6.700910
  H    -14.254150   -7.302390   -5.698020
  H    -12.920990   -8.364340   -6.172500
  H     -8.668680   -8.288960   -5.687030
  H     -7.189520   -7.324430   -5.418690
  H     -9.656700   -6.240130   -6.559650
  H     -8.287820   -6.587740   -7.392460
  H     -6.125580   -5.889230    0.420800
  H     -6.016260   -5.373060   -3.384530
  H     -1.974640   -6.635020   -1.774560
  H     -4.697120   -7.476170    0.696110
  H     -2.220710   -5.914310    0.980340
  H     -4.114820   -7.433510    2.865600
  H     -1.591700   -5.821530    3.541170
  H     -1.696590   -5.295970    8.835700
  H     -6.427330   -6.389280    7.608540
  H     -2.638320   -5.370220   11.478740

 Total Charge           Charge          ....    0
 Multiplicity           Mult            ....    1
 Number of Electrons    NEL             ....  612
 Basis Dimension        Dim             .... 1255

ORBITAL ENERGIES
----------------

  NO   OCC          E(Eh)            E(eV)
   0   2.0000    -482.871641    -13139.6054
   1   2.0000    -482.867741    -13139.4992
   2   2.0000     -88.975022     -2421.1334
   3   2.0000     -88.966390     -2420.8985
   4   2.0000     -88.959365     -2420.7074
   5   2.0000     -88.955158     -2420.5929
   6   2.0000     -88.953566     -2420.5496
   7   2.0000     -88.939121     -2420.1565
   8   2.0000     -62.548996     -1702.0447
   9   2.0000     -62.545425     -1701.9475
  10   2.0000     -56.382938     -1534.2577
  11   2.0000     -56.380263     -1534.1850
  12   2.0000     -56.380243     -1534.1844
  13   2.0000     -56.379338     -1534.1598
  14   2.0000     -56.376690     -1534.0877
  15   2.0000     -56.376650     -1534.0866
  16   2.0000     -19.283193      -524.7223
  17   2.0000     -19.193006      -522.2682
  18   2.0000     -19.177210      -521.8384
  19   2.0000     -14.474037      -393.8586
  20   2.0000     -14.471287      -393.7838
  21   2.0000     -14.440127      -392.9358
  22   2.0000     -14.433013      -392.7422
  23   2.0000     -14.424482      -392.5101
  24   2.0000     -14.402214      -391.9042
  25   2.0000     -14.388772      -391.5384
  26   2.0000     -14.386932      -391.4883
  27   2.0000     -14.378856      -391.2686
  28   2.0000     -10.395722      -282.8820
  29   2.0000     -10.374897      -282.3153
  30   2.0000     -10.348142      -281.5872
  31   2.0000     -10.343480      -281.4604
  32   2.0000     -10.342522      -281.4343
  33   2.0000     -10.340498      -281.3793
  34   2.0000     -10.338616      -281.3280
  35   2.0000     -10.336167      -281.2614
  36   2.0000     -10.335506      -281.2434
  37   2.0000     -10.332989      -281.1749
  38   2.0000     -10.331436      -281.1327
  39   2.0000     -10.330781      -281.1148
  40   2.0000     -10.330000      -281.0936
  41   2.0000     -10.327500      -281.0256
  42   2.0000     -10.326677      -281.0032
  43   2.0000     -10.323933      -280.9285
  44   2.0000     -10.321753      -280.8692
  45   2.0000     -10.309902      -280.5467
  46   2.0000     -10.308130      -280.4985
  47   2.0000     -10.306495      -280.4540
  48   2.0000     -10.306284      -280.4482
  49   2.0000     -10.306229      -280.4467
  50   2.0000     -10.305894      -280.4376
  51   2.0000     -10.304546      -280.4010
  52   2.0000     -10.302666      -280.3498
  53   2.0000     -10.302030      -280.3325
  54   2.0000     -10.301904      -280.3291
  55   2.0000     -10.298332      -280.2319
  56   2.0000     -10.297436      -280.2075
  57   2.0000     -10.296473      -280.1813
  58   2.0000     -10.296401      -280.1793
  59   2.0000     -10.295794      -280.1628
  60   2.0000     -10.293478      -280.0998
  61   2.0000     -10.291581      -280.0482
  62   2.0000     -10.290734      -280.0251
  63   2.0000     -10.288528      -279.9651
  64   2.0000     -10.285515      -279.8831
  65   2.0000     -10.283571      -279.8302
  66   2.0000     -10.283119      -279.8179
  67   2.0000     -10.282257      -279.7944
  68   2.0000     -10.279940      -279.7314
  69   2.0000     -10.279435      -279.7177
  70   2.0000     -10.278851      -279.7017
  71   2.0000     -10.277304      -279.6597
  72   2.0000     -10.276151      -279.6283
  73   2.0000     -10.275429      -279.6086
  74   2.0000     -10.275300      -279.6051
  75   2.0000     -10.274364      -279.5796
  76   2.0000     -10.273460      -279.5551
  77   2.0000     -10.271416      -279.4994
  78   2.0000     -10.270809      -279.4829
  79   2.0000     -10.265898      -279.3493
  80   2.0000     -10.259898      -279.1860
  81   2.0000     -10.247334      -278.8441
  82   2.0000     -10.245810      -278.8027
  83   2.0000      -8.778308      -238.8699
  84   2.0000      -8.774820      -238.7750
  85   2.0000      -8.070413      -219.6071
  86   2.0000      -8.062236      -219.3846
  87   2.0000      -8.054501      -219.1741
  88   2.0000      -8.051284      -219.0866
  89   2.0000      -8.049416      -219.0357
  90   2.0000      -8.034616      -218.6330
  91   2.0000      -6.614492      -179.9895
  92   2.0000      -6.610972      -179.8937
  93   2.0000      -6.600118      -179.5983
  94   2.0000      -6.599904      -179.5925
  95   2.0000      -6.596602      -179.5027
  96   2.0000      -6.596478      -179.4993
  97   2.0000      -6.040027      -164.3575
  98   2.0000      -6.035576      -164.2364
  99   2.0000      -6.031909      -164.1366
 100   2.0000      -6.031629      -164.1290
 101   2.0000      -6.027269      -164.0103
 102   2.0000      -6.024381      -163.9317
 103   2.0000      -6.024254      -163.9283
 104   2.0000      -6.020865      -163.8361
 105   2.0000      -6.019969      -163.8117
 106   2.0000      -6.019122      -163.7886
 107   2.0000      -6.016683      -163.7223
 108   2.0000      -6.015746      -163.6968
 109   2.0000      -6.014887      -163.6734
 110   2.0000      -6.012599      -163.6111
 111   2.0000      -6.010628      -163.5575
 112   2.0000      -6.004064      -163.3789
 113   2.0000      -5.999979      -163.2677
 114   2.0000      -5.996213      -163.1652
 115   2.0000      -2.730398       -74.2979
 116   2.0000      -2.726898       -74.2027
 117   2.0000      -2.726387       -74.1888
 118   2.0000      -2.726196       -74.1836
 119   2.0000      -2.722808       -74.0914
 120   2.0000      -2.722733       -74.0893
 121   2.0000      -2.714771       -73.8727
 122   2.0000      -2.714768       -73.8726
 123   2.0000      -2.711304       -73.7783
 124   2.0000      -2.711291       -73.7780
 125   2.0000      -1.198762       -32.6200
 126   2.0000      -1.108192       -30.1554
 127   2.0000      -1.098312       -29.8866
 128   2.0000      -1.090423       -29.6719
 129   2.0000      -1.085322       -29.5331
 130   2.0000      -1.064143       -28.9568
 131   2.0000      -1.019562       -27.7437
 132   2.0000      -1.018483       -27.7143
 133   2.0000      -1.004128       -27.3237
 134   2.0000      -0.999196       -27.1895
 135   2.0000      -0.994373       -27.0583
 136   2.0000      -0.991083       -26.9687
 137   2.0000      -0.989609       -26.9286
 138   2.0000      -0.984159       -26.7803
 139   2.0000      -0.974729       -26.5237
 140   2.0000      -0.974011       -26.5042
 141   2.0000      -0.970468       -26.4078
 142   2.0000      -0.964526       -26.2461
 143   2.0000      -0.963862       -26.2280
 144   2.0000      -0.956492       -26.0275
 145   2.0000      -0.930151       -25.3107
 146   2.0000      -0.914456       -24.8836
 147   2.0000      -0.907167       -24.6853
 148   2.0000      -0.900376       -24.5005
 149   2.0000      -0.895155       -24.3584
 150   2.0000      -0.889929       -24.2162
 151   2.0000      -0.882935       -24.0259
 152   2.0000      -0.877347       -23.8738
 153   2.0000      -0.870736       -23.6939
 154   2.0000      -0.869028       -23.6475
 155   2.0000      -0.859207       -23.3802
 156   2.0000      -0.856559       -23.3082
 157   2.0000      -0.854222       -23.2446
 158   2.0000      -0.846022       -23.0214
 159   2.0000      -0.842956       -22.9380
 160   2.0000      -0.835454       -22.7338
 161   2.0000      -0.822412       -22.3790
 162   2.0000      -0.817616       -22.2485
 163   2.0000      -0.813348       -22.1323
 164   2.0000      -0.804841       -21.9008
 165   2.0000      -0.801884       -21.8204
 166   2.0000      -0.799963       -21.7681
 167   2.0000      -0.790281       -21.5046
 168   2.0000      -0.775906       -21.1135
 169   2.0000      -0.759969       -20.6798
 170   2.0000      -0.759266       -20.6607
 171   2.0000      -0.750592       -20.4246
 172   2.0000      -0.745822       -20.2948
 173   2.0000      -0.727066       -19.7845
 174   2.0000      -0.723735       -19.6938
 175   2.0000      -0.716861       -19.5068
 176   2.0000      -0.712981       -19.4012
 177   2.0000      -0.702774       -19.1235
 178   2.0000      -0.692443       -18.8423
 179   2.0000      -0.691983       -18.8298
 180   2.0000      -0.681284       -18.5387
 181   2.0000      -0.678630       -18.4665
 182   2.0000      -0.674391       -18.3511
 183   2.0000      -0.666821       -18.1451
 184   2.0000      -0.663492       -18.0545
 185   2.0000      -0.659544       -17.9471
 186   2.0000      -0.658196       -17.9104
 187   2.0000      -0.653734       -17.7890
 188   2.0000      -0.649941       -17.6858
 189   2.0000      -0.639619       -17.4049
 190   2.0000      -0.636283       -17.3141
 191   2.0000      -0.630260       -17.1502
 192   2.0000      -0.628670       -17.1070
 193   2.0000      -0.623623       -16.9696
 194   2.0000      -0.618138       -16.8204
 195   2.0000      -0.613214       -16.6864
 196   2.0000      -0.609273       -16.5792
 197   2.0000      -0.606106       -16.4930
 198   2.0000      -0.602245       -16.3879
 199   2.0000      -0.599039       -16.3007
 200   2.0000      -0.594935       -16.1890
 201   2.0000      -0.592738       -16.1292
 202   2.0000      -0.583419       -15.8756
 203   2.0000      -0.573703       -15.6112
 204   2.0000      -0.570829       -15.5330
 205   2.0000      -0.568678       -15.4745
 206   2.0000      -0.568142       -15.4599
 207   2.0000      -0.564332       -15.3563
 208   2.0000      -0.560271       -15.2458
 209   2.0000      -0.558408       -15.1951
 210   2.0000      -0.555014       -15.1027
 211   2.0000      -0.547572       -14.9002
 212   2.0000      -0.539224       -14.6730
 213   2.0000      -0.535035       -14.5590
 214   2.0000      -0.532579       -14.4922
 215   2.0000      -0.531196       -14.4546
 216   2.0000      -0.525977       -14.3126
 217   2.0000      -0.522869       -14.2280
 218   2.0000      -0.517839       -14.0911
 219   2.0000      -0.517566       -14.0837
 220   2.0000      -0.515377       -14.0241
 221   2.0000      -0.514525       -14.0009
 222   2.0000      -0.512165       -13.9367
 223   2.0000      -0.511192       -13.9102
 224   2.0000      -0.509918       -13.8756
 225   2.0000      -0.502855       -13.6834
 226   2.0000      -0.500957       -13.6317
 227   2.0000      -0.500286       -13.6135
 228   2.0000      -0.498699       -13.5703
 229   2.0000      -0.496360       -13.5067
 230   2.0000      -0.494350       -13.4519
 231   2.0000      -0.491631       -13.3779
 232   2.0000      -0.490722       -13.3532
 233   2.0000      -0.490201       -13.3390
 234   2.0000      -0.489233       -13.3127
 235   2.0000      -0.485520       -13.2117
 236   2.0000      -0.483203       -13.1486
 237   2.0000      -0.482084       -13.1182
 238   2.0000      -0.479868       -13.0579
 239   2.0000      -0.477795       -13.0015
 240   2.0000      -0.475758       -12.9460
 241   2.0000      -0.474956       -12.9242
 242   2.0000      -0.471169       -12.8212
 243   2.0000      -0.467381       -12.7181
 244   2.0000      -0.465272       -12.6607
 245   2.0000      -0.464621       -12.6430
 246   2.0000      -0.464365       -12.6360
 247   2.0000      -0.462344       -12.5810
 248   2.0000      -0.461460       -12.5570
 249   2.0000      -0.458427       -12.4744
 250   2.0000      -0.456699       -12.4274
 251   2.0000      -0.452934       -12.3250
 252   2.0000      -0.446639       -12.1537
 253   2.0000      -0.444716       -12.1013
 254   2.0000      -0.442217       -12.0333
 255   2.0000      -0.441465       -12.0129
 256   2.0000      -0.438313       -11.9271
 257   2.0000      -0.436754       -11.8847
 258   2.0000      -0.433954       -11.8085
 259   2.0000      -0.432538       -11.7700
 260   2.0000      -0.431259       -11.7352
 261   2.0000      -0.429450       -11.6859
 262   2.0000      -0.428073       -11.6484
 263   2.0000      -0.426670       -11.6103
 264   2.0000      -0.422987       -11.5101
 265   2.0000      -0.422443       -11.4953
 266   2.0000      -0.419714       -11.4210
 267   2.0000      -0.417213       -11.3530
 268   2.0000      -0.413577       -11.2540
 269   2.0000      -0.413040       -11.2394
 270   2.0000      -0.410972       -11.1831
 271   2.0000      -0.408611       -11.1189
 272   2.0000      -0.402850       -10.9621
 273   2.0000      -0.401197       -10.9171
 274   2.0000      -0.399085       -10.8596
 275   2.0000      -0.395327       -10.7574
 276   2.0000      -0.393912       -10.7189
 277   2.0000      -0.390180       -10.6173
 278   2.0000      -0.387252       -10.5377
 279   2.0000      -0.385158       -10.4807
 280   2.0000      -0.376914       -10.2564
 281   2.0000      -0.374749       -10.1974
 282   2.0000      -0.366318        -9.9680
 283   2.0000      -0.364889        -9.9291
 284   2.0000      -0.361157        -9.8276
 285   2.0000      -0.357513        -9.7284
 286   2.0000      -0.355236        -9.6665
 287   2.0000      -0.347776        -9.4635
 288   2.0000      -0.346393        -9.4258
 289   2.0000      -0.338561        -9.2127
 290   2.0000      -0.330111        -8.9828
 291   2.0000      -0.321737        -8.7549
 292   2.0000      -0.320023        -8.7083
 293   2.0000      -0.316951        -8.6247
 294   2.0000      -0.314985        -8.5712
 295   2.0000      -0.312332        -8.4990
 296   2.0000      -0.308133        -8.3847
 297   2.0000      -0.300870        -8.1871
 298   2.0000      -0.298291        -8.1169
 299   2.0000      -0.291188        -7.9236
 300   2.0000      -0.286624        -7.7994
 301   2.0000      -0.280150        -7.6233
 302   2.0000      -0.266200        -7.2437
 303   2.0000      -0.262502        -7.1431
 304   2.0000      -0.250507        -6.8166
 305   2.0000      -0.199902        -5.4396
 306   0.0000      -0.095784        -2.6064
 307   0.0000      -0.076118        -2.0713
 308   0.0000      -0.052353        -1.4246
 309   0.0000      -0.042199        -1.1483
 310   0.0000      -0.033234        -0.9044

MULLIKEN ATOMIC CHARGES
-----------------------
   0 C :    0.363953
   1 C :   -0.413953
   2 C :   -0.215046
   3 N :    0.141609
   4 C :   -0.168853
   5 N :    0.102121
   6 C :    0.008491
   7 C :   -0.002894
   8 C :   -0.096746
   9 C :    0.127283
  10 C :   -0.102248
  11 C :   -0.036269
  12 S :    0.157862
  13 C :   -0.123192
  14 C :    0.036647
  15 Br:    0.002724
  16 C :    0.139801
  17 O :   -0.173094
  18 C :   -0.124602
  19 C :   -0.048439
  20 C :   -0.030577
  21 C :    0.014051
  22 C :    0.009522
  23 C :    0.038758
  24 C :   -0.064506
  25 S :    0.136826
  26 C :    0.000865
  27 C :    0.008450
  28 C :    0.052904
  29 C :   -0.065577
  30 S :    0.087100
  31 C :    0.024215
  32 C :   -0.156108
  33 S :    0.137538
  34 C :   -0.151165
  35 C :    0.066219
  36 C :    0.039394
  37 N :   -0.054117
  38 C :    0.135018
  39 O :   -0.295401
  40 C :    0.163435
  41 C :    0.009967
  42 C :   -0.179002
  43 C :    0.236884
  44 N :   -0.251293
  45 N :    0.013766
  46 N :   -0.003502
  47 C :    0.137725
  48 C :   -0.147494
  49 S :    0.127694
  50 C :   -0.172736
  51 C :    0.092927
  52 N :   -0.056862
  53 C :    0.103317
  54 C :   -0.041333
  55 C :    0.033282
  56 C :   -0.133244
  57 C :    0.325701
  58 C :   -0.375567
  59 C :   -0.180056
  60 N :    0.137041
  61 C :   -0.105044
  62 N :    0.089268
  63 C :    0.002042
  64 C :   -0.013283
  65 C :    0.145537
  66 O :   -0.139166
  67 C :   -0.072744
  68 C :    0.108265
  69 C :   -0.084873
  70 C :   -0.025225
  71 S :    0.190775
  72 C :   -0.141010
  73 C :    0.082102
  74 Br:    0.020672
  75 H :   -0.022770
  76 H :   -0.017652
  77 H :   -0.013195
  78 H :    0.005253
  79 H :    0.006333
  80 H :   -0.011632
  81 H :   -0.014695
  82 H :   -0.014106
  83 H :   -0.010072
  84 H :   -0.000093
  85 H :    0.025164
  86 H :    0.023809
  87 H :    0.027518
  88 H :    0.026774
  89 H :    0.028378
  90 H :    0.001632
  91 H :    0.001827
  92 H :    0.096487
  93 H :    0.097170
  94 H :    0.138960
  95 H :    0.032463
  96 H :    0.017028
  97 H :    0.132481
  98 H :    0.031784
  99 H :    0.016797
 100 H :    0.017806
 101 H :   -0.011413
 102 H :   -0.009291
 103 H :   -0.009282
Sum of atomic charges:    0.0000000

LOEWDIN ATOMIC CHARGES
----------------------
   0 C :    0.070232
   1 C :   -0.188938
   2 C :   -0.024182
   3 N :   -0.089243
   4 C :   -0.012453
   5 N :   -0.096493
   6 C :   -0.016567
   7 C :   -0.049588
   8 C :    0.007653
   9 C :   -0.043272
  10 C :   -0.151677
  11 C :   -0.020284
  12 S :    0.411649
  13 C :   -0.280664
  14 C :   -0.070328
  15 Br:    0.120723
  16 C :    0.072327
  17 O :   -0.169546
  18 C :   -0.137862
  19 C :    0.034869
  20 C :   -0.086817
  21 C :   -0.102172
  22 C :   -0.061749
  23 C :   -0.012351
  24 C :   -0.214076
  25 S :    0.450768
  26 C :   -0.131711
  27 C :   -0.065539
  28 C :   -0.005272
  29 C :   -0.196939
  30 S :    0.403330
  31 C :   -0.003879
  32 C :   -0.229711
  33 S :    0.462326
  34 C :   -0.078394
  35 C :   -0.105807
  36 C :   -0.005989
  37 N :   -0.095265
  38 C :    0.069761
  39 O :   -0.076097
  40 C :    0.088051
  41 C :   -0.062216
  42 C :   -0.023289
  43 C :    0.019532
  44 N :   -0.122252
  45 N :   -0.017034
  46 N :    0.037422
  47 C :   -0.036352
  48 C :   -0.194431
  49 S :    0.457044
  50 C :   -0.208928
  51 C :   -0.038225
  52 N :    0.047590
  53 C :    0.095533
  54 C :   -0.108632
  55 C :    0.082268
  56 C :   -0.116319
  57 C :    0.090228
  58 C :   -0.160488
  59 C :   -0.015595
  60 N :   -0.071507
  61 C :    0.065619
  62 N :   -0.105471
  63 C :   -0.022028
  64 C :   -0.044510
  65 C :    0.082612
  66 O :   -0.141004
  67 C :    0.024015
  68 C :   -0.032378
  69 C :   -0.144157
  70 C :   -0.010103
  71 S :    0.447018
  72 C :   -0.271007
  73 C :   -0.064848
  74 Br:    0.146555
  75 H :    0.034526
  76 H :    0.036390
  77 H :    0.034890
  78 H :    0.026941
  79 H :    0.035147
  80 H :    0.033926
  81 H :    0.031479
  82 H :    0.031882
  83 H :    0.034880
  84 H :    0.046980
  85 H :    0.020815
  86 H :    0.020450
  87 H :    0.029461
  88 H :    0.035958
  89 H :    0.030503
  90 H :    0.010998
  91 H :    0.029242
  92 H :    0.044956
  93 H :    0.057092
  94 H :    0.052753
  95 H :    0.024869
  96 H :    0.026177
  97 H :    0.086190
  98 H :    0.039083
  99 H :    0.030249
 100 H :    0.044955
 101 H :    0.041388
 102 H :    0.039204
 103 H :    0.035130

  Mayer bond orders larger than 0.100000
B(  0-C ,  1-C ) :   1.5147 B(  0-C ,  6-C ) :   0.9698 B(  0-C , 18-C ) :   1.1816
B(  1-C ,  2-C ) :   1.1743 B(  1-C ,  4-C ) :   1.1755 B(  2-C ,  3-N ) :   2.9274
B(  4-C ,  5-N ) :   2.8723 B(  6-C ,  7-C ) :   1.2871 B(  6-C , 11-C ) :   1.4287
B(  7-C ,  8-C ) :   1.4284 B(  7-C , 16-C ) :   0.9242 B(  8-C ,  9-C ) :   1.2163
B(  8-C , 75-H ) :   1.0211 B(  9-C , 10-C ) :   1.3336 B(  9-C , 14-C ) :   1.1562
B( 10-C , 11-C ) :   1.2958 B( 10-C , 12-S ) :   1.0715 B( 11-C , 76-H ) :   0.9853
B( 12-S , 13-C ) :   1.0768 B( 13-C , 14-C ) :   1.6217 B( 13-C , 15-Br) :   1.0060
B( 14-C , 77-H ) :   1.0020 B( 16-C , 17-O ) :   2.1784 B( 16-C , 18-C ) :   0.9856
B( 18-C , 19-C ) :   1.3445 B( 19-C , 20-C ) :   1.3878 B( 19-C , 78-H ) :   0.9480
B( 20-C , 21-C ) :   1.2913 B( 20-C , 79-H ) :   0.9787 B( 21-C , 22-C ) :   1.2533
B( 21-C , 25-S ) :   1.1364 B( 22-C , 23-C ) :   1.4564 B( 22-C , 80-H ) :   1.0014
B( 23-C , 24-C ) :   1.2895 B( 23-C , 81-H ) :   0.9946 B( 24-C , 25-S ) :   1.0694
B( 24-C , 26-C ) :   1.3599 B( 26-C , 27-C ) :   1.2652 B( 26-C , 30-S ) :   1.1152
B( 27-C , 28-C ) :   1.4920 B( 27-C , 82-H ) :   0.9948 B( 28-C , 29-C ) :   1.2257
B( 28-C , 83-H ) :   0.9996 B( 29-C , 30-S ) :   1.0270 B( 29-C , 31-C ) :   1.4078
B( 31-C , 32-C ) :   1.3599 B( 31-C , 84-H ) :   0.9763 B( 32-C , 33-S ) :   0.9987
B( 32-C , 36-C ) :   1.2942 B( 33-S , 34-C ) :   1.2177 B( 34-C , 35-C ) :   1.2006
B( 34-C , 46-N ) :   1.3130 B( 35-C , 36-C ) :   1.2690 B( 35-C , 45-N ) :   1.3480
B( 36-C , 37-N ) :   1.4366 B( 37-N , 38-C ) :   1.5740 B( 38-C , 39-O ) :   1.2343
B( 38-C , 42-C ) :   1.1198 B( 39-O , 40-C ) :   0.8925 B( 40-C , 41-C ) :   1.0937
B( 40-C , 85-H ) :   0.9578 B( 40-C , 86-H ) :   0.9575 B( 41-C , 87-H ) :   0.9695
B( 41-C , 88-H ) :   0.9608 B( 41-C , 89-H ) :   0.9686 B( 42-C , 43-C ) :   1.0232
B( 42-C , 45-N ) :   1.7748 B( 43-C , 44-N ) :   1.0714 B( 43-C , 90-H ) :   0.9219
B( 43-C , 91-H ) :   0.9144 B( 44-N , 92-H ) :   0.9694 B( 44-N , 93-H ) :   0.9687
B( 46-N , 47-C ) :   1.0837 B( 46-N , 94-H ) :   0.8102 B( 47-C , 48-C ) :   1.5375
B( 47-C , 51-C ) :   1.2577 B( 48-C , 49-S ) :   1.1654 B( 48-C , 95-H ) :   0.9576
B( 49-S , 50-C ) :   1.1620 B( 50-C , 51-C ) :   1.5481 B( 50-C , 96-H ) :   0.9818
B( 51-C , 52-N ) :   1.0657 B( 52-N , 53-C ) :   1.2370 B( 52-N , 97-H ) :   0.9191
B( 53-C , 54-C ) :   1.5639 B( 53-C , 98-H ) :   0.9743 B( 54-C , 55-C ) :   1.1982
B( 54-C , 99-H ) :   0.9459 B( 55-C , 56-C ) :   1.5668 B( 55-C ,100-H ) :   0.9560
B( 56-C , 57-C ) :   1.0869 B( 56-C , 65-C ) :   0.9520 B( 57-C , 58-C ) :   1.5564
B( 57-C , 63-C ) :   1.0241 B( 58-C , 59-C ) :   1.1380 B( 58-C , 61-C ) :   1.2075
B( 59-C , 60-N ) :   2.9254 B( 61-C , 62-N ) :   2.8468 B( 62-N , 94-H ) :   0.1819
B( 63-C , 64-C ) :   1.2814 B( 63-C , 70-C ) :   1.3936 B( 64-C , 65-C ) :   0.9191
B( 64-C , 67-C ) :   1.4286 B( 65-C , 66-O ) :   2.2747 B( 67-C , 68-C ) :   1.2344
B( 67-C ,101-H ) :   1.0194 B( 68-C , 69-C ) :   1.3164 B( 68-C , 73-C ) :   1.1566
B( 69-C , 70-C ) :   1.3213 B( 69-C , 71-S ) :   1.0886 B( 70-C ,102-H ) :   0.9845
B( 71-S , 72-C ) :   1.0853 B( 72-C , 73-C ) :   1.6157 B( 72-C , 74-Br) :   1.0221
B( 73-C ,103-H ) :   0.9926

-----------------------------------------------------------------------------
         ABSORPTION SPECTRUM VIA TRANSITION ELECTRIC DIPOLE MOMENTS
-----------------------------------------------------------------------------
State   Energy  Wavelength   fosc         T2         TX        TY        TZ
        (cm-1)    (nm)                  (au**2)     (au)      (au)      (au)
-----------------------------------------------------------------------------
   0    8808.3   1135.3   0.722665175  27.00971  -1.24936  -1.54793  -4.80132
   1   11684.3    855.8   0.024802917   0.69883   0.53528   0.05918   0.63938
   2   17836.8    560.6   0.124037227   2.28935  -1.47933  -0.18977  -0.25477
   3   19446.8    514.2   0.374452068   6.33903   2.42652  -0.14527  -0.65568
   4   19705.4    507.5   0.268578355   4.48705  -1.46077  -0.26825  -1.51038
   5   21317.0    469.1   0.216962209   3.35069  -0.94693   0.27587   1.54205
   6   21673.1    461.4   0.478602508   7.26991   1.77274  -0.17799  -2.02377
   7   22188.6    450.7   0.002547763   0.03780  -0.03723   0.10395   0.16003
   8   23179.7    431.4   0.073591682   1.04519   0.32945  -0.17065  -0.95265
   9   24488.5    408.4   0.409767183   5.50873  -2.17399   0.11883   0.87657
  10   24921.4    401.3   0.156298166   2.06470   1.04490   0.28791   0.94340
  11   25960.7    385.2   0.165277722   2.09591  -0.50241  -0.09707  -1.35428
  12   27549.5    363.0   0.074043474   0.88481  -0.55488   0.02883  -0.75900
  13   27929.3    358.0   0.011706868   0.13799  -0.14975  -0.30682   0.14638
  14   28041.9    356.6   0.122785786   1.44150   0.30182   0.05132   1.16094
  15   28168.6    355.0   0.003019867   0.03529  -0.06609  -0.02489  -0.17409
  16   28717.4    348.2   0.050551770   0.57952  -0.73754  -0.02093   0.18738
  17   28915.5    345.8   0.054595447   0.62159  -0.44204   0.19030   0.62448
  18   29065.3    344.1   0.013651292   0.15462   0.25638   0.11481   0.27516
  19   29589.5    338.0   0.002115632   0.02354   0.07733   0.09845   0.08870
  20   29605.4    337.8   0.018941498   0.21063   0.44953   0.08913   0.02464
  21   29778.0    335.8   0.019387803   0.21434  -0.13406  -0.02864  -0.44221
  22   29951.7    333.9   0.013810656   0.15180  -0.34570   0.06075   0.16913
  23   30349.6    329.5   0.097172043   1.05406   0.17883   0.14619   1.00035
  24   30452.9    328.4   0.043541335   0.47071   0.20871   0.00638   0.65353
  25   30689.1    325.8   0.001235937   0.01326   0.00624  -0.00237   0.11495
  26   30972.0    322.9   0.409433519   4.35201   0.93938   0.18723   1.85325
  27   31178.4    320.7   0.202499394   2.13818  -0.05827   0.19404   1.44815
  28   31513.7    317.3   0.179083369   1.87082   0.15469   0.20476   1.34349
  29   31590.8    316.5   0.041341357   0.43082  -0.04795  -0.08416   0.64919
  30   31691.2    315.5   0.002631192   0.02733   0.08174   0.14308  -0.01336
  31   32020.7    312.3   0.284525714   2.92527   0.51119   0.12178   1.62761
  32   32237.0    310.2   0.058720358   0.59967  -0.31434  -0.07178  -0.70406
  33   32547.2    307.2   0.049302144   0.49869   0.07438  -0.15625  -0.68464
  34   32792.6    304.9   0.013104763   0.13156   0.35670  -0.04266   0.05005
  35   32944.7    303.5   0.224019916   2.23860  -1.05052   0.03487  -1.06480
  36   33023.0    302.8   0.003731916   0.03720   0.00942   0.14558   0.12618
  37   33559.6    298.0   0.076281975   0.74831   0.33718   0.02570   0.79621
  38   33711.3    296.6   0.000135920   0.00133   0.00962   0.02602  -0.02362
  39   33859.3    295.3   0.202764449   1.97147  -0.27656  -0.19434  -1.36280
  40   34083.2    293.4   0.099977608   0.96569   0.54631   0.18763   0.79500
  41   34364.1    291.0   0.125507986   1.20238  -0.85700  -0.25979  -0.63281
  42   34560.0    289.4   0.063385158   0.60379   0.43833   0.25695   0.58791
  43   34877.4    286.7   0.125446898   1.18411  -0.06879   0.15117  -1.07542
  44   34966.5    286.0   0.184945251   1.74127   0.20769   0.00839   1.30310
  45   35272.2    283.5   0.109831443   1.02511  -0.07277  -0.18034  -0.99362
  46   35574.8    281.1   0.049077263   0.45416  -0.09545   0.13284   0.65376
  47   35718.5    280.0   0.010770595   0.09927   0.06571  -0.02957   0.30672
  48   35868.0    278.8   0.018400725   0.16889   0.40259  -0.04003  -0.07216
  49   36182.1    276.4   0.008436930   0.07677  -0.06061   0.26195   0.06687
  50   36390.7    274.8   0.000584930   0.00529  -0.03332   0.01124  -0.06368
  51   36646.2    272.9   0.064982767   0.58377   0.38274   0.09657  -0.65419
  52   36732.7    272.2   0.017665659   0.15833   0.30840   0.15963  -0.19426
  53   36836.0    271.5   0.011371994   0.10163   0.29483  -0.05621   0.10746
  54   37086.7    269.6   0.001644041   0.01459  -0.07374   0.01943  -0.09369
  55   37329.2    267.9   0.072922421   0.64311  -0.17414  -0.01957  -0.78256
  56   37895.6    263.9   0.032362982   0.28115   0.17012   0.29557   0.40602
  57   38283.2    261.2   0.004679990   0.04025  -0.12064   0.12245  -0.10342
  58   38444.6    260.1   0.026162008   0.22403  -0.38426   0.16489   0.22178
  59   38634.2    258.8   0.065405947   0.55734  -0.68594  -0.18547   0.22897
  60   38889.1    257.1   0.106883566   0.90481   0.56760  -0.23168  -0.72730
  61   39275.7    254.6   0.007123134   0.05971  -0.20573   0.04124   0.12523
  62   39416.4    253.7   0.000279840   0.00234   0.02187  -0.02893  -0.03197
  63   39540.5    252.9   0.145266580   1.20948  -0.68344   0.14547   0.84925
  64   39630.2    252.3   0.028541740   0.23710  -0.34577  -0.24065   0.24419
  65   39857.8    250.9   0.001494260   0.01234   0.03364   0.06583   0.08292
  66   40078.5    249.5   0.009316253   0.07653  -0.20999   0.01903  -0.17907
  67   40201.2    248.7   0.007982624   0.06537   0.20054  -0.13706  -0.07981

FINAL SINGLE POINT ENERGY    -10364.415635020026

DIPOLE MOMENT
-------------
                                X             Y             Z
Electronic contribution:    103.43404      36.46567     262.64824
Nuclear contribution   :   -106.30078     -39.38694    -267.89739
                        -----------------------------------------
Total Dipole Moment    :     -2.86674      -2.92127      -5.24915
                        -----------------------------------------
Magnitude (a.u.)       :      6.65624
Magnitude (Debye)      :     16.91882

Rotational constants in cm-1:     0.001544     0.000307     0.000271
Rotational constants in MHz :    46.297645     9.215927     8.109981

                             ****ORCA TERMINATED NORMALLY****
TOTAL RUN TIME: 0 days 0 hours 14 minutes 44 seconds 587 msec
