                         Program Version 4.2.0 -  RELEASE  -
|  1> # ORCA input file
|  2> # SCF done       -191.931358704678          0.000736517491
|  3> ! CAM-B3LYP def2-SVP def2/J RIJCOSX Grid4 TightSCF
|  4> %maxcore 5000
|  5> %tddft
|  6>     Mode sTDDFT
|  7>     Ethresh 5.0
|  8>     maxcore 5000
|  9> end
| 10>
| 11> %pal
| 12>   nprocs 6
| 13>   end
| 14> * xyz 0 1
| 15>    C       -0.24578         1.71822         0.61185
| 16>    C       -0.59392         2.34105         1.96660
| 17>    C        0.75190         0.56483         0.75142
| 18>    C        0.16774         2.75114        -0.42206
| 19>    C       -0.77390         2.73032        -1.42621
| 20>    C       -1.76424         1.73597        -1.09032
| 21>    C       -2.87529         1.37175        -1.80215
| 22>    C       -3.22368         1.95367        -3.03490
| 23>    N       -3.55120         2.39454        -4.04171
| 24>    C       -3.74051         0.36790        -1.31933
| 25>    N       -4.44774        -0.44644        -0.93047
| 26>    O       -1.45702         1.16139         0.07818
| 27>    C       -0.79504         3.51813        -2.58593
| 28>    N       -0.77457         4.18138        -3.52201
| 29>    C        1.31839         3.56330        -0.33307
| 30>    C        2.29227         3.56194         0.65973
| 31>    C        3.29622         4.48859         0.41832
| 32>    C        3.09243         5.21693        -0.77393
| 33>    S        1.67148         4.75507        -1.59056
| 34>    C        4.16423         6.12198        -0.93212
| 35>    C        5.05309         5.97126         0.15491
| 36>    C        4.54597         4.91929         1.02442
| 37>    C        5.13688         4.39582         2.13552
| 38>    C        6.41682         4.78618         2.58851
| 39>    N        7.47098         5.04854         2.95202
| 40>    C        4.51081         3.36949         2.87539
| 41>    N        3.98070         2.53868         3.46152
| 42>    C        6.13417         6.84025         0.10160
| 43>    C        6.08632         7.64549        -1.03300
| 44>    S        4.67773         7.31980        -2.03416
| 45>    C        7.02980         8.62145        -1.40215
| 46>    C        8.13322         9.05541        -0.65101
| 47>    C        8.92611        10.04086        -1.33303
| 48>    N       10.06347        10.49441        -0.80126
| 49>    C       10.38385        10.05404         0.39437
| 50>    C       11.70036        10.47759         0.94505
| 51>    O       12.51910        11.07223         0.28172
| 52>    C       11.94332        10.07709         2.34329
| 53>    C       11.09824         9.32791         3.05879
| 54>    C        9.81003         8.82768         2.54491
| 55>    O        9.02651         8.21030         3.22989
| 56>    C        9.52490         9.17698         1.12625
| 57>    N        8.43753         8.66993         0.59068
| 58>    C        8.40289        10.39596        -2.58647
| 59>    S        6.97135         9.47181        -2.91353
| 60>    C        8.92305        11.35207        -3.47716
| 61>    C        9.98296        12.21914        -3.22806
| 62>    C       10.23399        13.04529        -4.31470
| 63>    C        9.37541        12.79878        -5.40790
| 64>    S        8.23842        11.56588        -5.08271
| 65>    C        9.73299        13.66117        -6.46385
| 66>    C       10.82209        14.45985        -6.05310
| 67>    C       11.14334        14.12601        -4.67284
| 68>    C       12.03792        14.74968        -3.85779
| 69>    C       12.84268        15.82531        -4.29785
| 70>    N       13.48688        16.70968        -4.63708
| 71>    C       12.17353        14.42413        -2.48863
| 72>    N       12.26416        14.20911        -1.36709
| 73>    C       11.25600        15.33322        -7.04178
| 74>    C       10.50673        15.22634        -8.20916
| 75>    S        9.23892        14.00751        -8.05513
| 76>    C       10.66720        15.96785        -9.40018
| 77>    C       11.69209        16.82841        -9.72261
| 78>    C       11.40870        17.38794       -11.02313
| 79>    C       12.14569        18.29049       -11.74103
| 80>    C       13.36095        18.83681       -11.28800
| 81>    N       14.35352        19.31575       -10.97138
| 82>    C       11.70188        18.72782       -13.00670
| 83>    N       11.34432        19.08436       -14.03599
| 84>    O       10.25495        16.89665       -11.49339
| 85>    C        9.69159        15.96468       -10.56122
| 86>    C        8.30712        16.48348       -10.16370
| 87>    C        9.60267        14.61019       -11.27124
| 88>    C       12.84880        17.10669        -8.97856
| 89>    N       13.79536        17.29560        -8.35953
| 90>    H        0.29113         2.72133         2.46500
| 91>    H       -1.05452         1.57966         2.59056
| 92>    H       -1.30337         3.15547         1.83292
| 93>    H        1.64228         0.87073         1.28947
| 94>    H        1.03902         0.19358        -0.23038
| 95>    H        0.26902        -0.24096         1.29838
| 96>    H        2.26891         2.91407         1.51448
| 97>    H        6.92607         6.92328         0.82468
| 98>    H       12.87849        10.42531         2.76054
| 99>    H       11.31904         9.05032         4.08066
|100>    H       10.51963        12.20583        -2.29623
|101>    H       12.07055        16.02580        -6.93367
|102>    H        8.39650        17.44235        -9.65689
|103>    H        7.80505        15.77790        -9.50895
|104>    H        7.71311        16.62065       -11.06314
|105>    H       10.59962        14.22587       -11.47745
|106>    H        9.08334        14.75072       -12.21565
|107>    H        9.05718        13.88943       -10.67070
|108> *
|109>
|110>                          ****END OF INPUT****

CARTESIAN COORDINATES (ANGSTROEM)
---------------------------------
  C     -0.245780    1.718220    0.611850
  C     -0.593920    2.341050    1.966600
  C      0.751900    0.564830    0.751420
  C      0.167740    2.751140   -0.422060
  C     -0.773900    2.730320   -1.426210
  C     -1.764240    1.735970   -1.090320
  C     -2.875290    1.371750   -1.802150
  C     -3.223680    1.953670   -3.034900
  N     -3.551200    2.394540   -4.041710
  C     -3.740510    0.367900   -1.319330
  N     -4.447740   -0.446440   -0.930470
  O     -1.457020    1.161390    0.078180
  C     -0.795040    3.518130   -2.585930
  N     -0.774570    4.181380   -3.522010
  C      1.318390    3.563300   -0.333070
  C      2.292270    3.561940    0.659730
  C      3.296220    4.488590    0.418320
  C      3.092430    5.216930   -0.773930
  S      1.671480    4.755070   -1.590560
  C      4.164230    6.121980   -0.932120
  C      5.053090    5.971260    0.154910
  C      4.545970    4.919290    1.024420
  C      5.136880    4.395820    2.135520
  C      6.416820    4.786180    2.588510
  N      7.470980    5.048540    2.952020
  C      4.510810    3.369490    2.875390
  N      3.980700    2.538680    3.461520
  C      6.134170    6.840250    0.101600
  C      6.086320    7.645490   -1.033000
  S      4.677730    7.319800   -2.034160
  C      7.029800    8.621450   -1.402150
  C      8.133220    9.055410   -0.651010
  C      8.926110   10.040860   -1.333030
  N     10.063470   10.494410   -0.801260
  C     10.383850   10.054040    0.394370
  C     11.700360   10.477590    0.945050
  O     12.519100   11.072230    0.281720
  C     11.943320   10.077090    2.343290
  C     11.098240    9.327910    3.058790
  C      9.810030    8.827680    2.544910
  O      9.026510    8.210300    3.229890
  C      9.524900    9.176980    1.126250
  N      8.437530    8.669930    0.590680
  C      8.402890   10.395960   -2.586470
  S      6.971350    9.471810   -2.913530
  C      8.923050   11.352070   -3.477160
  C      9.982960   12.219140   -3.228060
  C     10.233990   13.045290   -4.314700
  C      9.375410   12.798780   -5.407900
  S      8.238420   11.565880   -5.082710
  C      9.732990   13.661170   -6.463850
  C     10.822090   14.459850   -6.053100
  C     11.143340   14.126010   -4.672840
  C     12.037920   14.749680   -3.857790
  C     12.842680   15.825310   -4.297850
  N     13.486880   16.709680   -4.637080
  C     12.173530   14.424130   -2.488630
  N     12.264160   14.209110   -1.367090
  C     11.256000   15.333220   -7.041780
  C     10.506730   15.226340   -8.209160
  S      9.238920   14.007510   -8.055130
  C     10.667200   15.967850   -9.400180
  C     11.692090   16.828410   -9.722610
  C     11.408700   17.387940  -11.023130
  C     12.145690   18.290490  -11.741030
  C     13.360950   18.836810  -11.288000
  N     14.353520   19.315750  -10.971380
  C     11.701880   18.727820  -13.006700
  N     11.344320   19.084360  -14.035990
  O     10.254950   16.896650  -11.493390
  C      9.691590   15.964680  -10.561220
  C      8.307120   16.483480  -10.163700
  C      9.602670   14.610190  -11.271240
  C     12.848800   17.106690   -8.978560
  N     13.795360   17.295600   -8.359530
  H      0.291130    2.721330    2.465000
  H     -1.054520    1.579660    2.590560
  H     -1.303370    3.155470    1.832920
  H      1.642280    0.870730    1.289470
  H      1.039020    0.193580   -0.230380
  H      0.269020   -0.240960    1.298380
  H      2.268910    2.914070    1.514480
  H      6.926070    6.923280    0.824680
  H     12.878490   10.425310    2.760540
  H     11.319040    9.050320    4.080660
  H     10.519630   12.205830   -2.296230
  H     12.070550   16.025800   -6.933670
  H      8.396500   17.442350   -9.656890
  H      7.805050   15.777900   -9.508950
  H      7.713110   16.620650  -11.063140
  H     10.599620   14.225870  -11.477450
  H      9.083340   14.750720  -12.215650
  H      9.057180   13.889430  -10.670700

 Total Charge           Charge          ....    0
 Multiplicity           Mult            ....    1
 Number of Electrons    NEL             ....  538
 Basis Dimension        Dim             .... 1160

ORBITAL ENERGIES
----------------

  NO   OCC          E(Eh)            E(eV)
   0   2.0000     -89.027873     -2422.5716
   1   2.0000     -89.023260     -2422.4460
   2   2.0000     -89.019771     -2422.3511
   3   2.0000     -89.019183     -2422.3351
   4   2.0000     -89.018996     -2422.3300
   5   2.0000     -19.300927      -525.2049
   6   2.0000     -19.300289      -525.1876
   7   2.0000     -19.244551      -523.6709
   8   2.0000     -19.244085      -523.6582
   9   2.0000     -14.472735      -393.8232
  10   2.0000     -14.472499      -393.8167
  11   2.0000     -14.456015      -393.3682
  12   2.0000     -14.448076      -393.1521
  13   2.0000     -14.444976      -393.0678
  14   2.0000     -14.444608      -393.0578
  15   2.0000     -14.435554      -392.8114
  16   2.0000     -14.428726      -392.6256
  17   2.0000     -14.403199      -391.9310
  18   2.0000     -14.401569      -391.8866
  19   2.0000     -14.400285      -391.8517
  20   2.0000     -14.400154      -391.8481
  21   2.0000     -10.402756      -283.0734
  22   2.0000     -10.400796      -283.0201
  23   2.0000     -10.393160      -282.8123
  24   2.0000     -10.392691      -282.7995
  25   2.0000     -10.390767      -282.7471
  26   2.0000     -10.389181      -282.7040
  27   2.0000     -10.388807      -282.6938
  28   2.0000     -10.388001      -282.6719
  29   2.0000     -10.376803      -282.3672
  30   2.0000     -10.371553      -282.2243
  31   2.0000     -10.367839      -282.1233
  32   2.0000     -10.367388      -282.1110
  33   2.0000     -10.365009      -282.0462
  34   2.0000     -10.364492      -282.0322
  35   2.0000     -10.364424      -282.0303
  36   2.0000     -10.363945      -282.0173
  37   2.0000     -10.362857      -281.9877
  38   2.0000     -10.361729      -281.9570
  39   2.0000     -10.361650      -281.9548
  40   2.0000     -10.361319      -281.9458
  41   2.0000     -10.360790      -281.9314
  42   2.0000     -10.360716      -281.9294
  43   2.0000     -10.360131      -281.9135
  44   2.0000     -10.359387      -281.8932
  45   2.0000     -10.358141      -281.8594
  46   2.0000     -10.357256      -281.8353
  47   2.0000     -10.355909      -281.7986
  48   2.0000     -10.350214      -281.6436
  49   2.0000     -10.348589      -281.5994
  50   2.0000     -10.346370      -281.5390
  51   2.0000     -10.343029      -281.4481
  52   2.0000     -10.342293      -281.4281
  53   2.0000     -10.340770      -281.3867
  54   2.0000     -10.335390      -281.2403
  55   2.0000     -10.334782      -281.2237
  56   2.0000     -10.334608      -281.2190
  57   2.0000     -10.334206      -281.2080
  58   2.0000     -10.333213      -281.1810
  59   2.0000     -10.333123      -281.1786
  60   2.0000     -10.332943      -281.1737
  61   2.0000     -10.332439      -281.1600
  62   2.0000     -10.327268      -281.0192
  63   2.0000     -10.325232      -280.9639
  64   2.0000     -10.324114      -280.9334
  65   2.0000     -10.323859      -280.9265
  66   2.0000     -10.323408      -280.9142
  67   2.0000     -10.307292      -280.4757
  68   2.0000     -10.306057      -280.4421
  69   2.0000     -10.304628      -280.4032
  70   2.0000     -10.304121      -280.3894
  71   2.0000     -10.302657      -280.3495
  72   2.0000     -10.301173      -280.3092
  73   2.0000     -10.299351      -280.2596
  74   2.0000     -10.299118      -280.2532
  75   2.0000      -8.122688      -221.0296
  76   2.0000      -8.117248      -220.8815
  77   2.0000      -8.114538      -220.8078
  78   2.0000      -8.113760      -220.7866
  79   2.0000      -8.113087      -220.7683
  80   2.0000      -6.091762      -165.7653
  81   2.0000      -6.087605      -165.6521
  82   2.0000      -6.086508      -165.6223
  83   2.0000      -6.085343      -165.5906
  84   2.0000      -6.083813      -165.5490
  85   2.0000      -6.083081      -165.5291
  86   2.0000      -6.082377      -165.5099
  87   2.0000      -6.082303      -165.5079
  88   2.0000      -6.079694      -165.4369
  89   2.0000      -6.079655      -165.4358
  90   2.0000      -6.078922      -165.4159
  91   2.0000      -6.077915      -165.3885
  92   2.0000      -6.076777      -165.3575
  93   2.0000      -6.075939      -165.3347
  94   2.0000      -6.075548      -165.3241
  95   2.0000      -1.224351       -33.3163
  96   2.0000      -1.223740       -33.2997
  97   2.0000      -1.162679       -31.6381
  98   2.0000      -1.157577       -31.4993
  99   2.0000      -1.124965       -30.6118
 100   2.0000      -1.074157       -29.2293
 101   2.0000      -1.072736       -29.1906
 102   2.0000      -1.051954       -28.6251
 103   2.0000      -1.046159       -28.4674
 104   2.0000      -1.042846       -28.3773
 105   2.0000      -1.038076       -28.2475
 106   2.0000      -1.031880       -28.0789
 107   2.0000      -1.027969       -27.9725
 108   2.0000      -1.024549       -27.8794
 109   2.0000      -1.020989       -27.7825
 110   2.0000      -1.018394       -27.7119
 111   2.0000      -1.014548       -27.6073
 112   2.0000      -0.999647       -27.2018
 113   2.0000      -0.997541       -27.1445
 114   2.0000      -0.990380       -26.9496
 115   2.0000      -0.985036       -26.8042
 116   2.0000      -0.980918       -26.6921
 117   2.0000      -0.978688       -26.6315
 118   2.0000      -0.967427       -26.3250
 119   2.0000      -0.965001       -26.2590
 120   2.0000      -0.956966       -26.0404
 121   2.0000      -0.950959       -25.8769
 122   2.0000      -0.949924       -25.8487
 123   2.0000      -0.940184       -25.5837
 124   2.0000      -0.929242       -25.2859
 125   2.0000      -0.906098       -24.6562
 126   2.0000      -0.901099       -24.5201
 127   2.0000      -0.898227       -24.4420
 128   2.0000      -0.894543       -24.3417
 129   2.0000      -0.891099       -24.2480
 130   2.0000      -0.886754       -24.1298
 131   2.0000      -0.883331       -24.0366
 132   2.0000      -0.881159       -23.9775
 133   2.0000      -0.852746       -23.2044
 134   2.0000      -0.835277       -22.7291
 135   2.0000      -0.821929       -22.3658
 136   2.0000      -0.819283       -22.2938
 137   2.0000      -0.818546       -22.2738
 138   2.0000      -0.816054       -22.2060
 139   2.0000      -0.809906       -22.0387
 140   2.0000      -0.802981       -21.8502
 141   2.0000      -0.799420       -21.7533
 142   2.0000      -0.783977       -21.3331
 143   2.0000      -0.769656       -20.9434
 144   2.0000      -0.768477       -20.9113
 145   2.0000      -0.761852       -20.7310
 146   2.0000      -0.760152       -20.6848
 147   2.0000      -0.741645       -20.1812
 148   2.0000      -0.730020       -19.8648
 149   2.0000      -0.720732       -19.6121
 150   2.0000      -0.715588       -19.4721
 151   2.0000      -0.711356       -19.3570
 152   2.0000      -0.708237       -19.2721
 153   2.0000      -0.701577       -19.0909
 154   2.0000      -0.697664       -18.9844
 155   2.0000      -0.690867       -18.7995
 156   2.0000      -0.687701       -18.7133
 157   2.0000      -0.682404       -18.5691
 158   2.0000      -0.665030       -18.0964
 159   2.0000      -0.663433       -18.0529
 160   2.0000      -0.659539       -17.9470
 161   2.0000      -0.653160       -17.7734
 162   2.0000      -0.648419       -17.6444
 163   2.0000      -0.647212       -17.6115
 164   2.0000      -0.644584       -17.5400
 165   2.0000      -0.639877       -17.4119
 166   2.0000      -0.632446       -17.2097
 167   2.0000      -0.626281       -17.0420
 168   2.0000      -0.622194       -16.9308
 169   2.0000      -0.617117       -16.7926
 170   2.0000      -0.615924       -16.7602
 171   2.0000      -0.599751       -16.3200
 172   2.0000      -0.599698       -16.3186
 173   2.0000      -0.593457       -16.1488
 174   2.0000      -0.590613       -16.0714
 175   2.0000      -0.586612       -15.9625
 176   2.0000      -0.584116       -15.8946
 177   2.0000      -0.576077       -15.6759
 178   2.0000      -0.574883       -15.6434
 179   2.0000      -0.573400       -15.6030
 180   2.0000      -0.572755       -15.5855
 181   2.0000      -0.567923       -15.4540
 182   2.0000      -0.567726       -15.4486
 183   2.0000      -0.556147       -15.1335
 184   2.0000      -0.551817       -15.0157
 185   2.0000      -0.550020       -14.9668
 186   2.0000      -0.545299       -14.8383
 187   2.0000      -0.541471       -14.7342
 188   2.0000      -0.531502       -14.4629
 189   2.0000      -0.531110       -14.4522
 190   2.0000      -0.530660       -14.4400
 191   2.0000      -0.529788       -14.4163
 192   2.0000      -0.526166       -14.3177
 193   2.0000      -0.525123       -14.2893
 194   2.0000      -0.524887       -14.2829
 195   2.0000      -0.519079       -14.1249
 196   2.0000      -0.518454       -14.1079
 197   2.0000      -0.516287       -14.0489
 198   2.0000      -0.516181       -14.0460
 199   2.0000      -0.515317       -14.0225
 200   2.0000      -0.514643       -14.0041
 201   2.0000      -0.512403       -13.9432
 202   2.0000      -0.509032       -13.8515
 203   2.0000      -0.507400       -13.8071
 204   2.0000      -0.504642       -13.7320
 205   2.0000      -0.503956       -13.7133
 206   2.0000      -0.500856       -13.6290
 207   2.0000      -0.498249       -13.5580
 208   2.0000      -0.496681       -13.5154
 209   2.0000      -0.490951       -13.3595
 210   2.0000      -0.487288       -13.2598
 211   2.0000      -0.484891       -13.1946
 212   2.0000      -0.484062       -13.1720
 213   2.0000      -0.481800       -13.1105
 214   2.0000      -0.479433       -13.0460
 215   2.0000      -0.478450       -13.0193
 216   2.0000      -0.476584       -12.9685
 217   2.0000      -0.475675       -12.9438
 218   2.0000      -0.473003       -12.8711
 219   2.0000      -0.472315       -12.8523
 220   2.0000      -0.472171       -12.8484
 221   2.0000      -0.469426       -12.7737
 222   2.0000      -0.468018       -12.7354
 223   2.0000      -0.465671       -12.6716
 224   2.0000      -0.464628       -12.6432
 225   2.0000      -0.461239       -12.5509
 226   2.0000      -0.460558       -12.5324
 227   2.0000      -0.460289       -12.5251
 228   2.0000      -0.458428       -12.4745
 229   2.0000      -0.454679       -12.3725
 230   2.0000      -0.452490       -12.3129
 231   2.0000      -0.450777       -12.2663
 232   2.0000      -0.448043       -12.1919
 233   2.0000      -0.446605       -12.1527
 234   2.0000      -0.445839       -12.1319
 235   2.0000      -0.440593       -11.9891
 236   2.0000      -0.439365       -11.9557
 237   2.0000      -0.437665       -11.9095
 238   2.0000      -0.437254       -11.8983
 239   2.0000      -0.434648       -11.8274
 240   2.0000      -0.433007       -11.7827
 241   2.0000      -0.431855       -11.7514
 242   2.0000      -0.430983       -11.7276
 243   2.0000      -0.430043       -11.7021
 244   2.0000      -0.429171       -11.6783
 245   2.0000      -0.420451       -11.4411
 246   2.0000      -0.416877       -11.3438
 247   2.0000      -0.415566       -11.3081
 248   2.0000      -0.413243       -11.2449
 249   2.0000      -0.411653       -11.2017
 250   2.0000      -0.410237       -11.1631
 251   2.0000      -0.397939       -10.8285
 252   2.0000      -0.396371       -10.7858
 253   2.0000      -0.395479       -10.7615
 254   2.0000      -0.388013       -10.5584
 255   2.0000      -0.384203       -10.4547
 256   2.0000      -0.381213       -10.3733
 257   2.0000      -0.378603       -10.3023
 258   2.0000      -0.377286       -10.2665
 259   2.0000      -0.372056       -10.1242
 260   2.0000      -0.363337        -9.8869
 261   2.0000      -0.357411        -9.7256
 262   2.0000      -0.351347        -9.5606
 263   2.0000      -0.346640        -9.4325
 264   2.0000      -0.344520        -9.3749
 265   2.0000      -0.326389        -8.8815
 266   2.0000      -0.306183        -8.3316
 267   2.0000      -0.292338        -7.9549
 268   2.0000      -0.263085        -7.1589
 269   0.0000      -0.146563        -3.9882
 270   0.0000      -0.129406        -3.5213
 271   0.0000      -0.113607        -3.0914
 272   0.0000      -0.104405        -2.8410
 273   0.0000      -0.092787        -2.5249

MULLIKEN ATOMIC CHARGES
-----------------------
   0 C :   -0.102786
   1 C :    0.120490
   2 C :    0.115703
   3 C :    0.137547
   4 C :   -0.149636
   5 C :    0.333381
   6 C :   -0.414040
   7 C :   -0.200997
   8 N :    0.187877
   9 C :   -0.167498
  10 N :    0.160965
  11 O :   -0.243271
  12 C :   -0.293322
  13 N :    0.233791
  14 C :   -0.163564
  15 C :   -0.030266
  16 C :    0.014610
  17 C :   -0.066880
  18 S :    0.226684
  19 C :   -0.098439
  20 C :    0.035288
  21 C :    0.300459
  22 C :   -0.279911
  23 C :   -0.194320
  24 N :    0.211080
  25 C :   -0.184624
  26 N :    0.164028
  27 C :   -0.059477
  28 C :   -0.086970
  29 S :    0.198881
  30 C :   -0.114027
  31 C :    0.027074
  32 C :    0.031351
  33 N :    0.062721
  34 C :   -0.111387
  35 C :    0.141060
  36 O :   -0.091501
  37 C :   -0.007116
  38 C :   -0.009962
  39 C :    0.142199
  40 O :   -0.092147
  41 C :   -0.114742
  42 N :    0.059630
  43 C :   -0.116250
  44 S :    0.210722
  45 C :   -0.087894
  46 C :   -0.055417
  47 C :    0.037116
  48 C :   -0.098191
  49 S :    0.188154
  50 C :   -0.080014
  51 C :    0.027822
  52 C :    0.300084
  53 C :   -0.275082
  54 C :   -0.197100
  55 N :    0.205803
  56 C :   -0.192740
  57 N :    0.200764
  58 C :   -0.029425
  59 C :   -0.151675
  60 S :    0.184633
  61 C :    0.137926
  62 C :   -0.161823
  63 C :    0.333953
  64 C :   -0.418336
  65 C :   -0.200333
  66 N :    0.192046
  67 C :   -0.166209
  68 N :    0.163215
  69 O :   -0.244818
  70 C :   -0.128348
  71 C :    0.117454
  72 C :    0.106994
  73 C :   -0.253214
  74 N :    0.236585
  75 H :    0.022391
  76 H :    0.047744
  77 H :    0.030854
  78 H :    0.025908
  79 H :    0.029740
  80 H :    0.048509
  81 H :    0.015573
  82 H :    0.034547
  83 H :    0.026351
  84 H :    0.025795
  85 H :    0.034068
  86 H :    0.034597
  87 H :    0.033177
  88 H :    0.020373
  89 H :    0.046782
  90 H :    0.034357
  91 H :    0.049025
  92 H :    0.025872
Sum of atomic charges:   -0.0000000

LOEWDIN ATOMIC CHARGES
----------------------
   0 C :    0.062692
   1 C :   -0.034663
   2 C :   -0.035069
   3 C :    0.033326
   4 C :   -0.112831
   5 C :    0.131753
   6 C :   -0.183505
   7 C :   -0.035859
   8 N :   -0.041572
   9 C :   -0.024663
  10 N :   -0.050511
  11 O :   -0.041793
  12 C :   -0.057254
  13 N :   -0.014468
  14 C :   -0.182886
  15 C :   -0.001358
  16 C :   -0.072202
  17 C :   -0.157718
  18 S :    0.530190
  19 C :   -0.187309
  20 C :   -0.051291
  21 C :    0.074422
  22 C :   -0.087970
  23 C :   -0.025885
  24 N :   -0.003429
  25 C :   -0.011264
  26 N :   -0.031642
  27 C :   -0.008308
  28 C :   -0.172797
  29 S :    0.474957
  30 C :   -0.192904
  31 C :   -0.038631
  32 C :   -0.039105
  33 N :    0.008643
  34 C :   -0.032165
  35 C :    0.055744
  36 O :   -0.084479
  37 C :   -0.008839
  38 C :   -0.010535
  39 C :    0.055607
  40 O :   -0.085905
  41 C :   -0.031974
  42 N :    0.007143
  43 C :   -0.190540
  44 S :    0.496965
  45 C :   -0.173902
  46 C :   -0.006956
  47 C :   -0.048407
  48 C :   -0.188718
  49 S :    0.465110
  50 C :   -0.162284
  51 C :   -0.064958
  52 C :    0.066648
  53 C :   -0.075199
  54 C :   -0.025291
  55 N :    0.000691
  56 C :   -0.021916
  57 N :   -0.005326
  58 C :    0.015960
  59 C :   -0.183661
  60 S :    0.495755
  61 C :    0.029813
  62 C :   -0.099657
  63 C :    0.131135
  64 C :   -0.181459
  65 C :   -0.036305
  66 N :   -0.037454
  67 C :   -0.024301
  68 N :   -0.051146
  69 O :   -0.043311
  70 C :    0.053247
  71 C :   -0.039573
  72 C :   -0.041557
  73 C :   -0.040982
  74 N :   -0.004495
  75 H :    0.032713
  76 H :    0.043810
  77 H :    0.036461
  78 H :    0.033108
  79 H :    0.035866
  80 H :    0.044597
  81 H :    0.037909
  82 H :    0.046037
  83 H :    0.049081
  84 H :    0.048799
  85 H :    0.045968
  86 H :    0.051381
  87 H :    0.037198
  88 H :    0.021116
  89 H :    0.042873
  90 H :    0.036971
  91 H :    0.044635
  92 H :    0.019859

  Mayer bond orders larger than 0.100000
B(  0-C ,  1-C ) :   1.0469 B(  0-C ,  2-C ) :   1.0447 B(  0-C ,  3-C ) :   0.9596
B(  0-C , 11-O ) :   0.9125 B(  1-C , 75-H ) :   0.9570 B(  1-C , 76-H ) :   0.9545
B(  1-C , 77-H ) :   0.9500 B(  2-C , 78-H ) :   0.9572 B(  2-C , 79-H ) :   0.9518
B(  2-C , 80-H ) :   0.9530 B(  3-C ,  4-C ) :   1.6231 B(  3-C , 14-C ) :   1.2080
B(  4-C ,  5-C ) :   1.0583 B(  4-C , 12-C ) :   1.1395 B(  5-C ,  6-C ) :   1.6196
B(  5-C , 11-O ) :   1.2496 B(  6-C ,  7-C ) :   1.1798 B(  6-C ,  9-C ) :   1.1091
B(  7-C ,  8-N ) :   3.0248 B(  9-C , 10-N ) :   3.0548 B( 12-C , 13-N ) :   2.9849
B( 14-C , 15-C ) :   1.3991 B( 14-C , 18-S ) :   1.0810 B( 15-C , 16-C ) :   1.3536
B( 15-C , 81-H ) :   0.9770 B( 16-C , 17-C ) :   1.3836 B( 16-C , 21-C ) :   0.9905
B( 17-C , 18-S ) :   1.1546 B( 17-C , 19-C ) :   1.2138 B( 19-C , 20-C ) :   1.4094
B( 19-C , 29-S ) :   1.1159 B( 20-C , 21-C ) :   0.9883 B( 20-C , 27-C ) :   1.2819
B( 21-C , 22-C ) :   1.7254 B( 22-C , 23-C ) :   1.1302 B( 22-C , 25-C ) :   1.1347
B( 23-C , 24-N ) :   3.0050 B( 25-C , 26-N ) :   2.9860 B( 27-C , 28-C ) :   1.4437
B( 27-C , 82-H ) :   0.9864 B( 28-C , 29-S ) :   1.0944 B( 28-C , 30-C ) :   1.1932
B( 30-C , 31-C ) :   1.3633 B( 30-C , 43-C ) :   0.1529 B( 30-C , 44-S ) :   1.1536
B( 31-C , 32-C ) :   1.1952 B( 31-C , 42-N ) :   1.4356 B( 32-C , 33-N ) :   1.4374
B( 32-C , 43-C ) :   1.3607 B( 33-N , 34-C ) :   1.7172 B( 34-C , 35-C ) :   0.8839
B( 34-C , 41-C ) :   1.0928 B( 35-C , 36-O ) :   2.2447 B( 35-C , 37-C ) :   1.0225
B( 37-C , 38-C ) :   1.6905 B( 37-C , 83-H ) :   0.9941 B( 38-C , 39-C ) :   1.0252
B( 38-C , 84-H ) :   0.9943 B( 39-C , 40-O ) :   2.2436 B( 39-C , 41-C ) :   0.8834
B( 41-C , 42-N ) :   1.7188 B( 43-C , 44-S ) :   1.1569 B( 43-C , 45-C ) :   1.1961
B( 45-C , 46-C ) :   1.4427 B( 45-C , 49-S ) :   1.0897 B( 46-C , 47-C ) :   1.2823
B( 46-C , 85-H ) :   0.9850 B( 47-C , 48-C ) :   1.4129 B( 47-C , 52-C ) :   0.9870
B( 48-C , 49-S ) :   1.1094 B( 48-C , 50-C ) :   1.2201 B( 50-C , 51-C ) :   1.3910
B( 50-C , 60-S ) :   1.1438 B( 51-C , 52-C ) :   0.9826 B( 51-C , 58-C ) :   1.3238
B( 52-C , 53-C ) :   1.7319 B( 53-C , 54-C ) :   1.1333 B( 53-C , 56-C ) :   1.1337
B( 54-C , 55-N ) :   2.9910 B( 56-C , 57-N ) :   2.9971 B( 58-C , 59-C ) :   1.4148
B( 58-C , 86-H ) :   0.9804 B( 59-C , 60-S ) :   1.0661 B( 59-C , 61-C ) :   1.1972
B( 61-C , 62-C ) :   1.6597 B( 61-C , 70-C ) :   0.9542 B( 62-C , 63-C ) :   1.0564
B( 62-C , 73-C ) :   1.1574 B( 63-C , 64-C ) :   1.6174 B( 63-C , 69-O ) :   1.2420
B( 64-C , 65-C ) :   1.1808 B( 64-C , 67-C ) :   1.1106 B( 65-C , 66-N ) :   3.0271
B( 67-C , 68-N ) :   3.0557 B( 69-O , 70-C ) :   0.9199 B( 70-C , 71-C ) :   1.0465
B( 70-C , 72-C ) :   1.0416 B( 71-C , 87-H ) :   0.9519 B( 71-C , 88-H ) :   0.9502
B( 71-C , 89-H ) :   0.9552 B( 72-C , 90-H ) :   0.9535 B( 72-C , 91-H ) :   0.9526
B( 72-C , 92-H ) :   0.9517 B( 73-C , 74-N ) :   2.9577

-----------------------------------------------------------------------------
         ABSORPTION SPECTRUM VIA TRANSITION ELECTRIC DIPOLE MOMENTS
-----------------------------------------------------------------------------
State   Energy  Wavelength   fosc         T2         TX        TY        TZ
        (cm-1)    (nm)                  (au**2)     (au)      (au)      (au)
-----------------------------------------------------------------------------
   0   10569.2    946.1   0.996634315  31.04339   3.27747   3.89161  -2.27090
   1   13171.9    759.2   0.099239433   2.48034  -0.38541   0.52592  -1.43360
   2   15630.8    639.8   0.180835111   3.80869  -1.18972  -1.38455   0.69014
   3   19175.0    521.5   0.014948731   0.25665  -0.14786   0.13030  -0.46670
   4   19623.4    509.6   0.290681670   4.87662  -1.25179   0.08132  -1.81743
   5   21371.0    467.9   0.084688731   1.30459  -0.63092  -0.82759   0.47077
   6   22821.5    438.2   1.185590306  17.10276   2.92623   2.68041  -1.16420
   7   23874.8    418.9   0.611391949   8.43055   1.18016  -0.50281   2.60480
   8   24264.5    412.1   0.003038095   0.04122  -0.09189   0.17694   0.03829
   9   24954.7    400.7   0.020164800   0.26602   0.44193   0.24889   0.09366
  10   25159.7    397.5   0.047478645   0.62125  -0.44296  -0.48981   0.43026
  11   25790.0    387.7   0.000031648   0.00040   0.01614   0.00927  -0.00758
  12   26476.5    377.7   0.002558966   0.03182   0.05613   0.01768  -0.16839
  13   26506.1    377.3   0.001806636   0.02244   0.01211  -0.14770   0.02186
  14   28409.9    352.0   0.023348576   0.27056   0.31553  -0.05960   0.40920
  15   28692.8    348.5   0.226217932   2.59556  -1.19969  -0.85476  -0.65245
  16   28909.0    345.9   0.059989931   0.68316   0.16149   0.58559  -0.56050
  17   29333.0    340.9   0.011625641   0.13048  -0.09278  -0.21507  -0.27498
  18   29586.5    338.0   0.194108050   2.15986  -0.72690   0.54422  -1.15555
  19   30125.6    331.9   0.000047686   0.00052   0.01169   0.01857  -0.00630
  20   30375.3    329.2   0.125367534   1.35875  -0.12937  -0.86884   0.76625
  21   30617.0    326.6   0.065127920   0.70029   0.38871  -0.04026   0.73999
  22   31482.2    317.6   0.100973503   1.05589  -0.61699  -0.77732   0.26643
  23   32402.8    308.6   0.147150590   1.49505  -0.28339  -0.70207   0.96012
  24   32596.4    306.8   0.297308770   3.00271   1.41753   0.37765   0.92234
  25   32977.5    303.2   0.011523379   0.11504   0.18760   0.26105  -0.10815
  26   33096.5    302.1   0.387900739   3.85846   1.14291   0.36950   1.55425
  27   33224.5    301.0   0.122727156   1.21607  -0.60618   0.17657  -0.90412
  28   33347.1    299.9   0.099301309   0.98033   0.69031  -0.23657   0.66921
  29   33532.3    298.2   0.057910380   0.56855  -0.34798  -0.46348   0.48234
  30   33630.9    297.3   0.047949433   0.46938   0.41696   0.45775  -0.29323
  31   33664.5    297.0   0.101983238   0.99732  -0.79556  -0.60277  -0.03280
  32   34138.1    292.9   0.002281925   0.02201  -0.13611  -0.05665   0.01642
  33   34272.3    291.8   0.046630399   0.44792  -0.47691  -0.46398   0.07209
  34   34589.4    289.1   0.068518657   0.65214   0.59016   0.54998  -0.03705
  35   34661.8    288.5   0.110450591   1.04904  -0.38007  -0.82386   0.47523
  36   34966.2    286.0   0.100906455   0.95005  -0.35737  -0.56628   0.70828
  37   35091.9    285.0   0.008477451   0.07953  -0.21419  -0.10093  -0.15319
  38   35304.2    283.3   0.000250157   0.00233  -0.00382   0.02832   0.03894
  39   35946.0    278.2   0.038394352   0.35163  -0.36293   0.07160  -0.46345
  40   36743.5    272.2   0.001079663   0.00967   0.06579   0.07034  -0.01991
  41   36850.8    271.4   0.006411173   0.05728  -0.01149   0.22574  -0.07863
  42   37101.8    269.5   0.033175780   0.29438   0.32398   0.41333   0.13627
  43   37268.9    268.3   0.001790235   0.01581  -0.08679   0.06284  -0.06582
  44   37347.4    267.8   0.180291485   1.58924  -0.84654  -0.17358  -0.91787
  45   37616.6    265.8   0.000370135   0.00324   0.03654  -0.03954  -0.01845
  46   37672.6    265.4   0.056606028   0.49467  -0.56929   0.00119  -0.41300
  47   37894.9    263.9   0.014228908   0.12361  -0.04161   0.03458  -0.34740
  48   38013.9    263.1   0.054497935   0.47197  -0.38056   0.01924  -0.57164
  49   38236.5    261.5   0.085657795   0.73750  -0.44172   0.02661  -0.73599
  50   38500.1    259.7   0.068452651   0.58533   0.61749   0.30001   0.33769
  51   38640.0    258.8   0.027595897   0.23512  -0.30328  -0.14275  -0.35037
  52   39086.0    255.8   0.034072464   0.28698  -0.27253  -0.36632   0.28022
  53   39324.0    254.3   0.027841325   0.23308  -0.38124  -0.29549  -0.02056
  54   39492.8    253.2   0.016473092   0.13732   0.28079   0.10253   0.21901
  55   39804.8    251.2   0.001674767   0.01385  -0.05830  -0.10032   0.01970
  56   39939.3    250.4   0.303201316   2.49923  -1.01398  -0.10262  -1.20853
  57   40122.7    249.2   0.005871224   0.04817  -0.01469  -0.11924   0.18368

FINAL SINGLE POINT ENERGY     -5012.785585914813

DIPOLE MOMENT
-------------
                                X             Y             Z
Electronic contribution:     13.42321      10.43065       1.24433
Nuclear contribution   :    -13.70539     -12.40921       1.80811
                        -----------------------------------------
Total Dipole Moment    :     -0.28218      -1.97855       3.05244
                        -----------------------------------------
Magnitude (a.u.)       :      3.64852
Magnitude (Debye)      :      9.27381

Rotational constants in cm-1:     0.001270     0.000251     0.000211
Rotational constants in MHz :    38.066510     7.524130     6.317213

                             ****ORCA TERMINATED NORMALLY****
TOTAL RUN TIME: 0 days 0 hours 8 minutes 47 seconds 784 msec
