                         Program Version 4.2.0 -  RELEASE  -
|  1> # ORCA input file
|  2> # SCF done       -163.610528020594          0.000860292424
|  3> ! CAM-B3LYP def2-SVP def2/J RIJCOSX Grid4 TightSCF
|  4> %maxcore 5000
|  5> %tddft
|  6>     Mode sTDDFT
|  7>     Ethresh 5.0
|  8>     maxcore 5000
|  9> end
| 10>
| 11> %pal
| 12>   nprocs 6
| 13>   end
| 14> * xyz 0 1
| 15>    C       -1.52883         0.22165        -3.70153
| 16>    C       -1.00012        -0.66977        -4.58432
| 17>    F       -0.50682        -0.32687        -5.77593
| 18>    C       -1.02588        -1.99967        -4.11069
| 19>    F       -0.55975        -3.04213        -4.80821
| 20>    C       -1.57977        -2.12098        -2.85505
| 21>    S       -2.06817        -0.55579        -2.27265
| 22>    C       -1.76334        -3.29934        -2.07787
| 23>    C       -2.32659        -3.37571        -0.81729
| 24>    C       -2.35068        -4.68544        -0.34139
| 25>    C       -1.79970        -5.60754        -1.25261
| 26>    S       -1.25556        -4.86413        -2.68865
| 27>    C       -1.86277        -6.90346        -0.68710
| 28>    C       -2.45740        -6.79921         0.58858
| 29>    C       -2.78283        -5.40488         0.84534
| 30>    C       -3.36785        -4.88457         1.96208
| 31>    C       -3.74619        -5.68862         3.05843
| 32>    N       -4.05669        -6.33283         3.95468
| 33>    C       -3.63299        -3.50504         2.09404
| 34>    N       -3.84926        -2.38409         2.20104
| 35>    C       -2.56375        -8.02226         1.23401
| 36>    C       -2.05511        -9.06240         0.46340
| 37>    S       -1.43751        -8.51004        -1.08694
| 38>    C       -1.99965       -10.43445         0.81434
| 39>    C       -1.45007       -11.39037        -0.06946
| 40>    C       -1.37241       -12.79052         0.25909
| 41>    N       -0.83813       -13.64486        -0.61939
| 42>    C       -0.39059       -13.20864        -1.77248
| 43>    C       -0.47033       -11.81667        -2.10032
| 44>    N       -0.98958       -10.96395        -1.24979
| 45>    C        0.00924       -11.34485        -3.34699
| 46>    N        0.40525       -10.99185        -4.36196
| 47>    C        0.17129       -14.13046        -2.68969
| 48>    N        0.63222       -14.85267        -3.44948
| 49>    C       -1.84352       -13.30754         1.48695
| 50>    C       -2.39818       -12.35415         2.37432
| 51>    C       -2.47400       -10.94782         2.04537
| 52>    N       -3.03166       -10.24660         3.03268
| 53>    S       -3.41901       -11.22967         4.23769
| 54>    N       -2.90471       -12.59911         3.58300
| 55>    C       -1.75239       -14.69130         1.77966
| 56>    C       -2.18387       -15.33130         2.93667
| 57>    C       -1.94105       -16.69624         2.89511
| 58>    C       -1.31673       -17.10482         1.69715
| 59>    S       -1.03471       -15.80459         0.62397
| 60>    C       -1.11568       -18.50447         1.75856
| 61>    C       -1.61060       -18.98239         2.98770
| 62>    C       -2.14602       -17.86114         3.74188
| 63>    C       -2.72058       -17.89360         4.97839
| 64>    C       -2.86658       -19.09473         5.70411
| 65>    N       -2.98517       -20.07067         6.29374
| 66>    C       -3.20779       -16.73128         5.61336
| 67>    N       -3.60842       -15.79335         6.13708
| 68>    C       -1.45336       -20.35940         3.13453
| 69>    C       -0.84430       -20.92582         2.02982
| 70>    S       -0.45886       -19.74569         0.78956
| 71>    C       -0.53263       -22.30247         1.84563
| 72>    C        0.07778       -22.90673         0.76841
| 73>    F        0.48378       -22.23361        -0.31446
| 74>    C        0.23113       -24.30182         0.92279
| 75>    F        0.79700       -25.08227        -0.00000
| 76>    C       -0.25670       -24.76475         2.10652
| 77>    S       -0.91299       -23.49595         3.05331
| 78>    H       -1.62537         1.28107        -3.82110
| 79>    H       -2.69253        -2.51190        -0.29207
| 80>    H       -2.98046        -8.18941         2.21014
| 81>    H       -2.64620       -14.79433         3.74434
| 82>    H       -1.75753       -20.93671         3.98902
| 83>    H       -0.26151       -25.77475         2.46131
| 84> *
| 85>
| 86>                          ****END OF INPUT****

CARTESIAN COORDINATES (ANGSTROEM)
---------------------------------
  C     -1.528830    0.221650   -3.701530
  C     -1.000120   -0.669770   -4.584320
  F     -0.506820   -0.326870   -5.775930
  C     -1.025880   -1.999670   -4.110690
  F     -0.559750   -3.042130   -4.808210
  C     -1.579770   -2.120980   -2.855050
  S     -2.068170   -0.555790   -2.272650
  C     -1.763340   -3.299340   -2.077870
  C     -2.326590   -3.375710   -0.817290
  C     -2.350680   -4.685440   -0.341390
  C     -1.799700   -5.607540   -1.252610
  S     -1.255560   -4.864130   -2.688650
  C     -1.862770   -6.903460   -0.687100
  C     -2.457400   -6.799210    0.588580
  C     -2.782830   -5.404880    0.845340
  C     -3.367850   -4.884570    1.962080
  C     -3.746190   -5.688620    3.058430
  N     -4.056690   -6.332830    3.954680
  C     -3.632990   -3.505040    2.094040
  N     -3.849260   -2.384090    2.201040
  C     -2.563750   -8.022260    1.234010
  C     -2.055110   -9.062400    0.463400
  S     -1.437510   -8.510040   -1.086940
  C     -1.999650  -10.434450    0.814340
  C     -1.450070  -11.390370   -0.069460
  C     -1.372410  -12.790520    0.259090
  N     -0.838130  -13.644860   -0.619390
  C     -0.390590  -13.208640   -1.772480
  C     -0.470330  -11.816670   -2.100320
  N     -0.989580  -10.963950   -1.249790
  C      0.009240  -11.344850   -3.346990
  N      0.405250  -10.991850   -4.361960
  C      0.171290  -14.130460   -2.689690
  N      0.632220  -14.852670   -3.449480
  C     -1.843520  -13.307540    1.486950
  C     -2.398180  -12.354150    2.374320
  C     -2.474000  -10.947820    2.045370
  N     -3.031660  -10.246600    3.032680
  S     -3.419010  -11.229670    4.237690
  N     -2.904710  -12.599110    3.583000
  C     -1.752390  -14.691300    1.779660
  C     -2.183870  -15.331300    2.936670
  C     -1.941050  -16.696240    2.895110
  C     -1.316730  -17.104820    1.697150
  S     -1.034710  -15.804590    0.623970
  C     -1.115680  -18.504470    1.758560
  C     -1.610600  -18.982390    2.987700
  C     -2.146020  -17.861140    3.741880
  C     -2.720580  -17.893600    4.978390
  C     -2.866580  -19.094730    5.704110
  N     -2.985170  -20.070670    6.293740
  C     -3.207790  -16.731280    5.613360
  N     -3.608420  -15.793350    6.137080
  C     -1.453360  -20.359400    3.134530
  C     -0.844300  -20.925820    2.029820
  S     -0.458860  -19.745690    0.789560
  C     -0.532630  -22.302470    1.845630
  C      0.077780  -22.906730    0.768410
  F      0.483780  -22.233610   -0.314460
  C      0.231130  -24.301820    0.922790
  F      0.797000  -25.082270   -0.000000
  C     -0.256700  -24.764750    2.106520
  S     -0.912990  -23.495950    3.053310
  H     -1.625370    1.281070   -3.821100
  H     -2.692530   -2.511900   -0.292070
  H     -2.980460   -8.189410    2.210140
  H     -2.646200  -14.794330    3.744340
  H     -1.757530  -20.936710    3.989020
  H     -0.261510  -25.774750    2.461310

 Total Charge           Charge          ....    0
 Multiplicity           Mult            ....    1
 Number of Electrons    NEL             ....  476
 Basis Dimension        Dim             ....  940

ORBITAL ENERGIES
----------------

  NO   OCC          E(Eh)            E(eV)
   0   2.0000     -89.054011     -2423.2828
   1   2.0000     -88.992971     -2421.6219
   2   2.0000     -88.992683     -2421.6140
   3   2.0000     -88.987005     -2421.4595
   4   2.0000     -88.986617     -2421.4489
   5   2.0000     -88.982612     -2421.3400
   6   2.0000     -88.982314     -2421.3319
   7   2.0000     -24.811099      -675.1443
   8   2.0000     -24.810995      -675.1415
   9   2.0000     -24.798616      -674.8047
  10   2.0000     -24.798573      -674.8035
  11   2.0000     -14.479123      -393.9970
  12   2.0000     -14.478971      -393.9928
  13   2.0000     -14.462661      -393.5490
  14   2.0000     -14.462583      -393.5469
  15   2.0000     -14.440713      -392.9518
  16   2.0000     -14.440650      -392.9501
  17   2.0000     -14.431335      -392.6966
  18   2.0000     -14.431265      -392.6947
  19   2.0000     -14.430523      -392.6745
  20   2.0000     -14.430460      -392.6728
  21   2.0000     -10.396246      -282.8962
  22   2.0000     -10.396013      -282.8899
  23   2.0000     -10.379010      -282.4272
  24   2.0000     -10.378909      -282.4245
  25   2.0000     -10.376792      -282.3669
  26   2.0000     -10.376629      -282.3624
  27   2.0000     -10.364974      -282.0453
  28   2.0000     -10.364941      -282.0444
  29   2.0000     -10.358926      -281.8807
  30   2.0000     -10.358673      -281.8738
  31   2.0000     -10.354629      -281.7638
  32   2.0000     -10.354382      -281.7571
  33   2.0000     -10.352701      -281.7113
  34   2.0000     -10.352660      -281.7102
  35   2.0000     -10.336516      -281.2709
  36   2.0000     -10.336352      -281.2664
  37   2.0000     -10.334093      -281.2050
  38   2.0000     -10.334016      -281.2029
  39   2.0000     -10.331810      -281.1428
  40   2.0000     -10.331754      -281.1413
  41   2.0000     -10.331746      -281.1411
  42   2.0000     -10.331569      -281.1363
  43   2.0000     -10.331555      -281.1359
  44   2.0000     -10.331430      -281.1325
  45   2.0000     -10.330911      -281.1184
  46   2.0000     -10.330897      -281.1180
  47   2.0000     -10.330820      -281.1159
  48   2.0000     -10.330734      -281.1136
  49   2.0000     -10.328568      -281.0546
  50   2.0000     -10.328341      -281.0485
  51   2.0000     -10.326050      -280.9861
  52   2.0000     -10.325919      -280.9825
  53   2.0000     -10.314831      -280.6808
  54   2.0000     -10.314710      -280.6775
  55   2.0000     -10.307787      -280.4891
  56   2.0000     -10.307612      -280.4844
  57   2.0000     -10.305213      -280.4191
  58   2.0000     -10.305168      -280.4179
  59   2.0000     -10.300655      -280.2951
  60   2.0000     -10.300598      -280.2935
  61   2.0000     -10.300156      -280.2815
  62   2.0000     -10.300098      -280.2799
  63   2.0000      -8.145051      -221.6381
  64   2.0000      -8.087241      -220.0650
  65   2.0000      -8.087065      -220.0602
  66   2.0000      -8.079483      -219.8539
  67   2.0000      -8.079273      -219.8482
  68   2.0000      -8.077841      -219.8092
  69   2.0000      -8.077674      -219.8047
  70   2.0000      -6.116161      -166.4292
  71   2.0000      -6.108165      -166.2116
  72   2.0000      -6.107958      -166.2060
  73   2.0000      -6.056528      -164.8065
  74   2.0000      -6.056366      -164.8021
  75   2.0000      -6.052227      -164.6895
  76   2.0000      -6.052043      -164.6845
  77   2.0000      -6.049614      -164.6184
  78   2.0000      -6.049387      -164.6122
  79   2.0000      -6.049042      -164.6028
  80   2.0000      -6.048843      -164.5974
  81   2.0000      -6.047323      -164.5560
  82   2.0000      -6.047172      -164.5519
  83   2.0000      -6.044241      -164.4722
  84   2.0000      -6.044014      -164.4660
  85   2.0000      -6.043281      -164.4460
  86   2.0000      -6.043098      -164.4410
  87   2.0000      -6.041962      -164.4101
  88   2.0000      -6.041689      -164.4027
  89   2.0000      -6.039468      -164.3423
  90   2.0000      -6.039247      -164.3363
  91   2.0000      -1.326549       -36.0972
  92   2.0000      -1.326459       -36.0948
  93   2.0000      -1.311535       -35.6887
  94   2.0000      -1.311503       -35.6878
  95   2.0000      -1.152145       -31.3515
  96   2.0000      -1.137818       -30.9616
  97   2.0000      -1.066748       -29.0277
  98   2.0000      -1.045376       -28.4461
  99   2.0000      -1.044889       -28.4329
 100   2.0000      -1.026238       -27.9253
 101   2.0000      -1.023170       -27.8419
 102   2.0000      -1.023060       -27.8389
 103   2.0000      -1.017029       -27.6748
 104   2.0000      -1.014817       -27.6146
 105   2.0000      -1.013899       -27.5896
 106   2.0000      -1.008467       -27.4418
 107   2.0000      -1.008421       -27.4405
 108   2.0000      -1.007129       -27.4054
 109   2.0000      -1.000679       -27.2299
 110   2.0000      -0.991131       -26.9700
 111   2.0000      -0.982098       -26.7242
 112   2.0000      -0.959649       -26.1134
 113   2.0000      -0.955771       -26.0079
 114   2.0000      -0.923594       -25.1323
 115   2.0000      -0.921623       -25.0786
 116   2.0000      -0.913219       -24.8500
 117   2.0000      -0.894823       -24.3494
 118   2.0000      -0.874579       -23.7985
 119   2.0000      -0.874429       -23.7944
 120   2.0000      -0.862277       -23.4638
 121   2.0000      -0.857683       -23.3387
 122   2.0000      -0.854666       -23.2566
 123   2.0000      -0.851918       -23.1819
 124   2.0000      -0.847345       -23.0574
 125   2.0000      -0.846281       -23.0285
 126   2.0000      -0.844919       -22.9914
 127   2.0000      -0.817472       -22.2445
 128   2.0000      -0.810004       -22.0413
 129   2.0000      -0.780431       -21.2366
 130   2.0000      -0.779324       -21.2065
 131   2.0000      -0.778683       -21.1891
 132   2.0000      -0.759422       -20.6649
 133   2.0000      -0.744413       -20.2565
 134   2.0000      -0.730192       -19.8695
 135   2.0000      -0.722030       -19.6474
 136   2.0000      -0.718259       -19.5448
 137   2.0000      -0.706248       -19.2180
 138   2.0000      -0.702423       -19.1139
 139   2.0000      -0.697748       -18.9867
 140   2.0000      -0.697321       -18.9751
 141   2.0000      -0.684525       -18.6269
 142   2.0000      -0.682171       -18.5628
 143   2.0000      -0.678697       -18.4683
 144   2.0000      -0.675918       -18.3927
 145   2.0000      -0.669797       -18.2261
 146   2.0000      -0.665288       -18.1034
 147   2.0000      -0.660333       -17.9686
 148   2.0000      -0.641879       -17.4664
 149   2.0000      -0.640985       -17.4421
 150   2.0000      -0.636625       -17.3234
 151   2.0000      -0.633600       -17.2411
 152   2.0000      -0.628337       -17.0979
 153   2.0000      -0.622153       -16.9296
 154   2.0000      -0.615371       -16.7451
 155   2.0000      -0.614782       -16.7291
 156   2.0000      -0.600845       -16.3498
 157   2.0000      -0.595917       -16.2157
 158   2.0000      -0.594531       -16.1780
 159   2.0000      -0.590590       -16.0708
 160   2.0000      -0.590534       -16.0692
 161   2.0000      -0.588035       -16.0013
 162   2.0000      -0.585967       -15.9450
 163   2.0000      -0.581840       -15.8327
 164   2.0000      -0.568319       -15.4647
 165   2.0000      -0.558616       -15.2007
 166   2.0000      -0.554128       -15.0786
 167   2.0000      -0.553861       -15.0713
 168   2.0000      -0.553624       -15.0649
 169   2.0000      -0.553584       -15.0638
 170   2.0000      -0.547715       -14.9041
 171   2.0000      -0.546690       -14.8762
 172   2.0000      -0.538743       -14.6599
 173   2.0000      -0.532483       -14.4896
 174   2.0000      -0.523081       -14.2337
 175   2.0000      -0.521298       -14.1853
 176   2.0000      -0.512013       -13.9326
 177   2.0000      -0.507783       -13.8175
 178   2.0000      -0.506945       -13.7947
 179   2.0000      -0.506662       -13.7870
 180   2.0000      -0.504905       -13.7392
 181   2.0000      -0.501737       -13.6530
 182   2.0000      -0.499700       -13.5975
 183   2.0000      -0.499218       -13.5844
 184   2.0000      -0.497582       -13.5399
 185   2.0000      -0.496668       -13.5150
 186   2.0000      -0.492128       -13.3915
 187   2.0000      -0.488292       -13.2871
 188   2.0000      -0.487509       -13.2658
 189   2.0000      -0.484312       -13.1788
 190   2.0000      -0.484159       -13.1746
 191   2.0000      -0.475738       -12.9455
 192   2.0000      -0.474273       -12.9056
 193   2.0000      -0.471649       -12.8342
 194   2.0000      -0.470447       -12.8015
 195   2.0000      -0.467601       -12.7241
 196   2.0000      -0.463980       -12.6255
 197   2.0000      -0.462499       -12.5852
 198   2.0000      -0.462458       -12.5841
 199   2.0000      -0.462280       -12.5793
 200   2.0000      -0.460941       -12.5428
 201   2.0000      -0.458786       -12.4842
 202   2.0000      -0.458127       -12.4663
 203   2.0000      -0.454612       -12.3706
 204   2.0000      -0.451867       -12.2959
 205   2.0000      -0.448678       -12.2091
 206   2.0000      -0.448373       -12.2008
 207   2.0000      -0.441278       -12.0078
 208   2.0000      -0.441056       -12.0017
 209   2.0000      -0.440093       -11.9755
 210   2.0000      -0.439897       -11.9702
 211   2.0000      -0.438086       -11.9209
 212   2.0000      -0.433552       -11.7976
 213   2.0000      -0.433141       -11.7864
 214   2.0000      -0.432066       -11.7571
 215   2.0000      -0.428354       -11.6561
 216   2.0000      -0.427162       -11.6237
 217   2.0000      -0.427047       -11.6206
 218   2.0000      -0.418010       -11.3746
 219   2.0000      -0.411656       -11.2017
 220   2.0000      -0.410116       -11.1598
 221   2.0000      -0.395945       -10.7742
 222   2.0000      -0.388173       -10.5627
 223   2.0000      -0.387860       -10.5542
 224   2.0000      -0.384297       -10.4572
 225   2.0000      -0.361312        -9.8318
 226   2.0000      -0.360724        -9.8158
 227   2.0000      -0.355722        -9.6797
 228   2.0000      -0.348965        -9.4958
 229   2.0000      -0.348000        -9.4696
 230   2.0000      -0.335216        -9.1217
 231   2.0000      -0.329655        -8.9704
 232   2.0000      -0.328490        -8.9387
 233   2.0000      -0.322947        -8.7878
 234   2.0000      -0.322132        -8.7657
 235   2.0000      -0.300727        -8.1832
 236   2.0000      -0.270740        -7.3672
 237   2.0000      -0.238250        -6.4831
 238   0.0000      -0.138480        -3.7682
 239   0.0000      -0.104303        -2.8382
 240   0.0000      -0.100424        -2.7327
 241   0.0000      -0.064646        -1.7591
 242   0.0000      -0.051987        -1.4146

MULLIKEN ATOMIC CHARGES
-----------------------
   0 C :   -0.141317
   1 C :    0.253912
   2 F :   -0.169367
   3 C :    0.188782
   4 F :   -0.172380
   5 C :   -0.177134
   6 S :    0.166114
   7 C :   -0.022065
   8 C :   -0.074136
   9 C :    0.019057
  10 C :   -0.113146
  11 S :    0.224043
  12 C :   -0.059390
  13 C :    0.035190
  14 C :    0.306302
  15 C :   -0.301285
  16 C :   -0.187079
  17 N :    0.172337
  18 C :   -0.191517
  19 N :    0.172348
  20 C :   -0.063937
  21 C :   -0.182168
  22 S :    0.204104
  23 C :    0.192681
  24 C :   -0.063100
  25 C :   -0.060458
  26 N :   -0.001557
  27 C :   -0.103218
  28 C :   -0.102311
  29 N :   -0.003850
  30 C :   -0.246009
  31 N :    0.256952
  32 C :   -0.242064
  33 N :    0.250546
  34 C :    0.190419
  35 C :   -0.015665
  36 C :   -0.009091
  37 N :   -0.284656
  38 S :    0.584020
  39 N :   -0.281954
  40 C :   -0.178646
  41 C :   -0.063226
  42 C :    0.031864
  43 C :   -0.058511
  44 S :    0.202646
  45 C :   -0.111428
  46 C :    0.021190
  47 C :    0.307035
  48 C :   -0.303018
  49 C :   -0.191932
  50 N :    0.170663
  51 C :   -0.185165
  52 N :    0.175221
  53 C :   -0.078204
  54 C :   -0.019697
  55 S :    0.223026
  56 C :   -0.172619
  57 C :    0.185521
  58 F :   -0.173271
  59 C :    0.256386
  60 F :   -0.169189
  61 C :   -0.142682
  62 S :    0.165456
  63 H :    0.046490
  64 H :    0.013748
  65 H :    0.020959
  66 H :    0.020521
  67 H :    0.013126
  68 H :    0.045786
Sum of atomic charges:    0.0000000

LOEWDIN ATOMIC CHARGES
----------------------
   0 C :   -0.210346
   1 C :    0.020982
   2 F :   -0.048396
   3 C :    0.016328
   4 F :   -0.048678
   5 C :   -0.221802
   6 S :    0.471492
   7 C :   -0.173437
   8 C :   -0.036969
   9 C :   -0.060772
  10 C :   -0.187422
  11 S :    0.499284
  12 C :   -0.171971
  13 C :   -0.078047
  14 C :    0.081917
  15 C :   -0.103538
  16 C :   -0.016472
  17 N :   -0.033068
  18 C :   -0.016837
  19 N :   -0.034671
  20 C :   -0.005653
  21 C :   -0.170554
  22 S :    0.508898
  23 C :   -0.038944
  24 C :   -0.016522
  25 C :   -0.016479
  26 N :   -0.016671
  27 C :   -0.023448
  28 C :   -0.023437
  29 N :   -0.016830
  30 C :   -0.040038
  31 N :    0.000886
  32 C :   -0.039674
  33 N :    0.000594
  34 C :   -0.039163
  35 C :   -0.037236
  36 C :   -0.037164
  37 N :   -0.271403
  38 S :    0.702599
  39 N :   -0.270959
  40 C :   -0.170346
  41 C :   -0.005935
  42 C :   -0.077962
  43 C :   -0.172154
  44 S :    0.508661
  45 C :   -0.187106
  46 C :   -0.060788
  47 C :    0.082006
  48 C :   -0.103462
  49 C :   -0.016739
  50 N :   -0.034686
  51 C :   -0.016571
  52 N :   -0.032975
  53 C :   -0.037179
  54 C :   -0.173363
  55 S :    0.498940
  56 C :   -0.221715
  57 C :    0.016416
  58 F :   -0.048826
  59 C :    0.020985
  60 F :   -0.048379
  61 C :   -0.210079
  62 S :    0.471277
  63 H :    0.036849
  64 H :    0.036876
  65 H :    0.038202
  66 H :    0.038151
  67 H :    0.036819
  68 H :    0.036704

  Mayer bond orders larger than 0.100000
B(  0-C ,  1-C ) :   1.5496 B(  0-C ,  5-C ) :   0.1200 B(  0-C ,  6-S ) :   1.1279
B(  0-C , 63-H ) :   0.9682 B(  1-C ,  2-F ) :   1.1463 B(  1-C ,  3-C ) :   1.1961
B(  3-C ,  4-F ) :   1.1439 B(  3-C ,  5-C ) :   1.4428 B(  5-C ,  6-S ) :   1.1417
B(  5-C ,  7-C ) :   1.1638 B(  7-C ,  8-C ) :   1.4536 B(  7-C , 11-S ) :   1.1200
B(  8-C ,  9-C ) :   1.3055 B(  8-C , 64-H ) :   0.9920 B(  9-C , 10-C ) :   1.4289
B(  9-C , 14-C ) :   0.9923 B( 10-C , 11-S ) :   1.1046 B( 10-C , 12-C ) :   1.2066
B( 12-C , 13-C ) :   1.3985 B( 12-C , 22-S ) :   1.0936 B( 13-C , 14-C ) :   0.9891
B( 13-C , 20-C ) :   1.2841 B( 14-C , 15-C ) :   1.7128 B( 15-C , 16-C ) :   1.1385
B( 15-C , 18-C ) :   1.1308 B( 16-C , 17-N ) :   2.9868 B( 18-C , 19-N ) :   2.9945
B( 20-C , 21-C ) :   1.4075 B( 20-C , 65-H ) :   0.9817 B( 21-C , 22-S ) :   1.0794
B( 21-C , 23-C ) :   1.2181 B( 23-C , 24-C ) :   1.2505 B( 23-C , 34-C ) :   0.1207
B( 23-C , 36-C ) :   1.1900 B( 24-C , 25-C ) :   1.1036 B( 24-C , 29-N ) :   1.4065
B( 25-C , 26-N ) :   1.4052 B( 25-C , 34-C ) :   1.2507 B( 26-N , 27-C ) :   1.6928
B( 27-C , 28-C ) :   1.2208 B( 27-C , 32-C ) :   1.1657 B( 28-C , 29-N ) :   1.6904
B( 28-C , 30-C ) :   1.1703 B( 30-C , 31-N ) :   3.0410 B( 32-C , 33-N ) :   3.0392
B( 34-C , 35-C ) :   1.1907 B( 34-C , 40-C ) :   1.2179 B( 35-C , 36-C ) :   1.0991
B( 35-C , 39-N ) :   1.5214 B( 36-C , 37-N ) :   1.5189 B( 37-N , 38-S ) :   1.2829
B( 37-N , 39-N ) :   0.1457 B( 38-S , 39-N ) :   1.2828 B( 40-C , 41-C ) :   1.4061
B( 40-C , 44-S ) :   1.0795 B( 41-C , 42-C ) :   1.2831 B( 41-C , 66-H ) :   0.9818
B( 42-C , 43-C ) :   1.4005 B( 42-C , 47-C ) :   0.9905 B( 43-C , 44-S ) :   1.0923
B( 43-C , 45-C ) :   1.2062 B( 45-C , 46-C ) :   1.4268 B( 45-C , 55-S ) :   1.1051
B( 46-C , 47-C ) :   0.9941 B( 46-C , 53-C ) :   1.3048 B( 47-C , 48-C ) :   1.7113
B( 48-C , 49-C ) :   1.1337 B( 48-C , 51-C ) :   1.1372 B( 49-C , 50-N ) :   2.9930
B( 51-C , 52-N ) :   2.9879 B( 53-C , 54-C ) :   1.4553 B( 53-C , 67-H ) :   0.9920
B( 54-C , 55-S ) :   1.1188 B( 54-C , 56-C ) :   1.1634 B( 56-C , 57-C ) :   1.4430
B( 56-C , 61-C ) :   0.1197 B( 56-C , 62-S ) :   1.1406 B( 57-C , 58-F ) :   1.1423
B( 57-C , 59-C ) :   1.1960 B( 59-C , 60-F ) :   1.1466 B( 59-C , 61-C ) :   1.5485
B( 61-C , 62-S ) :   1.1285 B( 61-C , 68-H ) :   0.9690

-----------------------------------------------------------------------------
         ABSORPTION SPECTRUM VIA TRANSITION ELECTRIC DIPOLE MOMENTS
-----------------------------------------------------------------------------
State   Energy  Wavelength   fosc         T2         TX        TY        TZ
        (cm-1)    (nm)                  (au**2)     (au)      (au)      (au)
-----------------------------------------------------------------------------
   0    6682.5   1496.4   0.504968124  24.87711   0.25242  -4.85142   1.13009
   1   12313.1    812.1   0.001724466   0.04611   0.10468  -0.03480  -0.18422
   2   12847.6    778.4   0.018676876   0.47858   0.03427  -0.67306   0.15621
   3   15448.8    647.3   0.000458205   0.00976  -0.05692   0.01307   0.07971
   4   21122.3    473.4   0.171498590   2.67298  -0.07841   1.59033  -0.37106
   5   21739.4    460.0   0.042301767   0.64060   0.33436  -0.15295  -0.71092
   6   22689.5    440.7   0.401034147   5.81877   0.12039  -2.34618   0.54745
   7   23283.8    429.5   0.000118737   0.00168   0.01331  -0.02669  -0.02809
   8   23406.1    427.2   0.082476214   1.16005  -0.05709   1.04736  -0.24460
   9   24340.6    410.8   0.021551686   0.29149   0.23731  -0.09946  -0.47464
  10   24623.9    406.1   0.015007467   0.20064  -0.02968   0.43490  -0.10309
  11   25373.4    394.1   0.001034540   0.01342   0.10399   0.02746   0.04306
  12   27897.7    358.5   1.641550874  19.37140  -0.21868   4.28211  -0.99354
  13   28504.5    350.8   0.049836587   0.57559  -0.32817   0.13485   0.67060
  14   29605.0    337.8   0.180410452   2.00619  -0.07301   1.37807  -0.31905
  15   29629.7    337.5   0.000838528   0.00932  -0.01984   0.08451   0.04220
  16   30049.3    332.8   0.010363249   0.11354  -0.12837   0.05050   0.30742
  17   30256.2    330.5   0.045341541   0.49335   0.03177  -0.68017   0.17236
  18   30361.5    329.4   0.217800327   2.36163  -0.68570   0.28416   1.34562
  19   31046.0    322.1   0.016523913   0.17522  -0.01600  -0.38058   0.17355
  20   31099.9    321.5   0.207586344   2.19743  -0.65212   0.29392   1.29837
  21   31143.8    321.1   0.000046554   0.00049  -0.00667  -0.01151   0.01775
  22   31241.2    320.1   0.000151574   0.00160  -0.01028   0.03862  -0.00019
  23   31587.6    316.6   0.334076482   3.48180  -0.80056   0.34166   1.65051
  24   31960.2    312.9   0.129565171   1.33461  -0.05834   1.13211  -0.22257
  25   32296.9    309.6   0.007905970   0.08059   0.01696  -0.28092   0.03719
  26   32535.8    307.4   1.040730317  10.53058   1.39967  -0.58133  -2.86942
  27   33209.9    301.1   0.086675211   0.85922   0.39761  -0.17048  -0.81979
  28   33789.9    295.9   0.005416253   0.05277  -0.10132   0.07720   0.19117
  29   33838.0    295.5   0.212666442   2.06904   0.62851  -0.22915  -1.27338
  30   34043.1    293.7   0.207952757   2.01100  -0.08967   1.38282  -0.30127
  31   34907.9    286.5   0.073028859   0.68872  -0.03406   0.80775  -0.18735
  32   35311.9    283.2   0.008903254   0.08300   0.12534  -0.05625  -0.25324
  33   35376.8    282.7   0.000093886   0.00087  -0.01716   0.00584   0.02335
  34   36547.2    273.6   0.099558216   0.89681   0.01859  -0.90387   0.28194
  35   36640.4    272.9   0.266080665   2.39072  -0.67883   0.32806   1.34992
  36   37110.1    269.5   0.108139483   0.95933   0.43157  -0.17685  -0.86128
  37   38261.2    261.4   0.009601818   0.08262  -0.01621   0.27992  -0.06322
  38   38327.6    260.9   0.001949775   0.01675   0.04614  -0.00417  -0.12084
  39   38695.2    258.4   0.365028143   3.10559   0.75338  -0.32534  -1.55954
  40   38716.4    258.3   0.008597877   0.07311   0.11596  -0.05608  -0.23773
  41   39009.8    256.3   0.162099252   1.36799  -0.05635   1.13722  -0.26749
  42   39647.7    252.2   0.003592965   0.02983  -0.06857   0.03220   0.15523
  43   39740.9    251.6   0.004982128   0.04127  -0.18565  -0.04635  -0.06824
  44   39977.8    250.1   0.004143209   0.03412   0.01787  -0.17813   0.04549

FINAL SINGLE POINT ENERGY     -5334.124203679973

DIPOLE MOMENT
-------------
                                X             Y             Z
Electronic contribution:      8.47723      -3.52116     -17.02904
Nuclear contribution   :     -8.42154       3.51774      16.98036
                        -----------------------------------------
Total Dipole Moment    :      0.05569      -0.00342      -0.04868
                        -----------------------------------------
Magnitude (a.u.)       :      0.07405
Magnitude (Debye)      :      0.18821

Rotational constants in cm-1:     0.002561     0.000321     0.000285
Rotational constants in MHz :    76.771388     9.615905     8.545795

                             ****ORCA TERMINATED NORMALLY****
TOTAL RUN TIME: 0 days 0 hours 7 minutes 57 seconds 549 msec
