                         Program Version 4.2.0 -  RELEASE  -
|  1> # ORCA input file
|  2> # SCF done       -200.837471055209          0.000276932070
|  3> ! CAM-B3LYP def2-SVP def2/J RIJCOSX Grid4 TightSCF
|  4> %maxcore 5000
|  5> %tddft
|  6>     Mode sTDDFT
|  7>     Ethresh 5.0
|  8>     maxcore 5000
|  9> end
| 10>
| 11> %pal
| 12>   nprocs 6
| 13>   end
| 14> * xyz 0 1
| 15>    C        1.30750         6.55430         0.53153
| 16>    C        0.35756         6.46671         1.51282
| 17>    C        0.29509         5.33495         2.33944
| 18>    C        1.18357         4.30731         2.17490
| 19>    C        2.17413         4.36399         1.17369
| 20>    C        3.09005         3.30162         0.99531
| 21>    C        4.03663         3.38993         0.01081
| 22>    C        4.10646         4.55098        -0.81385
| 23>    C        3.23095         5.58825        -0.66743
| 24>    C        2.23720         5.51429         0.33454
| 25>    C        5.23483         4.41501        -1.74896
| 26>    O        5.57306         5.16569        -2.63476
| 27>    C        5.93810         3.16324        -1.33411
| 28>    C        5.07595         2.45595        -0.40995
| 29>    C        5.06335         1.10684        -0.16666
| 30>    C        5.95366         0.19290        -0.76141
| 31>    N        6.64771        -0.58579        -1.24180
| 32>    C        4.09607         0.46359         0.63421
| 33>    N        3.33117        -0.10992         1.26855
| 34>    C        7.20669         2.95639        -1.77968
| 35>    C        8.20367         2.10273        -1.25550
| 36>    C        8.28848         1.53261         0.00625
| 37>    C        9.44975         0.78810         0.16905
| 38>    C       10.26696         0.79035        -0.97697
| 39>    S        9.61037         1.72123        -2.23987
| 40>    C       11.41717         0.00527        -0.70311
| 41>    C       11.32500        -0.49155         0.60730
| 42>    C       10.07588        -0.03368         1.19298
| 43>    C        9.56511        -0.32784         2.42240
| 44>    C       10.23453        -1.15761         3.34696
| 45>    N       10.77245        -1.82962         4.10379
| 46>    C        8.31889         0.18651         2.84024
| 47>    N        7.30807         0.61726         3.16806
| 48>    C       12.43511        -1.25404         0.97968
| 49>    C       13.36642        -1.34423        -0.03438
| 50>    S       12.85289        -0.47992        -1.47888
| 51>    C       14.64966        -1.99855        -0.03675
| 52>    C       15.33906        -2.22200        -1.23368
| 53>    C       16.58289        -2.80770        -1.24937
| 54>    F       17.17343        -2.96262        -2.44684
| 55>    C       17.24459        -3.20982        -0.07884
| 56>    C       16.55231        -2.99159         1.11765
| 57>    C       15.30528        -2.41341         1.13270
| 58>    F       14.72994        -2.22512         2.33298
| 59>    C       18.56886        -3.77684        -0.07033
| 60>    C       19.31400        -4.27257        -1.12105
| 61>    C       20.57995        -4.70068        -0.71262
| 62>    C       20.79716        -4.52406         0.66316
| 63>    S       19.44573        -3.85166         1.45307
| 64>    C       22.11119        -4.95180         0.97679
| 65>    C       22.73038        -5.39848        -0.21005
| 66>    C       21.77720        -5.27922        -1.30439
| 67>    C       21.95518        -5.65573        -2.60176
| 68>    C       23.14305        -6.25763        -3.07353
| 69>    N       24.08360        -6.76654        -3.48518
| 70>    C       20.94447        -5.50084        -3.57595
| 71>    N       20.13073        -5.38396        -4.37475
| 72>    C       24.04691        -5.79924        -0.02048
| 73>    C       24.44799        -5.66788         1.30272
| 74>    S       23.13936        -5.05340         2.32384
| 75>    C       25.65541        -5.96105         1.97091
| 76>    C       26.89713        -6.25844         1.48446
| 77>    C       28.03348        -6.60319         2.32575
| 78>    C       27.99688        -6.96321         3.64826
| 79>    C       29.13883        -7.30290         4.40455
| 80>    N       30.02384        -7.58272         5.08006
| 81>    C       26.83557        -7.08537         4.43999
| 82>    N       25.94119        -7.22716         5.14701
| 83>    C       29.22982        -6.57998         1.49417
| 84>    C       28.84031        -6.31213         0.15185
| 85>    C       29.74791        -6.24178        -0.86542
| 86>    C       31.11752        -6.43575        -0.57905
| 87>    C       32.10087        -6.37752        -1.58598
| 88>    C       33.42285        -6.56205        -1.28359
| 89>    C       33.81891        -6.81334         0.03860
| 90>    C       32.88850        -6.87749         1.03992
| 91>    C       31.51829        -6.69329         0.76401
| 92>    C       30.55386        -6.76319         1.79535
| 93>    C       27.38129        -6.13153         0.08472
| 94>    O       26.73875        -5.88352        -0.91335
| 95>    H        1.36054         7.42341        -0.10776
| 96>    H       -0.35034         7.26902         1.65759
| 97>    H       -0.46140         5.28126         3.10788
| 98>    H        1.13799         3.43273         2.80691
| 99>    H        3.03014         2.44848         1.65288
|100>    H        3.29624         6.45625        -1.30653
|101>    H        7.50795         3.59247        -2.60688
|102>    H        7.55650         1.69997         0.77495
|103>    H       12.54948        -1.72121         1.93993
|104>    H       14.89903        -1.93146        -2.17530
|105>    H       16.99502        -3.27482         2.06026
|106>    H       18.95729        -4.32573        -2.13253
|107>    H       24.70501        -6.15679        -0.79134
|108>    H       25.56264        -5.91256         3.05004
|109>    H       29.42297        -6.04142        -1.87557
|110>    H       31.78963        -6.18359        -2.60197
|111>    H       34.17047        -6.51516        -2.06119
|112>    H       34.86591        -6.95645         0.26004
|113>    H       33.18842        -7.07247         2.05911
|114>    H       30.89092        -6.95488         2.80152
|115> *
|116>
|117>                          ****END OF INPUT****

CARTESIAN COORDINATES (ANGSTROEM)
---------------------------------
  C      1.307500    6.554300    0.531530
  C      0.357560    6.466710    1.512820
  C      0.295090    5.334950    2.339440
  C      1.183570    4.307310    2.174900
  C      2.174130    4.363990    1.173690
  C      3.090050    3.301620    0.995310
  C      4.036630    3.389930    0.010810
  C      4.106460    4.550980   -0.813850
  C      3.230950    5.588250   -0.667430
  C      2.237200    5.514290    0.334540
  C      5.234830    4.415010   -1.748960
  O      5.573060    5.165690   -2.634760
  C      5.938100    3.163240   -1.334110
  C      5.075950    2.455950   -0.409950
  C      5.063350    1.106840   -0.166660
  C      5.953660    0.192900   -0.761410
  N      6.647710   -0.585790   -1.241800
  C      4.096070    0.463590    0.634210
  N      3.331170   -0.109920    1.268550
  C      7.206690    2.956390   -1.779680
  C      8.203670    2.102730   -1.255500
  C      8.288480    1.532610    0.006250
  C      9.449750    0.788100    0.169050
  C     10.266960    0.790350   -0.976970
  S      9.610370    1.721230   -2.239870
  C     11.417170    0.005270   -0.703110
  C     11.325000   -0.491550    0.607300
  C     10.075880   -0.033680    1.192980
  C      9.565110   -0.327840    2.422400
  C     10.234530   -1.157610    3.346960
  N     10.772450   -1.829620    4.103790
  C      8.318890    0.186510    2.840240
  N      7.308070    0.617260    3.168060
  C     12.435110   -1.254040    0.979680
  C     13.366420   -1.344230   -0.034380
  S     12.852890   -0.479920   -1.478880
  C     14.649660   -1.998550   -0.036750
  C     15.339060   -2.222000   -1.233680
  C     16.582890   -2.807700   -1.249370
  F     17.173430   -2.962620   -2.446840
  C     17.244590   -3.209820   -0.078840
  C     16.552310   -2.991590    1.117650
  C     15.305280   -2.413410    1.132700
  F     14.729940   -2.225120    2.332980
  C     18.568860   -3.776840   -0.070330
  C     19.314000   -4.272570   -1.121050
  C     20.579950   -4.700680   -0.712620
  C     20.797160   -4.524060    0.663160
  S     19.445730   -3.851660    1.453070
  C     22.111190   -4.951800    0.976790
  C     22.730380   -5.398480   -0.210050
  C     21.777200   -5.279220   -1.304390
  C     21.955180   -5.655730   -2.601760
  C     23.143050   -6.257630   -3.073530
  N     24.083600   -6.766540   -3.485180
  C     20.944470   -5.500840   -3.575950
  N     20.130730   -5.383960   -4.374750
  C     24.046910   -5.799240   -0.020480
  C     24.447990   -5.667880    1.302720
  S     23.139360   -5.053400    2.323840
  C     25.655410   -5.961050    1.970910
  C     26.897130   -6.258440    1.484460
  C     28.033480   -6.603190    2.325750
  C     27.996880   -6.963210    3.648260
  C     29.138830   -7.302900    4.404550
  N     30.023840   -7.582720    5.080060
  C     26.835570   -7.085370    4.439990
  N     25.941190   -7.227160    5.147010
  C     29.229820   -6.579980    1.494170
  C     28.840310   -6.312130    0.151850
  C     29.747910   -6.241780   -0.865420
  C     31.117520   -6.435750   -0.579050
  C     32.100870   -6.377520   -1.585980
  C     33.422850   -6.562050   -1.283590
  C     33.818910   -6.813340    0.038600
  C     32.888500   -6.877490    1.039920
  C     31.518290   -6.693290    0.764010
  C     30.553860   -6.763190    1.795350
  C     27.381290   -6.131530    0.084720
  O     26.738750   -5.883520   -0.913350
  H      1.360540    7.423410   -0.107760
  H     -0.350340    7.269020    1.657590
  H     -0.461400    5.281260    3.107880
  H      1.137990    3.432730    2.806910
  H      3.030140    2.448480    1.652880
  H      3.296240    6.456250   -1.306530
  H      7.507950    3.592470   -2.606880
  H      7.556500    1.699970    0.774950
  H     12.549480   -1.721210    1.939930
  H     14.899030   -1.931460   -2.175300
  H     16.995020   -3.274820    2.060260
  H     18.957290   -4.325730   -2.132530
  H     24.705010   -6.156790   -0.791340
  H     25.562640   -5.912560    3.050040
  H     29.422970   -6.041420   -1.875570
  H     31.789630   -6.183590   -2.601970
  H     34.170470   -6.515160   -2.061190
  H     34.865910   -6.956450    0.260040
  H     33.188420   -7.072470    2.059110
  H     30.890920   -6.954880    2.801520

 Total Charge           Charge          ....    0
 Multiplicity           Mult            ....    1
 Number of Electrons    NEL             ....  558
 Basis Dimension        Dim             .... 1236

ORBITAL ENERGIES
----------------

  NO   OCC          E(Eh)            E(eV)
   0   2.0000     -89.000765     -2421.8339
   1   2.0000     -88.999913     -2421.8107
   2   2.0000     -88.999650     -2421.8036
   3   2.0000     -88.999326     -2421.7948
   4   2.0000     -24.806859      -675.0290
   5   2.0000     -24.806467      -675.0183
   6   2.0000     -19.219311      -522.9840
   7   2.0000     -19.216141      -522.8978
   8   2.0000     -14.436025      -392.8242
   9   2.0000     -14.434879      -392.7930
  10   2.0000     -14.434520      -392.7833
  11   2.0000     -14.431910      -392.7122
  12   2.0000     -14.419071      -392.3629
  13   2.0000     -14.418108      -392.3367
  14   2.0000     -14.414683      -392.2435
  15   2.0000     -14.413918      -392.2226
  16   2.0000     -10.385706      -282.6094
  17   2.0000     -10.385248      -282.5970
  18   2.0000     -10.371723      -282.2289
  19   2.0000     -10.371255      -282.2162
  20   2.0000     -10.370706      -282.2013
  21   2.0000     -10.367545      -282.1152
  22   2.0000     -10.358139      -281.8593
  23   2.0000     -10.358026      -281.8562
  24   2.0000     -10.349113      -281.6137
  25   2.0000     -10.346167      -281.5335
  26   2.0000     -10.344746      -281.4948
  27   2.0000     -10.343479      -281.4604
  28   2.0000     -10.342671      -281.4384
  29   2.0000     -10.342161      -281.4245
  30   2.0000     -10.342116      -281.4233
  31   2.0000     -10.341982      -281.4197
  32   2.0000     -10.340301      -281.3739
  33   2.0000     -10.337968      -281.3104
  34   2.0000     -10.336124      -281.2602
  35   2.0000     -10.334565      -281.2178
  36   2.0000     -10.334268      -281.2097
  37   2.0000     -10.331844      -281.1438
  38   2.0000     -10.331263      -281.1279
  39   2.0000     -10.330900      -281.1181
  40   2.0000     -10.329933      -281.0918
  41   2.0000     -10.328422      -281.0507
  42   2.0000     -10.328356      -281.0489
  43   2.0000     -10.326972      -281.0112
  44   2.0000     -10.321178      -280.8535
  45   2.0000     -10.320249      -280.8282
  46   2.0000     -10.317772      -280.7608
  47   2.0000     -10.316317      -280.7212
  48   2.0000     -10.315556      -280.7006
  49   2.0000     -10.315294      -280.6934
  50   2.0000     -10.313173      -280.6357
  51   2.0000     -10.312080      -280.6060
  52   2.0000     -10.311531      -280.5910
  53   2.0000     -10.311382      -280.5870
  54   2.0000     -10.311169      -280.5812
  55   2.0000     -10.309501      -280.5358
  56   2.0000     -10.309459      -280.5346
  57   2.0000     -10.308769      -280.5159
  58   2.0000     -10.303955      -280.3849
  59   2.0000     -10.303775      -280.3800
  60   2.0000     -10.303036      -280.3599
  61   2.0000     -10.302516      -280.3457
  62   2.0000     -10.298067      -280.2246
  63   2.0000     -10.297946      -280.2214
  64   2.0000     -10.297870      -280.2193
  65   2.0000     -10.297675      -280.2140
  66   2.0000     -10.297637      -280.2129
  67   2.0000     -10.297111      -280.1986
  68   2.0000     -10.296826      -280.1909
  69   2.0000     -10.296557      -280.1836
  70   2.0000     -10.290173      -280.0099
  71   2.0000     -10.288614      -279.9674
  72   2.0000     -10.286741      -279.9165
  73   2.0000     -10.286643      -279.9138
  74   2.0000     -10.286186      -279.9014
  75   2.0000     -10.286160      -279.9006
  76   2.0000     -10.285972      -279.8955
  77   2.0000     -10.285865      -279.8926
  78   2.0000     -10.285525      -279.8834
  79   2.0000     -10.285186      -279.8741
  80   2.0000      -8.095383      -220.2866
  81   2.0000      -8.094517      -220.2630
  82   2.0000      -8.094360      -220.2587
  83   2.0000      -8.094108      -220.2519
  84   2.0000      -6.064619      -165.0267
  85   2.0000      -6.063738      -165.0027
  86   2.0000      -6.063520      -164.9968
  87   2.0000      -6.063222      -164.9887
  88   2.0000      -6.060429      -164.9126
  89   2.0000      -6.059546      -164.8886
  90   2.0000      -6.059347      -164.8832
  91   2.0000      -6.059053      -164.8752
  92   2.0000      -6.057761      -164.8401
  93   2.0000      -6.056926      -164.8173
  94   2.0000      -6.056878      -164.8160
  95   2.0000      -6.056673      -164.8104
  96   2.0000      -1.322168       -35.9780
  97   2.0000      -1.321685       -35.9649
  98   2.0000      -1.134807       -30.8797
  99   2.0000      -1.131641       -30.7935
 100   2.0000      -1.054634       -28.6980
 101   2.0000      -1.054228       -28.6870
 102   2.0000      -1.027701       -27.9652
 103   2.0000      -1.026417       -27.9302
 104   2.0000      -1.020868       -27.7792
 105   2.0000      -1.019900       -27.7529
 106   2.0000      -1.014310       -27.6008
 107   2.0000      -1.012675       -27.5563
 108   2.0000      -1.010299       -27.4916
 109   2.0000      -1.008556       -27.4442
 110   2.0000      -0.999821       -27.2065
 111   2.0000      -0.999667       -27.2023
 112   2.0000      -0.994758       -27.0687
 113   2.0000      -0.994184       -27.0531
 114   2.0000      -0.991589       -26.9825
 115   2.0000      -0.973831       -26.4993
 116   2.0000      -0.972414       -26.4607
 117   2.0000      -0.967776       -26.3345
 118   2.0000      -0.963099       -26.2073
 119   2.0000      -0.933668       -25.4064
 120   2.0000      -0.929352       -25.2889
 121   2.0000      -0.924398       -25.1542
 122   2.0000      -0.919823       -25.0297
 123   2.0000      -0.907999       -24.7079
 124   2.0000      -0.899944       -24.4887
 125   2.0000      -0.892945       -24.2983
 126   2.0000      -0.882268       -24.0077
 127   2.0000      -0.882175       -24.0052
 128   2.0000      -0.880539       -23.9607
 129   2.0000      -0.879878       -23.9427
 130   2.0000      -0.870587       -23.6899
 131   2.0000      -0.869987       -23.6736
 132   2.0000      -0.865026       -23.5386
 133   2.0000      -0.862917       -23.4812
 134   2.0000      -0.858198       -23.3528
 135   2.0000      -0.828824       -22.5535
 136   2.0000      -0.828741       -22.5512
 137   2.0000      -0.827704       -22.5230
 138   2.0000      -0.815813       -22.1994
 139   2.0000      -0.802840       -21.8464
 140   2.0000      -0.785543       -21.3757
 141   2.0000      -0.784732       -21.3536
 142   2.0000      -0.775789       -21.1103
 143   2.0000      -0.763060       -20.7639
 144   2.0000      -0.762697       -20.7540
 145   2.0000      -0.754129       -20.5209
 146   2.0000      -0.741516       -20.1777
 147   2.0000      -0.731456       -19.9039
 148   2.0000      -0.723727       -19.6936
 149   2.0000      -0.709071       -19.2948
 150   2.0000      -0.708338       -19.2748
 151   2.0000      -0.705442       -19.1960
 152   2.0000      -0.703903       -19.1542
 153   2.0000      -0.701570       -19.0907
 154   2.0000      -0.699894       -19.0451
 155   2.0000      -0.692027       -18.8310
 156   2.0000      -0.690087       -18.7782
 157   2.0000      -0.686300       -18.6752
 158   2.0000      -0.683172       -18.5900
 159   2.0000      -0.676286       -18.4027
 160   2.0000      -0.674465       -18.3531
 161   2.0000      -0.659533       -17.9468
 162   2.0000      -0.658796       -17.9267
 163   2.0000      -0.645938       -17.5769
 164   2.0000      -0.639171       -17.3927
 165   2.0000      -0.638451       -17.3731
 166   2.0000      -0.636698       -17.3254
 167   2.0000      -0.635111       -17.2823
 168   2.0000      -0.629023       -17.1166
 169   2.0000      -0.627225       -17.0676
 170   2.0000      -0.624184       -16.9849
 171   2.0000      -0.618890       -16.8409
 172   2.0000      -0.608234       -16.5509
 173   2.0000      -0.607368       -16.5273
 174   2.0000      -0.604165       -16.4402
 175   2.0000      -0.600052       -16.3282
 176   2.0000      -0.597046       -16.2464
 177   2.0000      -0.590852       -16.0779
 178   2.0000      -0.585442       -15.9307
 179   2.0000      -0.578341       -15.7375
 180   2.0000      -0.571816       -15.5599
 181   2.0000      -0.566006       -15.4018
 182   2.0000      -0.563228       -15.3262
 183   2.0000      -0.561084       -15.2679
 184   2.0000      -0.557357       -15.1665
 185   2.0000      -0.555728       -15.1221
 186   2.0000      -0.554658       -15.0930
 187   2.0000      -0.549777       -14.9602
 188   2.0000      -0.547406       -14.8957
 189   2.0000      -0.547011       -14.8849
 190   2.0000      -0.546600       -14.8738
 191   2.0000      -0.541512       -14.7353
 192   2.0000      -0.538637       -14.6570
 193   2.0000      -0.538007       -14.6399
 194   2.0000      -0.534623       -14.5478
 195   2.0000      -0.530403       -14.4330
 196   2.0000      -0.528621       -14.3845
 197   2.0000      -0.526332       -14.3222
 198   2.0000      -0.522419       -14.2157
 199   2.0000      -0.519587       -14.1387
 200   2.0000      -0.518340       -14.1047
 201   2.0000      -0.513451       -13.9717
 202   2.0000      -0.512094       -13.9348
 203   2.0000      -0.511031       -13.9059
 204   2.0000      -0.510744       -13.8980
 205   2.0000      -0.509302       -13.8588
 206   2.0000      -0.509059       -13.8522
 207   2.0000      -0.506298       -13.7771
 208   2.0000      -0.505885       -13.7658
 209   2.0000      -0.504474       -13.7274
 210   2.0000      -0.502621       -13.6770
 211   2.0000      -0.498615       -13.5680
 212   2.0000      -0.496498       -13.5104
 213   2.0000      -0.493810       -13.4373
 214   2.0000      -0.493189       -13.4203
 215   2.0000      -0.491670       -13.3790
 216   2.0000      -0.487911       -13.2767
 217   2.0000      -0.485677       -13.2160
 218   2.0000      -0.483970       -13.1695
 219   2.0000      -0.481025       -13.0894
 220   2.0000      -0.471155       -12.8208
 221   2.0000      -0.467403       -12.7187
 222   2.0000      -0.466592       -12.6966
 223   2.0000      -0.465984       -12.6801
 224   2.0000      -0.465271       -12.6607
 225   2.0000      -0.465253       -12.6602
 226   2.0000      -0.464201       -12.6316
 227   2.0000      -0.462684       -12.5903
 228   2.0000      -0.459562       -12.5053
 229   2.0000      -0.456621       -12.4253
 230   2.0000      -0.453077       -12.3288
 231   2.0000      -0.451880       -12.2963
 232   2.0000      -0.450348       -12.2546
 233   2.0000      -0.449653       -12.2357
 234   2.0000      -0.445994       -12.1361
 235   2.0000      -0.445066       -12.1109
 236   2.0000      -0.444971       -12.1083
 237   2.0000      -0.443686       -12.0733
 238   2.0000      -0.443074       -12.0567
 239   2.0000      -0.442703       -12.0466
 240   2.0000      -0.441983       -12.0270
 241   2.0000      -0.440428       -11.9847
 242   2.0000      -0.440077       -11.9751
 243   2.0000      -0.439471       -11.9586
 244   2.0000      -0.434508       -11.8236
 245   2.0000      -0.434120       -11.8130
 246   2.0000      -0.433400       -11.7934
 247   2.0000      -0.432495       -11.7688
 248   2.0000      -0.430969       -11.7273
 249   2.0000      -0.428425       -11.6580
 250   2.0000      -0.428090       -11.6489
 251   2.0000      -0.426827       -11.6146
 252   2.0000      -0.425171       -11.5695
 253   2.0000      -0.420381       -11.4391
 254   2.0000      -0.419352       -11.4111
 255   2.0000      -0.411255       -11.1908
 256   2.0000      -0.409384       -11.1399
 257   2.0000      -0.406235       -11.0542
 258   2.0000      -0.404370       -11.0035
 259   2.0000      -0.399028       -10.8581
 260   2.0000      -0.384581       -10.4650
 261   2.0000      -0.379490       -10.3264
 262   2.0000      -0.373417       -10.1612
 263   2.0000      -0.366294        -9.9674
 264   2.0000      -0.358912        -9.7665
 265   2.0000      -0.356096        -9.6899
 266   2.0000      -0.346263        -9.4223
 267   2.0000      -0.344314        -9.3693
 268   2.0000      -0.339767        -9.2455
 269   2.0000      -0.336646        -9.1606
 270   2.0000      -0.329583        -8.9684
 271   2.0000      -0.328298        -8.9334
 272   2.0000      -0.320947        -8.7334
 273   2.0000      -0.317343        -8.6353
 274   2.0000      -0.314402        -8.5553
 275   2.0000      -0.296161        -8.0589
 276   2.0000      -0.294713        -8.0196
 277   2.0000      -0.279519        -7.6061
 278   2.0000      -0.261195        -7.1075
 279   0.0000      -0.119347        -3.2476
 280   0.0000      -0.113399        -3.0857
 281   0.0000      -0.091978        -2.5028
 282   0.0000      -0.090863        -2.4725
 283   0.0000      -0.061598        -1.6762

MULLIKEN ATOMIC CHARGES
-----------------------
   0 C :   -0.014262
   1 C :    0.034733
   2 C :    0.034078
   3 C :   -0.016781
   4 C :    0.091794
   5 C :   -0.075195
   6 C :    0.027048
   7 C :    0.014919
   8 C :   -0.079719
   9 C :    0.093343
  10 C :    0.136360
  11 O :   -0.144938
  12 C :   -0.136459
  13 C :    0.269509
  14 C :   -0.329160
  15 C :   -0.201908
  16 N :    0.164633
  17 C :   -0.169020
  18 N :    0.158495
  19 C :    0.081684
  20 C :   -0.112143
  21 C :   -0.000887
  22 C :   -0.003987
  23 C :   -0.072339
  24 S :    0.216442
  25 C :   -0.100390
  26 C :    0.012704
  27 C :    0.308550
  28 C :   -0.288209
  29 C :   -0.189192
  30 N :    0.181295
  31 C :   -0.187133
  32 N :    0.175692
  33 C :   -0.035991
  34 C :   -0.078394
  35 S :    0.178357
  36 C :    0.093709
  37 C :   -0.115695
  38 C :    0.231702
  39 F :   -0.177561
  40 C :    0.093844
  41 C :   -0.116491
  42 C :    0.232046
  43 F :   -0.177709
  44 C :   -0.073158
  45 C :   -0.043071
  46 C :    0.018559
  47 C :   -0.097962
  48 S :    0.178222
  49 C :   -0.082475
  50 C :   -0.009598
  51 C :    0.307804
  52 C :   -0.298176
  53 C :   -0.190454
  54 N :    0.195517
  55 C :   -0.192315
  56 N :    0.180719
  57 C :    0.006505
  58 C :   -0.112812
  59 S :    0.208011
  60 C :    0.027264
  61 C :   -0.087018
  62 C :    0.311717
  63 C :   -0.351945
  64 C :   -0.180374
  65 N :    0.145942
  66 C :   -0.199972
  67 N :    0.153597
  68 C :    0.046342
  69 C :   -0.006183
  70 C :   -0.076741
  71 C :    0.096117
  72 C :   -0.014894
  73 C :    0.034971
  74 C :    0.034820
  75 C :   -0.016916
  76 C :    0.093958
  77 C :   -0.079626
  78 C :    0.157528
  79 O :   -0.150154
  80 H :   -0.016858
  81 H :   -0.004138
  82 H :   -0.002911
  83 H :   -0.007862
  84 H :    0.000806
  85 H :   -0.011303
  86 H :    0.021686
  87 H :    0.025741
  88 H :    0.018730
  89 H :    0.006165
  90 H :    0.006483
  91 H :    0.018860
  92 H :    0.038602
  93 H :    0.014523
  94 H :   -0.009588
  95 H :   -0.016335
  96 H :   -0.003203
  97 H :   -0.004030
  98 H :   -0.008973
  99 H :   -0.007519
Sum of atomic charges:   -0.0000000

LOEWDIN ATOMIC CHARGES
----------------------
   0 C :   -0.009468
   1 C :   -0.012796
   2 C :   -0.012369
   3 C :   -0.005255
   4 C :   -0.004942
   5 C :    0.019291
   6 C :   -0.023163
   7 C :   -0.058090
   8 C :    0.032936
   9 C :   -0.009121
  10 C :    0.083727
  11 O :   -0.144526
  12 C :   -0.087826
  13 C :    0.065562
  14 C :   -0.136168
  15 C :   -0.015637
  16 N :   -0.047667
  17 C :   -0.018372
  18 N :   -0.045912
  19 C :    0.041151
  20 C :   -0.179450
  21 C :    0.008671
  22 C :   -0.063916
  23 C :   -0.162520
  24 S :    0.501596
  25 C :   -0.179692
  26 C :   -0.061059
  27 C :    0.081015
  28 C :   -0.094626
  29 C :   -0.018628
  30 N :   -0.024274
  31 C :   -0.012922
  32 N :   -0.030199
  33 C :   -0.020951
  34 C :   -0.155055
  35 S :    0.485597
  36 C :   -0.056258
  37 C :   -0.041576
  38 C :    0.091281
  39 F :   -0.051224
  40 C :   -0.058921
  41 C :   -0.040943
  42 C :    0.090390
  43 F :   -0.051531
  44 C :   -0.150461
  45 C :   -0.024036
  46 C :   -0.056504
  47 C :   -0.185941
  48 S :    0.485198
  49 C :   -0.161774
  50 C :   -0.072673
  51 C :    0.074641
  52 C :   -0.090944
  53 C :   -0.021843
  54 N :   -0.014557
  55 C :   -0.017371
  56 N :   -0.025691
  57 C :    0.018766
  58 C :   -0.174988
  59 S :    0.497706
  60 C :    0.041153
  61 C :   -0.092614
  62 C :    0.076968
  63 C :   -0.142585
  64 C :   -0.017192
  65 N :   -0.054117
  66 C :   -0.024830
  67 N :   -0.054506
  68 C :   -0.026858
  69 C :   -0.055607
  70 C :    0.033960
  71 C :   -0.008132
  72 C :   -0.008914
  73 C :   -0.011886
  74 C :   -0.013241
  75 C :   -0.005300
  76 C :   -0.006338
  77 C :    0.019878
  78 C :    0.086481
  79 O :   -0.137616
  80 H :    0.031885
  81 H :    0.032997
  82 H :    0.033616
  83 H :    0.035343
  84 H :    0.040712
  85 H :    0.039438
  86 H :    0.045777
  87 H :    0.042829
  88 H :    0.040988
  89 H :    0.035703
  90 H :    0.035377
  91 H :    0.040721
  92 H :    0.044242
  93 H :    0.042977
  94 H :    0.040235
  95 H :    0.032371
  96 H :    0.033225
  97 H :    0.033382
  98 H :    0.034759
  99 H :    0.039038

  Mayer bond orders larger than 0.100000
B(  0-C ,  1-C ) :   1.4888 B(  0-C ,  9-C ) :   1.2471 B(  0-C , 80-H ) :   0.9969
B(  1-C ,  2-C ) :   1.2611 B(  1-C , 81-H ) :   0.9885 B(  2-C ,  3-C ) :   1.4901
B(  2-C , 82-H ) :   0.9888 B(  3-C ,  4-C ) :   1.2415 B(  3-C , 83-H ) :   0.9973
B(  4-C ,  5-C ) :   1.2068 B(  4-C ,  9-C ) :   1.2555 B(  5-C ,  6-C ) :   1.4601
B(  5-C , 84-H ) :   0.9933 B(  6-C ,  7-C ) :   1.2134 B(  6-C , 13-C ) :   0.9988
B(  7-C ,  8-C ) :   1.4757 B(  7-C , 10-C ) :   0.9230 B(  8-C ,  9-C ) :   1.1852
B(  8-C , 85-H ) :   1.0152 B( 10-C , 11-O ) :   2.2657 B( 10-C , 12-C ) :   0.9369
B( 12-C , 13-C ) :   1.0331 B( 12-C , 19-C ) :   1.6789 B( 13-C , 14-C ) :   1.6514
B( 14-C , 15-C ) :   1.1708 B( 14-C , 17-C ) :   1.1273 B( 15-C , 16-N ) :   2.9953
B( 17-C , 18-N ) :   2.9922 B( 19-C , 20-C ) :   1.1284 B( 19-C , 86-H ) :   0.9287
B( 20-C , 21-C ) :   1.4008 B( 20-C , 24-S ) :   1.0935 B( 21-C , 22-C ) :   1.3560
B( 21-C , 87-H ) :   0.9797 B( 22-C , 23-C ) :   1.4180 B( 22-C , 27-C ) :   0.9965
B( 23-C , 24-S ) :   1.1532 B( 23-C , 25-C ) :   1.1856 B( 25-C , 26-C ) :   1.4461
B( 25-C , 35-S ) :   1.1273 B( 26-C , 27-C ) :   0.9946 B( 26-C , 33-C ) :   1.2695
B( 27-C , 28-C ) :   1.7185 B( 28-C , 29-C ) :   1.1311 B( 28-C , 31-C ) :   1.1377
B( 29-C , 30-N ) :   2.9957 B( 31-C , 32-N ) :   2.9837 B( 33-C , 34-C ) :   1.4858
B( 33-C , 88-H ) :   0.9944 B( 34-C , 35-S ) :   1.1078 B( 34-C , 36-C ) :   1.0816
B( 36-C , 37-C ) :   1.2681 B( 36-C , 42-C ) :   1.3070 B( 37-C , 38-C ) :   1.4091
B( 37-C , 89-H ) :   0.9841 B( 38-C , 39-F ) :   1.1090 B( 38-C , 40-C ) :   1.3063
B( 40-C , 41-C ) :   1.2664 B( 40-C , 44-C ) :   1.0841 B( 41-C , 42-C ) :   1.4106
B( 41-C , 90-H ) :   0.9833 B( 42-C , 43-F ) :   1.1100 B( 44-C , 45-C ) :   1.4816
B( 44-C , 48-S ) :   1.1112 B( 45-C , 46-C ) :   1.2666 B( 45-C , 91-H ) :   0.9955
B( 46-C , 47-C ) :   1.4425 B( 46-C , 51-C ) :   0.9965 B( 47-C , 48-S ) :   1.1217
B( 47-C , 49-C ) :   1.1912 B( 49-C , 50-C ) :   1.3893 B( 49-C , 59-S ) :   1.1661
B( 50-C , 51-C ) :   0.9951 B( 50-C , 57-C ) :   1.3161 B( 51-C , 52-C ) :   1.7168
B( 52-C , 53-C ) :   1.1375 B( 52-C , 55-C ) :   1.1360 B( 53-C , 54-N ) :   2.9964
B( 55-C , 56-N ) :   2.9925 B( 57-C , 58-C ) :   1.4077 B( 57-C , 92-H ) :   0.9705
B( 58-C , 59-S ) :   1.0787 B( 58-C , 60-C ) :   1.2037 B( 60-C , 61-C ) :   1.6018
B( 60-C , 93-H ) :   0.9167 B( 61-C , 62-C ) :   1.0746 B( 61-C , 78-C ) :   0.9365
B( 62-C , 63-C ) :   1.6242 B( 62-C , 68-C ) :   0.9891 B( 63-C , 64-C ) :   1.1477
B( 63-C , 66-C ) :   1.1399 B( 64-C , 65-N ) :   2.9642 B( 66-C , 67-N ) :   2.9817
B( 68-C , 69-C ) :   1.2135 B( 68-C , 77-C ) :   1.4495 B( 69-C , 70-C ) :   1.4714
B( 69-C , 78-C ) :   0.9532 B( 70-C , 71-C ) :   1.1784 B( 70-C , 94-H ) :   1.0168
B( 71-C , 72-C ) :   1.2444 B( 71-C , 76-C ) :   1.2560 B( 72-C , 73-C ) :   1.4882
B( 72-C , 95-H ) :   0.9980 B( 73-C , 74-C ) :   1.2600 B( 73-C , 96-H ) :   0.9893
B( 74-C , 75-C ) :   1.4877 B( 74-C , 97-H ) :   0.9890 B( 75-C , 76-C ) :   1.2411
B( 75-C , 98-H ) :   0.9975 B( 76-C , 77-C ) :   1.2064 B( 77-C , 99-H ) :   0.9899
B( 78-C , 79-O ) :   2.1790

-----------------------------------------------------------------------------
         ABSORPTION SPECTRUM VIA TRANSITION ELECTRIC DIPOLE MOMENTS
-----------------------------------------------------------------------------
State   Energy  Wavelength   fosc         T2         TX        TY        TZ
        (cm-1)    (nm)                  (au**2)     (au)      (au)      (au)
-----------------------------------------------------------------------------
   0   14160.6    706.2   0.627719974  14.59348  -3.49628   1.48382  -0.40963
   1   14976.6    667.7   0.105087984   2.31003  -1.44325   0.34492  -0.32875
   2   20620.5    485.0   1.752370596  27.97707  -4.96335   1.76627  -0.47172
   3   22035.9    453.8   0.452373923   6.75837  -2.33296   0.71641  -0.89577
   4   23269.4    429.7   0.008764464   0.12400  -0.16305   0.06344  -0.30559
   5   24234.3    412.6   0.037750095   0.51282   0.39437   0.27121   0.53267
   6   25295.0    395.3   0.008421485   0.10960   0.11804  -0.30930  -0.00135
   7   25545.9    391.5   0.056890019   0.73315  -0.85532  -0.03434   0.01972
   8   27504.9    363.6   0.072737728   0.87061  -0.83546   0.31767   0.26778
   9   27641.3    361.8   0.048841478   0.58171  -0.63428   0.16790   0.38886
  10   28327.2    353.0   0.327078160   3.80123   1.66416  -0.98660  -0.24170
  11   28620.0    349.4   0.010329195   0.11882   0.06915   0.17384   0.28950
  12   28895.3    346.1   0.140191934   1.59724  -1.01408   0.75423   0.00412
  13   29182.9    342.7   0.344070846   3.88146  -1.54933   0.98576   0.71366
  14   29406.1    340.1   0.028770005   0.32209   0.50809  -0.17942  -0.17818
  15   29976.1    333.6   0.219736081   2.41325  -0.96666  -0.09712   1.21218
  16   30221.4    330.9   0.267238782   2.91113  -0.60894   1.39330   0.77396
  17   30410.5    328.8   0.043724734   0.47335  -0.58173  -0.13450   0.34182
  18   30846.8    324.2   0.403494429   4.30629  -0.23831  -0.59449   1.97385
  19   31084.8    321.7   0.046244724   0.48977  -0.34384  -0.58901   0.15685
  20   31380.7    318.7   0.027021415   0.28348  -0.06653  -0.24398  -0.46854
  21   31515.3    317.3   0.585334579   6.11447  -2.20742   0.71651   0.85346
  22   31883.6    313.6   0.304985629   3.14911   1.21568  -0.40262   1.22847
  23   32144.8    311.1   0.052906073   0.54184  -0.38368   0.07760   0.62338
  24   32648.5    306.3   0.027915943   0.28149  -0.19158  -0.03893  -0.49323
  25   32917.2    303.8   0.159084186   1.59103  -0.89128   0.29375   0.84283
  26   32942.1    303.6   0.106424156   1.06357   0.91084   0.05664  -0.48035
  27   33448.2    299.0   0.008911495   0.08771  -0.24067   0.08559   0.14987
  28   33685.1    296.9   0.028070261   0.27434  -0.33162   0.00923   0.40531
  29   33914.6    294.9   0.110737061   1.07494   0.73035  -0.73404  -0.05211
  30   34227.7    292.2   0.047455268   0.45644   0.59519   0.31137   0.07241
  31   34243.7    292.0   0.306907609   2.95055  -1.17523   1.22917   0.24187
  32   34543.5    289.5   0.080599575   0.76814  -0.58050   0.22293   0.61763
  33   34631.7    288.8   0.141963705   1.34952   0.64786  -0.53701  -0.80088
  34   34946.7    286.2   0.647642398   6.10106  -1.43754  -0.08442   2.00684
  35   35096.5    284.9   0.067436173   0.63256  -0.20124   0.06103  -0.76703
  36   35234.8    283.8   0.336698554   3.14590  -0.61329   1.56542  -0.56500
  37   35581.1    281.0   0.109687238   1.01488  -0.58645   0.02012  -0.81887
  38   36046.7    277.4   0.019398923   0.17717   0.03906  -0.10747  -0.40508
  39   36281.7    275.6   0.130099878   1.18050  -0.55511   0.71242   0.60400
  40   36625.5    273.0   0.008744389   0.07860  -0.16594   0.00314  -0.22595
  41   37045.5    269.9   0.007980830   0.07092  -0.17403  -0.08462   0.18297
  42   37658.8    265.5   0.082815486   0.72397   0.40751   0.03129  -0.74628
  43   37911.6    263.8   0.013747783   0.11938   0.15040  -0.14891   0.27311
  44   38063.5    262.7   0.003593546   0.03108   0.00466   0.15013   0.09230
  45   38344.1    260.8   0.036177842   0.31061   0.36678  -0.34137  -0.24403
  46   38557.7    259.4   0.076164464   0.65030   0.06510  -0.26294   0.75956
  47   38583.5    259.2   0.005862055   0.05002   0.20075   0.03506  -0.09212
  48   38993.9    256.5   0.008733396   0.07373   0.10919   0.03360   0.24634
  49   39215.7    255.0   0.019608950   0.16462   0.28711   0.28633   0.01402
  50   39263.4    254.7   0.059327672   0.49744  -0.13431   0.19948  -0.66303
  51   39477.4    253.3   0.094363578   0.78692   0.56824  -0.51372   0.44734
  52   39547.4    252.9   0.111507892   0.92825  -0.52300   0.27422  -0.76126
  53   39798.9    251.3   0.040285858   0.33324  -0.33852  -0.22759  -0.40847
  54   39840.0    251.0   0.019681761   0.16264  -0.39525   0.07489   0.02844
  55   40185.8    248.8   0.044433032   0.36401  -0.50681  -0.31278  -0.09652

FINAL SINGLE POINT ENERGY     -4827.040221606719

DIPOLE MOMENT
-------------
                                X             Y             Z
Electronic contribution:     -5.24067     -12.84376      -2.29191
Nuclear contribution   :      5.83358      15.99034       1.25184
                        -----------------------------------------
Total Dipole Moment    :      0.59290       3.14657      -1.04007
                        -----------------------------------------
Magnitude (a.u.)       :      3.36663
Magnitude (Debye)      :      8.55730

Rotational constants in cm-1:     0.002828     0.000139     0.000136
Rotational constants in MHz :    84.794200     4.170567     4.069946

                             ****ORCA TERMINATED NORMALLY****
TOTAL RUN TIME: 0 days 0 hours 10 minutes 33 seconds 588 msec
