                         Program Version 4.2.0 -  RELEASE  -
|  1> # ORCA input file
|  2> # SCF done       -168.940135132141          0.000559152584
|  3> ! CAM-B3LYP def2-SVP def2/J RIJCOSX Grid4 TightSCF
|  4> %maxcore 5000
|  5> %tddft
|  6>     Mode sTDDFT
|  7>     Ethresh 5.0
|  8>     maxcore 5000
|  9> end
| 10>
| 11> %pal
| 12>   nprocs 6
| 13>   end
| 14> * xyz 0 1
| 15>    C       -6.82245        -3.82312         4.92219
| 16>    N       -7.04915        -3.64362         3.65492
| 17>    N       -6.31964        -4.19899         2.71178
| 18>    C       -5.29524        -4.99134         2.96011
| 19>    C       -4.94714        -5.26782         4.31848
| 20>    C       -5.75057        -4.65011         5.34145
| 21>    N       -5.25786        -5.03218         6.50470
| 22>    O       -4.23000        -5.82432         6.22441
| 23>    N       -4.02080        -5.98322         4.92133
| 24>    C       -4.57944        -5.52925         1.85401
| 25>    C       -3.48641        -6.37820         1.87057
| 26>    C       -3.05907        -6.67542         0.57983
| 27>    C       -3.84107        -6.04094        -0.41243
| 28>    S       -5.09553        -5.08919         0.24016
| 29>    C       -3.32561        -6.38859        -1.68314
| 30>    C       -2.21773        -7.24284        -1.49908
| 31>    C       -2.01900        -7.45380        -0.07210
| 32>    C       -1.06152        -8.21850         0.52495
| 33>    C       -0.09498        -8.93617        -0.21309
| 34>    N        0.69712        -9.52493        -0.79574
| 35>    C       -0.96724        -8.35056         1.92753
| 36>    N       -0.88076        -8.46725         3.06464
| 37>    C       -1.63004        -7.62882        -2.69575
| 38>    C       -2.27644        -7.07727        -3.79711
| 39>    S       -3.64049        -6.06996        -3.32962
| 40>    C       -1.95903        -7.21707        -5.17662
| 41>    C       -0.87357        -7.97255        -5.68399
| 42>    C       -0.59557        -8.03293        -7.09148
| 43>    N        0.45397        -8.75735        -7.53101
| 44>    C        1.19801        -9.39324        -6.68699
| 45>    C        0.92102        -9.33667        -5.29441
| 46>    N       -0.07334        -8.65084        -4.83434
| 47>    F        1.67961        -9.99049        -4.42571
| 48>    F        2.21960       -10.09520        -7.16111
| 49>    C       -1.36704        -7.36303        -8.06835
| 50>    C       -2.46545        -6.62747        -7.56738
| 51>    C       -2.74247        -6.56289        -6.15485
| 52>    N       -3.81551        -5.81294        -5.89856
| 53>    S       -4.41520        -5.25081        -7.27730
| 54>    N       -3.35345        -5.92021        -8.26883
| 55>    C       -1.04368        -7.42278        -9.44976
| 56>    C       -1.73635        -6.80289       -10.48502
| 57>    C       -1.15005        -7.04342       -11.71830
| 58>    C        0.00177        -7.85399       -11.62753
| 59>    S        0.35141        -8.31944       -10.02033
| 60>    C        0.52325        -8.03143       -12.93186
| 61>    C       -0.29973        -7.33395       -13.84687
| 62>    C       -1.37571        -6.69213       -13.11201
| 63>    C       -2.38331        -5.92085       -13.61190
| 64>    C       -2.50871        -5.63759       -14.98904
| 65>    N       -2.62230        -5.39948       -16.10454
| 66>    C       -3.37237        -5.34979       -12.78257
| 67>    N       -4.17951        -4.88110       -12.11640
| 68>    C        0.13995        -7.45061       -15.16182
| 69>    C        1.28389        -8.22589       -15.24085
| 70>    S        1.82997        -8.82197       -13.68801
| 71>    C        2.03195        -8.57241       -16.40105
| 72>    N        3.10933        -9.31708       -16.24919
| 73>    N        3.87384        -9.69487       -17.25061
| 74>    C        3.63564        -9.36646       -18.48548
| 75>    C        2.50875        -8.56761       -18.80284
| 76>    C        1.66345        -8.14765       -17.71532
| 77>    N        0.68804        -7.42718       -18.22807
| 78>    O        0.90774        -7.39904       -19.53907
| 79>    N        1.98963        -8.07262       -19.91075
| 80>    H       -7.47381        -3.32416         5.62128
| 81>    H       -3.04869        -6.73964         2.78412
| 82>    H       -0.77631        -8.27181        -2.79687
| 83>    H       -2.61712        -6.21358       -10.30889
| 84>    H       -0.32190        -7.01008       -16.02756
| 85>    H        4.32010        -9.72343       -19.23787
| 86> *
| 87>
| 88>                          ****END OF INPUT****

CARTESIAN COORDINATES (ANGSTROEM)
---------------------------------
  C     -6.822450   -3.823120    4.922190
  N     -7.049150   -3.643620    3.654920
  N     -6.319640   -4.198990    2.711780
  C     -5.295240   -4.991340    2.960110
  C     -4.947140   -5.267820    4.318480
  C     -5.750570   -4.650110    5.341450
  N     -5.257860   -5.032180    6.504700
  O     -4.230000   -5.824320    6.224410
  N     -4.020800   -5.983220    4.921330
  C     -4.579440   -5.529250    1.854010
  C     -3.486410   -6.378200    1.870570
  C     -3.059070   -6.675420    0.579830
  C     -3.841070   -6.040940   -0.412430
  S     -5.095530   -5.089190    0.240160
  C     -3.325610   -6.388590   -1.683140
  C     -2.217730   -7.242840   -1.499080
  C     -2.019000   -7.453800   -0.072100
  C     -1.061520   -8.218500    0.524950
  C     -0.094980   -8.936170   -0.213090
  N      0.697120   -9.524930   -0.795740
  C     -0.967240   -8.350560    1.927530
  N     -0.880760   -8.467250    3.064640
  C     -1.630040   -7.628820   -2.695750
  C     -2.276440   -7.077270   -3.797110
  S     -3.640490   -6.069960   -3.329620
  C     -1.959030   -7.217070   -5.176620
  C     -0.873570   -7.972550   -5.683990
  C     -0.595570   -8.032930   -7.091480
  N      0.453970   -8.757350   -7.531010
  C      1.198010   -9.393240   -6.686990
  C      0.921020   -9.336670   -5.294410
  N     -0.073340   -8.650840   -4.834340
  F      1.679610   -9.990490   -4.425710
  F      2.219600  -10.095200   -7.161110
  C     -1.367040   -7.363030   -8.068350
  C     -2.465450   -6.627470   -7.567380
  C     -2.742470   -6.562890   -6.154850
  N     -3.815510   -5.812940   -5.898560
  S     -4.415200   -5.250810   -7.277300
  N     -3.353450   -5.920210   -8.268830
  C     -1.043680   -7.422780   -9.449760
  C     -1.736350   -6.802890  -10.485020
  C     -1.150050   -7.043420  -11.718300
  C      0.001770   -7.853990  -11.627530
  S      0.351410   -8.319440  -10.020330
  C      0.523250   -8.031430  -12.931860
  C     -0.299730   -7.333950  -13.846870
  C     -1.375710   -6.692130  -13.112010
  C     -2.383310   -5.920850  -13.611900
  C     -2.508710   -5.637590  -14.989040
  N     -2.622300   -5.399480  -16.104540
  C     -3.372370   -5.349790  -12.782570
  N     -4.179510   -4.881100  -12.116400
  C      0.139950   -7.450610  -15.161820
  C      1.283890   -8.225890  -15.240850
  S      1.829970   -8.821970  -13.688010
  C      2.031950   -8.572410  -16.401050
  N      3.109330   -9.317080  -16.249190
  N      3.873840   -9.694870  -17.250610
  C      3.635640   -9.366460  -18.485480
  C      2.508750   -8.567610  -18.802840
  C      1.663450   -8.147650  -17.715320
  N      0.688040   -7.427180  -18.228070
  O      0.907740   -7.399040  -19.539070
  N      1.989630   -8.072620  -19.910750
  H     -7.473810   -3.324160    5.621280
  H     -3.048690   -6.739640    2.784120
  H     -0.776310   -8.271810   -2.796870
  H     -2.617120   -6.213580  -10.308890
  H     -0.321900   -7.010080  -16.027560
  H      4.320100   -9.723430  -19.237870

 Total Charge           Charge          ....    0
 Multiplicity           Mult            ....    1
 Number of Electrons    NEL             ....  472
 Basis Dimension        Dim             ....  960

ORBITAL ENERGIES
----------------

  NO   OCC          E(Eh)            E(eV)
   0   2.0000     -89.057656     -2423.3820
   1   2.0000     -88.994001     -2421.6499
   2   2.0000     -88.993669     -2421.6409
   3   2.0000     -88.990028     -2421.5418
   4   2.0000     -88.989187     -2421.5189
   5   2.0000     -24.831206      -675.6915
   6   2.0000     -24.824577      -675.5111
   7   2.0000     -19.382872      -527.4348
   8   2.0000     -19.382793      -527.4326
   9   2.0000     -14.509597      -394.8262
  10   2.0000     -14.509474      -394.8229
  11   2.0000     -14.506680      -394.7468
  12   2.0000     -14.506474      -394.7412
  13   2.0000     -14.472394      -393.8139
  14   2.0000     -14.467144      -393.6710
  15   2.0000     -14.466009      -393.6401
  16   2.0000     -14.465673      -393.6310
  17   2.0000     -14.458428      -393.4338
  18   2.0000     -14.458418      -393.4335
  19   2.0000     -14.454927      -393.3386
  20   2.0000     -14.454864      -393.3368
  21   2.0000     -14.431516      -392.7015
  22   2.0000     -14.430112      -392.6633
  23   2.0000     -14.429546      -392.6479
  24   2.0000     -14.429344      -392.6424
  25   2.0000     -10.447926      -284.3025
  26   2.0000     -10.444354      -284.2053
  27   2.0000     -10.365886      -282.0701
  28   2.0000     -10.365195      -282.0513
  29   2.0000     -10.363487      -282.0048
  30   2.0000     -10.363397      -282.0024
  31   2.0000     -10.361356      -281.9468
  32   2.0000     -10.359583      -281.8986
  33   2.0000     -10.354750      -281.7671
  34   2.0000     -10.353514      -281.7334
  35   2.0000     -10.353508      -281.7333
  36   2.0000     -10.352773      -281.7133
  37   2.0000     -10.351761      -281.6857
  38   2.0000     -10.351578      -281.6808
  39   2.0000     -10.348682      -281.6020
  40   2.0000     -10.348514      -281.5974
  41   2.0000     -10.340914      -281.3906
  42   2.0000     -10.340850      -281.3888
  43   2.0000     -10.340168      -281.3703
  44   2.0000     -10.339674      -281.3568
  45   2.0000     -10.331991      -281.1478
  46   2.0000     -10.331782      -281.1421
  47   2.0000     -10.331229      -281.1270
  48   2.0000     -10.330764      -281.1144
  49   2.0000     -10.330762      -281.1143
  50   2.0000     -10.329965      -281.0926
  51   2.0000     -10.329644      -281.0839
  52   2.0000     -10.329176      -281.0712
  53   2.0000     -10.329119      -281.0696
  54   2.0000     -10.328364      -281.0491
  55   2.0000     -10.326976      -281.0113
  56   2.0000     -10.326693      -281.0036
  57   2.0000     -10.311528      -280.5909
  58   2.0000     -10.311236      -280.5830
  59   2.0000     -10.308008      -280.4952
  60   2.0000     -10.307624      -280.4847
  61   2.0000     -10.305217      -280.4192
  62   2.0000     -10.305126      -280.4167
  63   2.0000     -10.300730      -280.2971
  64   2.0000     -10.300253      -280.2841
  65   2.0000      -8.148501      -221.7320
  66   2.0000      -8.087874      -220.0822
  67   2.0000      -8.087524      -220.0727
  68   2.0000      -8.082649      -219.9401
  69   2.0000      -8.082292      -219.9304
  70   2.0000      -6.119609      -166.5230
  71   2.0000      -6.111776      -166.3099
  72   2.0000      -6.111324      -166.2976
  73   2.0000      -6.057110      -164.8223
  74   2.0000      -6.056771      -164.8131
  75   2.0000      -6.052747      -164.7036
  76   2.0000      -6.052420      -164.6947
  77   2.0000      -6.052108      -164.6862
  78   2.0000      -6.051696      -164.6750
  79   2.0000      -6.050475      -164.6418
  80   2.0000      -6.050103      -164.6317
  81   2.0000      -6.047418      -164.5586
  82   2.0000      -6.047115      -164.5504
  83   2.0000      -6.045186      -164.4979
  84   2.0000      -6.044755      -164.4861
  85   2.0000      -1.357962       -36.9520
  86   2.0000      -1.342667       -36.5358
  87   2.0000      -1.336642       -36.3719
  88   2.0000      -1.336593       -36.3706
  89   2.0000      -1.155310       -31.4376
  90   2.0000      -1.136315       -30.9207
  91   2.0000      -1.136220       -30.9181
  92   2.0000      -1.129341       -30.7309
  93   2.0000      -1.055956       -28.7340
  94   2.0000      -1.047321       -28.4990
  95   2.0000      -1.046574       -28.4787
  96   2.0000      -1.038485       -28.2586
  97   2.0000      -1.038353       -28.2550
  98   2.0000      -1.022915       -27.8349
  99   2.0000      -1.022050       -27.8114
 100   2.0000      -1.014645       -27.6099
 101   2.0000      -1.008816       -27.4513
 102   2.0000      -1.007326       -27.4107
 103   2.0000      -1.006470       -27.3874
 104   2.0000      -0.999807       -27.2061
 105   2.0000      -0.995657       -27.0932
 106   2.0000      -0.993701       -27.0400
 107   2.0000      -0.985367       -26.8132
 108   2.0000      -0.967058       -26.3150
 109   2.0000      -0.961620       -26.1670
 110   2.0000      -0.947796       -25.7908
 111   2.0000      -0.947241       -25.7757
 112   2.0000      -0.919557       -25.0224
 113   2.0000      -0.907137       -24.6845
 114   2.0000      -0.900351       -24.4998
 115   2.0000      -0.887963       -24.1627
 116   2.0000      -0.873564       -23.7709
 117   2.0000      -0.871186       -23.7062
 118   2.0000      -0.857912       -23.3450
 119   2.0000      -0.856772       -23.3140
 120   2.0000      -0.847342       -23.0574
 121   2.0000      -0.840503       -22.8712
 122   2.0000      -0.828980       -22.5577
 123   2.0000      -0.814676       -22.1685
 124   2.0000      -0.799925       -21.7671
 125   2.0000      -0.793081       -21.5808
 126   2.0000      -0.791356       -21.5339
 127   2.0000      -0.785522       -21.3752
 128   2.0000      -0.779786       -21.2191
 129   2.0000      -0.773761       -21.0551
 130   2.0000      -0.768078       -20.9005
 131   2.0000      -0.753721       -20.5098
 132   2.0000      -0.740195       -20.1417
 133   2.0000      -0.722793       -19.6682
 134   2.0000      -0.708391       -19.2763
 135   2.0000      -0.699578       -19.0365
 136   2.0000      -0.698017       -18.9940
 137   2.0000      -0.695220       -18.9179
 138   2.0000      -0.691591       -18.8192
 139   2.0000      -0.687587       -18.7102
 140   2.0000      -0.684170       -18.6172
 141   2.0000      -0.677989       -18.4490
 142   2.0000      -0.675043       -18.3689
 143   2.0000      -0.665751       -18.1160
 144   2.0000      -0.662552       -18.0290
 145   2.0000      -0.658873       -17.9289
 146   2.0000      -0.650289       -17.6953
 147   2.0000      -0.647218       -17.6117
 148   2.0000      -0.640366       -17.4253
 149   2.0000      -0.636889       -17.3306
 150   2.0000      -0.632803       -17.2194
 151   2.0000      -0.632720       -17.2172
 152   2.0000      -0.632549       -17.2125
 153   2.0000      -0.628970       -17.1151
 154   2.0000      -0.620645       -16.8886
 155   2.0000      -0.617711       -16.8088
 156   2.0000      -0.611660       -16.6441
 157   2.0000      -0.608245       -16.5512
 158   2.0000      -0.583563       -15.8795
 159   2.0000      -0.583398       -15.8751
 160   2.0000      -0.582027       -15.8378
 161   2.0000      -0.581190       -15.8150
 162   2.0000      -0.577892       -15.7253
 163   2.0000      -0.573761       -15.6128
 164   2.0000      -0.563646       -15.3376
 165   2.0000      -0.556396       -15.1403
 166   2.0000      -0.553752       -15.0683
 167   2.0000      -0.552611       -15.0373
 168   2.0000      -0.551953       -15.0194
 169   2.0000      -0.542397       -14.7594
 170   2.0000      -0.540415       -14.7054
 171   2.0000      -0.540205       -14.6997
 172   2.0000      -0.539888       -14.6911
 173   2.0000      -0.534262       -14.5380
 174   2.0000      -0.532377       -14.4867
 175   2.0000      -0.524757       -14.2794
 176   2.0000      -0.523089       -14.2340
 177   2.0000      -0.518790       -14.1170
 178   2.0000      -0.507815       -13.8183
 179   2.0000      -0.504397       -13.7253
 180   2.0000      -0.502869       -13.6837
 181   2.0000      -0.501079       -13.6351
 182   2.0000      -0.499554       -13.5935
 183   2.0000      -0.499042       -13.5796
 184   2.0000      -0.497550       -13.5390
 185   2.0000      -0.493888       -13.4394
 186   2.0000      -0.486408       -13.2358
 187   2.0000      -0.481696       -13.1076
 188   2.0000      -0.478904       -13.0316
 189   2.0000      -0.472996       -12.8709
 190   2.0000      -0.467269       -12.7150
 191   2.0000      -0.462476       -12.5846
 192   2.0000      -0.460743       -12.5374
 193   2.0000      -0.460061       -12.5189
 194   2.0000      -0.457556       -12.4507
 195   2.0000      -0.457051       -12.4370
 196   2.0000      -0.454291       -12.3619
 197   2.0000      -0.452400       -12.3104
 198   2.0000      -0.450442       -12.2572
 199   2.0000      -0.446209       -12.1420
 200   2.0000      -0.441152       -12.0044
 201   2.0000      -0.440536       -11.9876
 202   2.0000      -0.439680       -11.9643
 203   2.0000      -0.439275       -11.9533
 204   2.0000      -0.437472       -11.9042
 205   2.0000      -0.434125       -11.8131
 206   2.0000      -0.433889       -11.8067
 207   2.0000      -0.433347       -11.7920
 208   2.0000      -0.428329       -11.6554
 209   2.0000      -0.427118       -11.6225
 210   2.0000      -0.418676       -11.3927
 211   2.0000      -0.418474       -11.3873
 212   2.0000      -0.416099       -11.3226
 213   2.0000      -0.416058       -11.3215
 214   2.0000      -0.416013       -11.3203
 215   2.0000      -0.411407       -11.1949
 216   2.0000      -0.409328       -11.1384
 217   2.0000      -0.409115       -11.1326
 218   2.0000      -0.408574       -11.1179
 219   2.0000      -0.407313       -11.0836
 220   2.0000      -0.389817       -10.6075
 221   2.0000      -0.385392       -10.4871
 222   2.0000      -0.381833       -10.3902
 223   2.0000      -0.377031       -10.2595
 224   2.0000      -0.364496        -9.9184
 225   2.0000      -0.357097        -9.7171
 226   2.0000      -0.351778        -9.5724
 227   2.0000      -0.350611        -9.5406
 228   2.0000      -0.348169        -9.4741
 229   2.0000      -0.325300        -8.8519
 230   2.0000      -0.322254        -8.7690
 231   2.0000      -0.321336        -8.7440
 232   2.0000      -0.321278        -8.7424
 233   2.0000      -0.315107        -8.5745
 234   2.0000      -0.284133        -7.7317
 235   2.0000      -0.247630        -6.7383
 236   0.0000      -0.133728        -3.6389
 237   0.0000      -0.107125        -2.9150
 238   0.0000      -0.100207        -2.7268
 239   0.0000      -0.089242        -2.4284
 240   0.0000      -0.088878        -2.4185

MULLIKEN ATOMIC CHARGES
-----------------------
   0 C :   -0.013443
   1 N :   -0.031154
   2 N :   -0.076225
   3 C :    0.035807
   4 C :   -0.043497
   5 C :   -0.013758
   6 N :    0.081012
   7 O :   -0.079169
   8 N :    0.076432
   9 C :   -0.132497
  10 C :   -0.045233
  11 C :    0.004752
  12 C :   -0.083322
  13 S :    0.251952
  14 C :   -0.079715
  15 C :    0.049574
  16 C :    0.310886
  17 C :   -0.304797
  18 C :   -0.191440
  19 N :    0.181515
  20 C :   -0.195706
  21 N :    0.182134
  22 C :   -0.070428
  23 C :   -0.181493
  24 S :    0.211671
  25 C :    0.203554
  26 C :   -0.070991
  27 C :   -0.059358
  28 N :   -0.055274
  29 C :    0.157000
  30 C :    0.148559
  31 N :    0.007501
  32 F :   -0.124756
  33 F :   -0.130174
  34 C :    0.174976
  35 C :   -0.000920
  36 C :   -0.026303
  37 N :   -0.341129
  38 S :    0.577641
  39 N :   -0.281627
  40 C :   -0.176430
  41 C :   -0.068071
  42 C :    0.044162
  43 C :   -0.074173
  44 S :    0.214090
  45 C :   -0.087222
  46 C :    0.003971
  47 C :    0.312195
  48 C :   -0.303638
  49 C :   -0.194791
  50 N :    0.183215
  51 C :   -0.187431
  52 N :    0.170266
  53 C :   -0.044495
  54 C :   -0.134862
  55 S :    0.255057
  56 C :    0.037107
  57 N :   -0.076970
  58 N :   -0.031514
  59 C :   -0.013196
  60 C :   -0.014036
  61 C :   -0.041980
  62 N :    0.075599
  63 O :   -0.079278
  64 N :    0.082071
  65 H :    0.015922
  66 H :    0.024073
  67 H :    0.026029
  68 H :    0.022386
  69 H :    0.023631
  70 H :    0.015756
Sum of atomic charges:    0.0000000

LOEWDIN ATOMIC CHARGES
----------------------
   0 C :    0.007025
   1 N :   -0.025432
   2 N :   -0.078929
   3 C :   -0.008476
   4 C :   -0.065298
   5 C :   -0.073924
   6 N :   -0.001447
   7 O :    0.095994
   8 N :   -0.002953
   9 C :   -0.189903
  10 C :   -0.002576
  11 C :   -0.072911
  12 C :   -0.163350
  13 S :    0.524304
  14 C :   -0.188504
  15 C :   -0.065563
  16 C :    0.077628
  17 C :   -0.100003
  18 C :   -0.018557
  19 N :   -0.028905
  20 C :   -0.020149
  21 N :   -0.026047
  22 C :   -0.013895
  23 C :   -0.160222
  24 S :    0.517212
  25 C :   -0.044911
  26 C :   -0.006406
  27 C :   -0.015366
  28 N :   -0.059068
  29 C :    0.066408
  30 C :    0.063339
  31 N :   -0.027955
  32 F :   -0.014243
  33 F :   -0.019954
  34 C :   -0.041205
  35 C :   -0.038283
  36 C :   -0.047049
  37 N :   -0.306286
  38 S :    0.694367
  39 N :   -0.269204
  40 C :   -0.163853
  41 C :   -0.013025
  42 C :   -0.066136
  43 C :   -0.188004
  44 S :    0.515818
  45 C :   -0.162995
  46 C :   -0.073527
  47 C :    0.078863
  48 C :   -0.101623
  49 C :   -0.020889
  50 N :   -0.025869
  51 C :   -0.015583
  52 N :   -0.034734
  53 C :   -0.002602
  54 C :   -0.189978
  55 S :    0.526716
  56 C :   -0.008473
  57 N :   -0.078285
  58 N :   -0.025295
  59 C :    0.007267
  60 C :   -0.073884
  61 C :   -0.065026
  62 N :   -0.003327
  63 O :    0.095736
  64 N :   -0.001282
  65 H :    0.038025
  66 H :    0.044454
  67 H :    0.038008
  68 H :    0.037713
  69 H :    0.044344
  70 H :    0.038139

  Mayer bond orders larger than 0.100000
B(  0-C ,  1-N ) :   1.7693 B(  0-C ,  5-C ) :   1.0866 B(  0-C , 65-H ) :   1.0172
B(  1-N ,  2-N ) :   1.1743 B(  2-N ,  3-C ) :   1.7634 B(  3-C ,  4-C ) :   1.0745
B(  3-C ,  9-C ) :   1.1680 B(  4-C ,  5-C ) :   1.1767 B(  4-C ,  8-N ) :   1.6130
B(  5-C ,  6-N ) :   1.5988 B(  6-N ,  7-O ) :   1.0852 B(  6-N ,  8-N ) :   0.1841
B(  7-O ,  8-N ) :   1.0703 B(  9-C , 10-C ) :   1.4727 B(  9-C , 13-S ) :   1.0804
B( 10-C , 11-C ) :   1.2848 B( 10-C , 66-H ) :   0.9825 B( 11-C , 12-C ) :   1.4119
B( 11-C , 16-C ) :   0.9950 B( 12-C , 13-S ) :   1.1343 B( 12-C , 14-C ) :   1.2018
B( 14-C , 15-C ) :   1.4040 B( 14-C , 24-S ) :   1.0969 B( 15-C , 16-C ) :   0.9892
B( 15-C , 22-C ) :   1.2733 B( 16-C , 17-C ) :   1.7132 B( 17-C , 18-C ) :   1.1399
B( 17-C , 20-C ) :   1.1347 B( 18-C , 19-N ) :   2.9903 B( 20-C , 21-N ) :   2.9944
B( 22-C , 23-C ) :   1.4073 B( 22-C , 67-H ) :   0.9870 B( 23-C , 24-S ) :   1.1048
B( 23-C , 25-C ) :   1.1838 B( 25-C , 26-C ) :   1.2974 B( 25-C , 34-C ) :   0.1281
B( 25-C , 36-C ) :   1.1897 B( 26-C , 27-C ) :   1.1151 B( 26-C , 31-N ) :   1.4407
B( 27-C , 28-N ) :   1.3758 B( 27-C , 34-C ) :   1.2945 B( 28-N , 29-C ) :   1.6534
B( 29-C , 30-C ) :   1.1022 B( 29-C , 33-F ) :   1.1936 B( 30-C , 31-N ) :   1.6595
B( 30-C , 32-F ) :   1.1894 B( 34-C , 35-C ) :   1.2016 B( 34-C , 40-C ) :   1.1917
B( 35-C , 36-C ) :   1.1138 B( 35-C , 39-N ) :   1.5072 B( 36-C , 37-N ) :   1.4648
B( 37-N , 38-S ) :   1.2718 B( 37-N , 39-N ) :   0.1512 B( 38-S , 39-N ) :   1.2913
B( 40-C , 41-C ) :   1.4152 B( 40-C , 44-S ) :   1.0947 B( 41-C , 42-C ) :   1.2810
B( 41-C , 68-H ) :   0.9808 B( 42-C , 43-C ) :   1.4071 B( 42-C , 47-C ) :   0.9892
B( 43-C , 44-S ) :   1.0879 B( 43-C , 45-C ) :   1.2021 B( 45-C , 46-C ) :   1.4106
B( 45-C , 55-S ) :   1.1363 B( 46-C , 47-C ) :   0.9934 B( 46-C , 53-C ) :   1.2855
B( 47-C , 48-C ) :   1.7115 B( 48-C , 49-C ) :   1.1330 B( 48-C , 51-C ) :   1.1404
B( 49-C , 50-N ) :   2.9964 B( 51-C , 52-N ) :   2.9836 B( 53-C , 54-C ) :   1.4716
B( 53-C , 69-H ) :   0.9825 B( 54-C , 55-S ) :   1.0813 B( 54-C , 56-C ) :   1.1688
B( 56-C , 57-N ) :   1.7635 B( 56-C , 59-C ) :   0.1005 B( 56-C , 61-C ) :   1.0735
B( 57-N , 58-N ) :   1.1743 B( 58-N , 59-C ) :   1.7686 B( 59-C , 60-C ) :   1.0874
B( 59-C , 70-H ) :   1.0171 B( 60-C , 61-C ) :   1.1756 B( 60-C , 64-N ) :   1.5998
B( 61-C , 62-N ) :   1.6129 B( 62-N , 63-O ) :   1.0701 B( 62-N , 64-N ) :   0.1841
B( 63-O , 64-N ) :   1.0854

-----------------------------------------------------------------------------
         ABSORPTION SPECTRUM VIA TRANSITION ELECTRIC DIPOLE MOMENTS
-----------------------------------------------------------------------------
State   Energy  Wavelength   fosc         T2         TX        TY        TZ
        (cm-1)    (nm)                  (au**2)     (au)      (au)      (au)
-----------------------------------------------------------------------------
   0    9897.5   1010.4   0.981316117  32.64073   1.53349  -0.61120  -5.46951
   1   13994.1    714.6   0.002256485   0.05308   0.08014  -0.16948  -0.13393
   2   14852.6    673.3   0.002287270   0.05070  -0.14872   0.13258  -0.10490
   3   18594.2    537.8   0.003715142   0.06578   0.07233  -0.22529   0.09895
   4   21168.0    472.4   1.046062746  16.26870   1.69695  -0.94331  -3.53543
   5   21368.7    468.0   0.000009865   0.00015   0.00956   0.00248  -0.00738
   6   21422.1    466.8   0.000052371   0.00080   0.00056   0.00137  -0.02833
   7   21462.6    465.9   0.006089198   0.09340  -0.00979  -0.27080   0.14132
   8   24010.6    416.5   0.043357603   0.59448   0.51945  -0.35386  -0.44659
   9   25338.6    394.7   0.001451957   0.01886   0.05968  -0.03627  -0.11827
  10   25750.5    388.3   0.087025891   1.11260   0.28671  -0.29844   0.97022
  11   25970.3    385.1   0.002025036   0.02567  -0.12666   0.08936  -0.04051
  12   26727.0    374.2   0.038700460   0.47670   0.35981  -0.21151  -0.55000
  13   27236.5    367.2   0.021341199   0.25795   0.37444  -0.24969  -0.23539
  14   29892.4    334.5   0.117507406   1.29414   0.87618  -0.68282   0.24535
  15   29905.2    334.4   0.022239129   0.24482   0.40258  -0.25418   0.13470
  16   30054.2    332.7   0.000258787   0.00283   0.02428   0.04738  -0.00054
  17   30175.3    331.4   0.115757487   1.26291  -0.88851   0.67214  -0.14731
  18   30311.6    329.9   0.007631703   0.08289  -0.27143   0.09476   0.01537
  19   30840.7    324.2   0.058058739   0.61975  -0.45676   0.44111  -0.46535
  20   30956.8    323.0   0.291297683   3.09783   1.02680  -0.80085   1.18413
  21   31074.8    321.8   0.062790235   0.66521   0.30880  -0.36812   0.65905
  22   31357.4    318.9   0.003047806   0.03200  -0.06253   0.03982  -0.16280
  23   31738.1    315.1   0.005352898   0.05552   0.00979  -0.00647   0.23534
  24   31940.8    313.1   1.141938843  11.76991   0.76742  -0.26214  -3.33351
  25   32473.6    307.9   0.011510084   0.11669   0.22959  -0.23220   0.10030
  26   32785.0    305.0   0.386383982   3.87989  -1.60377   1.11693   0.24551
  27   33487.5    298.6   0.007164123   0.07043   0.16643  -0.13288   0.15834
  28   33837.6    295.5   0.019922425   0.19383   0.30868  -0.30813   0.06001
  29   34206.0    292.3   0.000014416   0.00014   0.01030  -0.00572  -0.00016
  30   34212.2    292.3   0.000081388   0.00078   0.02072  -0.00367  -0.01845
  31   34558.2    289.4   0.004970239   0.04735  -0.11434   0.05419   0.17702
  32   34723.0    288.0   0.138523295   1.31335   0.94351  -0.63819  -0.12588
  33   34765.1    287.6   0.129111715   1.22264   0.50731  -0.48669   0.85346
  34   35151.3    284.5   0.572398275   5.36084  -1.78955   1.42834  -0.34381
  35   35845.8    279.0   0.123468461   1.13395  -0.77894   0.67263  -0.27344
  36   36783.7    271.9   0.169748791   1.51924  -0.68238   0.41523   0.93872
  37   37409.5    267.3   0.139529072   1.22789  -0.91677   0.58191  -0.22092
  38   37867.1    264.1   0.142751952   1.24107  -0.89051   0.63512  -0.21138
  39   37909.0    263.8   0.009411594   0.08173   0.23016  -0.14836   0.08214
  40   38224.5    261.6   0.002049575   0.01765   0.12010  -0.05505  -0.01406
  41   38806.3    257.7   0.012585855   0.10677  -0.04277   0.00039   0.32395
  42   38885.9    257.2   0.008909002   0.07542   0.20114  -0.10036   0.15778
  43   39059.7    256.0   0.198160848   1.67019  -0.90267   0.58845   0.71351
  44   39163.7    255.3   0.009507375   0.07992  -0.20555   0.13641  -0.13807
  45   39459.5    253.4   0.017237998   0.14382  -0.29579   0.23212   0.04945
  46   39841.3    251.0   0.004229077   0.03495  -0.12585   0.09011  -0.10482
  47   39957.6    250.3   0.006767746   0.05576   0.17528  -0.15091  -0.04757
  48   40088.7    249.4   0.041984614   0.34478  -0.27834   0.24835  -0.45346

FINAL SINGLE POINT ENERGY     -4740.616449077554

DIPOLE MOMENT
-------------
                                X             Y             Z
Electronic contribution:      6.66244      -6.47386       1.51900
Nuclear contribution   :     -7.00948       6.71010      -1.74001
                        -----------------------------------------
Total Dipole Moment    :     -0.34704       0.23624      -0.22100
                        -----------------------------------------
Magnitude (a.u.)       :      0.47444
Magnitude (Debye)      :      1.20592

Rotational constants in cm-1:     0.003194     0.000300     0.000275
Rotational constants in MHz :    95.768527     9.001914     8.239307

                             ****ORCA TERMINATED NORMALLY****
TOTAL RUN TIME: 0 days 0 hours 6 minutes 22 seconds 786 msec
