                         Program Version 4.2.0 -  RELEASE  -
|  1> # ORCA input file
|  2> # SCF done       -212.096231838953          0.000398064334
|  3> ! CAM-B3LYP def2-SVP def2/J RIJCOSX Grid4 TightSCF
|  4> %maxcore 5000
|  5> %tddft
|  6>     Mode sTDDFT
|  7>     Ethresh 5.0
|  8>     maxcore 5000
|  9> end
| 10>
| 11> %pal
| 12>   nprocs 6
| 13>   end
| 14> * xyz 0 1
| 15>    C       -2.32737         3.45592        -4.75764
| 16>    C       -1.38360         2.50804        -4.45977
| 17>    C       -0.26547         2.22338        -5.27273
| 18>    N        0.66282         1.94472        -5.88761
| 19>    C       -1.37965         1.67399        -3.32142
| 20>    N       -1.30340         0.95662        -2.42784
| 21>    C       -2.32655         4.29691        -5.95099
| 22>    C       -3.47449         5.12736        -5.92474
| 23>    C       -3.75976         6.03549        -6.91528
| 24>    C       -2.86621         6.13173        -7.98687
| 25>    C       -1.72086         5.29997        -8.00602
| 26>    C       -1.43461         4.38075        -7.00379
| 27>    S       -0.74974         5.58248        -9.41803
| 28>    C       -1.87883         6.79709        -9.95671
| 29>    C       -2.93036         6.98306        -9.12330
| 30>   Br       -1.56338         7.70484       -11.56671
| 31>    C       -4.24482         4.84320        -4.70432
| 32>    O       -5.29060         5.37510        -4.37038
| 33>    C       -3.50365         3.80607        -3.97991
| 34>    C       -3.85514         3.27918        -2.76412
| 35>    C       -4.95862         3.54956        -1.93996
| 36>    C       -5.12809         2.90834        -0.70643
| 37>    C       -6.27695         3.31180        -0.05380
| 38>    C       -7.00322         4.27113        -0.79497
| 39>    S       -6.27278         4.67718        -2.27609
| 40>    C       -8.16049         4.61450        -0.04415
| 41>    C       -8.16250         3.88553         1.15312
| 42>    C       -6.98288         3.04090         1.19238
| 43>    C       -6.61296         2.17900         2.18175
| 44>    C       -5.43216         1.40939         2.10693
| 45>    N       -4.47381         0.78275         2.05464
| 46>    C       -7.38438         1.99713         3.34983
| 47>    N       -8.00638         1.84385         4.30040
| 48>    C       -9.27964         4.16694         1.95828
| 49>    C      -10.09220         5.08992         1.36303
| 50>    S       -9.51822         5.64391        -0.18609
| 51>    C      -11.39187         5.64155         1.86578
| 52>    C      -12.56573         4.78333         1.35366
| 53>    N      -11.54396         6.94959         1.21628
| 54>    N      -11.85052         7.98622         1.74388
| 55>    C      -12.12677         8.19238         3.17198
| 56>    C      -11.78235         6.98609         3.96976
| 57>    C      -11.42478         5.75738         3.34412
| 58>    N      -11.15928         4.89795         4.28622
| 59>    O      -11.34092         5.54143         5.44457
| 60>    N      -11.71728         6.81081         5.25869
| 61>    C      -11.29537         9.40881         3.60242
| 62>    C      -13.59901         8.47140         3.29317
| 63>    C      -14.24999         9.04460         4.35028
| 64>    C      -15.63279         9.11983         4.12037
| 65>    C      -16.00567         8.58801         2.88030
| 66>    S      -14.66866         8.00178         1.99514
| 67>    C      -17.41608         8.69609         2.74446
| 68>    C      -17.92988         9.30640         3.90235
| 69>    C      -16.82421         9.59676         4.80410
| 70>    C      -16.88872        10.20354         6.02273
| 71>    C      -15.73440        10.45397         6.79595
| 72>    N      -14.79520        10.66920         7.41667
| 73>    C      -18.10896        10.64164         6.58136
| 74>    N      -19.09672        11.00714         7.03328
| 75>    C      -19.31126         9.46812         3.85651
| 76>    C      -19.86333         8.95056         2.69518
| 77>    S      -18.62669         8.30612         1.61738
| 78>    C      -21.23186         9.00941         2.33906
| 79>    C      -21.92035         8.30812         1.40038
| 80>    C      -21.62081         7.10196         0.65632
| 81>    C      -20.88909         6.03546         1.10961
| 82>    C      -20.70881         4.84133         0.38299
| 83>    N      -20.51672         3.85957        -0.17946
| 84>    C      -20.31300         5.98483         2.39551
| 85>    N      -19.86434         5.89670         3.44846
| 86>    C      -22.48374         7.09361        -0.51873
| 87>    C      -23.45764         8.11471        -0.37322
| 88>    C      -23.20434         8.85763         0.87712
| 89>    O      -23.85469         9.75569         1.35628
| 90>    C      -24.44766         8.32444        -1.30248
| 91>    C      -24.47017         7.49698        -2.43025
| 92>    C      -23.48446         6.48968        -2.57173
| 93>    C      -22.48827         6.27059        -1.62829
| 94>    S      -23.69455         5.59223        -4.04347
| 95>    C      -25.08704         6.56344        -4.44247
| 96>    C      -25.37985         7.51348        -3.52249
| 97>   Br      -26.01852         6.23332        -6.03554
| 98>    H       -4.64325         6.65232        -6.86464
| 99>    H       -0.54834         3.77223        -7.06661
|100>    H       -3.71895         7.69110        -9.30130
|101>    H       -3.19043         2.53500        -2.34223
|102>    H       -4.42303         2.18522        -0.33593
|103>    H       -9.48881         3.72636         2.91651
|104>    H      -12.56899         4.79361         0.26683
|105>    H      -13.51236         5.18273         1.71361
|106>    H      -12.44576         3.76488         1.71337
|107>    H      -10.23991         9.21213         3.42639
|108>    H      -11.44557         9.60057         4.66032
|109>    H      -11.59336        10.27591         3.02032
|110>    H      -13.75616         9.37568         5.24459
|111>    H      -19.90977         9.91001         4.63255
|112>    H      -21.80217         9.78772         2.83868
|113>    H      -25.18321         9.10108        -1.16386
|114>    H      -21.75410         5.49603        -1.77767
|115>    H      -26.20304         8.19883        -3.60920
|116> *
|117>
|118>                          ****END OF INPUT****

CARTESIAN COORDINATES (ANGSTROEM)
---------------------------------
  C     -2.327370    3.455920   -4.757640
  C     -1.383600    2.508040   -4.459770
  C     -0.265470    2.223380   -5.272730
  N      0.662820    1.944720   -5.887610
  C     -1.379650    1.673990   -3.321420
  N     -1.303400    0.956620   -2.427840
  C     -2.326550    4.296910   -5.950990
  C     -3.474490    5.127360   -5.924740
  C     -3.759760    6.035490   -6.915280
  C     -2.866210    6.131730   -7.986870
  C     -1.720860    5.299970   -8.006020
  C     -1.434610    4.380750   -7.003790
  S     -0.749740    5.582480   -9.418030
  C     -1.878830    6.797090   -9.956710
  C     -2.930360    6.983060   -9.123300
  Br    -1.563380    7.704840  -11.566710
  C     -4.244820    4.843200   -4.704320
  O     -5.290600    5.375100   -4.370380
  C     -3.503650    3.806070   -3.979910
  C     -3.855140    3.279180   -2.764120
  C     -4.958620    3.549560   -1.939960
  C     -5.128090    2.908340   -0.706430
  C     -6.276950    3.311800   -0.053800
  C     -7.003220    4.271130   -0.794970
  S     -6.272780    4.677180   -2.276090
  C     -8.160490    4.614500   -0.044150
  C     -8.162500    3.885530    1.153120
  C     -6.982880    3.040900    1.192380
  C     -6.612960    2.179000    2.181750
  C     -5.432160    1.409390    2.106930
  N     -4.473810    0.782750    2.054640
  C     -7.384380    1.997130    3.349830
  N     -8.006380    1.843850    4.300400
  C     -9.279640    4.166940    1.958280
  C    -10.092200    5.089920    1.363030
  S     -9.518220    5.643910   -0.186090
  C    -11.391870    5.641550    1.865780
  C    -12.565730    4.783330    1.353660
  N    -11.543960    6.949590    1.216280
  N    -11.850520    7.986220    1.743880
  C    -12.126770    8.192380    3.171980
  C    -11.782350    6.986090    3.969760
  C    -11.424780    5.757380    3.344120
  N    -11.159280    4.897950    4.286220
  O    -11.340920    5.541430    5.444570
  N    -11.717280    6.810810    5.258690
  C    -11.295370    9.408810    3.602420
  C    -13.599010    8.471400    3.293170
  C    -14.249990    9.044600    4.350280
  C    -15.632790    9.119830    4.120370
  C    -16.005670    8.588010    2.880300
  S    -14.668660    8.001780    1.995140
  C    -17.416080    8.696090    2.744460
  C    -17.929880    9.306400    3.902350
  C    -16.824210    9.596760    4.804100
  C    -16.888720   10.203540    6.022730
  C    -15.734400   10.453970    6.795950
  N    -14.795200   10.669200    7.416670
  C    -18.108960   10.641640    6.581360
  N    -19.096720   11.007140    7.033280
  C    -19.311260    9.468120    3.856510
  C    -19.863330    8.950560    2.695180
  S    -18.626690    8.306120    1.617380
  C    -21.231860    9.009410    2.339060
  C    -21.920350    8.308120    1.400380
  C    -21.620810    7.101960    0.656320
  C    -20.889090    6.035460    1.109610
  C    -20.708810    4.841330    0.382990
  N    -20.516720    3.859570   -0.179460
  C    -20.313000    5.984830    2.395510
  N    -19.864340    5.896700    3.448460
  C    -22.483740    7.093610   -0.518730
  C    -23.457640    8.114710   -0.373220
  C    -23.204340    8.857630    0.877120
  O    -23.854690    9.755690    1.356280
  C    -24.447660    8.324440   -1.302480
  C    -24.470170    7.496980   -2.430250
  C    -23.484460    6.489680   -2.571730
  C    -22.488270    6.270590   -1.628290
  S    -23.694550    5.592230   -4.043470
  C    -25.087040    6.563440   -4.442470
  C    -25.379850    7.513480   -3.522490
  Br   -26.018520    6.233320   -6.035540
  H     -4.643250    6.652320   -6.864640
  H     -0.548340    3.772230   -7.066610
  H     -3.718950    7.691100   -9.301300
  H     -3.190430    2.535000   -2.342230
  H     -4.423030    2.185220   -0.335930
  H     -9.488810    3.726360    2.916510
  H    -12.568990    4.793610    0.266830
  H    -13.512360    5.182730    1.713610
  H    -12.445760    3.764880    1.713370
  H    -10.239910    9.212130    3.426390
  H    -11.445570    9.600570    4.660320
  H    -11.593360   10.275910    3.020320
  H    -13.756160    9.375680    5.244590
  H    -19.909770    9.910010    4.632550
  H    -21.802170    9.787720    2.838680
  H    -25.183210    9.101080   -1.163860
  H    -21.754100    5.496030   -1.777670
  H    -26.203040    8.198830   -3.609200

 Total Charge           Charge          ....    0
 Multiplicity           Mult            ....    1
 Number of Electrons    NEL             ....  652
 Basis Dimension        Dim             .... 1312

ORBITAL ENERGIES
----------------

  NO   OCC          E(Eh)            E(eV)
   0   2.0000    -482.892067    -13140.1612
   1   2.0000    -482.889698    -13140.0967
   2   2.0000     -89.009185     -2422.0631
   3   2.0000     -89.004770     -2421.9429
   4   2.0000     -88.997973     -2421.7580
   5   2.0000     -88.993465     -2421.6353
   6   2.0000     -88.983459     -2421.3630
   7   2.0000     -88.980277     -2421.2764
   8   2.0000     -62.569776     -1702.6102
   9   2.0000     -62.567403     -1702.5456
  10   2.0000     -56.403736     -1534.8237
  11   2.0000     -56.401359     -1534.7590
  12   2.0000     -56.401001     -1534.7493
  13   2.0000     -56.400975     -1534.7486
  14   2.0000     -56.398632     -1534.6848
  15   2.0000     -56.398603     -1534.6840
  16   2.0000     -19.363586      -526.9100
  17   2.0000     -19.229789      -523.2692
  18   2.0000     -19.223888      -523.1086
  19   2.0000     -14.506562      -394.7436
  20   2.0000     -14.502861      -394.6429
  21   2.0000     -14.502566      -394.6349
  22   2.0000     -14.501422      -394.6037
  23   2.0000     -14.440121      -392.9357
  24   2.0000     -14.439763      -392.9259
  25   2.0000     -14.431805      -392.7094
  26   2.0000     -14.431531      -392.7019
  27   2.0000     -14.426136      -392.5551
  28   2.0000     -14.424434      -392.5088
  29   2.0000     -14.420356      -392.3978
  30   2.0000     -14.417998      -392.3337
  31   2.0000     -10.377324      -282.3813
  32   2.0000     -10.377015      -282.3729
  33   2.0000     -10.375527      -282.3325
  34   2.0000     -10.371984      -282.2360
  35   2.0000     -10.370973      -282.2085
  36   2.0000     -10.368230      -282.1339
  37   2.0000     -10.366343      -282.0825
  38   2.0000     -10.363653      -282.0093
  39   2.0000     -10.363489      -282.0049
  40   2.0000     -10.355772      -281.7949
  41   2.0000     -10.354263      -281.7538
  42   2.0000     -10.353414      -281.7307
  43   2.0000     -10.352737      -281.7123
  44   2.0000     -10.349980      -281.6373
  45   2.0000     -10.348863      -281.6069
  46   2.0000     -10.346758      -281.5496
  47   2.0000     -10.346117      -281.5322
  48   2.0000     -10.345941      -281.5274
  49   2.0000     -10.344646      -281.4921
  50   2.0000     -10.339872      -281.3622
  51   2.0000     -10.339389      -281.3491
  52   2.0000     -10.337205      -281.2896
  53   2.0000     -10.336948      -281.2827
  54   2.0000     -10.335770      -281.2506
  55   2.0000     -10.335590      -281.2457
  56   2.0000     -10.334521      -281.2166
  57   2.0000     -10.333427      -281.1869
  58   2.0000     -10.331474      -281.1337
  59   2.0000     -10.331218      -281.1267
  60   2.0000     -10.331172      -281.1255
  61   2.0000     -10.330588      -281.1096
  62   2.0000     -10.329898      -281.0908
  63   2.0000     -10.328443      -281.0512
  64   2.0000     -10.326352      -280.9943
  65   2.0000     -10.322753      -280.8964
  66   2.0000     -10.321619      -280.8655
  67   2.0000     -10.320988      -280.8484
  68   2.0000     -10.320750      -280.8419
  69   2.0000     -10.318419      -280.7785
  70   2.0000     -10.316511      -280.7265
  71   2.0000     -10.316431      -280.7244
  72   2.0000     -10.316272      -280.7200
  73   2.0000     -10.315951      -280.7113
  74   2.0000     -10.315246      -280.6921
  75   2.0000     -10.313376      -280.6412
  76   2.0000     -10.312758      -280.6244
  77   2.0000     -10.312682      -280.6223
  78   2.0000     -10.310337      -280.5585
  79   2.0000     -10.310005      -280.5495
  80   2.0000     -10.308352      -280.5045
  81   2.0000     -10.308039      -280.4960
  82   2.0000     -10.307346      -280.4771
  83   2.0000     -10.306995      -280.4676
  84   2.0000     -10.303904      -280.3835
  85   2.0000     -10.303460      -280.3714
  86   2.0000     -10.302656      -280.3495
  87   2.0000     -10.302213      -280.3375
  88   2.0000     -10.301358      -280.3142
  89   2.0000     -10.299180      -280.2549
  90   2.0000     -10.298309      -280.2312
  91   2.0000      -8.799206      -239.4386
  92   2.0000      -8.796829      -239.3739
  93   2.0000      -8.103395      -220.5046
  94   2.0000      -8.099044      -220.3862
  95   2.0000      -8.091882      -220.1913
  96   2.0000      -8.085749      -220.0244
  97   2.0000      -8.079461      -219.8533
  98   2.0000      -8.076274      -219.7666
  99   2.0000      -6.635553      -180.5626
 100   2.0000      -6.633161      -180.4975
 101   2.0000      -6.620937      -180.1649
 102   2.0000      -6.620689      -180.1581
 103   2.0000      -6.618564      -180.1003
 104   2.0000      -6.618328      -180.0939
 105   2.0000      -6.072625      -165.2445
 106   2.0000      -6.068353      -165.1283
 107   2.0000      -6.068298      -165.1268
 108   2.0000      -6.065918      -165.0620
 109   2.0000      -6.064046      -165.0111
 110   2.0000      -6.061464      -164.9408
 111   2.0000      -6.061136      -164.9319
 112   2.0000      -6.056754      -164.8126
 113   2.0000      -6.055138      -164.7687
 114   2.0000      -6.054499      -164.7513
 115   2.0000      -6.050401      -164.6398
 116   2.0000      -6.049140      -164.6055
 117   2.0000      -6.048362      -164.5843
 118   2.0000      -6.045938      -164.5183
 119   2.0000      -6.044873      -164.4894
 120   2.0000      -6.041679      -164.4025
 121   2.0000      -6.040685      -164.3754
 122   2.0000      -6.037515      -164.2891
 123   2.0000      -2.751399       -74.8694
 124   2.0000      -2.749012       -74.8044
 125   2.0000      -2.747291       -74.7576
 126   2.0000      -2.747182       -74.7546
 127   2.0000      -2.744916       -74.6929
 128   2.0000      -2.744792       -74.6896
 129   2.0000      -2.735528       -74.4375
 130   2.0000      -2.735514       -74.4371
 131   2.0000      -2.733166       -74.3732
 132   2.0000      -2.733150       -74.3728
 133   2.0000      -1.322403       -35.9844
 134   2.0000      -1.189952       -32.3802
 135   2.0000      -1.145189       -31.1622
 136   2.0000      -1.139833       -31.0164
 137   2.0000      -1.060523       -28.8583
 138   2.0000      -1.051065       -28.6009
 139   2.0000      -1.037021       -28.2188
 140   2.0000      -1.033490       -28.1227
 141   2.0000      -1.031797       -28.0766
 142   2.0000      -1.028031       -27.9741
 143   2.0000      -1.024243       -27.8711
 144   2.0000      -1.023213       -27.8430
 145   2.0000      -1.018710       -27.7205
 146   2.0000      -1.017892       -27.6982
 147   2.0000      -1.016751       -27.6672
 148   2.0000      -1.012259       -27.5450
 149   2.0000      -1.008885       -27.4532
 150   2.0000      -1.004173       -27.3249
 151   2.0000      -1.001195       -27.2439
 152   2.0000      -0.998925       -27.1821
 153   2.0000      -0.998062       -27.1586
 154   2.0000      -0.994935       -27.0736
 155   2.0000      -0.981053       -26.6958
 156   2.0000      -0.969227       -26.3740
 157   2.0000      -0.956181       -26.0190
 158   2.0000      -0.951661       -25.8960
 159   2.0000      -0.947430       -25.7809
 160   2.0000      -0.931955       -25.3598
 161   2.0000      -0.922310       -25.0973
 162   2.0000      -0.917480       -24.9659
 163   2.0000      -0.913584       -24.8599
 164   2.0000      -0.912164       -24.8212
 165   2.0000      -0.901112       -24.5205
 166   2.0000      -0.894836       -24.3497
 167   2.0000      -0.894684       -24.3456
 168   2.0000      -0.890947       -24.2439
 169   2.0000      -0.884065       -24.0566
 170   2.0000      -0.877170       -23.8690
 171   2.0000      -0.871750       -23.7215
 172   2.0000      -0.865054       -23.5393
 173   2.0000      -0.862346       -23.4656
 174   2.0000      -0.860701       -23.4209
 175   2.0000      -0.837833       -22.7986
 176   2.0000      -0.834529       -22.7087
 177   2.0000      -0.815336       -22.1864
 178   2.0000      -0.812115       -22.0988
 179   2.0000      -0.806967       -21.9587
 180   2.0000      -0.800284       -21.7768
 181   2.0000      -0.788544       -21.4574
 182   2.0000      -0.786545       -21.4030
 183   2.0000      -0.780024       -21.2255
 184   2.0000      -0.778353       -21.1801
 185   2.0000      -0.770655       -20.9706
 186   2.0000      -0.766462       -20.8565
 187   2.0000      -0.764245       -20.7962
 188   2.0000      -0.738364       -20.0919
 189   2.0000      -0.730393       -19.8750
 190   2.0000      -0.718743       -19.5580
 191   2.0000      -0.713550       -19.4167
 192   2.0000      -0.710740       -19.3402
 193   2.0000      -0.701381       -19.0855
 194   2.0000      -0.698742       -19.0137
 195   2.0000      -0.698036       -18.9945
 196   2.0000      -0.697411       -18.9775
 197   2.0000      -0.693538       -18.8721
 198   2.0000      -0.687577       -18.7099
 199   2.0000      -0.681670       -18.5492
 200   2.0000      -0.677856       -18.4454
 201   2.0000      -0.669706       -18.2236
 202   2.0000      -0.664628       -18.0855
 203   2.0000      -0.658047       -17.9064
 204   2.0000      -0.651955       -17.7406
 205   2.0000      -0.647149       -17.6098
 206   2.0000      -0.646883       -17.6026
 207   2.0000      -0.640087       -17.4177
 208   2.0000      -0.633815       -17.2470
 209   2.0000      -0.633197       -17.2302
 210   2.0000      -0.631516       -17.1844
 211   2.0000      -0.627212       -17.0673
 212   2.0000      -0.624794       -17.0015
 213   2.0000      -0.620821       -16.8934
 214   2.0000      -0.612703       -16.6725
 215   2.0000      -0.609912       -16.5966
 216   2.0000      -0.607575       -16.5330
 217   2.0000      -0.600993       -16.3539
 218   2.0000      -0.591879       -16.1058
 219   2.0000      -0.586544       -15.9607
 220   2.0000      -0.582230       -15.8433
 221   2.0000      -0.579836       -15.7782
 222   2.0000      -0.571474       -15.5506
 223   2.0000      -0.563408       -15.3311
 224   2.0000      -0.562032       -15.2937
 225   2.0000      -0.560713       -15.2578
 226   2.0000      -0.556699       -15.1485
 227   2.0000      -0.552136       -15.0244
 228   2.0000      -0.550386       -14.9768
 229   2.0000      -0.548596       -14.9281
 230   2.0000      -0.547689       -14.9034
 231   2.0000      -0.546499       -14.8710
 232   2.0000      -0.544821       -14.8253
 233   2.0000      -0.540417       -14.7055
 234   2.0000      -0.538803       -14.6616
 235   2.0000      -0.538650       -14.6574
 236   2.0000      -0.532771       -14.4974
 237   2.0000      -0.526790       -14.3347
 238   2.0000      -0.525939       -14.3115
 239   2.0000      -0.520629       -14.1670
 240   2.0000      -0.519705       -14.1419
 241   2.0000      -0.517998       -14.0954
 242   2.0000      -0.516735       -14.0611
 243   2.0000      -0.515642       -14.0313
 244   2.0000      -0.515083       -14.0161
 245   2.0000      -0.512496       -13.9457
 246   2.0000      -0.509673       -13.8689
 247   2.0000      -0.509052       -13.8520
 248   2.0000      -0.506728       -13.7888
 249   2.0000      -0.504336       -13.7237
 250   2.0000      -0.503106       -13.6902
 251   2.0000      -0.502138       -13.6639
 252   2.0000      -0.500818       -13.6279
 253   2.0000      -0.500135       -13.6094
 254   2.0000      -0.497760       -13.5447
 255   2.0000      -0.494306       -13.4507
 256   2.0000      -0.492773       -13.4090
 257   2.0000      -0.488102       -13.2819
 258   2.0000      -0.486445       -13.2369
 259   2.0000      -0.482442       -13.1279
 260   2.0000      -0.479858       -13.0576
 261   2.0000      -0.478721       -13.0266
 262   2.0000      -0.475852       -12.9486
 263   2.0000      -0.472778       -12.8649
 264   2.0000      -0.470192       -12.7946
 265   2.0000      -0.468859       -12.7583
 266   2.0000      -0.466918       -12.7055
 267   2.0000      -0.466558       -12.6957
 268   2.0000      -0.464730       -12.6459
 269   2.0000      -0.461544       -12.5592
 270   2.0000      -0.459139       -12.4938
 271   2.0000      -0.458618       -12.4796
 272   2.0000      -0.458047       -12.4641
 273   2.0000      -0.455252       -12.3880
 274   2.0000      -0.454100       -12.3567
 275   2.0000      -0.453378       -12.3370
 276   2.0000      -0.452680       -12.3180
 277   2.0000      -0.451664       -12.2904
 278   2.0000      -0.451285       -12.2801
 279   2.0000      -0.449696       -12.2368
 280   2.0000      -0.448891       -12.2149
 281   2.0000      -0.447357       -12.1732
 282   2.0000      -0.447021       -12.1641
 283   2.0000      -0.444113       -12.0849
 284   2.0000      -0.441517       -12.0143
 285   2.0000      -0.440805       -11.9949
 286   2.0000      -0.439987       -11.9727
 287   2.0000      -0.437877       -11.9152
 288   2.0000      -0.437523       -11.9056
 289   2.0000      -0.436127       -11.8676
 290   2.0000      -0.432625       -11.7723
 291   2.0000      -0.430879       -11.7248
 292   2.0000      -0.429569       -11.6892
 293   2.0000      -0.428945       -11.6722
 294   2.0000      -0.424277       -11.5452
 295   2.0000      -0.420524       -11.4430
 296   2.0000      -0.419716       -11.4211
 297   2.0000      -0.414618       -11.2823
 298   2.0000      -0.414038       -11.2665
 299   2.0000      -0.412891       -11.2353
 300   2.0000      -0.410574       -11.1723
 301   2.0000      -0.408869       -11.1259
 302   2.0000      -0.400491       -10.8979
 303   2.0000      -0.397712       -10.8223
 304   2.0000      -0.396717       -10.7952
 305   2.0000      -0.393791       -10.7156
 306   2.0000      -0.391954       -10.6656
 307   2.0000      -0.381390       -10.3781
 308   2.0000      -0.379035       -10.3141
 309   2.0000      -0.371544       -10.1102
 310   2.0000      -0.368576       -10.0295
 311   2.0000      -0.362582        -9.8664
 312   2.0000      -0.354174        -9.6376
 313   2.0000      -0.352021        -9.5790
 314   2.0000      -0.346148        -9.4192
 315   2.0000      -0.338649        -9.2151
 316   2.0000      -0.337445        -9.1823
 317   2.0000      -0.333428        -9.0730
 318   2.0000      -0.326716        -8.8904
 319   2.0000      -0.325297        -8.8518
 320   2.0000      -0.323709        -8.8086
 321   2.0000      -0.320253        -8.7145
 322   2.0000      -0.302537        -8.2324
 323   2.0000      -0.298866        -8.1326
 324   2.0000      -0.282901        -7.6981
 325   2.0000      -0.275452        -7.4954
 326   0.0000      -0.120512        -3.2793
 327   0.0000      -0.111930        -3.0458
 328   0.0000      -0.096612        -2.6289
 329   0.0000      -0.090718        -2.4686
 330   0.0000      -0.067597        -1.8394

MULLIKEN ATOMIC CHARGES
-----------------------
   0 C :    0.326241
   1 C :   -0.352269
   2 C :   -0.187888
   3 N :    0.152132
   4 C :   -0.191252
   5 N :    0.156243
   6 C :    0.011350
   7 C :   -0.010767
   8 C :   -0.070840
   9 C :    0.119331
  10 C :   -0.093147
  11 C :   -0.019064
  12 S :    0.190287
  13 C :   -0.122988
  14 C :    0.036926
  15 Br:    0.026406
  16 C :    0.164080
  17 O :   -0.190991
  18 C :   -0.087088
  19 C :   -0.032738
  20 C :   -0.053566
  21 C :   -0.064162
  22 C :    0.050898
  23 C :   -0.072890
  24 S :    0.241892
  25 C :   -0.105534
  26 C :   -0.003193
  27 C :    0.304260
  28 C :   -0.295305
  29 C :   -0.195800
  30 N :    0.186202
  31 C :   -0.191339
  32 N :    0.182560
  33 C :    0.002117
  34 C :   -0.155070
  35 S :    0.232278
  36 C :   -0.036241
  37 C :    0.165863
  38 N :   -0.098586
  39 N :   -0.106400
  40 C :   -0.116450
  41 C :   -0.015033
  42 C :   -0.084798
  43 N :    0.057507
  44 O :   -0.109808
  45 N :    0.064945
  46 C :    0.128930
  47 C :   -0.079989
  48 C :   -0.004981
  49 C :   -0.003208
  50 C :   -0.104790
  51 S :    0.212244
  52 C :   -0.082503
  53 C :    0.020500
  54 C :    0.298624
  55 C :   -0.286427
  56 C :   -0.188191
  57 N :    0.177079
  58 C :   -0.187421
  59 N :    0.184569
  60 C :    0.007636
  61 C :   -0.090274
  62 S :    0.207984
  63 C :    0.041681
  64 C :   -0.130994
  65 C :    0.241435
  66 C :   -0.325824
  67 C :   -0.172067
  68 N :    0.154325
  69 C :   -0.213107
  70 N :    0.178584
  71 C :    0.005530
  72 C :    0.003660
  73 C :    0.137431
  74 O :   -0.138868
  75 C :   -0.070053
  76 C :    0.111814
  77 C :   -0.087062
  78 C :   -0.021186
  79 S :    0.187118
  80 C :   -0.125644
  81 C :    0.041768
  82 Br:    0.028709
  83 H :   -0.010355
  84 H :   -0.005935
  85 H :   -0.002579
  86 H :    0.017181
  87 H :    0.028936
  88 H :    0.020382
  89 H :    0.034271
  90 H :    0.018146
  91 H :    0.046597
  92 H :    0.028388
  93 H :    0.051544
  94 H :    0.040603
  95 H :    0.016945
  96 H :    0.020297
  97 H :    0.036378
  98 H :   -0.004661
  99 H :   -0.001411
 100 H :   -0.000071
Sum of atomic charges:   -0.0000000

LOEWDIN ATOMIC CHARGES
----------------------
   0 C :    0.076453
   1 C :   -0.140150
   2 C :   -0.017962
   3 N :   -0.051883
   4 C :   -0.023594
   5 N :   -0.045833
   6 C :   -0.019724
   7 C :   -0.051744
   8 C :    0.022455
   9 C :   -0.032964
  10 C :   -0.143319
  11 C :   -0.008378
  12 S :    0.436338
  13 C :   -0.271022
  14 C :   -0.070751
  15 Br:    0.139021
  16 C :    0.086187
  17 O :   -0.175848
  18 C :   -0.112292
  19 C :    0.057829
  20 C :   -0.185473
  21 C :    0.013187
  22 C :   -0.078291
  23 C :   -0.166799
  24 S :    0.548178
  25 C :   -0.190003
  26 C :   -0.057657
  27 C :    0.075730
  28 C :   -0.097927
  29 C :   -0.020079
  30 N :   -0.023441
  31 C :   -0.020234
  32 N :   -0.023599
  33 C :   -0.034170
  34 C :   -0.165983
  35 S :    0.503530
  36 C :   -0.050177
  37 C :   -0.019274
  38 N :   -0.011633
  39 N :   -0.014985
  40 C :   -0.049225
  41 C :   -0.066481
  42 C :   -0.062045
  43 N :   -0.002885
  44 O :    0.062087
  45 N :   -0.004844
  46 C :   -0.017958
  47 C :   -0.158675
  48 C :   -0.025534
  49 C :   -0.054808
  50 C :   -0.187926
  51 S :    0.495219
  52 C :   -0.154320
  53 C :   -0.071903
  54 C :    0.078688
  55 C :   -0.092591
  56 C :   -0.016988
  57 N :   -0.024994
  58 C :   -0.017454
  59 N :   -0.023277
  60 C :    0.014581
  61 C :   -0.178217
  62 S :    0.511779
  63 C :    0.051347
  64 C :   -0.099003
  65 C :    0.061338
  66 C :   -0.144964
  67 C :   -0.020903
  68 N :   -0.048848
  69 C :   -0.037949
  70 N :   -0.046480
  71 C :   -0.019007
  72 C :   -0.052664
  73 C :    0.084094
  74 O :   -0.138288
  75 C :    0.024499
  76 C :   -0.032113
  77 C :   -0.142758
  78 C :   -0.012199
  79 S :    0.434300
  80 C :   -0.270498
  81 C :   -0.069545
  82 Br:    0.140794
  83 H :    0.040891
  84 H :    0.041601
  85 H :    0.038967
  86 H :    0.054024
  87 H :    0.048267
  88 H :    0.042384
  89 H :    0.034180
  90 H :    0.022076
  91 H :    0.043143
  92 H :    0.035370
  93 H :    0.040285
  94 H :    0.038896
  95 H :    0.044820
  96 H :    0.047835
  97 H :    0.056167
  98 H :    0.042936
  99 H :    0.041087
 100 H :    0.039975

  Mayer bond orders larger than 0.100000
B(  0-C ,  1-C ) :   1.6265 B(  0-C ,  6-C ) :   0.9988 B(  0-C , 18-C ) :   1.0765
B(  1-C ,  2-C ) :   1.1466 B(  1-C ,  4-C ) :   1.1433 B(  2-C ,  3-N ) :   2.9662
B(  4-C ,  5-N ) :   2.9603 B(  6-C ,  7-C ) :   1.2741 B(  6-C , 11-C ) :   1.4149
B(  7-C ,  8-C ) :   1.4188 B(  7-C , 16-C ) :   0.9632 B(  8-C ,  9-C ) :   1.2454
B(  8-C , 83-H ) :   1.0173 B(  9-C , 10-C ) :   1.3044 B(  9-C , 14-C ) :   1.1634
B( 10-C , 11-C ) :   1.3282 B( 10-C , 12-S ) :   1.0891 B( 11-C , 84-H ) :   0.9793
B( 12-S , 13-C ) :   1.0874 B( 13-C , 14-C ) :   1.6160 B( 13-C , 15-Br) :   1.0200
B( 14-C , 85-H ) :   1.0009 B( 16-C , 17-O ) :   2.1108 B( 16-C , 18-C ) :   0.9844
B( 18-C , 19-C ) :   1.4938 B( 19-C , 20-C ) :   1.2663 B( 19-C , 86-H ) :   0.9394
B( 20-C , 21-C ) :   1.3288 B( 20-C , 24-S ) :   1.0690 B( 21-C , 22-C ) :   1.3279
B( 21-C , 87-H ) :   1.0093 B( 22-C , 23-C ) :   1.3705 B( 22-C , 27-C ) :   0.9808
B( 23-C , 24-S ) :   1.1310 B( 23-C , 25-C ) :   1.1892 B( 25-C , 26-C ) :   1.4658
B( 25-C , 35-S ) :   1.0973 B( 26-C , 27-C ) :   1.0076 B( 26-C , 33-C ) :   1.2406
B( 27-C , 28-C ) :   1.7176 B( 28-C , 29-C ) :   1.1361 B( 28-C , 31-C ) :   1.1314
B( 29-C , 30-N ) :   2.9939 B( 31-C , 32-N ) :   2.9926 B( 33-C , 34-C ) :   1.5774
B( 33-C , 88-H ) :   0.9871 B( 34-C , 35-S ) :   1.1459 B( 34-C , 36-C ) :   0.9326
B( 36-C , 37-C ) :   1.0568 B( 36-C , 38-N ) :   0.9438 B( 36-C , 42-C ) :   0.9483
B( 37-C , 89-H ) :   0.9488 B( 37-C , 90-H ) :   0.9457 B( 37-C , 91-H ) :   0.9567
B( 38-N , 39-N ) :   1.8629 B( 39-N , 40-C ) :   0.9357 B( 40-C , 41-C ) :   0.9140
B( 40-C , 46-C ) :   1.0882 B( 40-C , 47-C ) :   0.9459 B( 41-C , 42-C ) :   1.2485
B( 41-C , 45-N ) :   1.7210 B( 42-C , 43-N ) :   1.6969 B( 43-N , 44-O ) :   1.0492
B( 43-N , 45-N ) :   0.1508 B( 44-O , 45-N ) :   1.0513 B( 46-C , 92-H ) :   0.9509
B( 46-C , 93-H ) :   0.9501 B( 46-C , 94-H ) :   0.9583 B( 47-C , 48-C ) :   1.5621
B( 47-C , 51-S ) :   1.1408 B( 48-C , 49-C ) :   1.2655 B( 48-C , 95-H ) :   0.9967
B( 49-C , 50-C ) :   1.4629 B( 49-C , 54-C ) :   1.0011 B( 50-C , 51-S ) :   1.1191
B( 50-C , 52-C ) :   1.1935 B( 52-C , 53-C ) :   1.4182 B( 52-C , 62-S ) :   1.1604
B( 53-C , 54-C ) :   0.9908 B( 53-C , 60-C ) :   1.2984 B( 54-C , 55-C ) :   1.7224
B( 55-C , 56-C ) :   1.1336 B( 55-C , 58-C ) :   1.1307 B( 56-C , 57-N ) :   2.9902
B( 58-C , 59-N ) :   2.9949 B( 60-C , 61-C ) :   1.4071 B( 60-C , 96-H ) :   1.0012
B( 61-C , 62-S ) :   1.0881 B( 61-C , 63-C ) :   1.1349 B( 63-C , 64-C ) :   1.6521
B( 63-C , 97-H ) :   0.9451 B( 64-C , 65-C ) :   1.0321 B( 64-C , 73-C ) :   0.9356
B( 65-C , 66-C ) :   1.6530 B( 65-C , 71-C ) :   1.0204 B( 66-C , 67-C ) :   1.1272
B( 66-C , 69-C ) :   1.1589 B( 67-C , 68-N ) :   2.9920 B( 69-C , 70-N ) :   3.0223
B( 71-C , 72-C ) :   1.2730 B( 71-C , 78-C ) :   1.4135 B( 72-C , 73-C ) :   0.9229
B( 72-C , 75-C ) :   1.4250 B( 73-C , 74-O ) :   2.2711 B( 75-C , 76-C ) :   1.2540
B( 75-C , 98-H ) :   1.0168 B( 76-C , 77-C ) :   1.3030 B( 76-C , 81-C ) :   1.1654
B( 77-C , 78-C ) :   1.3299 B( 77-C , 79-S ) :   1.0848 B( 78-C , 99-H ) :   0.9840
B( 79-S , 80-C ) :   1.0873 B( 80-C , 81-C ) :   1.6166 B( 80-C , 82-Br) :   1.0215
B( 81-C ,100-H ) :   1.0007

-----------------------------------------------------------------------------
         ABSORPTION SPECTRUM VIA TRANSITION ELECTRIC DIPOLE MOMENTS
-----------------------------------------------------------------------------
State   Energy  Wavelength   fosc         T2         TX        TY        TZ
        (cm-1)    (nm)                  (au**2)     (au)      (au)      (au)
-----------------------------------------------------------------------------
   0   15796.7    633.0   0.143845412   2.99782  -1.66531  -0.27195  -0.38809
   1   16678.5    599.6   0.177575099   3.50510  -1.34988   0.18905   1.28343
   2   22051.1    453.5   0.592610457   8.84737  -2.47736  -1.16207  -1.16604
   3   22983.5    435.1   1.122949564  16.08496   2.63547  -0.30397  -3.00780
   4   25174.5    397.2   0.000130457   0.00171   0.04120  -0.00068  -0.00283
   5   25549.8    391.4   0.140184238   1.80629   0.65069  -0.20477   1.15800
   6   26633.5    375.5   0.030914164   0.38212   0.36047  -0.45766   0.20672
   7   27908.9    358.3   0.316476770   3.73315   0.45013   0.85775  -1.67177
   8   28150.1    355.2   0.016750348   0.19589  -0.41391   0.11807  -0.10309
   9   28346.0    352.8   0.053231377   0.61823   0.06956   0.36840   0.69114
  10   28456.5    351.4   0.005920366   0.06849  -0.21021  -0.01274   0.15538
  11   28688.0    348.6   0.054083405   0.62064   0.61882  -0.35525  -0.33391
  12   29253.4    341.8   0.002109583   0.02374  -0.12044  -0.00331  -0.09604
  13   29378.2    340.4   0.044804539   0.50208  -0.68059  -0.00142  -0.19717
  14   29461.7    339.4   0.024521301   0.27401   0.52098   0.04841   0.01575
  15   29488.7    339.1   0.148711744   1.66022  -0.32354  -0.53726   1.12557
  16   30351.6    329.5   0.965072814  10.46775  -1.89191  -0.52360  -2.57182
  17   30381.5    329.1   0.143396445   1.55384  -0.24639   0.99956  -0.70285
  18   30821.8    324.4   0.234105017   2.50051  -1.22928   0.68402   0.72214
  19   30977.2    322.8   0.284302203   3.02144  -0.15770  -0.75518   1.55765
  20   31384.7    318.6   0.012393789   0.13001  -0.34915   0.07189   0.05416
  21   31640.6    316.0   0.118615464   1.23416  -0.37804   0.31682  -0.99543
  22   31653.6    315.9   0.012499833   0.13000  -0.14184   0.12780  -0.30586
  23   32524.3    307.5   0.499656639   5.05753   1.18842  -1.55527   1.10741
  24   32715.3    305.7   0.224264996   2.25676   1.20437  -0.42385   0.79158
  25   32769.1    305.2   0.227049818   2.28104   0.37508  -1.03980   1.02916
  26   33113.4    302.0   0.004381411   0.04356  -0.16458   0.08768  -0.09372
  27   33164.3    301.5   0.110733002   1.09921   0.74819  -0.00335   0.73445
  28   33268.5    300.6   0.000639036   0.00632  -0.02332   0.01363  -0.07479
  29   33725.6    296.5   0.109352382   1.06744  -1.00029   0.07612   0.24713
  30   34243.0    292.0   0.281108914   2.70258  -0.57035  -0.41710   1.48436
  31   34667.2    288.5   0.122009500   1.15865  -0.35800   0.91012   0.44962
  32   34768.0    287.6   0.159207913   1.50751  -0.12168   0.80932   0.91527
  33   34903.0    286.5   0.440247615   4.15251  -0.44493   0.88239  -1.78212
  34   35250.0    283.7   0.000722148   0.00674   0.05103  -0.05247   0.03725
  35   35352.3    282.9   0.173971858   1.62008  -0.98837   0.65707  -0.45987
  36   35437.5    282.2   0.026439260   0.24562  -0.29645  -0.12728   0.37622
  37   35489.9    281.8   0.001899376   0.01762  -0.12305   0.01726   0.04668
  38   36163.9    276.5   0.006746682   0.06142  -0.12134   0.10942  -0.18634
  39   36339.1    275.2   0.067264939   0.60938   0.63288  -0.44425  -0.10720
  40   36377.7    274.9   0.050545922   0.45743   0.56215  -0.25054  -0.28045
  41   36686.8    272.6   0.002219726   0.01992   0.04670  -0.12929   0.03199
  42   37553.5    266.3   0.077655081   0.68076  -0.69476   0.25901   0.36193
  43   37707.2    265.2   0.125140009   1.09257   0.75912  -0.01591  -0.71837
  44   38002.5    263.1   0.000456420   0.00395   0.02740   0.05401  -0.01693
  45   38138.4    262.2   0.000100730   0.00087  -0.02577   0.00228   0.01415
  46   38249.2    261.4   0.053454952   0.46009  -0.54200   0.32483  -0.24660
  47   38639.1    258.8   0.050713886   0.43209  -0.61779   0.13839  -0.17685
  48   38931.8    256.9   0.000347109   0.00294  -0.04690   0.00482  -0.02670
  49   39140.0    255.5   0.002863686   0.02409   0.03706  -0.11027  -0.10273
  50   39296.9    254.5   0.072078798   0.60384  -0.70219   0.15681   0.29357
  51   39371.3    254.0   0.002126798   0.01778   0.11822  -0.04493  -0.04231
  52   39435.9    253.6   0.002360331   0.01970  -0.11929   0.00486   0.07382
  53   39777.7    251.4   0.161708447   1.33835  -0.53563   0.81519   0.62203
  54   39999.5    250.0   0.054133249   0.44554  -0.57445   0.31784  -0.12050
  55   40013.1    249.9   0.000088263   0.00073   0.02353  -0.00542   0.01198
  56   40213.3    248.7   0.123640877   1.01220  -0.84699   0.49685   0.21900

FINAL SINGLE POINT ENERGY    -10711.921092397939

DIPOLE MOMENT
-------------
                                X             Y             Z
Electronic contribution:    -25.39996       8.67136    -164.07800
Nuclear contribution   :     22.88650      -5.27348     159.95503
                        -----------------------------------------
Total Dipole Moment    :     -2.51346       3.39788      -4.12297
                        -----------------------------------------
Magnitude (a.u.)       :      5.90440
Magnitude (Debye)      :     15.00779

Rotational constants in cm-1:     0.000544     0.000159     0.000133
Rotational constants in MHz :    16.304214     4.752483     4.001533

                             ****ORCA TERMINATED NORMALLY****
TOTAL RUN TIME: 0 days 0 hours 11 minutes 42 seconds 805 msec
