                         Program Version 4.2.0 -  RELEASE  -
|  1> # ORCA input file
|  2> # SCF done       -226.335485228937          0.000847513267
|  3> ! CAM-B3LYP def2-SVP def2/J RIJCOSX Grid4 TightSCF
|  4> %maxcore 5000
|  5> %tddft
|  6>     Mode sTDDFT
|  7>     Ethresh 5.0
|  8>     maxcore 5000
|  9> end
| 10>
| 11> %pal
| 12>   nprocs 6
| 13>   end
| 14> * xyz 0 1
| 15>    C      -13.12131        -2.66745         5.31555
| 16>    C      -14.14484        -3.47148         5.73177
| 17>    F      -15.17581        -2.95233         6.41078
| 18>    C      -14.13018        -4.85322         5.45347
| 19>    F      -15.14686        -5.61738         5.87414
| 20>    C      -13.09173        -5.41179         4.76235
| 21>    C      -12.02148        -4.60982         4.32070
| 22>    C      -12.03572        -3.21245         4.60043
| 23>    C      -10.97378        -2.38734         4.16574
| 24>    C       -9.93107        -2.94214         3.47042
| 25>    C       -9.92195        -4.33867         3.20123
| 26>    C      -10.93152        -5.16092         3.61079
| 27>    C       -8.68988        -4.69482         2.46732
| 28>    O       -8.33244        -5.80994         2.16633
| 29>    C       -7.95027        -3.41583         2.29045
| 30>    C       -8.72539        -2.35050         2.89872
| 31>    C       -8.42846        -1.01279         2.87768
| 32>    C       -7.30246        -0.43343         2.25373
| 33>    N       -6.42823         0.12694         1.76447
| 34>    C       -9.23659        -0.01591         3.46465
| 35>    N       -9.84849         0.83930         3.92455
| 36>    C       -6.68176        -3.30515         1.80201
| 37>    C       -5.95746        -4.26193         1.05151
| 38>    C       -6.38040        -5.24644         0.12738
| 39>    C       -5.20659        -5.82729        -0.40480
| 40>    C       -4.12901        -5.17069         0.26812
| 41>    N       -4.59296        -4.23115         1.09060
| 42>    O       -2.85266        -5.45193         0.14457
| 43>    C       -1.96247        -4.63552         0.89050
| 44>    C       -5.63430        -6.81060        -1.33325
| 45>    N       -6.98812        -6.85449        -1.36938
| 46>    C       -7.45768        -5.92988        -0.52927
| 47>    O       -8.72984        -5.68961        -0.36989
| 48>    C       -9.61890        -6.56610        -1.04785
| 49>    C       -4.82702        -7.65127        -2.15275
| 50>    C       -5.23665        -8.94659        -2.54459
| 51>    C       -4.40656        -9.78119        -3.36349
| 52>    N       -4.88978       -10.95680        -3.81665
| 53>    C       -6.05627       -11.34798        -3.42728
| 54>    C       -6.82072       -10.57787        -2.50518
| 55>    N       -6.41930        -9.42088        -2.10059
| 56>    F       -7.97468       -11.03871        -2.02772
| 57>    F       -6.52220       -12.49662        -3.90554
| 58>    C       -3.11400        -9.38370        -3.77721
| 59>    C       -2.71817        -8.07588        -3.42290
| 60>    C       -3.57165        -7.22071        -2.62717
| 61>    N       -3.03712        -6.01180        -2.45652
| 62>    S       -1.60124        -5.97688        -3.16302
| 63>    N       -1.57745        -7.46731        -3.74541
| 64>    C       -2.26715       -10.23381        -4.54275
| 65>    C       -2.20251       -11.64998        -4.57657
| 66>    C       -1.17857       -11.97038        -5.49571
| 67>    C       -0.68389       -10.70971        -5.96253
| 68>    N       -1.33000        -9.70437        -5.37700
| 69>    O        0.27788       -10.55226        -6.83676
| 70>    C        0.61283        -9.21189        -7.16752
| 71>    C       -1.07120       -13.37755        -5.52019
| 72>    N       -1.95696       -13.91547        -4.63133
| 73>    C       -2.62886       -12.91591        -4.05692
| 74>    O       -3.51873       -13.09937        -3.11381
| 75>    C       -3.86436       -14.44351        -2.81505
| 76>    C       -0.13843       -14.13291        -6.26582
| 77>    C       -0.00147       -15.48740        -6.30460
| 78>    C        1.28032       -16.09202        -6.76651
| 79>    O        2.15541       -15.54768        -7.39753
| 80>    C        1.26903       -17.46731        -6.22703
| 81>    C        2.25566       -18.41028        -6.26933
| 82>    C        2.03513       -19.66363        -5.65628
| 83>    C        0.79227       -19.91418        -5.00469
| 84>    C        0.58236       -21.16467        -4.38918
| 85>    C        1.55780       -22.12121        -4.42149
| 86>    C        2.78542       -21.87293        -5.06803
| 87>    C        3.02038       -20.67029        -5.67288
| 88>    F        3.72376       -22.82932        -5.08354
| 89>    F        1.35573       -23.30881        -3.83595
| 90>    C       -0.21430       -18.92159        -4.98395
| 91>    C        0.01808       -17.71658        -5.59132
| 92>    C       -0.83412       -16.54309        -5.76896
| 93>    C       -2.19560       -16.51513        -5.65484
| 94>    C       -3.00892       -15.48757        -6.18910
| 95>    N       -3.74385       -14.79644        -6.73733
| 96>    C       -2.95592       -17.56376        -5.10105
| 97>    N       -3.61096       -18.37181        -4.61485
| 98>    H      -13.14831        -1.61176         5.53606
| 99>    H      -13.09522        -6.47110         4.55862
|100>    H      -11.01105        -1.33582         4.39957
|101>    H      -10.89830        -6.21807         3.39539
|102>    H       -6.11473        -2.40506         2.00820
|103>    H       -2.00283        -3.60583         0.53101
|104>    H       -0.96907        -5.05356         0.74267
|105>    H       -2.23402        -4.64554         1.94754
|106>    H      -10.62369        -6.21946        -0.81653
|107>    H       -9.47192        -7.58997        -0.70118
|108>    H       -9.43285        -6.53395        -2.12274
|109>    H        1.55718        -9.25781        -7.70511
|110>    H        0.69956        -8.60966        -6.26233
|111>    H       -0.16421        -8.78008        -7.80089
|112>    H       -4.43540       -14.87345        -3.64064
|113>    H       -4.47608       -14.40920        -1.91604
|114>    H       -2.96773       -15.04331        -2.64927
|115>    H        0.61778       -13.55822        -6.78955
|116>    H        3.19241       -18.20245        -6.76374
|117>    H       -0.35250       -21.37283        -3.89269
|118>    H        3.96501       -20.49543        -6.16359
|119>    H       -1.14422       -19.13569        -4.48150
|120> *
|121>
|122>                          ****END OF INPUT****

CARTESIAN COORDINATES (ANGSTROEM)
---------------------------------
  C    -13.121310   -2.667450    5.315550
  C    -14.144840   -3.471480    5.731770
  F    -15.175810   -2.952330    6.410780
  C    -14.130180   -4.853220    5.453470
  F    -15.146860   -5.617380    5.874140
  C    -13.091730   -5.411790    4.762350
  C    -12.021480   -4.609820    4.320700
  C    -12.035720   -3.212450    4.600430
  C    -10.973780   -2.387340    4.165740
  C     -9.931070   -2.942140    3.470420
  C     -9.921950   -4.338670    3.201230
  C    -10.931520   -5.160920    3.610790
  C     -8.689880   -4.694820    2.467320
  O     -8.332440   -5.809940    2.166330
  C     -7.950270   -3.415830    2.290450
  C     -8.725390   -2.350500    2.898720
  C     -8.428460   -1.012790    2.877680
  C     -7.302460   -0.433430    2.253730
  N     -6.428230    0.126940    1.764470
  C     -9.236590   -0.015910    3.464650
  N     -9.848490    0.839300    3.924550
  C     -6.681760   -3.305150    1.802010
  C     -5.957460   -4.261930    1.051510
  C     -6.380400   -5.246440    0.127380
  C     -5.206590   -5.827290   -0.404800
  C     -4.129010   -5.170690    0.268120
  N     -4.592960   -4.231150    1.090600
  O     -2.852660   -5.451930    0.144570
  C     -1.962470   -4.635520    0.890500
  C     -5.634300   -6.810600   -1.333250
  N     -6.988120   -6.854490   -1.369380
  C     -7.457680   -5.929880   -0.529270
  O     -8.729840   -5.689610   -0.369890
  C     -9.618900   -6.566100   -1.047850
  C     -4.827020   -7.651270   -2.152750
  C     -5.236650   -8.946590   -2.544590
  C     -4.406560   -9.781190   -3.363490
  N     -4.889780  -10.956800   -3.816650
  C     -6.056270  -11.347980   -3.427280
  C     -6.820720  -10.577870   -2.505180
  N     -6.419300   -9.420880   -2.100590
  F     -7.974680  -11.038710   -2.027720
  F     -6.522200  -12.496620   -3.905540
  C     -3.114000   -9.383700   -3.777210
  C     -2.718170   -8.075880   -3.422900
  C     -3.571650   -7.220710   -2.627170
  N     -3.037120   -6.011800   -2.456520
  S     -1.601240   -5.976880   -3.163020
  N     -1.577450   -7.467310   -3.745410
  C     -2.267150  -10.233810   -4.542750
  C     -2.202510  -11.649980   -4.576570
  C     -1.178570  -11.970380   -5.495710
  C     -0.683890  -10.709710   -5.962530
  N     -1.330000   -9.704370   -5.377000
  O      0.277880  -10.552260   -6.836760
  C      0.612830   -9.211890   -7.167520
  C     -1.071200  -13.377550   -5.520190
  N     -1.956960  -13.915470   -4.631330
  C     -2.628860  -12.915910   -4.056920
  O     -3.518730  -13.099370   -3.113810
  C     -3.864360  -14.443510   -2.815050
  C     -0.138430  -14.132910   -6.265820
  C     -0.001470  -15.487400   -6.304600
  C      1.280320  -16.092020   -6.766510
  O      2.155410  -15.547680   -7.397530
  C      1.269030  -17.467310   -6.227030
  C      2.255660  -18.410280   -6.269330
  C      2.035130  -19.663630   -5.656280
  C      0.792270  -19.914180   -5.004690
  C      0.582360  -21.164670   -4.389180
  C      1.557800  -22.121210   -4.421490
  C      2.785420  -21.872930   -5.068030
  C      3.020380  -20.670290   -5.672880
  F      3.723760  -22.829320   -5.083540
  F      1.355730  -23.308810   -3.835950
  C     -0.214300  -18.921590   -4.983950
  C      0.018080  -17.716580   -5.591320
  C     -0.834120  -16.543090   -5.768960
  C     -2.195600  -16.515130   -5.654840
  C     -3.008920  -15.487570   -6.189100
  N     -3.743850  -14.796440   -6.737330
  C     -2.955920  -17.563760   -5.101050
  N     -3.610960  -18.371810   -4.614850
  H    -13.148310   -1.611760    5.536060
  H    -13.095220   -6.471100    4.558620
  H    -11.011050   -1.335820    4.399570
  H    -10.898300   -6.218070    3.395390
  H     -6.114730   -2.405060    2.008200
  H     -2.002830   -3.605830    0.531010
  H     -0.969070   -5.053560    0.742670
  H     -2.234020   -4.645540    1.947540
  H    -10.623690   -6.219460   -0.816530
  H     -9.471920   -7.589970   -0.701180
  H     -9.432850   -6.533950   -2.122740
  H      1.557180   -9.257810   -7.705110
  H      0.699560   -8.609660   -6.262330
  H     -0.164210   -8.780080   -7.800890
  H     -4.435400  -14.873450   -3.640640
  H     -4.476080  -14.409200   -1.916040
  H     -2.967730  -15.043310   -2.649270
  H      0.617780  -13.558220   -6.789550
  H      3.192410  -18.202450   -6.763740
  H     -0.352500  -21.372830   -3.892690
  H      3.965010  -20.495430   -6.163590
  H     -1.144220  -19.135690   -4.481500

 Total Charge           Charge          ....    0
 Multiplicity           Mult            ....    1
 Number of Electrons    NEL             ....  572
 Basis Dimension        Dim             .... 1276

ORBITAL ENERGIES
----------------

  NO   OCC          E(Eh)            E(eV)
   0   2.0000     -89.041084     -2422.9311
   1   2.0000     -24.815619      -675.2673
   2   2.0000     -24.813529      -675.2105
   3   2.0000     -24.800609      -674.8589
   4   2.0000     -24.799298      -674.8232
   5   2.0000     -24.797957      -674.7867
   6   2.0000     -24.797824      -674.7831
   7   2.0000     -19.283217      -524.7230
   8   2.0000     -19.282487      -524.7032
   9   2.0000     -19.276956      -524.5526
  10   2.0000     -19.271368      -524.4006
  11   2.0000     -19.219324      -522.9844
  12   2.0000     -19.219310      -522.9840
  13   2.0000     -14.451031      -393.2326
  14   2.0000     -14.449519      -393.1914
  15   2.0000     -14.447910      -393.1476
  16   2.0000     -14.446856      -393.1189
  17   2.0000     -14.420256      -392.3951
  18   2.0000     -14.420120      -392.3914
  19   2.0000     -14.418445      -392.3458
  20   2.0000     -14.403033      -391.9265
  21   2.0000     -14.390919      -391.5968
  22   2.0000     -14.389702      -391.5637
  23   2.0000     -14.387249      -391.4970
  24   2.0000     -14.385956      -391.4618
  25   2.0000     -10.430340      -283.8240
  26   2.0000     -10.429195      -283.7928
  27   2.0000     -10.385953      -282.6162
  28   2.0000     -10.383926      -282.5610
  29   2.0000     -10.383600      -282.5521
  30   2.0000     -10.382875      -282.5324
  31   2.0000     -10.382359      -282.5183
  32   2.0000     -10.381173      -282.4861
  33   2.0000     -10.380827      -282.4767
  34   2.0000     -10.375521      -282.3323
  35   2.0000     -10.369605      -282.1713
  36   2.0000     -10.369438      -282.1668
  37   2.0000     -10.352196      -281.6976
  38   2.0000     -10.351891      -281.6893
  39   2.0000     -10.348760      -281.6041
  40   2.0000     -10.344694      -281.4934
  41   2.0000     -10.344371      -281.4846
  42   2.0000     -10.342036      -281.4211
  43   2.0000     -10.341792      -281.4145
  44   2.0000     -10.341139      -281.3967
  45   2.0000     -10.340863      -281.3892
  46   2.0000     -10.336543      -281.2716
  47   2.0000     -10.333201      -281.1807
  48   2.0000     -10.328986      -281.0660
  49   2.0000     -10.328309      -281.0476
  50   2.0000     -10.327110      -281.0149
  51   2.0000     -10.326021      -280.9853
  52   2.0000     -10.324430      -280.9420
  53   2.0000     -10.322457      -280.8883
  54   2.0000     -10.321712      -280.8681
  55   2.0000     -10.320391      -280.8321
  56   2.0000     -10.319200      -280.7997
  57   2.0000     -10.318942      -280.7927
  58   2.0000     -10.315068      -280.6873
  59   2.0000     -10.313050      -280.6323
  60   2.0000     -10.312632      -280.6210
  61   2.0000     -10.312594      -280.6200
  62   2.0000     -10.310810      -280.5714
  63   2.0000     -10.310081      -280.5516
  64   2.0000     -10.310067      -280.5512
  65   2.0000     -10.309970      -280.5485
  66   2.0000     -10.308240      -280.5015
  67   2.0000     -10.307784      -280.4891
  68   2.0000     -10.306357      -280.4502
  69   2.0000     -10.304830      -280.4087
  70   2.0000     -10.304466      -280.3988
  71   2.0000     -10.303391      -280.3695
  72   2.0000     -10.303351      -280.3684
  73   2.0000     -10.302557      -280.3468
  74   2.0000     -10.301175      -280.3092
  75   2.0000     -10.301036      -280.3054
  76   2.0000     -10.300104      -280.2801
  77   2.0000     -10.295377      -280.1514
  78   2.0000     -10.294281      -280.1216
  79   2.0000     -10.265993      -279.3519
  80   2.0000     -10.264844      -279.3206
  81   2.0000     -10.263623      -279.2874
  82   2.0000     -10.261232      -279.2223
  83   2.0000      -8.132677      -221.3014
  84   2.0000      -6.103619      -166.0879
  85   2.0000      -6.095771      -165.8744
  86   2.0000      -6.095736      -165.8734
  87   2.0000      -1.342689       -36.5364
  88   2.0000      -1.328425       -36.1483
  89   2.0000      -1.323001       -36.0007
  90   2.0000      -1.320811       -35.9411
  91   2.0000      -1.308108       -35.5954
  92   2.0000      -1.305956       -35.5369
  93   2.0000      -1.196214       -32.5506
  94   2.0000      -1.195896       -32.5420
  95   2.0000      -1.190758       -32.4022
  96   2.0000      -1.185211       -32.2512
  97   2.0000      -1.139561       -31.0090
  98   2.0000      -1.134594       -30.8739
  99   2.0000      -1.134173       -30.8624
 100   2.0000      -1.113961       -30.3124
 101   2.0000      -1.063783       -28.9470
 102   2.0000      -1.060172       -28.8488
 103   2.0000      -1.040215       -28.3057
 104   2.0000      -1.035043       -28.1650
 105   2.0000      -1.029405       -28.0115
 106   2.0000      -1.022737       -27.8301
 107   2.0000      -1.017607       -27.6905
 108   2.0000      -1.006968       -27.4010
 109   2.0000      -1.004047       -27.3215
 110   2.0000      -0.997475       -27.1427
 111   2.0000      -0.991551       -26.9815
 112   2.0000      -0.989035       -26.9130
 113   2.0000      -0.983842       -26.7717
 114   2.0000      -0.979937       -26.6654
 115   2.0000      -0.972913       -26.4743
 116   2.0000      -0.934846       -25.4385
 117   2.0000      -0.931361       -25.3436
 118   2.0000      -0.907525       -24.6950
 119   2.0000      -0.904765       -24.6199
 120   2.0000      -0.898939       -24.4614
 121   2.0000      -0.895103       -24.3570
 122   2.0000      -0.892495       -24.2860
 123   2.0000      -0.884541       -24.0696
 124   2.0000      -0.882029       -24.0012
 125   2.0000      -0.880481       -23.9591
 126   2.0000      -0.860583       -23.4176
 127   2.0000      -0.855879       -23.2896
 128   2.0000      -0.852096       -23.1867
 129   2.0000      -0.843127       -22.9426
 130   2.0000      -0.841291       -22.8927
 131   2.0000      -0.840281       -22.8652
 132   2.0000      -0.830749       -22.6058
 133   2.0000      -0.826605       -22.4931
 134   2.0000      -0.814934       -22.1755
 135   2.0000      -0.811538       -22.0831
 136   2.0000      -0.811486       -22.0817
 137   2.0000      -0.799609       -21.7585
 138   2.0000      -0.777006       -21.1434
 139   2.0000      -0.769942       -20.9512
 140   2.0000      -0.768966       -20.9246
 141   2.0000      -0.763204       -20.7678
 142   2.0000      -0.761785       -20.7292
 143   2.0000      -0.746220       -20.3057
 144   2.0000      -0.745116       -20.2756
 145   2.0000      -0.731945       -19.9172
 146   2.0000      -0.729644       -19.8546
 147   2.0000      -0.717651       -19.5283
 148   2.0000      -0.717373       -19.5207
 149   2.0000      -0.704012       -19.1571
 150   2.0000      -0.697802       -18.9881
 151   2.0000      -0.691553       -18.8181
 152   2.0000      -0.689149       -18.7527
 153   2.0000      -0.685909       -18.6645
 154   2.0000      -0.682852       -18.5813
 155   2.0000      -0.681938       -18.5565
 156   2.0000      -0.680109       -18.5067
 157   2.0000      -0.675479       -18.3807
 158   2.0000      -0.669718       -18.2240
 159   2.0000      -0.662552       -18.0290
 160   2.0000      -0.661081       -17.9889
 161   2.0000      -0.657658       -17.8958
 162   2.0000      -0.653901       -17.7936
 163   2.0000      -0.652089       -17.7442
 164   2.0000      -0.647739       -17.6259
 165   2.0000      -0.647182       -17.6107
 166   2.0000      -0.644213       -17.5299
 167   2.0000      -0.641573       -17.4581
 168   2.0000      -0.628292       -17.0967
 169   2.0000      -0.625114       -17.0102
 170   2.0000      -0.621258       -16.9053
 171   2.0000      -0.620307       -16.8794
 172   2.0000      -0.617406       -16.8005
 173   2.0000      -0.615033       -16.7359
 174   2.0000      -0.612296       -16.6614
 175   2.0000      -0.606441       -16.5021
 176   2.0000      -0.595933       -16.2162
 177   2.0000      -0.590976       -16.0813
 178   2.0000      -0.587529       -15.9875
 179   2.0000      -0.586993       -15.9729
 180   2.0000      -0.585385       -15.9291
 181   2.0000      -0.584601       -15.9078
 182   2.0000      -0.581642       -15.8273
 183   2.0000      -0.579566       -15.7708
 184   2.0000      -0.578156       -15.7324
 185   2.0000      -0.577772       -15.7220
 186   2.0000      -0.574077       -15.6214
 187   2.0000      -0.572793       -15.5865
 188   2.0000      -0.570656       -15.5283
 189   2.0000      -0.568633       -15.4733
 190   2.0000      -0.567754       -15.4494
 191   2.0000      -0.563657       -15.3379
 192   2.0000      -0.557328       -15.1657
 193   2.0000      -0.556484       -15.1427
 194   2.0000      -0.554173       -15.0798
 195   2.0000      -0.553133       -15.0515
 196   2.0000      -0.549100       -14.9418
 197   2.0000      -0.547046       -14.8859
 198   2.0000      -0.546763       -14.8782
 199   2.0000      -0.543684       -14.7944
 200   2.0000      -0.539856       -14.6902
 201   2.0000      -0.539295       -14.6750
 202   2.0000      -0.536664       -14.6034
 203   2.0000      -0.533583       -14.5195
 204   2.0000      -0.531473       -14.4621
 205   2.0000      -0.527040       -14.3415
 206   2.0000      -0.525066       -14.2878
 207   2.0000      -0.523067       -14.2334
 208   2.0000      -0.522389       -14.2149
 209   2.0000      -0.521200       -14.1826
 210   2.0000      -0.518222       -14.1015
 211   2.0000      -0.516940       -14.0666
 212   2.0000      -0.515308       -14.0222
 213   2.0000      -0.514458       -13.9991
 214   2.0000      -0.513118       -13.9627
 215   2.0000      -0.510518       -13.8919
 216   2.0000      -0.508568       -13.8388
 217   2.0000      -0.505728       -13.7616
 218   2.0000      -0.501275       -13.6404
 219   2.0000      -0.499314       -13.5870
 220   2.0000      -0.499078       -13.5806
 221   2.0000      -0.497453       -13.5364
 222   2.0000      -0.492788       -13.4094
 223   2.0000      -0.487164       -13.2564
 224   2.0000      -0.486593       -13.2409
 225   2.0000      -0.483899       -13.1676
 226   2.0000      -0.480830       -13.0840
 227   2.0000      -0.473439       -12.8829
 228   2.0000      -0.472152       -12.8479
 229   2.0000      -0.467193       -12.7130
 230   2.0000      -0.465950       -12.6791
 231   2.0000      -0.464870       -12.6498
 232   2.0000      -0.463009       -12.5991
 233   2.0000      -0.457143       -12.4395
 234   2.0000      -0.454797       -12.3757
 235   2.0000      -0.451747       -12.2927
 236   2.0000      -0.450801       -12.2669
 237   2.0000      -0.449119       -12.2211
 238   2.0000      -0.448190       -12.1959
 239   2.0000      -0.447278       -12.1710
 240   2.0000      -0.446639       -12.1537
 241   2.0000      -0.446419       -12.1477
 242   2.0000      -0.442560       -12.0427
 243   2.0000      -0.439453       -11.9581
 244   2.0000      -0.437492       -11.9048
 245   2.0000      -0.435652       -11.8547
 246   2.0000      -0.433829       -11.8051
 247   2.0000      -0.432431       -11.7671
 248   2.0000      -0.430487       -11.7141
 249   2.0000      -0.429099       -11.6764
 250   2.0000      -0.425724       -11.5846
 251   2.0000      -0.424948       -11.5634
 252   2.0000      -0.423679       -11.5289
 253   2.0000      -0.421283       -11.4637
 254   2.0000      -0.420731       -11.4487
 255   2.0000      -0.415970       -11.3191
 256   2.0000      -0.413106       -11.2412
 257   2.0000      -0.411736       -11.2039
 258   2.0000      -0.409579       -11.1452
 259   2.0000      -0.407788       -11.0965
 260   2.0000      -0.401395       -10.9225
 261   2.0000      -0.400131       -10.8881
 262   2.0000      -0.394667       -10.7394
 263   2.0000      -0.389881       -10.6092
 264   2.0000      -0.384467       -10.4619
 265   2.0000      -0.382241       -10.4013
 266   2.0000      -0.379324       -10.3219
 267   2.0000      -0.374187       -10.1821
 268   2.0000      -0.364276        -9.9124
 269   2.0000      -0.361127        -9.8268
 270   2.0000      -0.348000        -9.4695
 271   2.0000      -0.343591        -9.3496
 272   2.0000      -0.341751        -9.2995
 273   2.0000      -0.337210        -9.1760
 274   2.0000      -0.337047        -9.1715
 275   2.0000      -0.328871        -8.9490
 276   2.0000      -0.325815        -8.8659
 277   2.0000      -0.318936        -8.6787
 278   2.0000      -0.316687        -8.6175
 279   2.0000      -0.314747        -8.5647
 280   2.0000      -0.303050        -8.2464
 281   2.0000      -0.299343        -8.1455
 282   2.0000      -0.294969        -8.0265
 283   2.0000      -0.292770        -7.9667
 284   2.0000      -0.276104        -7.5132
 285   2.0000      -0.254955        -6.9377
 286   0.0000      -0.141020        -3.8373
 287   0.0000      -0.108385        -2.9493
 288   0.0000      -0.090084        -2.4513
 289   0.0000      -0.065578        -1.7845
 290   0.0000      -0.062881        -1.7111

MULLIKEN ATOMIC CHARGES
-----------------------
   0 C :   -0.111773
   1 C :    0.244314
   2 F :   -0.170782
   3 C :    0.240003
   4 F :   -0.171378
   5 C :   -0.107875
   6 C :    0.120533
   7 C :    0.115974
   8 C :   -0.087187
   9 C :    0.053246
  10 C :   -0.007388
  11 C :   -0.087729
  12 C :    0.150265
  13 O :   -0.130166
  14 C :   -0.069290
  15 C :    0.310873
  16 C :   -0.339851
  17 C :   -0.199413
  18 N :    0.173769
  19 C :   -0.185368
  20 N :    0.152623
  21 C :   -0.034826
  22 C :    0.030272
  23 C :    0.049033
  24 C :    0.043586
  25 C :    0.065124
  26 N :   -0.186017
  27 O :   -0.246959
  28 C :    0.199611
  29 C :   -0.100122
  30 N :   -0.153056
  31 C :    0.102686
  32 O :   -0.232694
  33 C :    0.199664
  34 C :    0.139909
  35 C :   -0.078452
  36 C :   -0.073473
  37 N :    0.037533
  38 C :    0.144589
  39 C :    0.128319
  40 N :    0.075596
  41 F :   -0.141081
  42 F :   -0.136904
  43 C :    0.133963
  44 C :   -0.007716
  45 C :   -0.012260
  46 N :   -0.245868
  47 S :    0.534640
  48 N :   -0.226633
  49 C :   -0.112739
  50 C :    0.068811
  51 C :    0.023533
  52 C :    0.104473
  53 N :   -0.152572
  54 O :   -0.240629
  55 C :    0.191464
  56 C :    0.033284
  57 N :   -0.219973
  58 C :    0.095924
  59 O :   -0.247420
  60 C :    0.183497
  61 C :    0.007971
  62 C :   -0.090867
  63 C :    0.139425
  64 O :   -0.132317
  65 C :    0.003614
  66 C :   -0.080043
  67 C :    0.111438
  68 C :    0.114893
  69 C :   -0.107056
  70 C :    0.242360
  71 C :    0.236862
  72 C :   -0.101838
  73 F :   -0.172989
  74 F :   -0.171028
  75 C :   -0.089638
  76 C :    0.052037
  77 C :    0.267570
  78 C :   -0.263005
  79 C :   -0.191453
  80 N :    0.153021
  81 C :   -0.195267
  82 N :    0.148827
  83 H :    0.008530
  84 H :   -0.000788
  85 H :   -0.006481
  86 H :   -0.012612
  87 H :    0.032476
  88 H :    0.033563
  89 H :    0.028789
  90 H :    0.037801
  91 H :    0.033636
  92 H :    0.044747
  93 H :    0.038489
  94 H :    0.039570
  95 H :    0.048278
  96 H :    0.036236
  97 H :    0.051082
  98 H :    0.034017
  99 H :    0.040362
 100 H :    0.013794
 101 H :   -0.009426
 102 H :    0.004755
 103 H :   -0.001600
 104 H :   -0.007249
Sum of atomic charges:   -0.0000000

LOEWDIN ATOMIC CHARGES
----------------------
   0 C :   -0.029089
   1 C :    0.066571
   2 F :   -0.048521
   3 C :    0.068046
   4 F :   -0.048952
   5 C :   -0.034317
   6 C :   -0.008151
   7 C :   -0.006711
   8 C :    0.017255
   9 C :   -0.023434
  10 C :   -0.050491
  11 C :    0.026782
  12 C :    0.078870
  13 O :   -0.123731
  14 C :   -0.068144
  15 C :    0.071041
  16 C :   -0.127728
  17 C :   -0.024860
  18 N :   -0.039479
  19 C :   -0.016439
  20 N :   -0.048953
  21 C :    0.065454
  22 C :    0.051203
  23 C :   -0.105069
  24 C :   -0.121283
  25 C :    0.101220
  26 N :   -0.177636
  27 O :   -0.043801
  28 C :    0.084896
  29 C :    0.087700
  30 N :   -0.167271
  31 C :    0.117261
  32 O :   -0.020869
  33 C :    0.089539
  34 C :   -0.021146
  35 C :    0.006637
  36 C :    0.003057
  37 N :   -0.023038
  38 C :    0.061779
  39 C :    0.057769
  40 N :   -0.017230
  41 F :   -0.030585
  42 F :   -0.023147
  43 C :   -0.024309
  44 C :   -0.035941
  45 C :   -0.042041
  46 N :   -0.267220
  47 S :    0.677019
  48 N :   -0.264295
  49 C :    0.086093
  50 C :   -0.119112
  51 C :   -0.108250
  52 C :    0.107881
  53 N :   -0.167315
  54 O :   -0.039428
  55 C :    0.089182
  56 C :    0.054451
  57 N :   -0.168534
  58 C :    0.116097
  59 O :   -0.036345
  60 C :    0.085630
  61 C :    0.050064
  62 C :   -0.049512
  63 C :    0.082349
  64 O :   -0.134287
  65 C :   -0.056002
  66 C :    0.031533
  67 C :   -0.010877
  68 C :   -0.004258
  69 C :   -0.031480
  70 C :    0.067223
  71 C :    0.065855
  72 C :   -0.032408
  73 F :   -0.050090
  74 F :   -0.049025
  75 C :    0.009208
  76 C :   -0.015772
  77 C :    0.060844
  78 C :   -0.103490
  79 C :   -0.022543
  80 N :   -0.056983
  81 C :   -0.016848
  82 N :   -0.053196
  83 H :    0.048044
  84 H :    0.044619
  85 H :    0.039848
  86 H :    0.039124
  87 H :    0.053817
  88 H :    0.025915
  89 H :    0.022324
  90 H :    0.026354
  91 H :    0.024960
  92 H :    0.031644
  93 H :    0.027603
  94 H :    0.027387
  95 H :    0.029439
  96 H :    0.027890
  97 H :    0.029977
  98 H :    0.025933
  99 H :    0.024401
 100 H :    0.051048
 101 H :    0.040528
 102 H :    0.046831
 103 H :    0.044635
 104 H :    0.038811

  Mayer bond orders larger than 0.100000
B(  0-C ,  1-C ) :   1.4417 B(  0-C ,  5-C ) :   0.1090 B(  0-C ,  7-C ) :   1.1866
B(  0-C , 83-H ) :   1.0074 B(  1-C ,  2-F ) :   1.1344 B(  1-C ,  3-C ) :   1.1902
B(  3-C ,  4-F ) :   1.1339 B(  3-C ,  5-C ) :   1.4435 B(  5-C ,  6-C ) :   1.1897
B(  5-C , 84-H ) :   1.0075 B(  6-C ,  7-C ) :   1.2559 B(  6-C , 11-C ) :   1.1894
B(  7-C ,  8-C ) :   1.2184 B(  8-C ,  9-C ) :   1.4446 B(  8-C , 85-H ) :   0.9902
B(  9-C , 10-C ) :   1.2209 B(  9-C , 15-C ) :   0.9856 B( 10-C , 11-C ) :   1.4706
B( 10-C , 12-C ) :   0.9340 B( 11-C , 86-H ) :   1.0167 B( 12-C , 13-O ) :   2.2381
B( 12-C , 14-C ) :   0.9362 B( 14-C , 15-C ) :   1.0581 B( 14-C , 21-C ) :   1.5851
B( 15-C , 16-C ) :   1.6460 B( 16-C , 17-C ) :   1.1399 B( 16-C , 19-C ) :   1.1464
B( 17-C , 18-N ) :   2.9909 B( 19-C , 20-N ) :   2.9627 B( 21-C , 22-C ) :   1.1519
B( 21-C , 87-H ) :   0.9349 B( 22-C , 23-C ) :   1.1854 B( 22-C , 26-N ) :   1.3958
B( 23-C , 24-C ) :   1.2966 B( 23-C , 31-C ) :   1.0508 B( 24-C , 25-C ) :   1.0791
B( 24-C , 29-C ) :   1.1860 B( 25-C , 26-N ) :   1.4728 B( 25-C , 27-O ) :   1.3076
B( 27-O , 28-C ) :   0.9165 B( 28-C , 88-H ) :   0.9747 B( 28-C , 89-H ) :   0.9788
B( 28-C , 90-H ) :   0.9694 B( 29-C , 30-N ) :   1.4906 B( 29-C , 34-C ) :   1.0338
B( 30-N , 31-C ) :   1.4318 B( 31-C , 32-O ) :   1.3285 B( 32-O , 33-C ) :   0.9027
B( 33-C , 91-H ) :   0.9786 B( 33-C , 92-H ) :   0.9734 B( 33-C , 93-H ) :   0.9708
B( 34-C , 35-C ) :   1.3072 B( 34-C , 43-C ) :   0.1552 B( 34-C , 45-C ) :   1.2419
B( 35-C , 36-C ) :   1.1009 B( 35-C , 40-N ) :   1.4614 B( 36-C , 37-N ) :   1.4491
B( 36-C , 43-C ) :   1.3259 B( 37-N , 38-C ) :   1.6675 B( 38-C , 39-C ) :   1.0887
B( 38-C , 42-F ) :   1.1701 B( 39-C , 40-N ) :   1.6975 B( 39-C , 41-F ) :   1.1737
B( 43-C , 44-C ) :   1.1997 B( 43-C , 49-C ) :   1.0660 B( 44-C , 45-C ) :   1.0876
B( 44-C , 48-N ) :   1.5447 B( 45-C , 46-N ) :   1.5342 B( 46-N , 47-S ) :   1.2854
B( 46-N , 48-N ) :   0.1533 B( 47-S , 48-N ) :   1.2904 B( 49-C , 50-C ) :   1.1909
B( 49-C , 53-N ) :   1.4805 B( 50-C , 51-C ) :   1.2875 B( 50-C , 58-C ) :   1.0602
B( 51-C , 52-C ) :   1.0547 B( 51-C , 56-C ) :   1.2104 B( 52-C , 53-N ) :   1.4585
B( 52-C , 54-O ) :   1.3335 B( 54-O , 55-C ) :   0.9031 B( 55-C , 94-H ) :   0.9795
B( 55-C , 95-H ) :   0.9669 B( 55-C , 96-H ) :   0.9768 B( 56-C , 57-N ) :   1.3437
B( 56-C , 61-C ) :   1.1364 B( 57-N , 58-C ) :   1.4508 B( 58-C , 59-O ) :   1.3167
B( 59-O , 60-C ) :   0.9047 B( 60-C , 97-H ) :   0.9746 B( 60-C , 98-H ) :   0.9790
B( 60-C , 99-H ) :   0.9672 B( 61-C , 62-C ) :   1.6111 B( 61-C ,100-H ) :   0.9540
B( 62-C , 63-C ) :   0.9266 B( 62-C , 77-C ) :   1.0324 B( 63-C , 64-O ) :   2.2825
B( 63-C , 65-C ) :   0.9183 B( 65-C , 66-C ) :   1.4724 B( 65-C , 76-C ) :   1.2203
B( 66-C , 67-C ) :   1.1978 B( 66-C ,101-H ) :   1.0151 B( 67-C , 68-C ) :   1.2584
B( 67-C , 72-C ) :   1.1916 B( 68-C , 69-C ) :   1.1891 B( 68-C , 75-C ) :   1.2129
B( 69-C , 70-C ) :   1.4423 B( 69-C , 72-C ) :   0.1090 B( 69-C ,102-H ) :   1.0062
B( 70-C , 71-C ) :   1.1919 B( 70-C , 74-F ) :   1.1349 B( 71-C , 72-C ) :   1.4450
B( 71-C , 73-F ) :   1.1319 B( 72-C ,103-H ) :   1.0062 B( 75-C , 76-C ) :   1.4588
B( 75-C ,104-H ) :   0.9929 B( 76-C , 77-C ) :   0.9986 B( 77-C , 78-C ) :   1.6935
B( 78-C , 79-C ) :   1.1327 B( 78-C , 81-C ) :   1.1515 B( 79-C , 80-N ) :   2.9700
B( 81-C , 82-N ) :   2.9693

-----------------------------------------------------------------------------
         ABSORPTION SPECTRUM VIA TRANSITION ELECTRIC DIPOLE MOMENTS
-----------------------------------------------------------------------------
State   Energy  Wavelength   fosc         T2         TX        TY        TZ
        (cm-1)    (nm)                  (au**2)     (au)      (au)      (au)
-----------------------------------------------------------------------------
   0   10272.7    973.5   1.062442218  34.04827  -2.13327   4.64823   2.80916
   1   12712.7    786.6   0.013565203   0.35129  -0.24802   0.43738   0.31381
   2   12993.6    769.6   0.002623885   0.06648   0.05349  -0.23738   0.08525
   3   14395.3    694.7   0.066326085   1.51684   0.22975  -0.93192   0.77174
   4   17554.9    569.6   0.056940166   1.06782   0.34741   0.33468  -0.91385
   5   19009.3    526.1   0.105395968   1.82529  -0.70292   1.06423   0.44567
   6   19286.7    518.5   0.042582227   0.72685   0.29008  -0.70840  -0.37534
   7   19591.1    510.4   0.089717215   1.50762  -0.06762   1.18190   0.32582
   8   21971.1    455.1   0.110476976   1.65537   0.93249  -0.17621  -0.86879
   9   22146.0    451.5   0.098625479   1.46612   1.02962  -0.39614  -0.49908
  10   22204.2    450.4   0.004508714   0.06685   0.23135  -0.11346   0.02126
  11   22912.1    436.5   0.018001911   0.25866   0.21800   0.43933  -0.13463
  12   22994.3    434.9   0.001054760   0.01510  -0.04098  -0.03559   0.11025
  13   23678.0    422.3   0.017325724   0.24089  -0.49080   0.00300   0.00132
  14   24756.6    403.9   0.003338558   0.04440  -0.20647   0.04154   0.00626
  15   24832.1    402.7   0.002314794   0.03069   0.11891  -0.12740  -0.01782
  16   25512.3    392.0   0.038382041   0.49528   0.68402   0.16364  -0.02502
  17   25803.9    387.5   0.040625251   0.51831   0.03833  -0.71852  -0.02380
  18   26047.5    383.9   0.041679466   0.52678   0.06630   0.67908  -0.24746
  19   26169.2    382.1   0.006935050   0.08724   0.18089  -0.22187  -0.07277
  20   26470.5    377.8   0.006380032   0.07935  -0.27384  -0.02395  -0.06152
  21   26571.5    376.3   0.042937456   0.53198   0.56284   0.46318  -0.02551
  22   27227.9    367.3   0.051323623   0.62055  -0.72653   0.01655  -0.30403
  23   27531.1    363.2   0.147314837   1.76157   0.50778   1.20276  -0.23897
  24   28491.8    351.0   0.118581032   1.37016   0.12618  -1.10389   0.36833
  25   29010.1    344.7   0.197840889   2.24513   0.67135  -1.13629  -0.70941
  26   29323.2    341.0   0.002285618   0.02566   0.13734  -0.06983   0.04383
  27   29670.7    337.0   0.023393562   0.25956   0.44114   0.01819  -0.25423
  28   29981.5    333.5   0.185508582   2.03698  -1.36672  -0.25733   0.32069
  29   30248.9    330.6   0.056499588   0.61491  -0.66222   0.10048   0.40777
  30   30262.0    330.4   0.131304573   1.42843  -1.11043   0.42568   0.11905
  31   30486.3    328.0   0.055973853   0.60444  -0.00374  -0.77628  -0.04266
  32   30595.1    326.8   0.007289442   0.07844  -0.05067   0.04475   0.27178
  33   30684.6    325.9   0.014113518   0.15142   0.09208   0.28232  -0.25147
  34   30823.0    324.4   0.065477210   0.69934   0.62685   0.51335  -0.20706
  35   30877.3    323.9   0.061447172   0.65515   0.76671  -0.24430   0.08723
  36   31265.1    319.8   0.051593886   0.54327  -0.51719   0.50614   0.14003
  37   31568.4    316.8   0.075082571   0.78300  -0.43095   0.76239  -0.12667
  38   31728.3    315.2   0.048540065   0.50365  -0.12513   0.45837   0.52715
  39   31835.3    314.1   0.102677708   1.06180  -0.64020   0.80742   0.00278
  40   31974.5    312.7   0.172283926   1.77385   1.19555   0.02396  -0.58646
  41   32746.8    305.4   0.007294237   0.07333   0.23898  -0.03376  -0.12279
  42   33023.7    302.8   0.036467603   0.36354   0.59465   0.07819  -0.06186
  43   33731.5    296.5   0.030941306   0.30198  -0.33983  -0.42475   0.07801
  44   33978.9    294.3   0.046649077   0.45197  -0.47417  -0.36204   0.30994
  45   34149.7    292.8   0.320962328   3.09416   1.32891  -1.15119   0.05413
  46   34322.6    291.4   0.029857292   0.28638  -0.29383  -0.37803   0.23904
  47   34794.4    287.4   0.306986210   2.90459   1.16914   1.17038  -0.40977
  48   34886.6    286.6   0.007175214   0.06771  -0.17319   0.11455   0.15681
  49   35098.7    284.9   0.249912232   2.34408  -1.42939  -0.08036   0.54265
  50   35325.2    283.1   0.003658189   0.03409  -0.13727   0.10253  -0.06884
  51   35478.0    281.9   0.005255480   0.04877  -0.12389   0.04397   0.17744
  52   35546.5    281.3   0.043802960   0.40568  -0.17610   0.60487  -0.09380
  53   35934.0    278.3   0.001968216   0.01803   0.02423   0.13000   0.02332
  54   36096.9    277.0   0.287185721   2.61920  -1.18540   1.09874  -0.08244
  55   36311.8    275.4   0.005349566   0.04850   0.03180  -0.19259  -0.10198
  56   36426.8    274.5   0.119624542   1.08112  -0.49516  -0.83030   0.38280
  57   36735.4    272.2   0.007702446   0.06903  -0.00705   0.01636   0.26212
  58   36821.5    271.6   0.055605549   0.49716   0.65497   0.03717  -0.25843
  59   36863.6    271.3   0.022690744   0.20264   0.25995   0.36001   0.07387
  60   37320.8    267.9   0.021524540   0.18987  -0.41722  -0.02463   0.12325
  61   37457.6    267.0   0.038837965   0.34134  -0.53092   0.19768   0.14281
  62   37592.5    266.0   0.195533773   1.71237   0.83751  -0.94211  -0.35124
  63   37650.2    265.6   0.041510739   0.36297   0.26238   0.53386  -0.09551
  64   37787.0    264.6   0.004663602   0.04063   0.09334   0.14365   0.10622
  65   38019.1    263.0   0.065781384   0.56961   0.22495  -0.66481  -0.27755
  66   38173.8    262.0   0.075488108   0.65101  -0.37226  -0.68831   0.19662
  67   38282.3    261.2   0.057240686   0.49225   0.28176  -0.46619  -0.44218
  68   38455.6    260.0   0.005497224   0.04706  -0.11692   0.15602   0.09511
  69   38851.7    257.4   0.092956977   0.78768   0.40818  -0.78590  -0.05856
  70   39109.5    255.7   0.015494398   0.13043  -0.20008   0.15426   0.25807
  71   39205.5    255.1   0.004966554   0.04170   0.14604  -0.13593  -0.04360
  72   39386.8    253.9   0.243386507   2.03433  -1.31181  -0.18421   0.52872
  73   39511.0    253.1   0.039929505   0.33270  -0.16158  -0.38412   0.39880
  74   39590.4    252.6   0.113400772   0.94298   0.64363   0.71831  -0.11294
  75   40000.4    250.0   0.130454855   1.07367   0.90189  -0.47047  -0.19729
  76   40076.6    249.5   0.232454723   1.90951  -0.97024  -0.98273   0.04890
  77   40172.8    248.9   0.027284780   0.22360  -0.35394   0.21301   0.23010
  78   40309.4    248.1   0.158642020   1.29565   0.43458  -1.00875  -0.29868

FINAL SINGLE POINT ENERGY     -4323.948823137171

DIPOLE MOMENT
-------------
                                X             Y             Z
Electronic contribution:    -18.35777     -19.55663       7.36919
Nuclear contribution   :     19.64621      18.99741      -7.16219
                        -----------------------------------------
Total Dipole Moment    :      1.28843      -0.55922       0.20700
                        -----------------------------------------
Magnitude (a.u.)       :      1.41973
Magnitude (Debye)      :      3.60867

Rotational constants in cm-1:     0.001522     0.000217     0.000199
Rotational constants in MHz :    45.618115     6.498813     5.969991

                             ****ORCA TERMINATED NORMALLY****
TOTAL RUN TIME: 0 days 0 hours 12 minutes 59 seconds 206 msec
