                         Program Version 4.2.0 -  RELEASE  -
|  1> # ORCA input file
|  2> # SCF done       -177.839528432720          0.000510829102
|  3> ! CAM-B3LYP def2-SVP def2/J RIJCOSX Grid4 TightSCF
|  4> %maxcore 5000
|  5> %tddft
|  6>     Mode sTDDFT
|  7>     Ethresh 5.0
|  8>     maxcore 5000
|  9> end
| 10>
| 11> %pal
| 12>   nprocs 6
| 13>   end
| 14> * xyz 0 1
| 15>    C       -4.81074        -0.67597        -3.72085
| 16>    C       -4.91526        -0.56842        -2.35948
| 17>    C       -4.27445        -1.44077        -1.45714
| 18>    N       -3.74334        -2.11231        -0.69276
| 19>    C       -5.59756         0.47783        -1.70368
| 20>    N       -6.14935         1.29947        -1.12287
| 21>    C       -5.22933         0.34494        -4.68030
| 22>    C       -4.53428         0.14542        -5.88829
| 23>    C       -4.70207         1.00646        -6.95670
| 24>    C       -5.57886         2.06936        -6.81390
| 25>    C       -6.28861         2.27312        -5.63095
| 26>    C       -6.11173         1.40312        -4.55577
| 27>    C       -7.25333         3.40952        -5.51900
| 28>    C       -3.69246        -1.05598        -5.78172
| 29>    O       -2.91915        -1.51026        -6.59180
| 30>    C       -4.03272        -1.65418        -4.45223
| 31>    C       -3.65623        -2.93476        -4.20393
| 32>    C       -4.11907        -3.84837        -3.22300
| 33>    S       -3.15499        -5.24669        -2.83843
| 34>    C       -4.33081        -5.83515        -1.71383
| 35>    C       -5.44279        -4.98062        -1.68149
| 36>    C       -5.31105        -3.87038        -2.52477
| 37>    C       -6.60203        -5.18884        -0.91627
| 38>    N       -7.57339        -5.33013        -0.32098
| 39>    C       -4.06266        -7.03178        -1.00927
| 40>    C       -4.85559        -7.57270        -0.04448
| 41>    C       -4.52900        -8.78690         0.60422
| 42>    N       -5.30473        -9.36400         1.58003
| 43>    C       -6.57274        -8.88041         2.07279
| 44>    C       -7.71500        -9.18173         1.10625
| 45>    C       -4.74912       -10.57047         2.05473
| 46>    O       -5.25620       -11.25450         2.91615
| 47>    C       -3.52660       -10.71507         1.29274
| 48>    C       -3.41785        -9.61356         0.41607
| 49>    C       -2.19629        -9.77741        -0.33520
| 50>    O       -1.67987        -9.10375        -1.20651
| 51>    N       -1.64033       -10.98120         0.13990
| 52>    C       -0.36555       -11.41652        -0.37693
| 53>    C        0.77988       -11.08585         0.57760
| 54>    C       -2.42518       -11.55336         1.11959
| 55>    C       -2.25569       -12.75786         1.84538
| 56>    C       -1.25170       -13.67032         1.79129
| 57>    C       -1.20925       -14.85599         2.56725
| 58>    S       -2.45710       -15.31707         3.69474
| 59>    C       -1.60844       -16.77154         4.11941
| 60>    C       -0.40991       -16.87066         3.40136
| 61>    C       -0.19381       -15.79519         2.53478
| 62>    C        0.48104       -17.94945         3.54046
| 63>    N        1.21585       -18.82369         3.64264
| 64>    C       -2.08325       -17.70897         5.06211
| 65>    C       -3.25631       -17.60263         5.74317
| 66>    C       -3.65732       -18.58744         6.67380
| 67>    C       -4.81858       -18.56028         7.39136
| 68>    C       -5.26854       -19.54294         8.36070
| 69>    C       -4.61214       -20.68046         8.75092
| 70>    C       -3.35702       -21.11529         8.27402
| 71>    N       -2.34311       -21.54053         7.94250
| 72>    C       -5.10672       -21.59570         9.70496
| 73>    N       -5.44619       -22.38132        10.47019
| 74>    C       -6.56734       -19.10104         8.86465
| 75>    C       -6.91386       -17.89121         8.23849
| 76>    C       -5.85357       -17.49282         7.29853
| 77>    O       -5.83623       -16.50307         6.59820
| 78>    C       -8.10161       -17.24656         8.53151
| 79>    C       -8.94946       -17.82139         9.46256
| 80>    C       -8.62434       -19.02152        10.09588
| 81>    C       -7.42631       -19.66458         9.79436
| 82>    C       -9.56544       -19.61038        11.09790
| 83>    H       -4.15458         0.84576        -7.87252
| 84>    H       -5.72045         2.75736        -7.63441
| 85>    H       -6.66983         1.56190        -3.64644
| 86>    H       -6.91359         4.26616        -6.09607
| 87>    H       -7.38586         3.70638        -4.48188
| 88>    H       -8.22513         3.10646        -5.91040
| 89>    H       -2.93290        -3.33475        -4.90911
| 90>    H       -6.08835        -3.13610        -2.64687
| 91>    H       -3.14330        -7.53734        -1.27775
| 92>    H       -5.76530        -7.07356         0.25121
| 93>    H       -6.50610        -7.80680         2.26815
| 94>    H       -6.74483        -9.40293         3.01799
| 95>    H       -7.56412        -8.68193         0.15225
| 96>    H       -8.65219        -8.83549         1.53197
| 97>    H       -7.78421       -10.25306         0.93339
| 98>    H       -0.22308       -10.86517        -1.31171
| 99>    H       -0.40579       -12.48330        -0.61025
|100>    H        0.85515       -10.00820         0.69907
|101>    H        1.71777       -11.45438         0.17097
|102>    H        0.62039       -11.53024         1.55758
|103>    H       -3.07299       -12.94262         2.53372
|104>    H       -0.40304       -13.54199         1.13777
|105>    H        0.67469       -15.70630         1.90606
|106>    H       -1.44252       -18.56753         5.23225
|107>    H       -3.90510       -16.75344         5.57947
|108>    H       -2.97560       -19.41708         6.81228
|109>    H       -8.34780       -16.31854         8.03892
|110>    H       -9.88302       -17.33683         9.70890
|111>    H       -7.18593       -20.59158        10.28912
|112>    H      -10.53819       -19.79057        10.64231
|113>    H       -9.71267       -18.91957        11.92718
|114>    H       -9.18323       -20.54894        11.48955
|115> *
|116>
|117>                          ****END OF INPUT****

CARTESIAN COORDINATES (ANGSTROEM)
---------------------------------
  C     -4.810740   -0.675970   -3.720850
  C     -4.915260   -0.568420   -2.359480
  C     -4.274450   -1.440770   -1.457140
  N     -3.743340   -2.112310   -0.692760
  C     -5.597560    0.477830   -1.703680
  N     -6.149350    1.299470   -1.122870
  C     -5.229330    0.344940   -4.680300
  C     -4.534280    0.145420   -5.888290
  C     -4.702070    1.006460   -6.956700
  C     -5.578860    2.069360   -6.813900
  C     -6.288610    2.273120   -5.630950
  C     -6.111730    1.403120   -4.555770
  C     -7.253330    3.409520   -5.519000
  C     -3.692460   -1.055980   -5.781720
  O     -2.919150   -1.510260   -6.591800
  C     -4.032720   -1.654180   -4.452230
  C     -3.656230   -2.934760   -4.203930
  C     -4.119070   -3.848370   -3.223000
  S     -3.154990   -5.246690   -2.838430
  C     -4.330810   -5.835150   -1.713830
  C     -5.442790   -4.980620   -1.681490
  C     -5.311050   -3.870380   -2.524770
  C     -6.602030   -5.188840   -0.916270
  N     -7.573390   -5.330130   -0.320980
  C     -4.062660   -7.031780   -1.009270
  C     -4.855590   -7.572700   -0.044480
  C     -4.529000   -8.786900    0.604220
  N     -5.304730   -9.364000    1.580030
  C     -6.572740   -8.880410    2.072790
  C     -7.715000   -9.181730    1.106250
  C     -4.749120  -10.570470    2.054730
  O     -5.256200  -11.254500    2.916150
  C     -3.526600  -10.715070    1.292740
  C     -3.417850   -9.613560    0.416070
  C     -2.196290   -9.777410   -0.335200
  O     -1.679870   -9.103750   -1.206510
  N     -1.640330  -10.981200    0.139900
  C     -0.365550  -11.416520   -0.376930
  C      0.779880  -11.085850    0.577600
  C     -2.425180  -11.553360    1.119590
  C     -2.255690  -12.757860    1.845380
  C     -1.251700  -13.670320    1.791290
  C     -1.209250  -14.855990    2.567250
  S     -2.457100  -15.317070    3.694740
  C     -1.608440  -16.771540    4.119410
  C     -0.409910  -16.870660    3.401360
  C     -0.193810  -15.795190    2.534780
  C      0.481040  -17.949450    3.540460
  N      1.215850  -18.823690    3.642640
  C     -2.083250  -17.708970    5.062110
  C     -3.256310  -17.602630    5.743170
  C     -3.657320  -18.587440    6.673800
  C     -4.818580  -18.560280    7.391360
  C     -5.268540  -19.542940    8.360700
  C     -4.612140  -20.680460    8.750920
  C     -3.357020  -21.115290    8.274020
  N     -2.343110  -21.540530    7.942500
  C     -5.106720  -21.595700    9.704960
  N     -5.446190  -22.381320   10.470190
  C     -6.567340  -19.101040    8.864650
  C     -6.913860  -17.891210    8.238490
  C     -5.853570  -17.492820    7.298530
  O     -5.836230  -16.503070    6.598200
  C     -8.101610  -17.246560    8.531510
  C     -8.949460  -17.821390    9.462560
  C     -8.624340  -19.021520   10.095880
  C     -7.426310  -19.664580    9.794360
  C     -9.565440  -19.610380   11.097900
  H     -4.154580    0.845760   -7.872520
  H     -5.720450    2.757360   -7.634410
  H     -6.669830    1.561900   -3.646440
  H     -6.913590    4.266160   -6.096070
  H     -7.385860    3.706380   -4.481880
  H     -8.225130    3.106460   -5.910400
  H     -2.932900   -3.334750   -4.909110
  H     -6.088350   -3.136100   -2.646870
  H     -3.143300   -7.537340   -1.277750
  H     -5.765300   -7.073560    0.251210
  H     -6.506100   -7.806800    2.268150
  H     -6.744830   -9.402930    3.017990
  H     -7.564120   -8.681930    0.152250
  H     -8.652190   -8.835490    1.531970
  H     -7.784210  -10.253060    0.933390
  H     -0.223080  -10.865170   -1.311710
  H     -0.405790  -12.483300   -0.610250
  H      0.855150  -10.008200    0.699070
  H      1.717770  -11.454380    0.170970
  H      0.620390  -11.530240    1.557580
  H     -3.072990  -12.942620    2.533720
  H     -0.403040  -13.541990    1.137770
  H      0.674690  -15.706300    1.906060
  H     -1.442520  -18.567530    5.232250
  H     -3.905100  -16.753440    5.579470
  H     -2.975600  -19.417080    6.812280
  H     -8.347800  -16.318540    8.038920
  H     -9.883020  -17.336830    9.708900
  H     -7.185930  -20.591580   10.289120
  H    -10.538190  -19.790570   10.642310
  H     -9.712670  -18.919570   11.927180
  H     -9.183230  -20.548940   11.489550

 Total Charge           Charge          ....    0
 Multiplicity           Mult            ....    1
 Number of Electrons    NEL             ....  476
 Basis Dimension        Dim             .... 1120

ORBITAL ENERGIES
----------------

  NO   OCC          E(Eh)            E(eV)
   0   2.0000     -88.989692     -2421.5326
   1   2.0000     -88.985064     -2421.4067
   2   2.0000     -19.223399      -523.0953
   3   2.0000     -19.217398      -522.9320
   4   2.0000     -19.200615      -522.4753
   5   2.0000     -19.197326      -522.3858
   6   2.0000     -14.462415      -393.5423
   7   2.0000     -14.459671      -393.4676
   8   2.0000     -14.425286      -392.5320
   9   2.0000     -14.424297      -392.5051
  10   2.0000     -14.422765      -392.4634
  11   2.0000     -14.417035      -392.3075
  12   2.0000     -14.415610      -392.2687
  13   2.0000     -14.414766      -392.2457
  14   2.0000     -10.382649      -282.5262
  15   2.0000     -10.380817      -282.4764
  16   2.0000     -10.374163      -282.2953
  17   2.0000     -10.367574      -282.1160
  18   2.0000     -10.355006      -281.7740
  19   2.0000     -10.352216      -281.6981
  20   2.0000     -10.350441      -281.6498
  21   2.0000     -10.346695      -281.5479
  22   2.0000     -10.345697      -281.5207
  23   2.0000     -10.344037      -281.4755
  24   2.0000     -10.341009      -281.3932
  25   2.0000     -10.338341      -281.3205
  26   2.0000     -10.334354      -281.2121
  27   2.0000     -10.333167      -281.1798
  28   2.0000     -10.331696      -281.1397
  29   2.0000     -10.331378      -281.1311
  30   2.0000     -10.330143      -281.0975
  31   2.0000     -10.326458      -280.9972
  32   2.0000     -10.325913      -280.9824
  33   2.0000     -10.323652      -280.9208
  34   2.0000     -10.319290      -280.8022
  35   2.0000     -10.318392      -280.7777
  36   2.0000     -10.317606      -280.7563
  37   2.0000     -10.315530      -280.6998
  38   2.0000     -10.315049      -280.6867
  39   2.0000     -10.314955      -280.6842
  40   2.0000     -10.314587      -280.6742
  41   2.0000     -10.313972      -280.6575
  42   2.0000     -10.312611      -280.6204
  43   2.0000     -10.310203      -280.5549
  44   2.0000     -10.310139      -280.5532
  45   2.0000     -10.308997      -280.5221
  46   2.0000     -10.308906      -280.5196
  47   2.0000     -10.308068      -280.4968
  48   2.0000     -10.306124      -280.4439
  49   2.0000     -10.305887      -280.4375
  50   2.0000     -10.304686      -280.4048
  51   2.0000     -10.301626      -280.3215
  52   2.0000     -10.299921      -280.2751
  53   2.0000     -10.299856      -280.2733
  54   2.0000     -10.297979      -280.2223
  55   2.0000     -10.297072      -280.1976
  56   2.0000     -10.296998      -280.1956
  57   2.0000     -10.294535      -280.1285
  58   2.0000     -10.293600      -280.1031
  59   2.0000     -10.290052      -280.0066
  60   2.0000     -10.289365      -279.9879
  61   2.0000     -10.288092      -279.9532
  62   2.0000     -10.280762      -279.7538
  63   2.0000     -10.274320      -279.5785
  64   2.0000     -10.271755      -279.5087
  65   2.0000     -10.271159      -279.4925
  66   2.0000     -10.270351      -279.4705
  67   2.0000     -10.261821      -279.2383
  68   2.0000      -8.085303      -220.0123
  69   2.0000      -8.080097      -219.8706
  70   2.0000      -6.054385      -164.7482
  71   2.0000      -6.050252      -164.6357
  72   2.0000      -6.049199      -164.6071
  73   2.0000      -6.047703      -164.5664
  74   2.0000      -6.045240      -164.4994
  75   2.0000      -6.042376      -164.4214
  76   2.0000      -1.141595       -31.0644
  77   2.0000      -1.138787       -30.9880
  78   2.0000      -1.134416       -30.8690
  79   2.0000      -1.131794       -30.7977
  80   2.0000      -1.071049       -29.1447
  81   2.0000      -1.062241       -28.9050
  82   2.0000      -1.031372       -28.0651
  83   2.0000      -1.024215       -27.8703
  84   2.0000      -1.022816       -27.8322
  85   2.0000      -1.018337       -27.7104
  86   2.0000      -1.004936       -27.3457
  87   2.0000      -1.003515       -27.3070
  88   2.0000      -1.000463       -27.2240
  89   2.0000      -0.996518       -27.1166
  90   2.0000      -0.994282       -27.0558
  91   2.0000      -0.993674       -27.0392
  92   2.0000      -0.960993       -26.1500
  93   2.0000      -0.953734       -25.9524
  94   2.0000      -0.938560       -25.5395
  95   2.0000      -0.936864       -25.4934
  96   2.0000      -0.931078       -25.3359
  97   2.0000      -0.918405       -24.9911
  98   2.0000      -0.913718       -24.8635
  99   2.0000      -0.903438       -24.5838
 100   2.0000      -0.902591       -24.5607
 101   2.0000      -0.884301       -24.0631
 102   2.0000      -0.880724       -23.9657
 103   2.0000      -0.878387       -23.9021
 104   2.0000      -0.872394       -23.7390
 105   2.0000      -0.871409       -23.7123
 106   2.0000      -0.862881       -23.4802
 107   2.0000      -0.855682       -23.2843
 108   2.0000      -0.843586       -22.9552
 109   2.0000      -0.825989       -22.4763
 110   2.0000      -0.823314       -22.4035
 111   2.0000      -0.815458       -22.1897
 112   2.0000      -0.798542       -21.7294
 113   2.0000      -0.791129       -21.5277
 114   2.0000      -0.783850       -21.3297
 115   2.0000      -0.776801       -21.1378
 116   2.0000      -0.765682       -20.8353
 117   2.0000      -0.754303       -20.5256
 118   2.0000      -0.749466       -20.3940
 119   2.0000      -0.735472       -20.0132
 120   2.0000      -0.730540       -19.8790
 121   2.0000      -0.721556       -19.6345
 122   2.0000      -0.718177       -19.5426
 123   2.0000      -0.708734       -19.2856
 124   2.0000      -0.703300       -19.1378
 125   2.0000      -0.699996       -19.0478
 126   2.0000      -0.697401       -18.9773
 127   2.0000      -0.686793       -18.6886
 128   2.0000      -0.684286       -18.6204
 129   2.0000      -0.682067       -18.5600
 130   2.0000      -0.669801       -18.2262
 131   2.0000      -0.669072       -18.2064
 132   2.0000      -0.660794       -17.9811
 133   2.0000      -0.656772       -17.8717
 134   2.0000      -0.652770       -17.7628
 135   2.0000      -0.640237       -17.4217
 136   2.0000      -0.632260       -17.2047
 137   2.0000      -0.625573       -17.0227
 138   2.0000      -0.618688       -16.8354
 139   2.0000      -0.613231       -16.6869
 140   2.0000      -0.608047       -16.5458
 141   2.0000      -0.602396       -16.3920
 142   2.0000      -0.599717       -16.3191
 143   2.0000      -0.591443       -16.0940
 144   2.0000      -0.586727       -15.9656
 145   2.0000      -0.579525       -15.7697
 146   2.0000      -0.578599       -15.7445
 147   2.0000      -0.572513       -15.5789
 148   2.0000      -0.566712       -15.4210
 149   2.0000      -0.565105       -15.3773
 150   2.0000      -0.557092       -15.1592
 151   2.0000      -0.553182       -15.0528
 152   2.0000      -0.549207       -14.9447
 153   2.0000      -0.546105       -14.8603
 154   2.0000      -0.542714       -14.7680
 155   2.0000      -0.540943       -14.7198
 156   2.0000      -0.538678       -14.6582
 157   2.0000      -0.537924       -14.6377
 158   2.0000      -0.537199       -14.6179
 159   2.0000      -0.533840       -14.5265
 160   2.0000      -0.531590       -14.4653
 161   2.0000      -0.530422       -14.4335
 162   2.0000      -0.526444       -14.3253
 163   2.0000      -0.526008       -14.3134
 164   2.0000      -0.523222       -14.2376
 165   2.0000      -0.521694       -14.1960
 166   2.0000      -0.518674       -14.1138
 167   2.0000      -0.517274       -14.0758
 168   2.0000      -0.515434       -14.0257
 169   2.0000      -0.513800       -13.9812
 170   2.0000      -0.511316       -13.9136
 171   2.0000      -0.511061       -13.9067
 172   2.0000      -0.510536       -13.8924
 173   2.0000      -0.503389       -13.6979
 174   2.0000      -0.501057       -13.6345
 175   2.0000      -0.495992       -13.4966
 176   2.0000      -0.495155       -13.4739
 177   2.0000      -0.491862       -13.3842
 178   2.0000      -0.491104       -13.3636
 179   2.0000      -0.488436       -13.2910
 180   2.0000      -0.482887       -13.1400
 181   2.0000      -0.478957       -13.0331
 182   2.0000      -0.475755       -12.9460
 183   2.0000      -0.472157       -12.8480
 184   2.0000      -0.471706       -12.8358
 185   2.0000      -0.467369       -12.7178
 186   2.0000      -0.464704       -12.6452
 187   2.0000      -0.463044       -12.6001
 188   2.0000      -0.461380       -12.5548
 189   2.0000      -0.458601       -12.4792
 190   2.0000      -0.458443       -12.4749
 191   2.0000      -0.457062       -12.4373
 192   2.0000      -0.456317       -12.4170
 193   2.0000      -0.454772       -12.3750
 194   2.0000      -0.451776       -12.2934
 195   2.0000      -0.451180       -12.2772
 196   2.0000      -0.450687       -12.2638
 197   2.0000      -0.450422       -12.2566
 198   2.0000      -0.449192       -12.2231
 199   2.0000      -0.449001       -12.2179
 200   2.0000      -0.448092       -12.1932
 201   2.0000      -0.447023       -12.1641
 202   2.0000      -0.445848       -12.1321
 203   2.0000      -0.444110       -12.0848
 204   2.0000      -0.442220       -12.0334
 205   2.0000      -0.442098       -12.0301
 206   2.0000      -0.438215       -11.9244
 207   2.0000      -0.435845       -11.8599
 208   2.0000      -0.434361       -11.8196
 209   2.0000      -0.431203       -11.7336
 210   2.0000      -0.428185       -11.6515
 211   2.0000      -0.427584       -11.6351
 212   2.0000      -0.426309       -11.6005
 213   2.0000      -0.421724       -11.4757
 214   2.0000      -0.421153       -11.4602
 215   2.0000      -0.418171       -11.3790
 216   2.0000      -0.417359       -11.3569
 217   2.0000      -0.416115       -11.3231
 218   2.0000      -0.408444       -11.1143
 219   2.0000      -0.406390       -11.0584
 220   2.0000      -0.393381       -10.7044
 221   2.0000      -0.379757       -10.3337
 222   2.0000      -0.359710        -9.7882
 223   2.0000      -0.356391        -9.6979
 224   2.0000      -0.347799        -9.4641
 225   2.0000      -0.347270        -9.4497
 226   2.0000      -0.347160        -9.4467
 227   2.0000      -0.341633        -9.2963
 228   2.0000      -0.340046        -9.2531
 229   2.0000      -0.339492        -9.2380
 230   2.0000      -0.336040        -9.1441
 231   2.0000      -0.331752        -9.0274
 232   2.0000      -0.323709        -8.8086
 233   2.0000      -0.322310        -8.7705
 234   2.0000      -0.313773        -8.5382
 235   2.0000      -0.299678        -8.1546
 236   2.0000      -0.283432        -7.7126
 237   2.0000      -0.241251        -6.5648
 238   0.0000      -0.118393        -3.2216
 239   0.0000      -0.100747        -2.7415
 240   0.0000      -0.082840        -2.2542
 241   0.0000      -0.066273        -1.8034
 242   0.0000      -0.060335        -1.6418

MULLIKEN ATOMIC CHARGES
-----------------------
   0 C :    0.258967
   1 C :   -0.329616
   2 C :   -0.198542
   3 N :    0.174934
   4 C :   -0.170357
   5 N :    0.161027
   6 C :    0.025832
   7 C :   -0.003498
   8 C :   -0.016677
   9 C :    0.006151
  10 C :   -0.040597
  11 C :   -0.060327
  12 C :    0.085007
  13 C :    0.136828
  14 O :   -0.140223
  15 C :   -0.128197
  16 C :    0.091813
  17 C :   -0.111854
  18 S :    0.209043
  19 C :   -0.045633
  20 C :   -0.088997
  21 C :    0.057497
  22 C :   -0.167365
  23 N :    0.125715
  24 C :    0.060499
  25 C :   -0.032294
  26 C :    0.145673
  27 N :   -0.263441
  28 C :    0.093547
  29 C :    0.009180
  30 C :    0.151301
  31 O :   -0.184245
  32 C :   -0.037066
  33 C :   -0.060954
  34 C :    0.165685
  35 O :   -0.216756
  36 N :   -0.267427
  37 C :    0.098786
  38 C :    0.000562
  39 C :    0.112311
  40 C :   -0.036704
  41 C :    0.024154
  42 C :   -0.030783
  43 S :    0.170184
  44 C :   -0.035926
  45 C :   -0.024335
  46 C :    0.004032
  47 C :   -0.194067
  48 N :    0.144430
  49 C :    0.003595
  50 C :   -0.002769
  51 C :   -0.050950
  52 C :   -0.059283
  53 C :    0.331884
  54 C :   -0.346891
  55 C :   -0.191462
  56 N :    0.157093
  57 C :   -0.182212
  58 N :    0.146531
  59 C :    0.039065
  60 C :   -0.023990
  61 C :    0.145697
  62 O :   -0.147353
  63 C :   -0.018395
  64 C :    0.008472
  65 C :   -0.037063
  66 C :   -0.061238
  67 C :    0.086803
  68 H :   -0.001866
  69 H :   -0.011650
  70 H :   -0.006124
  71 H :    0.026195
  72 H :    0.033971
  73 H :    0.044117
  74 H :    0.028261
  75 H :    0.010607
  76 H :    0.005439
  77 H :   -0.008138
  78 H :    0.036505
  79 H :    0.043136
  80 H :    0.017348
  81 H :    0.029533
  82 H :    0.025150
  83 H :    0.044742
  84 H :    0.024483
  85 H :    0.031592
  86 H :    0.023100
  87 H :    0.021421
  88 H :    0.019484
  89 H :   -0.009943
  90 H :    0.000902
  91 H :    0.033222
  92 H :    0.034744
  93 H :    0.014021
  94 H :   -0.004733
  95 H :   -0.015283
  96 H :   -0.012900
  97 H :    0.035199
  98 H :    0.036782
  99 H :    0.025866
Sum of atomic charges:   -0.0000000

LOEWDIN ATOMIC CHARGES
----------------------
   0 C :    0.065493
   1 C :   -0.133751
   2 C :   -0.018729
   3 N :   -0.037393
   4 C :   -0.020379
   5 N :   -0.043703
   6 C :   -0.008019
   7 C :   -0.054119
   8 C :    0.019901
   9 C :   -0.007189
  10 C :    0.004738
  11 C :   -0.008079
  12 C :   -0.042672
  13 C :    0.084377
  14 O :   -0.137425
  15 C :   -0.081729
  16 C :    0.041729
  17 C :   -0.179676
  18 S :    0.510160
  19 C :   -0.127832
  20 C :   -0.098230
  21 C :    0.009907
  22 C :   -0.024577
  23 N :   -0.054587
  24 C :    0.001139
  25 C :   -0.023330
  26 C :    0.082445
  27 N :   -0.000160
  28 C :    0.036601
  29 C :   -0.058634
  30 C :    0.080293
  31 O :   -0.186382
  32 C :   -0.104279
  33 C :   -0.121903
  34 C :    0.082363
  35 O :   -0.202129
  36 N :   -0.002543
  37 C :    0.034239
  38 C :   -0.063088
  39 C :    0.065902
  40 C :   -0.027003
  41 C :   -0.027418
  42 C :   -0.152874
  43 S :    0.486038
  44 C :   -0.143592
  45 C :   -0.089191
  46 C :   -0.023463
  47 C :   -0.034838
  48 N :   -0.040853
  49 C :    0.004751
  50 C :   -0.021209
  51 C :    0.061110
  52 C :   -0.084790
  53 C :    0.074675
  54 C :   -0.133461
  55 C :   -0.021306
  56 N :   -0.045879
  57 C :   -0.016977
  58 N :   -0.051282
  59 C :   -0.009701
  60 C :   -0.051095
  61 C :    0.084312
  62 O :   -0.141532
  63 C :    0.017513
  64 C :   -0.005231
  65 C :    0.001926
  66 C :   -0.008401
  67 C :   -0.043038
  68 H :    0.041055
  69 H :    0.032709
  70 H :    0.036955
  71 H :    0.035958
  72 H :    0.038527
  73 H :    0.044803
  74 H :    0.047954
  75 H :    0.042508
  76 H :    0.037773
  77 H :    0.037564
  78 H :    0.027955
  79 H :    0.038311
  80 H :    0.023083
  81 H :    0.034435
  82 H :    0.030059
  83 H :    0.038316
  84 H :    0.020721
  85 H :    0.034241
  86 H :    0.031082
  87 H :    0.021959
  88 H :    0.042247
  89 H :    0.036479
  90 H :    0.041089
  91 H :    0.049209
  92 H :    0.030530
  93 H :    0.043652
  94 H :    0.039899
  95 H :    0.031737
  96 H :    0.036375
  97 H :    0.040374
  98 H :    0.041061
  99 H :    0.035437

  Mayer bond orders larger than 0.100000
B(  0-C ,  1-C ) :   1.6621 B(  0-C ,  6-C ) :   0.9956 B(  0-C , 15-C ) :   1.0267
B(  1-C ,  2-C ) :   1.1662 B(  1-C ,  4-C ) :   1.1248 B(  2-C ,  3-N ) :   2.9940
B(  4-C ,  5-N ) :   2.9926 B(  6-C ,  7-C ) :   1.3294 B(  6-C , 11-C ) :   1.3693
B(  7-C ,  8-C ) :   1.3780 B(  7-C , 13-C ) :   0.9321 B(  8-C ,  9-C ) :   1.3570
B(  8-C , 68-H ) :   1.0064 B(  9-C , 10-C ) :   1.3813 B(  9-C , 69-H ) :   0.9927
B( 10-C , 11-C ) :   1.3586 B( 10-C , 12-C ) :   1.0517 B( 11-C , 70-H ) :   0.9872
B( 12-C , 71-H ) :   0.9580 B( 12-C , 72-H ) :   0.9590 B( 12-C , 73-H ) :   0.9510
B( 13-C , 14-O ) :   2.2647 B( 13-C , 15-C ) :   0.9285 B( 15-C , 16-C ) :   1.7146
B( 16-C , 17-C ) :   1.0904 B( 16-C , 74-H ) :   0.9256 B( 17-C , 18-S ) :   1.1265
B( 17-C , 21-C ) :   1.4319 B( 18-S , 19-C ) :   1.1717 B( 19-C , 20-C ) :   1.4035
B( 19-C , 24-C ) :   1.1595 B( 20-C , 21-C ) :   1.3487 B( 20-C , 22-C ) :   1.1200
B( 21-C , 75-H ) :   0.9969 B( 22-C , 23-N ) :   2.9697 B( 24-C , 25-C ) :   1.6049
B( 24-C , 76-H ) :   0.9193 B( 25-C , 26-C ) :   1.1736 B( 25-C , 77-H ) :   0.9506
B( 26-C , 27-N ) :   1.1761 B( 26-C , 33-C ) :   1.3119 B( 27-N , 28-C ) :   0.9371
B( 27-N , 30-C ) :   1.0325 B( 28-C , 29-C ) :   1.1228 B( 28-C , 78-H ) :   0.9489
B( 28-C , 79-H ) :   0.9272 B( 29-C , 80-H ) :   0.9673 B( 29-C , 81-H ) :   0.9676
B( 29-C , 82-H ) :   0.9632 B( 30-C , 31-O ) :   2.1380 B( 30-C , 32-C ) :   0.9703
B( 32-C , 33-C ) :   1.2579 B( 32-C , 39-C ) :   1.3450 B( 33-C , 34-C ) :   0.9928
B( 34-C , 35-O ) :   2.0055 B( 34-C , 36-N ) :   1.0664 B( 35-O , 76-H ) :   0.1191
B( 36-N , 37-C ) :   0.9441 B( 36-N , 39-C ) :   1.1551 B( 37-C , 38-C ) :   1.1150
B( 37-C , 83-H ) :   0.9228 B( 37-C , 84-H ) :   0.9508 B( 38-C , 85-H ) :   0.9610
B( 38-C , 86-H ) :   0.9688 B( 38-C , 87-H ) :   0.9686 B( 39-C , 40-C ) :   1.2074
B( 40-C , 41-C ) :   1.5514 B( 40-C , 88-H ) :   0.9448 B( 41-C , 42-C ) :   1.1718
B( 41-C , 89-H ) :   0.9773 B( 42-C , 43-S ) :   1.1168 B( 42-C , 46-C ) :   1.4329
B( 43-S , 44-C ) :   1.1240 B( 44-C , 45-C ) :   1.4169 B( 44-C , 49-C ) :   1.1767
B( 45-C , 46-C ) :   1.2937 B( 45-C , 47-C ) :   1.1017 B( 46-C , 90-H ) :   1.0094
B( 47-C , 48-N ) :   3.0220 B( 49-C , 50-C ) :   1.5508 B( 49-C , 91-H ) :   0.9728
B( 50-C , 51-C ) :   1.1596 B( 50-C , 92-H ) :   0.9792 B( 51-C , 52-C ) :   1.5537
B( 51-C , 93-H ) :   0.9642 B( 52-C , 53-C ) :   1.0597 B( 52-C , 61-C ) :   0.9350
B( 53-C , 54-C ) :   1.6361 B( 53-C , 59-C ) :   0.9849 B( 54-C , 55-C ) :   1.1436
B( 54-C , 57-C ) :   1.1431 B( 55-C , 56-N ) :   2.9647 B( 57-C , 58-N ) :   2.9634
B( 59-C , 60-C ) :   1.3383 B( 59-C , 66-C ) :   1.3569 B( 60-C , 61-C ) :   0.9531
B( 60-C , 63-C ) :   1.3679 B( 61-C , 62-O ) :   2.2011 B( 63-C , 64-C ) :   1.3588
B( 63-C , 94-H ) :   1.0072 B( 64-C , 65-C ) :   1.3713 B( 64-C , 95-H ) :   0.9948
B( 65-C , 66-C ) :   1.3689 B( 65-C , 67-C ) :   1.0501 B( 66-C , 96-H ) :   0.9823
B( 67-C , 97-H ) :   0.9545 B( 67-C , 98-H ) :   0.9540 B( 67-C , 99-H ) :   0.9604

-----------------------------------------------------------------------------
         ABSORPTION SPECTRUM VIA TRANSITION ELECTRIC DIPOLE MOMENTS
-----------------------------------------------------------------------------
State   Energy  Wavelength   fosc         T2         TX        TY        TZ
        (cm-1)    (nm)                  (au**2)     (au)      (au)      (au)
-----------------------------------------------------------------------------
   0   12571.4    795.5   1.296550459  33.95336  -0.95615   5.09185  -2.66688
   1   17953.3    557.0   0.106502560   1.95296  -1.02708  -0.04452   0.94661
   2   21725.7    460.3   0.215941043   3.27217  -1.33576  -0.82991   0.89397
   3   22443.8    445.6   0.541976701   7.94988  -1.58369  -1.23232   1.98071
   4   24309.5    411.4   0.574363142   7.77834   0.32288  -2.57880   1.01186
   5   25503.6    392.1   0.045210188   0.58359  -0.14832  -0.62888   0.40755
   6   26186.3    381.9   0.036812640   0.46281   0.17921   0.49320  -0.43295
   7   27070.7    369.4   0.000052689   0.00064   0.01306  -0.00200  -0.02159
   8   27295.7    366.4   0.160243006   1.93268  -0.89721  -0.56079   0.90179
   9   27601.3    362.3   0.009474928   0.11301  -0.27425  -0.17242   0.08984
  10   28090.5    356.0   0.010509104   0.12316  -0.32406   0.07483   0.11202
  11   28838.1    346.8   0.216921985   2.47635  -1.31163  -0.02509   0.86910
  12   28936.1    345.6   0.107554830   1.22368  -0.50745   0.68401  -0.70590
  13   29207.1    342.4   0.065346970   0.73657  -0.08335  -0.28787   0.80421
  14   29796.7    335.6   0.075749185   0.83692   0.47460  -0.15955  -0.76565
  15   30848.0    324.2   0.107636987   1.14871  -0.07745   0.51815  -0.93501
  16   31084.4    321.7   0.000344333   0.00365   0.05266   0.01073  -0.02754
  17   32205.8    310.5   0.012638293   0.12919   0.27597  -0.22847  -0.02885
  18   32214.2    310.4   0.001481081   0.01514  -0.08331   0.08735   0.02376
  19   32542.3    307.3   0.047411816   0.47964   0.56179  -0.39619  -0.08404
  20   33034.2    302.7   0.064099368   0.63880   0.13144   0.19244  -0.76452
  21   33474.5    298.7   0.004373724   0.04301  -0.12972   0.13517  -0.08896
  22   33809.4    295.8   0.091308480   0.88910  -0.91915   0.08940   0.19046
  23   33855.6    295.4   0.015355198   0.14931  -0.21573  -0.00904   0.32046
  24   33982.5    294.3   0.011805490   0.11437  -0.25463   0.19300  -0.11082
  25   34442.0    290.3   0.188219702   1.79909   0.03080  -0.92848   0.96750
  26   35061.5    285.2   0.330722288   3.10533   1.49436  -0.69524  -0.62359
  27   35236.6    283.8   0.085329380   0.79722  -0.71314   0.53727  -0.00127
  28   35769.9    279.6   0.044680805   0.41122  -0.32426   0.22436  -0.50571
  29   35947.8    278.2   0.104887152   0.96056  -0.50394  -0.55549   0.63091
  30   36618.4    273.1   0.139317521   1.25251   0.47535  -0.92507   0.41328
  31   37358.1    267.7   0.339907169   2.99538   0.57882  -0.97673   1.30627
  32   37412.5    267.3   0.405836261   3.57116  -1.26167   1.40574   0.05689
  33   38075.9    262.6   0.004233398   0.03660   0.10240  -0.13036   0.09551
  34   38295.2    261.1   0.366157858   3.14774   0.43009   0.21220  -1.70814
  35   38382.9    260.5   0.077032276   0.66071   0.01851  -0.48326   0.65332
  36   38735.9    258.2   0.031958744   0.27161  -0.35694   0.37671  -0.04791
  37   39076.5    255.9   0.009995907   0.08421  -0.11189  -0.09926   0.24868
  38   39127.3    255.6   0.064119537   0.53949   0.11592   0.52407  -0.50141
  39   39148.5    255.4   0.001880326   0.01581   0.04341   0.08782  -0.07883
  40   39271.6    254.6   0.035039921   0.29374  -0.45400  -0.08721   0.28287
  41   39628.6    252.3   0.185960122   1.54485   0.98033  -0.51163  -0.56749
  42   39996.1    250.0   0.197611559   1.62656  -0.13694  -1.04979   0.71116

FINAL SINGLE POINT ENERGY     -3608.400584170833

DIPOLE MOMENT
-------------
                                X             Y             Z
Electronic contribution:     18.51014      -7.39692      -1.88190
Nuclear contribution   :    -20.33934      10.57264      -0.82203
                        -----------------------------------------
Total Dipole Moment    :     -1.82919       3.17572      -2.70393
                        -----------------------------------------
Magnitude (a.u.)       :      4.55438
Magnitude (Debye)      :     11.57631

Rotational constants in cm-1:     0.002352     0.000231     0.000213
Rotational constants in MHz :    70.510560     6.921371     6.377624

                             ****ORCA TERMINATED NORMALLY****
TOTAL RUN TIME: 0 days 0 hours 8 minutes 6 seconds 227 msec
