                         Program Version 4.2.0 -  RELEASE  -
|  1> # ORCA input file
|  2> # SCF done       -172.880983558751          0.000768987430
|  3> ! CAM-B3LYP def2-SVP def2/J RIJCOSX Grid4 TightSCF
|  4> %maxcore 5000
|  5> %tddft
|  6>     Mode sTDDFT
|  7>     Ethresh 5.0
|  8>     maxcore 5000
|  9> end
| 10>
| 11> %pal
| 12>   nprocs 6
| 13>   end
| 14> * xyz 0 1
| 15>    C       -8.48677         2.01045         5.92358
| 16>    C       -9.24599         2.08132         7.05750
| 17>    F       -9.56533         3.27233         7.58093
| 18>    C       -9.70222         0.90724         7.69018
| 19>    F      -10.44512         1.00753         8.80071
| 20>    C       -9.39234        -0.32211         7.17981
| 21>    C       -8.61095        -0.42839         6.01289
| 22>    C       -8.14913         0.75784         5.37203
| 23>    C       -7.36201         0.67611         4.20092
| 24>    C       -7.04644        -0.55427         3.68589
| 25>    C       -7.51515        -1.73253         4.33063
| 26>    C       -8.27400        -1.68555         5.46392
| 27>    C       -7.04036        -2.92064         3.59097
| 28>    O       -7.16886        -4.07631         3.92206
| 29>    C       -6.32507        -2.38536         2.40073
| 30>    C       -6.26388        -0.94131         2.51434
| 31>    C       -5.57875        -0.07650         1.69928
| 32>    C       -5.55256         1.32318         1.87538
| 33>    N       -5.49018         2.46593         1.96288
| 34>    C       -4.78297        -0.44611         0.59494
| 35>    N       -4.11003        -0.66505        -0.30982
| 36>    C       -5.83010        -3.14983         1.38141
| 37>    C       -5.98144        -4.54950         1.26481
| 38>    C       -5.28839        -5.24614         0.31905
| 39>    C       -5.38668        -6.64488         0.14552
| 40>    N       -4.52183        -7.37952        -0.63628
| 41>    C       -3.36265        -6.88269        -1.33824
| 42>    C       -2.20010        -6.60085        -0.39015
| 43>    C       -4.81994        -8.74987        -0.60651
| 44>    O       -4.18553        -9.59233        -1.21039
| 45>    C       -5.98778        -8.84263         0.24361
| 46>    C       -6.31439        -7.53953         0.68210
| 47>    C       -7.52307        -7.62653         1.48070
| 48>    O       -8.20045        -6.78808         2.02946
| 49>    N       -7.82300        -9.00485         1.49951
| 50>    C       -8.98396        -9.50634         2.19529
| 51>    C      -10.12502        -9.83892         1.23699
| 52>    C       -6.92494        -9.73776         0.76670
| 53>    C       -6.97323       -11.14805         0.64792
| 54>    C       -6.08981       -11.86446        -0.10025
| 55>    C       -6.06610       -13.28283        -0.14928
| 56>    C       -6.50598       -14.10493         0.84377
| 57>    C       -6.81561       -13.68034         2.15923
| 58>    C       -7.51231       -14.36870         3.10777
| 59>    C       -7.39521       -14.00905         4.54370
| 60>    O       -6.94692       -12.98076         4.99736
| 61>    C       -7.90718       -15.18614         5.27621
| 62>    C       -7.91557       -15.42442         6.61997
| 63>    C       -8.43435       -16.64909         7.09762
| 64>    C       -8.93526       -17.60734         6.16888
| 65>    C       -9.44337       -18.82957         6.65247
| 66>    C       -9.45635       -19.08737         7.99464
| 67>    C       -8.96303       -18.13806         8.91230
| 68>    C       -8.46261       -16.94387         8.47448
| 69>    F       -8.98799       -18.41762        10.22182
| 70>    F       -9.93959       -20.24916         8.45210
| 71>    C       -8.92388       -17.32905         4.78262
| 72>    C       -8.42055       -16.13422         4.34344
| 73>    C       -8.31380       -15.56601         3.00261
| 74>    C       -9.00819       -15.97034         1.89173
| 75>    C       -9.11730       -15.16858         0.73638
| 76>    N       -9.28111       -14.49597        -0.17901
| 77>    C       -9.78208       -17.14685         1.83607
| 78>    N      -10.40164       -18.10842         1.74436
| 79>    H       -8.14511         2.91884         5.45240
| 80>    H       -9.74888        -1.21145         7.67541
| 81>    H       -7.03080         1.59249         3.74010
| 82>    H       -8.61366        -2.59651         5.93272
| 83>    H       -5.28525        -2.65806         0.58480
| 84>    H       -6.64264        -5.06187         1.94952
| 85>    H       -4.59322        -4.71155        -0.31624
| 86>    H       -3.63194        -5.98511        -1.90165
| 87>    H       -3.07941        -7.66861        -2.04392
| 88>    H       -2.47148        -5.84999         0.34871
| 89>    H       -1.34452        -6.24211        -0.95517
| 90>    H       -1.91569        -7.51204         0.13045
| 91>    H       -9.29525        -8.70558         2.87200
| 92>    H       -8.70525       -10.38037         2.79118
| 93>    H      -10.40815        -8.95188         0.67558
| 94>    H      -10.98806       -10.18120         1.80114
| 95>    H       -9.83816       -10.61744         0.53347
| 96>    H       -7.77873       -11.66389         1.15089
| 97>    H       -5.37789       -11.33681        -0.72344
| 98>    H       -5.66343       -13.73024        -1.04742
| 99>    H       -6.54388       -15.16950         0.64942
|100>    H       -6.35548       -12.75777         2.50146
|101>    H       -7.53042       -14.68947         7.31029
|102>    H       -9.82752       -19.56605         5.96411
|103>    H       -8.08837       -16.22805         9.18950
|104>    H       -9.30527       -18.07199         4.10004
|105> *
|106>
|107>                          ****END OF INPUT****

CARTESIAN COORDINATES (ANGSTROEM)
---------------------------------
  C     -8.486770    2.010450    5.923580
  C     -9.245990    2.081320    7.057500
  F     -9.565330    3.272330    7.580930
  C     -9.702220    0.907240    7.690180
  F    -10.445120    1.007530    8.800710
  C     -9.392340   -0.322110    7.179810
  C     -8.610950   -0.428390    6.012890
  C     -8.149130    0.757840    5.372030
  C     -7.362010    0.676110    4.200920
  C     -7.046440   -0.554270    3.685890
  C     -7.515150   -1.732530    4.330630
  C     -8.274000   -1.685550    5.463920
  C     -7.040360   -2.920640    3.590970
  O     -7.168860   -4.076310    3.922060
  C     -6.325070   -2.385360    2.400730
  C     -6.263880   -0.941310    2.514340
  C     -5.578750   -0.076500    1.699280
  C     -5.552560    1.323180    1.875380
  N     -5.490180    2.465930    1.962880
  C     -4.782970   -0.446110    0.594940
  N     -4.110030   -0.665050   -0.309820
  C     -5.830100   -3.149830    1.381410
  C     -5.981440   -4.549500    1.264810
  C     -5.288390   -5.246140    0.319050
  C     -5.386680   -6.644880    0.145520
  N     -4.521830   -7.379520   -0.636280
  C     -3.362650   -6.882690   -1.338240
  C     -2.200100   -6.600850   -0.390150
  C     -4.819940   -8.749870   -0.606510
  O     -4.185530   -9.592330   -1.210390
  C     -5.987780   -8.842630    0.243610
  C     -6.314390   -7.539530    0.682100
  C     -7.523070   -7.626530    1.480700
  O     -8.200450   -6.788080    2.029460
  N     -7.823000   -9.004850    1.499510
  C     -8.983960   -9.506340    2.195290
  C    -10.125020   -9.838920    1.236990
  C     -6.924940   -9.737760    0.766700
  C     -6.973230  -11.148050    0.647920
  C     -6.089810  -11.864460   -0.100250
  C     -6.066100  -13.282830   -0.149280
  C     -6.505980  -14.104930    0.843770
  C     -6.815610  -13.680340    2.159230
  C     -7.512310  -14.368700    3.107770
  C     -7.395210  -14.009050    4.543700
  O     -6.946920  -12.980760    4.997360
  C     -7.907180  -15.186140    5.276210
  C     -7.915570  -15.424420    6.619970
  C     -8.434350  -16.649090    7.097620
  C     -8.935260  -17.607340    6.168880
  C     -9.443370  -18.829570    6.652470
  C     -9.456350  -19.087370    7.994640
  C     -8.963030  -18.138060    8.912300
  C     -8.462610  -16.943870    8.474480
  F     -8.987990  -18.417620   10.221820
  F     -9.939590  -20.249160    8.452100
  C     -8.923880  -17.329050    4.782620
  C     -8.420550  -16.134220    4.343440
  C     -8.313800  -15.566010    3.002610
  C     -9.008190  -15.970340    1.891730
  C     -9.117300  -15.168580    0.736380
  N     -9.281110  -14.495970   -0.179010
  C     -9.782080  -17.146850    1.836070
  N    -10.401640  -18.108420    1.744360
  H     -8.145110    2.918840    5.452400
  H     -9.748880   -1.211450    7.675410
  H     -7.030800    1.592490    3.740100
  H     -8.613660   -2.596510    5.932720
  H     -5.285250   -2.658060    0.584800
  H     -6.642640   -5.061870    1.949520
  H     -4.593220   -4.711550   -0.316240
  H     -3.631940   -5.985110   -1.901650
  H     -3.079410   -7.668610   -2.043920
  H     -2.471480   -5.849990    0.348710
  H     -1.344520   -6.242110   -0.955170
  H     -1.915690   -7.512040    0.130450
  H     -9.295250   -8.705580    2.872000
  H     -8.705250  -10.380370    2.791180
  H    -10.408150   -8.951880    0.675580
  H    -10.988060  -10.181200    1.801140
  H     -9.838160  -10.617440    0.533470
  H     -7.778730  -11.663890    1.150890
  H     -5.377890  -11.336810   -0.723440
  H     -5.663430  -13.730240   -1.047420
  H     -6.543880  -15.169500    0.649420
  H     -6.355480  -12.757770    2.501460
  H     -7.530420  -14.689470    7.310290
  H     -9.827520  -19.566050    5.964110
  H     -8.088370  -16.228050    9.189500
  H     -9.305270  -18.071990    4.100040

 Total Charge           Charge          ....    0
 Multiplicity           Mult            ....    1
 Number of Electrons    NEL             ....  436
 Basis Dimension        Dim             .... 1026

ORBITAL ENERGIES
----------------

  NO   OCC          E(Eh)            E(eV)
   0   2.0000     -24.802916      -674.9217
   1   2.0000     -24.802274      -674.9042
   2   2.0000     -24.799125      -674.8185
   3   2.0000     -24.798053      -674.7893
   4   2.0000     -19.224097      -523.1143
   5   2.0000     -19.218277      -522.9559
   6   2.0000     -19.203204      -522.5458
   7   2.0000     -19.200393      -522.4693
   8   2.0000     -14.463808      -393.5802
   9   2.0000     -14.462708      -393.5503
  10   2.0000     -14.424839      -392.5198
  11   2.0000     -14.423040      -392.4709
  12   2.0000     -14.421472      -392.4282
  13   2.0000     -14.418724      -392.3534
  14   2.0000     -10.386520      -282.6316
  15   2.0000     -10.386083      -282.6197
  16   2.0000     -10.385532      -282.6047
  17   2.0000     -10.383729      -282.5556
  18   2.0000     -10.382385      -282.5191
  19   2.0000     -10.381519      -282.4955
  20   2.0000     -10.374571      -282.3064
  21   2.0000     -10.368851      -282.1508
  22   2.0000     -10.353557      -281.7346
  23   2.0000     -10.353434      -281.7313
  24   2.0000     -10.349638      -281.6280
  25   2.0000     -10.347921      -281.5812
  26   2.0000     -10.346986      -281.5558
  27   2.0000     -10.345097      -281.5044
  28   2.0000     -10.326921      -281.0098
  29   2.0000     -10.325274      -280.9650
  30   2.0000     -10.324214      -280.9361
  31   2.0000     -10.323638      -280.9205
  32   2.0000     -10.321512      -280.8626
  33   2.0000     -10.317253      -280.7467
  34   2.0000     -10.316556      -280.7277
  35   2.0000     -10.316161      -280.7170
  36   2.0000     -10.315157      -280.6897
  37   2.0000     -10.314826      -280.6807
  38   2.0000     -10.313415      -280.6423
  39   2.0000     -10.311889      -280.6008
  40   2.0000     -10.311459      -280.5891
  41   2.0000     -10.311186      -280.5816
  42   2.0000     -10.309369      -280.5322
  43   2.0000     -10.309142      -280.5260
  44   2.0000     -10.308973      -280.5214
  45   2.0000     -10.308938      -280.5205
  46   2.0000     -10.308902      -280.5195
  47   2.0000     -10.306373      -280.4507
  48   2.0000     -10.306259      -280.4476
  49   2.0000     -10.305534      -280.4278
  50   2.0000     -10.304975      -280.4126
  51   2.0000     -10.304403      -280.3971
  52   2.0000     -10.303623      -280.3758
  53   2.0000     -10.303414      -280.3701
  54   2.0000     -10.302641      -280.3491
  55   2.0000     -10.301747      -280.3248
  56   2.0000     -10.301218      -280.3104
  57   2.0000     -10.300614      -280.2940
  58   2.0000     -10.296089      -280.1708
  59   2.0000     -10.293712      -280.1061
  60   2.0000     -10.278301      -279.6868
  61   2.0000     -10.275005      -279.5971
  62   2.0000     -10.269200      -279.4391
  63   2.0000     -10.266721      -279.3717
  64   2.0000      -1.325718       -36.0746
  65   2.0000      -1.321504       -35.9600
  66   2.0000      -1.310849       -35.6700
  67   2.0000      -1.306606       -35.5546
  68   2.0000      -1.145005       -31.1572
  69   2.0000      -1.138524       -30.9808
  70   2.0000      -1.137866       -30.9629
  71   2.0000      -1.133972       -30.8570
  72   2.0000      -1.075316       -29.2608
  73   2.0000      -1.066287       -29.0151
  74   2.0000      -1.027899       -27.9706
  75   2.0000      -1.023007       -27.8374
  76   2.0000      -1.010812       -27.5056
  77   2.0000      -1.006563       -27.3900
  78   2.0000      -1.002906       -27.2905
  79   2.0000      -0.998448       -27.1692
  80   2.0000      -0.988396       -26.8956
  81   2.0000      -0.983249       -26.7556
  82   2.0000      -0.952883       -25.9293
  83   2.0000      -0.941398       -25.6167
  84   2.0000      -0.937515       -25.5111
  85   2.0000      -0.934917       -25.4404
  86   2.0000      -0.925347       -25.1800
  87   2.0000      -0.910735       -24.7824
  88   2.0000      -0.900306       -24.4986
  89   2.0000      -0.898931       -24.4612
  90   2.0000      -0.893780       -24.3210
  91   2.0000      -0.892123       -24.2759
  92   2.0000      -0.879769       -23.9397
  93   2.0000      -0.867186       -23.5973
  94   2.0000      -0.859164       -23.3790
  95   2.0000      -0.846654       -23.0386
  96   2.0000      -0.841568       -22.9002
  97   2.0000      -0.827772       -22.5248
  98   2.0000      -0.822809       -22.3898
  99   2.0000      -0.815289       -22.1851
 100   2.0000      -0.787650       -21.4331
 101   2.0000      -0.775057       -21.0904
 102   2.0000      -0.771542       -20.9947
 103   2.0000      -0.769156       -20.9298
 104   2.0000      -0.767682       -20.8897
 105   2.0000      -0.747923       -20.3520
 106   2.0000      -0.737702       -20.0739
 107   2.0000      -0.729355       -19.8468
 108   2.0000      -0.724196       -19.7064
 109   2.0000      -0.720518       -19.6063
 110   2.0000      -0.716152       -19.4875
 111   2.0000      -0.711305       -19.3556
 112   2.0000      -0.701290       -19.0831
 113   2.0000      -0.693128       -18.8610
 114   2.0000      -0.690870       -18.7995
 115   2.0000      -0.686308       -18.6754
 116   2.0000      -0.663878       -18.0650
 117   2.0000      -0.663205       -18.0467
 118   2.0000      -0.660717       -17.9790
 119   2.0000      -0.658092       -17.9076
 120   2.0000      -0.651710       -17.7339
 121   2.0000      -0.649647       -17.6778
 122   2.0000      -0.647437       -17.6177
 123   2.0000      -0.643198       -17.5023
 124   2.0000      -0.638108       -17.3638
 125   2.0000      -0.621800       -16.9200
 126   2.0000      -0.620055       -16.8726
 127   2.0000      -0.615921       -16.7601
 128   2.0000      -0.609305       -16.5800
 129   2.0000      -0.602568       -16.3967
 130   2.0000      -0.594262       -16.1707
 131   2.0000      -0.590271       -16.0621
 132   2.0000      -0.589336       -16.0367
 133   2.0000      -0.587125       -15.9765
 134   2.0000      -0.586063       -15.9476
 135   2.0000      -0.581860       -15.8332
 136   2.0000      -0.579604       -15.7718
 137   2.0000      -0.577141       -15.7048
 138   2.0000      -0.573019       -15.5926
 139   2.0000      -0.565374       -15.3846
 140   2.0000      -0.560048       -15.2397
 141   2.0000      -0.555523       -15.1165
 142   2.0000      -0.554947       -15.1009
 143   2.0000      -0.551730       -15.0133
 144   2.0000      -0.547656       -14.9025
 145   2.0000      -0.547617       -14.9014
 146   2.0000      -0.545418       -14.8416
 147   2.0000      -0.543333       -14.7848
 148   2.0000      -0.540373       -14.7043
 149   2.0000      -0.538551       -14.6547
 150   2.0000      -0.538034       -14.6406
 151   2.0000      -0.536996       -14.6124
 152   2.0000      -0.533098       -14.5063
 153   2.0000      -0.531104       -14.4521
 154   2.0000      -0.527450       -14.3527
 155   2.0000      -0.525843       -14.3089
 156   2.0000      -0.521887       -14.2013
 157   2.0000      -0.520925       -14.1751
 158   2.0000      -0.518760       -14.1162
 159   2.0000      -0.515270       -14.0212
 160   2.0000      -0.513881       -13.9834
 161   2.0000      -0.511091       -13.9075
 162   2.0000      -0.506271       -13.7763
 163   2.0000      -0.505687       -13.7604
 164   2.0000      -0.500394       -13.6164
 165   2.0000      -0.499410       -13.5896
 166   2.0000      -0.494270       -13.4498
 167   2.0000      -0.491468       -13.3735
 168   2.0000      -0.487309       -13.2603
 169   2.0000      -0.482879       -13.1398
 170   2.0000      -0.478704       -13.0262
 171   2.0000      -0.477708       -12.9991
 172   2.0000      -0.475158       -12.9297
 173   2.0000      -0.473341       -12.8803
 174   2.0000      -0.470395       -12.8001
 175   2.0000      -0.469914       -12.7870
 176   2.0000      -0.466656       -12.6984
 177   2.0000      -0.463774       -12.6199
 178   2.0000      -0.462803       -12.5935
 179   2.0000      -0.459167       -12.4946
 180   2.0000      -0.458275       -12.4703
 181   2.0000      -0.455645       -12.3987
 182   2.0000      -0.453641       -12.3442
 183   2.0000      -0.453241       -12.3333
 184   2.0000      -0.452087       -12.3019
 185   2.0000      -0.449741       -12.2381
 186   2.0000      -0.447329       -12.1724
 187   2.0000      -0.447090       -12.1659
 188   2.0000      -0.444804       -12.1037
 189   2.0000      -0.442346       -12.0368
 190   2.0000      -0.434943       -11.8354
 191   2.0000      -0.433826       -11.8050
 192   2.0000      -0.433596       -11.7987
 193   2.0000      -0.432856       -11.7786
 194   2.0000      -0.429763       -11.6944
 195   2.0000      -0.428975       -11.6730
 196   2.0000      -0.426945       -11.6178
 197   2.0000      -0.425199       -11.5703
 198   2.0000      -0.413129       -11.2418
 199   2.0000      -0.411466       -11.1966
 200   2.0000      -0.410267       -11.1639
 201   2.0000      -0.396081       -10.7779
 202   2.0000      -0.389359       -10.5950
 203   2.0000      -0.385834       -10.4991
 204   2.0000      -0.373434       -10.1617
 205   2.0000      -0.363010        -9.8780
 206   2.0000      -0.358408        -9.7528
 207   2.0000      -0.344023        -9.3613
 208   2.0000      -0.342518        -9.3204
 209   2.0000      -0.336856        -9.1663
 210   2.0000      -0.326755        -8.8914
 211   2.0000      -0.323507        -8.8031
 212   2.0000      -0.323258        -8.7963
 213   2.0000      -0.316927        -8.6240
 214   2.0000      -0.312089        -8.4924
 215   2.0000      -0.304364        -8.2822
 216   2.0000      -0.300313        -8.1719
 217   2.0000      -0.248384        -6.7589
 218   0.0000      -0.123524        -3.3613
 219   0.0000      -0.097386        -2.6500
 220   0.0000      -0.072179        -1.9641
 221   0.0000      -0.062890        -1.7113
 222   0.0000      -0.054549        -1.4844

MULLIKEN ATOMIC CHARGES
-----------------------
   0 C :   -0.107859
   1 C :    0.242741
   2 F :   -0.171007
   3 C :    0.239415
   4 F :   -0.171381
   5 C :   -0.103624
   6 C :    0.115425
   7 C :    0.112494
   8 C :   -0.084436
   9 C :    0.049567
  10 C :   -0.002185
  11 C :   -0.079156
  12 C :    0.145743
  13 O :   -0.127860
  14 C :   -0.059494
  15 C :    0.330120
  16 C :   -0.346402
  17 C :   -0.181935
  18 N :    0.149289
  19 C :   -0.186833
  20 N :    0.143249
  21 C :   -0.046717
  22 C :    0.008522
  23 C :   -0.017101
  24 C :    0.141763
  25 N :   -0.255868
  26 C :    0.095584
  27 C :    0.001632
  28 C :    0.163535
  29 O :   -0.205132
  30 C :   -0.072860
  31 C :   -0.047554
  32 C :    0.158731
  33 O :   -0.171825
  34 N :   -0.258697
  35 C :    0.094437
  36 C :   -0.002403
  37 C :    0.141282
  38 C :   -0.044443
  39 C :    0.018709
  40 C :    0.059185
  41 C :    0.016558
  42 C :   -0.009891
  43 C :   -0.118976
  44 C :    0.145085
  45 O :   -0.139903
  46 C :    0.001979
  47 C :   -0.077958
  48 C :    0.111099
  49 C :    0.111641
  50 C :   -0.106005
  51 C :    0.242028
  52 C :    0.241174
  53 C :   -0.103698
  54 F :   -0.170788
  55 F :   -0.169833
  56 C :   -0.081314
  57 C :    0.045209
  58 C :    0.271215
  59 C :   -0.327464
  60 C :   -0.212329
  61 N :    0.164524
  62 C :   -0.173676
  63 N :    0.153666
  64 H :    0.007356
  65 H :   -0.000715
  66 H :   -0.006836
  67 H :   -0.008910
  68 H :    0.011751
  69 H :    0.060817
  70 H :   -0.001778
  71 H :    0.028732
  72 H :    0.045893
  73 H :    0.019267
  74 H :    0.028521
  75 H :    0.029161
  76 H :    0.047923
  77 H :    0.030269
  78 H :    0.028149
  79 H :    0.026862
  80 H :    0.028216
  81 H :    0.019035
  82 H :    0.038236
  83 H :    0.020983
  84 H :    0.028462
  85 H :    0.043346
  86 H :   -0.007733
  87 H :    0.007549
  88 H :    0.000404
  89 H :   -0.003956
Sum of atomic charges:   -0.0000000

LOEWDIN ATOMIC CHARGES
----------------------
   0 C :   -0.029079
   1 C :    0.066546
   2 F :   -0.048868
   3 C :    0.068007
   4 F :   -0.049121
   5 C :   -0.032956
   6 C :   -0.007837
   7 C :   -0.006687
   8 C :    0.017496
   9 C :   -0.023270
  10 C :   -0.051481
  11 C :    0.030354
  12 C :    0.081563
  13 O :   -0.123608
  14 C :   -0.079004
  15 C :    0.073882
  16 C :   -0.136237
  17 C :   -0.017478
  18 N :   -0.051436
  19 C :   -0.019168
  20 N :   -0.053102
  21 C :    0.058288
  22 C :    0.016044
  23 C :   -0.003373
  24 C :    0.063834
  25 N :    0.001514
  26 C :    0.036802
  27 C :   -0.060248
  28 C :    0.078801
  29 O :   -0.197735
  30 C :   -0.115326
  31 C :   -0.098086
  32 C :    0.083145
  33 O :   -0.167677
  34 N :    0.002254
  35 C :    0.036273
  36 C :   -0.060661
  37 C :    0.082068
  38 C :   -0.022030
  39 C :    0.026216
  40 C :    0.026139
  41 C :   -0.012925
  42 C :    0.056244
  43 C :   -0.093636
  44 C :    0.081267
  45 O :   -0.142396
  46 C :   -0.054810
  47 C :    0.031533
  48 C :   -0.009214
  49 C :   -0.005752
  50 C :   -0.029942
  51 C :    0.067830
  52 C :    0.068030
  53 C :   -0.032373
  54 F :   -0.048176
  55 F :   -0.047478
  56 C :    0.015076
  57 C :   -0.021170
  58 C :    0.069333
  59 C :   -0.137052
  60 C :   -0.022386
  61 N :   -0.050174
  62 C :   -0.019922
  63 N :   -0.047040
  64 H :    0.047690
  65 H :    0.044943
  66 H :    0.039734
  67 H :    0.040929
  68 H :    0.041536
  69 H :    0.042259
  70 H :    0.036693
  71 H :    0.024807
  72 H :    0.038902
  73 H :    0.023208
  74 H :    0.033130
  75 H :    0.032081
  76 H :    0.039887
  77 H :    0.025953
  78 H :    0.032050
  79 H :    0.032791
  80 H :    0.025691
  81 H :    0.037446
  82 H :    0.042480
  83 H :    0.044404
  84 H :    0.041451
  85 H :    0.047779
  86 H :    0.041304
  87 H :    0.047819
  88 H :    0.045327
  89 H :    0.040078

  Mayer bond orders larger than 0.100000
B(  0-C ,  1-C ) :   1.4423 B(  0-C ,  5-C ) :   0.1086 B(  0-C ,  7-C ) :   1.1857
B(  0-C , 64-H ) :   1.0073 B(  1-C ,  2-F ) :   1.1348 B(  1-C ,  3-C ) :   1.1895
B(  3-C ,  4-F ) :   1.1340 B(  3-C ,  5-C ) :   1.4428 B(  5-C ,  6-C ) :   1.1922
B(  5-C , 65-H ) :   1.0076 B(  6-C ,  7-C ) :   1.2570 B(  6-C , 11-C ) :   1.1885
B(  7-C ,  8-C ) :   1.2200 B(  8-C ,  9-C ) :   1.4449 B(  8-C , 66-H ) :   0.9895
B(  9-C , 10-C ) :   1.2221 B(  9-C , 15-C ) :   0.9866 B( 10-C , 11-C ) :   1.4742
B( 10-C , 12-C ) :   0.9300 B( 11-C , 67-H ) :   1.0163 B( 12-C , 13-O ) :   2.2335
B( 12-C , 14-C ) :   0.9327 B( 14-C , 15-C ) :   1.0658 B( 14-C , 21-C ) :   1.5466
B( 15-C , 16-C ) :   1.6256 B( 16-C , 17-C ) :   1.1450 B( 16-C , 19-C ) :   1.1452
B( 17-C , 18-N ) :   2.9611 B( 19-C , 20-N ) :   2.9619 B( 21-C , 22-C ) :   1.1521
B( 21-C , 68-H ) :   0.9611 B( 22-C , 23-C ) :   1.5378 B( 22-C , 69-H ) :   0.9677
B( 23-C , 24-C ) :   1.1274 B( 23-C , 70-H ) :   0.9722 B( 24-C , 25-N ) :   1.1542
B( 24-C , 31-C ) :   1.3508 B( 25-N , 26-C ) :   0.9439 B( 25-N , 28-C ) :   1.0664
B( 26-C , 27-C ) :   1.1198 B( 26-C , 71-H ) :   0.9501 B( 26-C , 72-H ) :   0.9282
B( 27-C , 73-H ) :   0.9683 B( 27-C , 74-H ) :   0.9680 B( 27-C , 75-H ) :   0.9640
B( 28-C , 29-O ) :   2.0406 B( 28-C , 30-C ) :   0.9819 B( 29-O , 82-H ) :   0.1022
B( 30-C , 31-C ) :   1.2725 B( 30-C , 37-C ) :   1.3190 B( 31-C , 32-C ) :   0.9638
B( 32-C , 33-O ) :   2.1039 B( 32-C , 34-N ) :   1.0373 B( 34-N , 35-C ) :   0.9394
B( 34-N , 37-C ) :   1.1800 B( 35-C , 36-C ) :   1.1183 B( 35-C , 76-H ) :   0.9281
B( 35-C , 77-H ) :   0.9489 B( 36-C , 78-H ) :   0.9629 B( 36-C , 79-H ) :   0.9679
B( 36-C , 80-H ) :   0.9690 B( 37-C , 38-C ) :   1.1666 B( 38-C , 39-C ) :   1.5946
B( 38-C , 81-H ) :   0.9503 B( 39-C , 40-C ) :   1.1641 B( 39-C , 82-H ) :   0.9387
B( 40-C , 41-C ) :   1.6748 B( 40-C , 83-H ) :   0.9590 B( 41-C , 42-C ) :   1.1297
B( 41-C , 84-H ) :   0.9532 B( 42-C , 43-C ) :   1.6320 B( 42-C , 85-H ) :   0.9349
B( 43-C , 44-C ) :   0.9415 B( 43-C , 58-C ) :   1.0486 B( 44-C , 45-O ) :   2.2695
B( 44-C , 46-C ) :   0.9183 B( 46-C , 47-C ) :   1.4781 B( 46-C , 57-C ) :   1.2162
B( 47-C , 48-C ) :   1.1919 B( 47-C , 86-H ) :   1.0156 B( 48-C , 49-C ) :   1.2576
B( 48-C , 53-C ) :   1.1962 B( 49-C , 50-C ) :   1.1881 B( 49-C , 56-C ) :   1.2131
B( 50-C , 51-C ) :   1.4410 B( 50-C , 53-C ) :   0.1087 B( 50-C , 87-H ) :   1.0066
B( 51-C , 52-C ) :   1.1925 B( 51-C , 55-F ) :   1.1353 B( 52-C , 53-C ) :   1.4405
B( 52-C , 54-F ) :   1.1343 B( 53-C , 88-H ) :   1.0067 B( 56-C , 57-C ) :   1.4569
B( 56-C , 89-H ) :   0.9935 B( 57-C , 58-C ) :   1.0015 B( 58-C , 59-C ) :   1.6412
B( 59-C , 60-C ) :   1.1636 B( 59-C , 62-C ) :   1.1303 B( 60-C , 61-N ) :   2.9974
B( 62-C , 63-N ) :   2.9813

-----------------------------------------------------------------------------
         ABSORPTION SPECTRUM VIA TRANSITION ELECTRIC DIPOLE MOMENTS
-----------------------------------------------------------------------------
State   Energy  Wavelength   fosc         T2         TX        TY        TZ
        (cm-1)    (nm)                  (au**2)     (au)      (au)      (au)
-----------------------------------------------------------------------------
   0   11907.3    839.8   0.881096542  24.36039   1.01152   4.82517  -0.23453
   1   18514.7    540.1   0.095473330   1.69763  -0.54793   0.06845   1.18013
   2   24111.6    414.7   0.019340651   0.26407   0.11234  -0.48896  -0.11120
   3   24443.8    409.1   0.046917973   0.63190  -0.25372  -0.71907   0.22462
   4   24598.2    406.5   0.227055093   3.03881   0.34409   1.68105  -0.30739
   5   24879.5    401.9   0.073944267   0.97845   0.41523   0.79422  -0.41863
   6   24964.2    400.6   0.014932925   0.19693   0.14187   0.41187  -0.08461
   7   25981.7    384.9   0.004914138   0.06227   0.00027  -0.23274  -0.08998
   8   26135.1    382.6   0.016203327   0.20411   0.12753  -0.42432   0.08828
   9   26665.2    375.0   0.320634497   3.95859   0.18658   1.74450  -0.93835
  10   26973.8    370.7   0.050396166   0.61508  -0.02012  -0.44534  -0.64525
  11   27883.1    358.6   0.044343677   0.52356   0.31581  -0.31692   0.56867
  12   28011.8    357.0   0.000575668   0.00677   0.01705  -0.07992  -0.00933
  13   28640.8    349.2   0.699322643   8.03836   1.20930  -1.69757  -1.92203
  14   29144.6    343.1   0.033579026   0.37930  -0.09897  -0.23919   0.55883
  15   29816.3    335.4   0.044022603   0.48607  -0.38568   0.19241   0.54800
  16   31038.4    322.2   0.060912630   0.64608  -0.76338   0.09584  -0.23267
  17   32346.1    309.2   0.166777222   1.69743  -0.56256   0.02161   1.17494
  18   32938.7    303.6   0.146650946   1.46573   0.90137  -0.78459  -0.19414
  19   33074.4    302.3   0.476615428   4.74408   0.13474   0.62313  -2.08270
  20   33248.0    300.8   0.224830571   2.22621   0.70741  -0.29573  -1.27997
  21   33755.8    296.2   0.049932458   0.48698   0.36665  -0.02799  -0.59310
  22   34194.7    292.4   0.030273575   0.29146   0.09024   0.50817  -0.15838
  23   34235.0    292.1   0.041837769   0.40232   0.40159  -0.13280  -0.47266
  24   34309.9    291.5   0.019496486   0.18707  -0.05405  -0.24839  -0.34994
  25   35353.0    282.9   0.279378710   2.60161   0.14818   0.34089  -1.56954
  26   36096.6    277.0   0.074640657   0.68075  -0.12537  -0.46182   0.67212
  27   36346.3    275.1   0.054658375   0.49508   0.26860   0.25443   0.59849
  28   36719.9    272.3   0.153386745   1.37519   0.79701  -0.71759  -0.47437
  29   36921.4    270.8   0.012397884   0.11055   0.32973   0.03964  -0.01590
  30   37077.0    269.7   0.507576585   4.50684  -0.61811  -0.35658   1.99941
  31   37487.0    266.8   0.138810598   1.21904   0.57915   0.61800   0.70831
  32   37959.7    263.4   0.021345586   0.18512   0.31201   0.00620  -0.29620
  33   38058.6    262.8   0.003314859   0.02867   0.14845  -0.05309   0.06178
  34   38621.7    258.9   0.101611010   0.86613  -0.42981  -0.07269   0.82226
  35   38759.6    258.0   0.033912295   0.28804   0.06763  -0.17547  -0.50267
  36   39598.2    252.5   0.047375592   0.39387   0.24995  -0.36162  -0.44792
  37   39781.4    251.4   0.115681626   0.95733   0.17131   0.95134  -0.15141
  38   40060.5    249.6   0.186644758   1.53382   0.40296  -0.96380  -0.66523
  39   40083.5    249.5   0.143926571   1.18209  -0.10563   1.07705   0.10444

FINAL SINGLE POINT ENERGY     -2946.049019129585

DIPOLE MOMENT
-------------
                                X             Y             Z
Electronic contribution:    -22.99930       4.61673      48.94083
Nuclear contribution   :     23.41127      -6.09217     -47.92797
                        -----------------------------------------
Total Dipole Moment    :      0.41197      -1.47545       1.01286
                        -----------------------------------------
Magnitude (a.u.)       :      1.83645
Magnitude (Debye)      :      4.66789

Rotational constants in cm-1:     0.001548     0.000378     0.000318
Rotational constants in MHz :    46.405840    11.345774     9.538002

                             ****ORCA TERMINATED NORMALLY****
TOTAL RUN TIME: 0 days 0 hours 7 minutes 17 seconds 75 msec
