                         Program Version 4.2.0 -  RELEASE  -
|  1> # ORCA input file
|  2> # SCF done       -237.773787850735          0.000961446781
|  3> ! CAM-B3LYP def2-SVP def2/J RIJCOSX Grid4 TightSCF
|  4> %maxcore 5000
|  5> %tddft
|  6>     Mode sTDDFT
|  7>     Ethresh 5.0
|  8>     maxcore 5000
|  9> end
| 10>
| 11> %pal
| 12>   nprocs 6
| 13>   end
| 14> * xyz 0 1
| 15>    C       -4.20219         2.29564         6.41404
| 16>    C       -3.96284         2.28332         7.75956
| 17>    F       -3.82689         3.43292         8.42963
| 18>    C       -3.85633         1.06302         8.45880
| 19>    F       -3.62234         1.08160         9.77621
| 20>    C       -3.98946        -0.12795         7.80169
| 21>    C       -4.23509        -0.14837         6.41475
| 22>    C       -4.34615         1.08451         5.70706
| 23>    C       -4.59619         1.08824         4.31638
| 24>    C       -4.73280        -0.10392         3.65300
| 25>    C       -4.61024        -1.33008         4.36539
| 26>    C       -4.36731        -1.36415         5.70934
| 27>    C       -4.75404        -2.46441         3.43627
| 28>    O       -4.61727        -3.63690         3.70360
| 29>    C       -4.97314        -1.85014         2.09179
| 30>    C       -4.99785        -0.40271         2.25124
| 31>    C       -5.30888         0.50648         1.27901
| 32>    C       -5.36102         1.90175         1.49228
| 33>    N       -5.41344         3.04142         1.61144
| 34>    C       -5.65671         0.17638        -0.04999
| 35>    N       -5.97255        -0.01986        -1.13531
| 36>    C       -4.95050        -2.53359         0.92322
| 37>    C       -5.05086        -3.96341         0.81400
| 38>    C       -4.23229        -4.67107        -0.08918
| 39>    C       -4.25170        -6.10877        -0.16119
| 40>    N       -3.47729        -6.74906        -1.05833
| 41>    C       -2.66455        -6.05120        -1.80198
| 42>    C       -2.59307        -4.61744        -1.67998
| 43>    N       -3.37439        -3.97269        -0.85613
| 44>    C       -1.67500        -3.88891        -2.48007
| 45>    N       -0.91409        -3.33423        -3.13109
| 46>    C       -1.85522        -6.71814        -2.75841
| 47>    N       -1.18770        -7.22422        -3.53847
| 48>    C       -5.08761        -6.87159         0.67126
| 49>    C       -5.95737        -6.17147         1.51115
| 50>    C       -5.95524        -4.72502         1.56771
| 51>    N       -6.88923        -4.26726         2.40745
| 52>    S       -7.62633        -5.50798         3.08756
| 53>    N       -6.84980        -6.69460         2.36172
| 54>    C       -5.02989        -8.33174         0.67310
| 55>    C       -3.81950        -9.01151         0.82855
| 56>    F       -2.69007        -8.31890         1.01335
| 57>    C       -3.77392       -10.39338         0.86075
| 58>    F       -2.58922       -10.99043         1.03925
| 59>    C       -4.92721       -11.19092         0.74473
| 60>    C       -6.13425       -10.49436         0.57031
| 61>    C       -6.18111        -9.10955         0.53794
| 62>    F       -7.35685        -8.51029         0.32507
| 63>    F       -7.28418       -11.15803         0.41286
| 64>    C       -4.77956       -12.62242         0.81964
| 65>    C       -5.77097       -13.53358         0.93976
| 66>    C       -5.55184       -14.94071         1.06665
| 67>    C       -6.66843       -15.79559         1.25493
| 68>    C       -6.53426       -17.22356         1.37382
| 69>    N       -7.61628       -17.97272         1.64051
| 70>    C       -8.79823       -17.41374         1.67157
| 71>    C       -8.94296       -16.00214         1.45866
| 72>    N       -7.89060       -15.24274         1.30388
| 73>    C      -10.23551       -15.41799         1.47043
| 74>    N      -11.29705       -14.99016         1.49409
| 75>    C       -9.91892       -18.24800         1.91327
| 76>    N      -10.81303       -18.94577         2.07120
| 77>    C       -5.28327       -17.86948         1.25119
| 78>    C       -4.17231       -17.02123         1.10788
| 79>    C       -4.29776       -15.58334         1.00764
| 80>    N       -3.10111       -15.01060         0.83617
| 81>    S       -1.96905       -16.13817         0.80090
| 82>    N       -2.90129       -17.41848         1.00175
| 83>    C       -5.12252       -19.28699         1.32418
| 84>    C       -6.02303       -20.24880         1.00793
| 85>    C       -5.86998       -21.62409         1.57777
| 86>    O       -4.87375       -22.09470         2.06870
| 87>    C       -7.21372       -22.22517         1.47130
| 88>    C       -7.67196       -23.40062         1.99434
| 89>    C       -9.02797       -23.75144         1.80950
| 90>    C       -9.88996       -22.86996         1.09259
| 91>    C      -11.24651       -23.21641         0.93165
| 92>    C      -11.72344       -24.38758         1.45006
| 93>    C      -10.86883       -25.26228         2.15260
| 94>    C       -9.54975       -24.95176         2.33044
| 95>    F      -11.36312       -26.40359         2.64807
| 96>    F      -13.01004       -24.71972         1.29481
| 97>    C       -9.38593       -21.66657         0.55026
| 98>    C       -8.06482       -21.35455         0.73000
| 99>    C       -7.28349       -20.20602         0.28970
|100>    C       -7.59089       -19.39144        -0.76710
|101>    C       -6.73310       -18.37696        -1.23428
|102>    N       -6.06659       -17.52610        -1.62217
|103>    C       -8.79792       -19.47025        -1.49230
|104>    N       -9.77302       -19.47407        -2.09674
|105>    H       -4.28198         3.23803         5.89501
|106>    H       -3.90365        -1.05254         8.35076
|107>    H       -4.66667         2.03618         3.80791
|108>    H       -4.27693        -2.30768         6.22585
|109>    H       -4.79451        -2.01064        -0.01178
|110>    H       -3.75764       -12.97659         0.80926
|111>    H       -6.81054       -13.24595         0.97792
|112>    H       -4.17967       -19.62885         1.73856
|113>    H       -7.01122       -24.05104         2.54713
|114>    H      -11.91229       -22.55635         0.39833
|115>    H       -8.91057       -25.63050         2.87317
|116>    H      -10.06161       -21.00948         0.02642
|117> *
|118>
|119>                          ****END OF INPUT****

CARTESIAN COORDINATES (ANGSTROEM)
---------------------------------
  C     -4.202190    2.295640    6.414040
  C     -3.962840    2.283320    7.759560
  F     -3.826890    3.432920    8.429630
  C     -3.856330    1.063020    8.458800
  F     -3.622340    1.081600    9.776210
  C     -3.989460   -0.127950    7.801690
  C     -4.235090   -0.148370    6.414750
  C     -4.346150    1.084510    5.707060
  C     -4.596190    1.088240    4.316380
  C     -4.732800   -0.103920    3.653000
  C     -4.610240   -1.330080    4.365390
  C     -4.367310   -1.364150    5.709340
  C     -4.754040   -2.464410    3.436270
  O     -4.617270   -3.636900    3.703600
  C     -4.973140   -1.850140    2.091790
  C     -4.997850   -0.402710    2.251240
  C     -5.308880    0.506480    1.279010
  C     -5.361020    1.901750    1.492280
  N     -5.413440    3.041420    1.611440
  C     -5.656710    0.176380   -0.049990
  N     -5.972550   -0.019860   -1.135310
  C     -4.950500   -2.533590    0.923220
  C     -5.050860   -3.963410    0.814000
  C     -4.232290   -4.671070   -0.089180
  C     -4.251700   -6.108770   -0.161190
  N     -3.477290   -6.749060   -1.058330
  C     -2.664550   -6.051200   -1.801980
  C     -2.593070   -4.617440   -1.679980
  N     -3.374390   -3.972690   -0.856130
  C     -1.675000   -3.888910   -2.480070
  N     -0.914090   -3.334230   -3.131090
  C     -1.855220   -6.718140   -2.758410
  N     -1.187700   -7.224220   -3.538470
  C     -5.087610   -6.871590    0.671260
  C     -5.957370   -6.171470    1.511150
  C     -5.955240   -4.725020    1.567710
  N     -6.889230   -4.267260    2.407450
  S     -7.626330   -5.507980    3.087560
  N     -6.849800   -6.694600    2.361720
  C     -5.029890   -8.331740    0.673100
  C     -3.819500   -9.011510    0.828550
  F     -2.690070   -8.318900    1.013350
  C     -3.773920  -10.393380    0.860750
  F     -2.589220  -10.990430    1.039250
  C     -4.927210  -11.190920    0.744730
  C     -6.134250  -10.494360    0.570310
  C     -6.181110   -9.109550    0.537940
  F     -7.356850   -8.510290    0.325070
  F     -7.284180  -11.158030    0.412860
  C     -4.779560  -12.622420    0.819640
  C     -5.770970  -13.533580    0.939760
  C     -5.551840  -14.940710    1.066650
  C     -6.668430  -15.795590    1.254930
  C     -6.534260  -17.223560    1.373820
  N     -7.616280  -17.972720    1.640510
  C     -8.798230  -17.413740    1.671570
  C     -8.942960  -16.002140    1.458660
  N     -7.890600  -15.242740    1.303880
  C    -10.235510  -15.417990    1.470430
  N    -11.297050  -14.990160    1.494090
  C     -9.918920  -18.248000    1.913270
  N    -10.813030  -18.945770    2.071200
  C     -5.283270  -17.869480    1.251190
  C     -4.172310  -17.021230    1.107880
  C     -4.297760  -15.583340    1.007640
  N     -3.101110  -15.010600    0.836170
  S     -1.969050  -16.138170    0.800900
  N     -2.901290  -17.418480    1.001750
  C     -5.122520  -19.286990    1.324180
  C     -6.023030  -20.248800    1.007930
  C     -5.869980  -21.624090    1.577770
  O     -4.873750  -22.094700    2.068700
  C     -7.213720  -22.225170    1.471300
  C     -7.671960  -23.400620    1.994340
  C     -9.027970  -23.751440    1.809500
  C     -9.889960  -22.869960    1.092590
  C    -11.246510  -23.216410    0.931650
  C    -11.723440  -24.387580    1.450060
  C    -10.868830  -25.262280    2.152600
  C     -9.549750  -24.951760    2.330440
  F    -11.363120  -26.403590    2.648070
  F    -13.010040  -24.719720    1.294810
  C     -9.385930  -21.666570    0.550260
  C     -8.064820  -21.354550    0.730000
  C     -7.283490  -20.206020    0.289700
  C     -7.590890  -19.391440   -0.767100
  C     -6.733100  -18.376960   -1.234280
  N     -6.066590  -17.526100   -1.622170
  C     -8.797920  -19.470250   -1.492300
  N     -9.773020  -19.474070   -2.096740
  H     -4.281980    3.238030    5.895010
  H     -3.903650   -1.052540    8.350760
  H     -4.666670    2.036180    3.807910
  H     -4.276930   -2.307680    6.225850
  H     -4.794510   -2.010640   -0.011780
  H     -3.757640  -12.976590    0.809260
  H     -6.810540  -13.245950    0.977920
  H     -4.179670  -19.628850    1.738560
  H     -7.011220  -24.051040    2.547130
  H    -11.912290  -22.556350    0.398330
  H     -8.910570  -25.630500    2.873170
  H    -10.061610  -21.009480    0.026420

 Total Charge           Charge          ....    0
 Multiplicity           Mult            ....    1
 Number of Electrons    NEL             ....  616
 Basis Dimension        Dim             .... 1328

ORBITAL ENERGIES
----------------

  NO   OCC          E(Eh)            E(eV)
   0   2.0000     -89.065212     -2423.5876
   1   2.0000     -89.063554     -2423.5425
   2   2.0000     -24.815966      -675.2768
   3   2.0000     -24.815270      -675.2578
   4   2.0000     -24.814491      -675.2366
   5   2.0000     -24.812237      -675.1753
   6   2.0000     -24.808805      -675.0819
   7   2.0000     -24.807709      -675.0521
   8   2.0000     -24.800336      -674.8515
   9   2.0000     -24.798624      -674.8049
  10   2.0000     -19.235306      -523.4193
  11   2.0000     -19.225485      -523.1521
  12   2.0000     -14.479850      -394.0168
  13   2.0000     -14.478635      -393.9837
  14   2.0000     -14.476948      -393.9378
  15   2.0000     -14.476452      -393.9243
  16   2.0000     -14.470034      -393.7496
  17   2.0000     -14.467886      -393.6912
  18   2.0000     -14.467215      -393.6729
  19   2.0000     -14.465866      -393.6362
  20   2.0000     -14.446614      -393.1124
  21   2.0000     -14.441653      -392.9773
  22   2.0000     -14.441049      -392.9609
  23   2.0000     -14.438709      -392.8972
  24   2.0000     -14.430870      -392.6839
  25   2.0000     -14.429852      -392.6562
  26   2.0000     -14.429823      -392.6554
  27   2.0000     -14.423406      -392.4808
  28   2.0000     -10.399781      -282.9924
  29   2.0000     -10.398738      -282.9641
  30   2.0000     -10.398238      -282.9504
  31   2.0000     -10.396733      -282.9095
  32   2.0000     -10.396141      -282.8934
  33   2.0000     -10.395223      -282.8684
  34   2.0000     -10.394734      -282.8551
  35   2.0000     -10.394115      -282.8382
  36   2.0000     -10.392876      -282.8045
  37   2.0000     -10.392120      -282.7840
  38   2.0000     -10.386393      -282.6281
  39   2.0000     -10.383789      -282.5573
  40   2.0000     -10.382566      -282.5240
  41   2.0000     -10.376686      -282.3640
  42   2.0000     -10.369063      -282.1565
  43   2.0000     -10.367863      -282.1239
  44   2.0000     -10.365425      -282.0576
  45   2.0000     -10.363498      -282.0051
  46   2.0000     -10.361852      -281.9603
  47   2.0000     -10.360266      -281.9172
  48   2.0000     -10.359905      -281.9073
  49   2.0000     -10.359008      -281.8830
  50   2.0000     -10.358708      -281.8748
  51   2.0000     -10.356688      -281.8198
  52   2.0000     -10.352782      -281.7135
  53   2.0000     -10.351172      -281.6697
  54   2.0000     -10.346131      -281.5325
  55   2.0000     -10.339856      -281.3618
  56   2.0000     -10.339089      -281.3409
  57   2.0000     -10.338067      -281.3131
  58   2.0000     -10.336729      -281.2767
  59   2.0000     -10.335757      -281.2502
  60   2.0000     -10.333983      -281.2020
  61   2.0000     -10.333659      -281.1932
  62   2.0000     -10.332489      -281.1613
  63   2.0000     -10.331913      -281.1457
  64   2.0000     -10.331705      -281.1400
  65   2.0000     -10.331417      -281.1321
  66   2.0000     -10.331271      -281.1282
  67   2.0000     -10.330735      -281.1136
  68   2.0000     -10.325823      -280.9799
  69   2.0000     -10.325674      -280.9759
  70   2.0000     -10.323097      -280.9057
  71   2.0000     -10.323082      -280.9053
  72   2.0000     -10.322819      -280.8982
  73   2.0000     -10.321441      -280.8607
  74   2.0000     -10.316172      -280.7173
  75   2.0000     -10.315534      -280.7000
  76   2.0000     -10.314005      -280.6583
  77   2.0000     -10.313416      -280.6423
  78   2.0000     -10.313321      -280.6397
  79   2.0000     -10.312385      -280.6143
  80   2.0000     -10.312329      -280.6127
  81   2.0000     -10.311270      -280.5839
  82   2.0000     -10.310835      -280.5721
  83   2.0000     -10.307468      -280.4805
  84   2.0000     -10.307320      -280.4764
  85   2.0000     -10.306529      -280.4549
  86   2.0000     -10.303343      -280.3682
  87   2.0000     -10.303298      -280.3670
  88   2.0000     -10.301638      -280.3218
  89   2.0000     -10.299713      -280.2694
  90   2.0000      -8.156119      -221.9393
  91   2.0000      -8.154603      -221.8980
  92   2.0000      -6.126861      -166.7204
  93   2.0000      -6.125542      -166.6845
  94   2.0000      -6.119680      -166.5250
  95   2.0000      -6.119056      -166.5080
  96   2.0000      -6.117832      -166.4747
  97   2.0000      -6.117633      -166.4693
  98   2.0000      -1.339348       -36.4455
  99   2.0000      -1.338482       -36.4220
 100   2.0000      -1.331827       -36.2408
 101   2.0000      -1.322910       -35.9982
 102   2.0000      -1.322743       -35.9937
 103   2.0000      -1.321763       -35.9670
 104   2.0000      -1.316884       -35.8342
 105   2.0000      -1.307937       -35.5908
 106   2.0000      -1.160722       -31.5849
 107   2.0000      -1.159583       -31.5538
 108   2.0000      -1.149879       -31.2898
 109   2.0000      -1.141498       -31.0617
 110   2.0000      -1.138359       -30.9763
 111   2.0000      -1.137112       -30.9424
 112   2.0000      -1.065438       -28.9920
 113   2.0000      -1.064202       -28.9584
 114   2.0000      -1.034596       -28.1528
 115   2.0000      -1.030561       -28.0430
 116   2.0000      -1.027280       -27.9537
 117   2.0000      -1.026666       -27.9370
 118   2.0000      -1.017628       -27.6911
 119   2.0000      -1.017400       -27.6849
 120   2.0000      -1.016693       -27.6656
 121   2.0000      -1.013436       -27.5770
 122   2.0000      -1.012170       -27.5426
 123   2.0000      -1.011379       -27.5210
 124   2.0000      -1.008873       -27.4528
 125   2.0000      -1.007497       -27.4154
 126   2.0000      -1.004729       -27.3401
 127   2.0000      -0.996827       -27.1250
 128   2.0000      -0.995010       -27.0756
 129   2.0000      -0.991516       -26.9805
 130   2.0000      -0.986010       -26.8307
 131   2.0000      -0.948243       -25.8030
 132   2.0000      -0.942464       -25.6457
 133   2.0000      -0.937394       -25.5078
 134   2.0000      -0.929253       -25.2863
 135   2.0000      -0.924661       -25.1613
 136   2.0000      -0.923389       -25.1267
 137   2.0000      -0.916124       -24.9290
 138   2.0000      -0.908020       -24.7085
 139   2.0000      -0.904211       -24.6048
 140   2.0000      -0.899343       -24.4724
 141   2.0000      -0.895750       -24.3746
 142   2.0000      -0.881425       -23.9848
 143   2.0000      -0.868941       -23.6451
 144   2.0000      -0.867891       -23.6165
 145   2.0000      -0.853325       -23.2201
 146   2.0000      -0.852513       -23.1981
 147   2.0000      -0.847640       -23.0655
 148   2.0000      -0.845131       -22.9972
 149   2.0000      -0.844573       -22.9820
 150   2.0000      -0.821712       -22.3599
 151   2.0000      -0.820376       -22.3236
 152   2.0000      -0.814203       -22.1556
 153   2.0000      -0.796614       -21.6770
 154   2.0000      -0.781711       -21.2714
 155   2.0000      -0.781568       -21.2676
 156   2.0000      -0.772820       -21.0295
 157   2.0000      -0.761707       -20.7271
 158   2.0000      -0.753934       -20.5156
 159   2.0000      -0.750166       -20.4131
 160   2.0000      -0.748436       -20.3660
 161   2.0000      -0.742590       -20.2069
 162   2.0000      -0.734655       -19.9910
 163   2.0000      -0.730885       -19.8884
 164   2.0000      -0.726760       -19.7761
 165   2.0000      -0.723954       -19.6998
 166   2.0000      -0.719828       -19.5875
 167   2.0000      -0.717934       -19.5360
 168   2.0000      -0.707193       -19.2437
 169   2.0000      -0.706573       -19.2268
 170   2.0000      -0.701899       -19.0996
 171   2.0000      -0.698307       -19.0019
 172   2.0000      -0.692031       -18.8311
 173   2.0000      -0.691591       -18.8191
 174   2.0000      -0.687016       -18.6947
 175   2.0000      -0.675587       -18.3837
 176   2.0000      -0.672201       -18.2915
 177   2.0000      -0.670444       -18.2437
 178   2.0000      -0.668134       -18.1808
 179   2.0000      -0.662760       -18.0346
 180   2.0000      -0.659333       -17.9414
 181   2.0000      -0.655683       -17.8420
 182   2.0000      -0.653199       -17.7745
 183   2.0000      -0.650058       -17.6890
 184   2.0000      -0.646675       -17.5969
 185   2.0000      -0.644451       -17.5364
 186   2.0000      -0.643776       -17.5180
 187   2.0000      -0.633832       -17.2474
 188   2.0000      -0.631922       -17.1955
 189   2.0000      -0.628624       -17.1057
 190   2.0000      -0.625551       -17.0221
 191   2.0000      -0.622123       -16.9288
 192   2.0000      -0.616499       -16.7758
 193   2.0000      -0.610945       -16.6247
 194   2.0000      -0.609185       -16.5768
 195   2.0000      -0.600515       -16.3408
 196   2.0000      -0.599345       -16.3090
 197   2.0000      -0.596716       -16.2375
 198   2.0000      -0.596022       -16.2186
 199   2.0000      -0.594785       -16.1849
 200   2.0000      -0.591594       -16.0981
 201   2.0000      -0.590328       -16.0636
 202   2.0000      -0.587176       -15.9779
 203   2.0000      -0.587170       -15.9777
 204   2.0000      -0.586072       -15.9478
 205   2.0000      -0.580502       -15.7963
 206   2.0000      -0.576144       -15.6777
 207   2.0000      -0.574293       -15.6273
 208   2.0000      -0.573076       -15.5942
 209   2.0000      -0.568773       -15.4771
 210   2.0000      -0.565734       -15.3944
 211   2.0000      -0.565232       -15.3807
 212   2.0000      -0.559074       -15.2132
 213   2.0000      -0.557385       -15.1672
 214   2.0000      -0.557312       -15.1652
 215   2.0000      -0.556860       -15.1529
 216   2.0000      -0.552637       -15.0380
 217   2.0000      -0.550179       -14.9711
 218   2.0000      -0.548686       -14.9305
 219   2.0000      -0.547280       -14.8922
 220   2.0000      -0.544808       -14.8250
 221   2.0000      -0.543141       -14.7796
 222   2.0000      -0.541104       -14.7242
 223   2.0000      -0.538493       -14.6531
 224   2.0000      -0.535782       -14.5794
 225   2.0000      -0.534793       -14.5525
 226   2.0000      -0.533833       -14.5263
 227   2.0000      -0.529032       -14.3957
 228   2.0000      -0.526372       -14.3233
 229   2.0000      -0.526314       -14.3217
 230   2.0000      -0.522358       -14.2141
 231   2.0000      -0.516163       -14.0455
 232   2.0000      -0.513548       -13.9744
 233   2.0000      -0.512078       -13.9343
 234   2.0000      -0.510709       -13.8971
 235   2.0000      -0.510491       -13.8912
 236   2.0000      -0.503528       -13.7017
 237   2.0000      -0.501017       -13.6334
 238   2.0000      -0.500401       -13.6166
 239   2.0000      -0.499629       -13.5956
 240   2.0000      -0.498506       -13.5651
 241   2.0000      -0.496858       -13.5202
 242   2.0000      -0.494969       -13.4688
 243   2.0000      -0.491832       -13.3834
 244   2.0000      -0.490366       -13.3435
 245   2.0000      -0.485439       -13.2095
 246   2.0000      -0.482959       -13.1420
 247   2.0000      -0.481953       -13.1146
 248   2.0000      -0.475535       -12.9400
 249   2.0000      -0.473296       -12.8790
 250   2.0000      -0.471873       -12.8403
 251   2.0000      -0.470760       -12.8100
 252   2.0000      -0.469826       -12.7846
 253   2.0000      -0.466332       -12.6895
 254   2.0000      -0.466073       -12.6825
 255   2.0000      -0.464056       -12.6276
 256   2.0000      -0.462902       -12.5962
 257   2.0000      -0.462860       -12.5951
 258   2.0000      -0.462562       -12.5869
 259   2.0000      -0.461551       -12.5594
 260   2.0000      -0.458831       -12.4854
 261   2.0000      -0.458309       -12.4712
 262   2.0000      -0.457091       -12.4381
 263   2.0000      -0.455447       -12.3933
 264   2.0000      -0.454409       -12.3651
 265   2.0000      -0.452783       -12.3209
 266   2.0000      -0.452440       -12.3115
 267   2.0000      -0.451325       -12.2812
 268   2.0000      -0.449659       -12.2358
 269   2.0000      -0.443948       -12.0804
 270   2.0000      -0.441268       -12.0075
 271   2.0000      -0.440635       -11.9903
 272   2.0000      -0.438938       -11.9441
 273   2.0000      -0.437834       -11.9141
 274   2.0000      -0.436611       -11.8808
 275   2.0000      -0.434876       -11.8336
 276   2.0000      -0.432618       -11.7721
 277   2.0000      -0.429911       -11.6985
 278   2.0000      -0.427919       -11.6443
 279   2.0000      -0.427746       -11.6396
 280   2.0000      -0.426805       -11.6139
 281   2.0000      -0.424343       -11.5470
 282   2.0000      -0.422898       -11.5076
 283   2.0000      -0.420728       -11.4486
 284   2.0000      -0.419730       -11.4214
 285   2.0000      -0.411350       -11.1934
 286   2.0000      -0.404145       -10.9974
 287   2.0000      -0.398400       -10.8410
 288   2.0000      -0.396383       -10.7861
 289   2.0000      -0.395736       -10.7685
 290   2.0000      -0.395354       -10.7581
 291   2.0000      -0.387112       -10.5339
 292   2.0000      -0.379887       -10.3372
 293   2.0000      -0.373488       -10.1631
 294   2.0000      -0.366091        -9.9618
 295   2.0000      -0.361609        -9.8399
 296   2.0000      -0.360717        -9.8156
 297   2.0000      -0.356961        -9.7134
 298   2.0000      -0.351969        -9.5776
 299   2.0000      -0.346933        -9.4405
 300   2.0000      -0.339100        -9.2274
 301   2.0000      -0.332130        -9.0377
 302   2.0000      -0.329445        -8.9647
 303   2.0000      -0.320253        -8.7145
 304   2.0000      -0.316388        -8.6093
 305   2.0000      -0.306123        -8.3300
 306   2.0000      -0.303954        -8.2710
 307   2.0000      -0.282724        -7.6933
 308   0.0000      -0.146923        -3.9980
 309   0.0000      -0.138201        -3.7606
 310   0.0000      -0.098244        -2.6734
 311   0.0000      -0.089514        -2.4358
 312   0.0000      -0.072772        -1.9802

MULLIKEN ATOMIC CHARGES
-----------------------
   0 C :   -0.106479
   1 C :    0.244057
   2 F :   -0.166614
   3 C :    0.241230
   4 F :   -0.167932
   5 C :   -0.103886
   6 C :    0.116498
   7 C :    0.113042
   8 C :   -0.081217
   9 C :    0.058200
  10 C :   -0.009425
  11 C :   -0.076740
  12 C :    0.160504
  13 O :   -0.148392
  14 C :   -0.053620
  15 C :    0.294384
  16 C :   -0.326405
  17 C :   -0.181511
  18 N :    0.156301
  19 C :   -0.191317
  20 N :    0.174640
  21 C :   -0.066837
  22 C :    0.058815
  23 C :   -0.029047
  24 C :   -0.067570
  25 N :    0.069107
  26 C :   -0.130750
  27 C :   -0.129124
  28 N :    0.062171
  29 C :   -0.201218
  30 N :    0.246187
  31 C :   -0.201772
  32 N :    0.245324
  33 C :    0.082230
  34 C :    0.022138
  35 C :    0.036325
  36 N :   -0.268292
  37 S :    0.579205
  38 N :   -0.262650
  39 C :   -0.189256
  40 C :    0.240753
  41 F :   -0.162917
  42 C :    0.178336
  43 F :   -0.164639
  44 C :   -0.023291
  45 C :    0.173026
  46 C :    0.242784
  47 F :   -0.158068
  48 F :   -0.159200
  49 C :    0.018821
  50 C :   -0.053162
  51 C :    0.098047
  52 C :   -0.012473
  53 C :   -0.087488
  54 N :    0.030661
  55 C :   -0.122663
  56 C :   -0.115246
  57 N :    0.066998
  58 C :   -0.219480
  59 N :    0.244161
  60 C :   -0.196960
  61 N :    0.241230
  62 C :    0.075294
  63 C :    0.024596
  64 C :    0.021598
  65 N :   -0.286827
  66 S :    0.579151
  67 N :   -0.262676
  68 C :   -0.020988
  69 C :   -0.095957
  70 C :    0.132662
  71 O :   -0.128892
  72 C :    0.025919
  73 C :   -0.091024
  74 C :    0.117573
  75 C :    0.107090
  76 C :   -0.100150
  77 C :    0.243629
  78 C :    0.240722
  79 C :   -0.106260
  80 F :   -0.170199
  81 F :   -0.168258
  82 C :   -0.066931
  83 C :    0.030416
  84 C :    0.301586
  85 C :   -0.347342
  86 C :   -0.178051
  87 N :    0.154146
  88 C :   -0.194306
  89 N :    0.172477
  90 H :    0.010696
  91 H :    0.000615
  92 H :   -0.003446
  93 H :   -0.010365
  94 H :    0.052432
  95 H :    0.022447
  96 H :    0.015902
  97 H :    0.033831
  98 H :   -0.007024
  99 H :    0.011451
 100 H :    0.000777
 101 H :    0.004155
Sum of atomic charges:   -0.0000000

LOEWDIN ATOMIC CHARGES
----------------------
   0 C :   -0.028164
   1 C :    0.069028
   2 F :   -0.044680
   3 C :    0.069795
   4 F :   -0.045678
   5 C :   -0.032523
   6 C :   -0.007691
   7 C :   -0.004675
   8 C :    0.020249
   9 C :   -0.023056
  10 C :   -0.053537
  11 C :    0.032929
  12 C :    0.086988
  13 O :   -0.140118
  14 C :   -0.058577
  15 C :    0.071353
  16 C :   -0.119622
  17 C :   -0.016520
  18 N :   -0.040314
  19 C :   -0.023185
  20 N :   -0.034782
  21 C :    0.078053
  22 C :   -0.015987
  23 C :    0.005215
  24 C :   -0.003942
  25 N :    0.007602
  26 C :   -0.020262
  27 C :   -0.016274
  28 N :    0.001616
  29 C :   -0.036432
  30 N :    0.008634
  31 C :   -0.036044
  32 N :    0.005854
  33 C :    0.003454
  34 C :   -0.036739
  35 C :   -0.027580
  36 N :   -0.276333
  37 S :    0.723234
  38 N :   -0.281009
  39 C :   -0.058779
  40 C :    0.069336
  41 F :   -0.040851
  42 C :    0.067556
  43 F :   -0.040320
  44 C :   -0.062743
  45 C :    0.069050
  46 C :    0.071660
  47 F :   -0.037305
  48 F :   -0.031867
  49 C :    0.018234
  50 C :   -0.008428
  51 C :    0.013844
  52 C :   -0.000438
  53 C :    0.002924
  54 N :    0.008045
  55 C :   -0.019486
  56 C :   -0.026761
  57 N :    0.011406
  58 C :   -0.037318
  59 N :    0.002030
  60 C :   -0.031808
  61 N :   -0.002167
  62 C :   -0.033249
  63 C :   -0.027082
  64 C :   -0.034341
  65 N :   -0.273513
  66 S :    0.710267
  67 N :   -0.277540
  68 C :    0.066055
  69 C :   -0.057542
  70 C :    0.085392
  71 O :   -0.130677
  72 C :   -0.054054
  73 C :    0.031537
  74 C :   -0.007048
  75 C :   -0.002792
  76 C :   -0.024010
  77 C :    0.068271
  78 C :    0.069289
  79 C :   -0.033751
  80 F :   -0.047593
  81 F :   -0.046029
  82 C :    0.027253
  83 C :   -0.022238
  84 C :    0.080301
  85 C :   -0.146563
  86 C :   -0.015059
  87 N :   -0.055565
  88 C :   -0.025874
  89 N :   -0.043395
  90 H :    0.048963
  91 H :    0.045399
  92 H :    0.040925
  93 H :    0.040385
  94 H :    0.052054
  95 H :    0.032967
  96 H :    0.031986
  97 H :    0.053221
  98 H :    0.041193
  99 H :    0.050199
 100 H :    0.045041
 101 H :    0.041124

  Mayer bond orders larger than 0.100000
B(  0-C ,  1-C ) :   1.4420 B(  0-C ,  5-C ) :   0.1077 B(  0-C ,  7-C ) :   1.1861
B(  0-C , 90-H ) :   1.0078 B(  1-C ,  2-F ) :   1.1397 B(  1-C ,  3-C ) :   1.1869
B(  3-C ,  4-F ) :   1.1370 B(  3-C ,  5-C ) :   1.4453 B(  5-C ,  6-C ) :   1.1886
B(  5-C , 91-H ) :   1.0079 B(  6-C ,  7-C ) :   1.2530 B(  6-C , 11-C ) :   1.1940
B(  7-C ,  8-C ) :   1.2215 B(  8-C ,  9-C ) :   1.4413 B(  8-C , 92-H ) :   0.9917
B(  9-C , 10-C ) :   1.2196 B(  9-C , 15-C ) :   0.9950 B( 10-C , 11-C ) :   1.4655
B( 10-C , 12-C ) :   0.9535 B( 11-C , 93-H ) :   1.0175 B( 12-C , 13-O ) :   2.2227
B( 12-C , 14-C ) :   0.9224 B( 14-C , 15-C ) :   1.0406 B( 14-C , 21-C ) :   1.6893
B( 15-C , 16-C ) :   1.6753 B( 16-C , 17-C ) :   1.1395 B( 16-C , 19-C ) :   1.1364
B( 17-C , 18-N ) :   2.9680 B( 19-C , 20-N ) :   2.9896 B( 21-C , 22-C ) :   1.0957
B( 21-C , 94-H ) :   0.9275 B( 22-C , 23-C ) :   1.2848 B( 22-C , 33-C ) :   0.1349
B( 22-C , 35-C ) :   1.2451 B( 23-C , 24-C ) :   1.1120 B( 23-C , 28-N ) :   1.4423
B( 24-C , 25-N ) :   1.4233 B( 24-C , 33-C ) :   1.3418 B( 25-N , 26-C ) :   1.7623
B( 26-C , 27-C ) :   1.1847 B( 26-C , 31-C ) :   1.1470 B( 27-C , 28-N ) :   1.7605
B( 27-C , 29-C ) :   1.1486 B( 29-C , 30-N ) :   3.0484 B( 31-C , 32-N ) :   3.0511
B( 33-C , 34-C ) :   1.3065 B( 33-C , 39-C ) :   0.9412 B( 34-C , 35-C ) :   1.1048
B( 34-C , 38-N ) :   1.4811 B( 35-C , 36-N ) :   1.4782 B( 36-N , 37-S ) :   1.3174
B( 36-N , 38-N ) :   0.1594 B( 37-S , 38-N ) :   1.3223 B( 39-C , 40-C ) :   1.3197
B( 39-C , 44-C ) :   0.1287 B( 39-C , 46-C ) :   1.3328 B( 40-C , 41-F ) :   1.1759
B( 40-C , 42-C ) :   1.3040 B( 42-C , 43-F ) :   1.1443 B( 42-C , 44-C ) :   1.2829
B( 44-C , 45-C ) :   1.2632 B( 44-C , 49-C ) :   1.1047 B( 45-C , 46-C ) :   1.3017
B( 45-C , 48-F ) :   1.1428 B( 46-C , 47-F ) :   1.1821 B( 49-C , 50-C ) :   1.5818
B( 49-C , 95-H ) :   0.9560 B( 50-C , 51-C ) :   1.1894 B( 50-C , 96-H ) :   0.9620
B( 51-C , 52-C ) :   1.2372 B( 51-C , 62-C ) :   0.1353 B( 51-C , 64-C ) :   1.1914
B( 52-C , 53-C ) :   1.1191 B( 52-C , 57-N ) :   1.4460 B( 53-C , 54-N ) :   1.4341
B( 53-C , 62-C ) :   1.2632 B( 54-N , 55-C ) :   1.7014 B( 55-C , 56-C ) :   1.1974
B( 55-C , 60-C ) :   1.1714 B( 56-C , 57-N ) :   1.7458 B( 56-C , 58-C ) :   1.1575
B( 58-C , 59-N ) :   3.0432 B( 60-C , 61-N ) :   3.0012 B( 62-C , 63-C ) :   1.2235
B( 62-C , 68-C ) :   1.0947 B( 63-C , 64-C ) :   1.1143 B( 63-C , 67-N ) :   1.5383
B( 64-C , 65-N ) :   1.4805 B( 65-N , 66-S ) :   1.3020 B( 65-N , 67-N ) :   0.1535
B( 66-S , 67-N ) :   1.2997 B( 68-C , 69-C ) :   1.6911 B( 68-C , 97-H ) :   0.9433
B( 69-C , 70-C ) :   0.9307 B( 69-C , 84-C ) :   1.0120 B( 70-C , 71-O ) :   2.2856
B( 70-C , 72-C ) :   0.9167 B( 72-C , 73-C ) :   1.4642 B( 72-C , 83-C ) :   1.2192
B( 73-C , 74-C ) :   1.1973 B( 73-C , 98-H ) :   1.0167 B( 74-C , 75-C ) :   1.2509
B( 74-C , 79-C ) :   1.1925 B( 75-C , 76-C ) :   1.1927 B( 75-C , 82-C ) :   1.2221
B( 76-C , 77-C ) :   1.4413 B( 76-C , 79-C ) :   0.1081 B( 76-C , 99-H ) :   1.0071
B( 77-C , 78-C ) :   1.1880 B( 77-C , 81-F ) :   1.1365 B( 78-C , 79-C ) :   1.4444
B( 78-C , 80-F ) :   1.1348 B( 79-C ,100-H ) :   1.0066 B( 82-C , 83-C ) :   1.4491
B( 82-C ,101-H ) :   0.9920 B( 83-C , 84-C ) :   1.0154 B( 84-C , 85-C ) :   1.6458
B( 85-C , 86-C ) :   1.1689 B( 85-C , 88-C ) :   1.1347 B( 86-C , 87-N ) :   2.9842
B( 88-C , 89-N ) :   2.9959

-----------------------------------------------------------------------------
         ABSORPTION SPECTRUM VIA TRANSITION ELECTRIC DIPOLE MOMENTS
-----------------------------------------------------------------------------
State   Energy  Wavelength   fosc         T2         TX        TY        TZ
        (cm-1)    (nm)                  (au**2)     (au)      (au)      (au)
-----------------------------------------------------------------------------
   0   13955.0    716.6   0.841270336  19.84640  -0.68762  -4.39841  -0.16612
   1   17346.6    576.5   0.248517280   4.71649   0.03338   2.14384   0.34544
   2   18917.7    528.6   0.051887136   0.90296   0.22614   0.89458  -0.22702
   3   20647.6    484.3   0.036743592   0.58585   0.13480  -0.70311  -0.27078
   4   22782.3    438.9   0.013712390   0.19815   0.41210   0.10559   0.13103
   5   22874.7    437.2   0.019653799   0.28286  -0.10330  -0.45955  -0.24699
   6   23044.9    433.9   0.034644696   0.49492  -0.12397  -0.68667   0.08968
   7   23762.8    420.8   0.041567714   0.57588  -0.24277   0.54966   0.46349
   8   24056.5    415.7   0.127530897   1.74525  -0.39342  -1.19466  -0.40407
   9   24295.7    411.6   0.068740431   0.93145   0.11695   0.47206   0.83363
  10   24919.4    401.3   0.012285803   0.16231  -0.28921  -0.20340   0.19313
  11   25316.6    395.0   0.060860441   0.79142   0.12066   0.57673   0.66651
  12   26218.0    381.4   0.006935362   0.08709  -0.22847  -0.17681  -0.06022
  13   26302.6    380.2   0.033649568   0.42117  -0.25492  -0.56146   0.20235
  14   26594.4    376.0   0.118460246   1.46642   0.33298  -1.14899  -0.18803
  15   26978.8    370.7   0.023344167   0.28486  -0.01486  -0.53258  -0.03152
  16   27353.4    365.6   0.050879484   0.61236   0.54697  -0.44248  -0.34263
  17   27778.7    360.0   0.013344293   0.15815   0.33768   0.05796   0.20189
  18   28637.4    349.2   0.157440104   1.80991   0.57998  -0.51360  -1.09989
  19   28948.5    345.4   0.039990255   0.45478  -0.49767  -0.03164   0.45399
  20   29391.3    340.2   0.050538540   0.56608   0.63946  -0.30693  -0.25094
  21   29684.5    336.9   0.208950330   2.31734   1.05316   0.85038  -0.69644
  22   29923.9    334.2   0.013606306   0.14969  -0.03935  -0.32877  -0.20014
  23   30240.2    330.7   0.214886733   2.33938  -0.77106  -1.18035  -0.59297
  24   30371.7    329.3   0.161660806   1.75231   0.55511   0.83333  -0.86587
  25   30578.5    327.0   0.046427791   0.49985   0.16939   0.40620   0.55331
  26   30730.3    325.4   0.008156573   0.08738   0.19003  -0.04962   0.22092
  27   30979.2    322.8   0.077241953   0.82084   0.08468   0.25557   0.86508
  28   31264.3    319.9   0.034953472   0.36806  -0.38620   0.23236   0.40610
  29   31722.9    315.2   0.177239663   1.83935   0.25769  -1.07314   0.78823
  30   31786.6    314.6   0.224023434   2.32020  -0.20751   0.67009   1.35208
  31   32002.9    312.5   0.171083847   1.75993   1.31522   0.16315  -0.05931
  32   32297.7    309.6   0.002137028   0.02178   0.04459   0.03480   0.13632
  33   32478.2    307.9   0.018748021   0.19004   0.15820  -0.40443   0.03800
  34   32688.0    305.9   0.035946497   0.36203   0.38749   0.45939  -0.02907
  35   32826.2    304.6   0.891747069   8.94327  -2.45967  -1.66410   0.35220
  36   33338.9    299.9   0.199730493   1.97228  -0.56825   0.14310   1.27628
  37   34125.0    293.0   0.022417501   0.21627  -0.09673  -0.15104   0.42907
  38   34140.3    292.9   0.091868388   0.88588   0.64635   0.62409  -0.28040
  39   34406.7    290.6   0.306568743   2.93332   0.07671  -1.21176   1.20792
  40   34547.4    289.5   0.005869995   0.05594   0.20753  -0.06464  -0.09323
  41   34716.9    288.0   0.033527780   0.31794  -0.09068   0.17960   0.52674
  42   34902.3    286.5   0.129099414   1.21772   0.33129  -0.40563   0.97130
  43   35385.6    282.6   0.322013214   2.99587   0.89183   0.85595   1.21156
  44   35461.3    282.0   0.906221030   8.41309  -0.23206  -2.08901   1.99882
  45   35704.3    280.1   0.014745008   0.13596  -0.36079  -0.02900   0.07032
  46   35786.6    279.4   0.072248355   0.66464   0.55527  -0.12397   0.58390
  47   36249.2    275.9   0.180314651   1.63760   1.14300  -0.22583  -0.52928
  48   36662.4    272.8   0.470077021   4.22108  -1.61140   0.41179   1.20619
  49   36713.8    272.4   0.055643216   0.49895  -0.59858   0.09663   0.36238
  50   37230.3    268.6   0.073044976   0.64591  -0.05993  -0.78225  -0.17436
  51   37622.5    265.8   0.002223663   0.01946  -0.13127  -0.03425   0.03243
  52   38090.2    262.5   0.047380636   0.40951   0.56011   0.11949  -0.28550
  53   38112.7    262.4   0.117880728   1.01824   0.42276  -0.02184  -0.91599
  54   38273.5    261.3   0.046001412   0.39568  -0.47039   0.18830   0.37278
  55   38409.1    260.4   0.002499405   0.02142   0.12205  -0.05193  -0.06188
  56   38593.8    259.1   0.054748938   0.46702   0.45190   0.51214  -0.02282
  57   38703.6    258.4   0.037189690   0.31634  -0.17242  -0.09665   0.52656
  58   38771.8    257.9   0.091752925   0.77908  -0.26225  -0.83922   0.07752
  59   38971.3    256.6   0.009165503   0.07743  -0.22116   0.11255   0.12588
  60   39095.3    255.8   0.030856609   0.25984  -0.35402  -0.23064   0.28515
  61   39174.8    255.3   0.009223148   0.07751   0.02098  -0.01175   0.27736
  62   39466.4    253.4   0.038486212   0.32104   0.19471  -0.48693  -0.21452
  63   39642.4    252.3   0.006420408   0.05332   0.13160   0.03100   0.18718
  64   39760.2    251.5   0.039425301   0.32644   0.46677  -0.10183   0.31336
  65   39904.4    250.6   0.016059985   0.13250  -0.20796   0.29675  -0.03448
  66   40066.7    249.6   0.028309967   0.23261   0.45054  -0.01335   0.17161
  67   40094.9    249.4   0.063192897   0.51887   0.68396  -0.05631   0.21884
  68   40211.1    248.7   0.075890745   0.62132   0.68464   0.31709   0.22812

FINAL SINGLE POINT ENERGY     -4985.866656805481

DIPOLE MOMENT
-------------
                                X             Y             Z
Electronic contribution:      0.41138       9.07892       1.86421
Nuclear contribution   :      0.75818      -9.66307       2.16312
                        -----------------------------------------
Total Dipole Moment    :      1.16956      -0.58415       4.02733
                        -----------------------------------------
Magnitude (a.u.)       :      4.23421
Magnitude (Debye)      :     10.76250

Rotational constants in cm-1:     0.001367     0.000169     0.000163
Rotational constants in MHz :    40.987191     5.067169     4.877728

                             ****ORCA TERMINATED NORMALLY****
TOTAL RUN TIME: 0 days 0 hours 11 minutes 43 seconds 281 msec
