                         Program Version 4.2.0 -  RELEASE  -
|  1> # ORCA input file
|  2> # SCF done       -178.607528659819          0.000882302299
|  3> ! CAM-B3LYP def2-SVP def2/J RIJCOSX Grid4 TightSCF
|  4> %maxcore 5000
|  5> %tddft
|  6>     Mode sTDDFT
|  7>     Ethresh 5.0
|  8>     maxcore 5000
|  9> end
| 10>
| 11> %pal
| 12>   nprocs 6
| 13>   end
| 14> * xyz 0 1
| 15>    C        2.30459        -0.55472        -1.52880
| 16>    N        1.81208         0.19888        -2.54205
| 17>    C        1.83886        -0.14016        -3.94342
| 18>    C        3.23966         0.00710        -4.53084
| 19>    C        1.30031         1.43023        -2.06661
| 20>    O        0.80858         2.27066        -2.79267
| 21>    C        1.51424         1.37011        -0.64007
| 22>    C        2.14121         0.12118        -0.34822
| 23>    C        2.34978         0.04737         1.08505
| 24>    O        2.83670        -0.79984         1.79718
| 25>    N        1.82157         1.26244         1.56722
| 26>    C        1.88912         1.59340         2.96998
| 27>    C        3.03054         2.56128         3.27313
| 28>    C        1.32577         2.05674         0.55716
| 29>    C        0.72713         3.32045         0.77705
| 30>    C        0.26819         4.10530        -0.23723
| 31>    C       -0.33513         5.37320        -0.06227
| 32>    C       -0.74915         6.20995        -1.07988
| 33>    C       -1.27667         7.40744        -0.52301
| 34>    C       -1.19109         7.24543         0.94282
| 35>    C       -0.62775         6.03859         1.20268
| 36>    C       -1.64588         8.14172         1.91687
| 37>    N       -2.01401         8.84535         2.74701
| 38>    C       -1.74308         8.51763        -1.18951
| 39>    C       -2.17586         9.75299        -0.62172
| 40>    C       -2.53461        10.60996        -1.63536
| 41>    C       -2.34909         9.91791        -2.89999
| 42>    C       -1.87000         8.67122        -2.64960
| 43>    C       -1.57404         7.71832        -3.63067
| 44>    N       -1.34311         6.96828        -4.46942
| 45>    C       -2.99195        11.95269        -1.52010
| 46>    S       -3.44611        12.86204        -2.92914
| 47>    C       -3.82194        14.25395        -1.97060
| 48>    C       -4.16065        15.47889        -2.65213
| 49>    O       -4.31146        16.56220        -2.13836
| 50>    C       -3.61078        14.01090        -0.61013
| 51>    C       -3.13094        12.71042        -0.37678
| 52>    C       -3.84064        14.95681         0.45261
| 53>    C       -3.10015        15.06241         1.59808
| 54>    C       -3.61439        16.14529         2.38487
| 55>    C       -4.78425        16.65769         1.65447
| 56>    C       -4.91245        15.94046         0.50678
| 57>    C       -5.69155        17.62705         2.09955
| 58>    N       -6.48294        18.38081         2.45255
| 59>    C       -3.11641        16.62793         3.56940
| 60>    C       -3.53873        17.79365         4.26969
| 61>    C       -2.82520        17.90448         5.44432
| 62>    C       -1.90049        16.78189         5.51007
| 63>    C       -2.04442        16.03133         4.38567
| 64>    C       -1.29947        14.88569         4.08753
| 65>    N       -0.66264        13.95477         3.86839
| 66>    C       -2.98886        18.98704         6.35383
| 67>    N       -2.69177        19.00957         7.69398
| 68>    C       -2.17633        17.93610         8.51001
| 69>    C       -0.66028        18.02963         8.66769
| 70>    C       -3.01702        20.24698         8.28514
| 71>    O       -2.86361        20.47709         9.46774
| 72>    C       -3.53339        21.04228         7.19488
| 73>    C       -3.51542        20.23520         6.02837
| 74>    C       -3.96977        21.04376         4.91838
| 75>    O       -4.08943        20.82542         3.73384
| 76>    N       -4.25866        22.29853         5.50647
| 77>    C       -4.81500        23.36729         4.71301
| 78>    C       -6.32985        23.46209         4.87641
| 79>    C       -4.00897        22.30491         6.85145
| 80>    C       -4.20908        23.45173         7.68957
| 81>    C       -3.98111        23.43621         9.00505
| 82>    H        2.72997        -1.52416        -1.71199
| 83>    H        1.15086         0.54911        -4.44031
| 84>    H        1.47701        -1.16466        -4.07147
| 85>    H        3.58665         1.03146        -4.41963
| 86>    H        3.22279        -0.24109        -5.58819
| 87>    H        3.94072        -0.65541        -4.02771
| 88>    H        2.06287         0.64859         3.49277
| 89>    H        0.92985         2.00387         3.29830
| 90>    H        3.97957         2.11520         2.98633
| 91>    H        3.05670         2.77768         4.33751
| 92>    H        2.90962         3.49500         2.72796
| 93>    H        0.64147         3.65726         1.79975
| 94>    H        0.36765         3.76185        -1.25859
| 95>    H       -0.66600         6.00141        -2.12852
| 96>    H       -0.44042         5.63522         2.18035
| 97>    H       -2.19770         9.96591         0.42804
| 98>    H       -2.55893        10.34394        -3.86395
| 99>    H       -4.25296        15.34545        -3.74827
|100>    H       -2.91138        12.33328         0.60559
|101>    H       -2.22775        14.49075         1.84787
|102>    H       -5.68848        16.04937        -0.22540
|103>    H       -4.28602        18.47747         3.92073
|104>    H       -1.18204        16.59751         6.28564
|105>    H       -2.47966        16.98062         8.07735
|106>    H       -2.64089        18.04091         9.49548
|107>    H       -0.16175        18.03557         7.70050
|108>    H       -0.29536        17.18673         9.24832
|109>    H       -0.40508        18.94860         9.18929
|110>    H       -4.57539        23.12506         3.67365
|111>    H       -4.33116        24.31193         4.97612
|112>    H       -6.79352        22.53028         4.56251
|113>    H       -6.71625        24.26735         4.25792
|114>    H       -6.60001        23.65360         5.91281
|115>    H       -4.56000        24.35324         7.20671
|116>    H       -3.63390        22.54897         9.50795
|117>    H       -4.13920        24.31417         9.60733
|118> *
|119>
|120>                          ****END OF INPUT****

CARTESIAN COORDINATES (ANGSTROEM)
---------------------------------
  C      2.304590   -0.554720   -1.528800
  N      1.812080    0.198880   -2.542050
  C      1.838860   -0.140160   -3.943420
  C      3.239660    0.007100   -4.530840
  C      1.300310    1.430230   -2.066610
  O      0.808580    2.270660   -2.792670
  C      1.514240    1.370110   -0.640070
  C      2.141210    0.121180   -0.348220
  C      2.349780    0.047370    1.085050
  O      2.836700   -0.799840    1.797180
  N      1.821570    1.262440    1.567220
  C      1.889120    1.593400    2.969980
  C      3.030540    2.561280    3.273130
  C      1.325770    2.056740    0.557160
  C      0.727130    3.320450    0.777050
  C      0.268190    4.105300   -0.237230
  C     -0.335130    5.373200   -0.062270
  C     -0.749150    6.209950   -1.079880
  C     -1.276670    7.407440   -0.523010
  C     -1.191090    7.245430    0.942820
  C     -0.627750    6.038590    1.202680
  C     -1.645880    8.141720    1.916870
  N     -2.014010    8.845350    2.747010
  C     -1.743080    8.517630   -1.189510
  C     -2.175860    9.752990   -0.621720
  C     -2.534610   10.609960   -1.635360
  C     -2.349090    9.917910   -2.899990
  C     -1.870000    8.671220   -2.649600
  C     -1.574040    7.718320   -3.630670
  N     -1.343110    6.968280   -4.469420
  C     -2.991950   11.952690   -1.520100
  S     -3.446110   12.862040   -2.929140
  C     -3.821940   14.253950   -1.970600
  C     -4.160650   15.478890   -2.652130
  O     -4.311460   16.562200   -2.138360
  C     -3.610780   14.010900   -0.610130
  C     -3.130940   12.710420   -0.376780
  C     -3.840640   14.956810    0.452610
  C     -3.100150   15.062410    1.598080
  C     -3.614390   16.145290    2.384870
  C     -4.784250   16.657690    1.654470
  C     -4.912450   15.940460    0.506780
  C     -5.691550   17.627050    2.099550
  N     -6.482940   18.380810    2.452550
  C     -3.116410   16.627930    3.569400
  C     -3.538730   17.793650    4.269690
  C     -2.825200   17.904480    5.444320
  C     -1.900490   16.781890    5.510070
  C     -2.044420   16.031330    4.385670
  C     -1.299470   14.885690    4.087530
  N     -0.662640   13.954770    3.868390
  C     -2.988860   18.987040    6.353830
  N     -2.691770   19.009570    7.693980
  C     -2.176330   17.936100    8.510010
  C     -0.660280   18.029630    8.667690
  C     -3.017020   20.246980    8.285140
  O     -2.863610   20.477090    9.467740
  C     -3.533390   21.042280    7.194880
  C     -3.515420   20.235200    6.028370
  C     -3.969770   21.043760    4.918380
  O     -4.089430   20.825420    3.733840
  N     -4.258660   22.298530    5.506470
  C     -4.815000   23.367290    4.713010
  C     -6.329850   23.462090    4.876410
  C     -4.008970   22.304910    6.851450
  C     -4.209080   23.451730    7.689570
  C     -3.981110   23.436210    9.005050
  H      2.729970   -1.524160   -1.711990
  H      1.150860    0.549110   -4.440310
  H      1.477010   -1.164660   -4.071470
  H      3.586650    1.031460   -4.419630
  H      3.222790   -0.241090   -5.588190
  H      3.940720   -0.655410   -4.027710
  H      2.062870    0.648590    3.492770
  H      0.929850    2.003870    3.298300
  H      3.979570    2.115200    2.986330
  H      3.056700    2.777680    4.337510
  H      2.909620    3.495000    2.727960
  H      0.641470    3.657260    1.799750
  H      0.367650    3.761850   -1.258590
  H     -0.666000    6.001410   -2.128520
  H     -0.440420    5.635220    2.180350
  H     -2.197700    9.965910    0.428040
  H     -2.558930   10.343940   -3.863950
  H     -4.252960   15.345450   -3.748270
  H     -2.911380   12.333280    0.605590
  H     -2.227750   14.490750    1.847870
  H     -5.688480   16.049370   -0.225400
  H     -4.286020   18.477470    3.920730
  H     -1.182040   16.597510    6.285640
  H     -2.479660   16.980620    8.077350
  H     -2.640890   18.040910    9.495480
  H     -0.161750   18.035570    7.700500
  H     -0.295360   17.186730    9.248320
  H     -0.405080   18.948600    9.189290
  H     -4.575390   23.125060    3.673650
  H     -4.331160   24.311930    4.976120
  H     -6.793520   22.530280    4.562510
  H     -6.716250   24.267350    4.257920
  H     -6.600010   23.653600    5.912810
  H     -4.560000   24.353240    7.206710
  H     -3.633900   22.548970    9.507950
  H     -4.139200   24.314170    9.607330

 Total Charge           Charge          ....    0
 Multiplicity           Mult            ....    1
 Number of Electrons    NEL             ....  466
 Basis Dimension        Dim             .... 1122

ORBITAL ENERGIES
----------------

  NO   OCC          E(Eh)            E(eV)
   0   2.0000     -88.986949     -2421.4580
   1   2.0000     -19.222939      -523.0828
   2   2.0000     -19.198196      -522.4095
   3   2.0000     -19.191927      -522.2389
   4   2.0000     -19.189072      -522.1612
   5   2.0000     -19.187710      -522.1241
   6   2.0000     -14.459393      -393.4601
   7   2.0000     -14.455390      -393.3512
   8   2.0000     -14.454015      -393.3138
   9   2.0000     -14.453382      -393.2965
  10   2.0000     -14.414992      -392.2519
  11   2.0000     -14.412649      -392.1881
  12   2.0000     -14.406795      -392.0288
  13   2.0000     -14.394951      -391.7065
  14   2.0000     -10.378842      -282.4226
  15   2.0000     -10.375899      -282.3426
  16   2.0000     -10.373520      -282.2778
  17   2.0000     -10.372769      -282.2574
  18   2.0000     -10.371050      -282.2106
  19   2.0000     -10.346930      -281.5543
  20   2.0000     -10.341528      -281.4073
  21   2.0000     -10.339148      -281.3425
  22   2.0000     -10.336279      -281.2644
  23   2.0000     -10.336028      -281.2576
  24   2.0000     -10.331304      -281.1291
  25   2.0000     -10.329791      -281.0879
  26   2.0000     -10.324084      -280.9326
  27   2.0000     -10.323117      -280.9063
  28   2.0000     -10.321698      -280.8677
  29   2.0000     -10.319703      -280.8134
  30   2.0000     -10.317353      -280.7495
  31   2.0000     -10.317111      -280.7429
  32   2.0000     -10.316674      -280.7310
  33   2.0000     -10.316545      -280.7275
  34   2.0000     -10.316528      -280.7270
  35   2.0000     -10.316433      -280.7244
  36   2.0000     -10.314162      -280.6626
  37   2.0000     -10.313391      -280.6416
  38   2.0000     -10.312420      -280.6152
  39   2.0000     -10.312255      -280.6107
  40   2.0000     -10.309909      -280.5469
  41   2.0000     -10.309766      -280.5430
  42   2.0000     -10.308978      -280.5215
  43   2.0000     -10.308607      -280.5114
  44   2.0000     -10.306156      -280.4448
  45   2.0000     -10.304935      -280.4115
  46   2.0000     -10.304818      -280.4084
  47   2.0000     -10.304764      -280.4069
  48   2.0000     -10.303095      -280.3615
  49   2.0000     -10.302500      -280.3453
  50   2.0000     -10.301549      -280.3194
  51   2.0000     -10.300274      -280.2847
  52   2.0000     -10.296917      -280.1934
  53   2.0000     -10.294432      -280.1257
  54   2.0000     -10.291563      -280.0477
  55   2.0000     -10.288972      -279.9772
  56   2.0000     -10.286585      -279.9122
  57   2.0000     -10.281902      -279.7848
  58   2.0000     -10.281246      -279.7669
  59   2.0000     -10.268129      -279.4100
  60   2.0000     -10.267982      -279.4060
  61   2.0000     -10.267312      -279.3878
  62   2.0000     -10.264470      -279.3104
  63   2.0000     -10.263462      -279.2830
  64   2.0000     -10.262552      -279.2582
  65   2.0000     -10.260027      -279.1895
  66   2.0000     -10.257564      -279.1225
  67   2.0000      -8.082445      -219.9345
  68   2.0000      -6.051434      -164.6679
  69   2.0000      -6.047443      -164.5593
  70   2.0000      -6.045016      -164.4933
  71   2.0000      -1.137520       -30.9535
  72   2.0000      -1.136385       -30.9226
  73   2.0000      -1.133402       -30.8414
  74   2.0000      -1.129644       -30.7392
  75   2.0000      -1.126312       -30.6485
  76   2.0000      -1.068010       -29.0620
  77   2.0000      -1.063710       -28.9450
  78   2.0000      -1.058941       -28.8152
  79   2.0000      -1.055378       -28.7183
  80   2.0000      -1.025980       -27.9183
  81   2.0000      -1.016320       -27.6555
  82   2.0000      -1.010396       -27.4943
  83   2.0000      -1.004005       -27.3204
  84   2.0000      -0.993978       -27.0475
  85   2.0000      -0.990968       -26.9656
  86   2.0000      -0.985370       -26.8133
  87   2.0000      -0.979980       -26.6666
  88   2.0000      -0.971605       -26.4387
  89   2.0000      -0.932565       -25.3764
  90   2.0000      -0.927639       -25.2424
  91   2.0000      -0.920038       -25.0355
  92   2.0000      -0.900578       -24.5060
  93   2.0000      -0.895078       -24.3563
  94   2.0000      -0.885042       -24.0832
  95   2.0000      -0.878564       -23.9070
  96   2.0000      -0.875369       -23.8200
  97   2.0000      -0.868177       -23.6243
  98   2.0000      -0.865406       -23.5489
  99   2.0000      -0.857867       -23.3437
 100   2.0000      -0.851331       -23.1659
 101   2.0000      -0.841653       -22.9026
 102   2.0000      -0.831810       -22.6347
 103   2.0000      -0.824498       -22.4357
 104   2.0000      -0.819665       -22.3042
 105   2.0000      -0.814684       -22.1687
 106   2.0000      -0.804681       -21.8965
 107   2.0000      -0.794983       -21.6326
 108   2.0000      -0.782689       -21.2980
 109   2.0000      -0.770877       -20.9766
 110   2.0000      -0.764937       -20.8150
 111   2.0000      -0.762631       -20.7523
 112   2.0000      -0.759412       -20.6646
 113   2.0000      -0.751876       -20.4596
 114   2.0000      -0.730735       -19.8843
 115   2.0000      -0.719890       -19.5892
 116   2.0000      -0.714694       -19.4478
 117   2.0000      -0.712809       -19.3965
 118   2.0000      -0.710862       -19.3435
 119   2.0000      -0.709937       -19.3184
 120   2.0000      -0.697704       -18.9855
 121   2.0000      -0.694079       -18.8869
 122   2.0000      -0.689279       -18.7562
 123   2.0000      -0.679635       -18.4938
 124   2.0000      -0.668549       -18.1921
 125   2.0000      -0.665490       -18.1089
 126   2.0000      -0.656249       -17.8575
 127   2.0000      -0.655493       -17.8369
 128   2.0000      -0.650696       -17.7063
 129   2.0000      -0.647708       -17.6250
 130   2.0000      -0.637417       -17.3450
 131   2.0000      -0.634627       -17.2691
 132   2.0000      -0.624435       -16.9917
 133   2.0000      -0.613171       -16.6852
 134   2.0000      -0.607124       -16.5207
 135   2.0000      -0.602410       -16.3924
 136   2.0000      -0.598466       -16.2851
 137   2.0000      -0.592846       -16.1321
 138   2.0000      -0.586314       -15.9544
 139   2.0000      -0.582616       -15.8538
 140   2.0000      -0.581141       -15.8137
 141   2.0000      -0.572416       -15.5762
 142   2.0000      -0.570184       -15.5155
 143   2.0000      -0.563923       -15.3451
 144   2.0000      -0.559609       -15.2277
 145   2.0000      -0.557763       -15.1775
 146   2.0000      -0.554153       -15.0793
 147   2.0000      -0.552380       -15.0310
 148   2.0000      -0.550891       -14.9905
 149   2.0000      -0.544862       -14.8264
 150   2.0000      -0.539025       -14.6676
 151   2.0000      -0.534480       -14.5439
 152   2.0000      -0.532621       -14.4934
 153   2.0000      -0.531910       -14.4740
 154   2.0000      -0.529390       -14.4054
 155   2.0000      -0.527173       -14.3451
 156   2.0000      -0.524026       -14.2595
 157   2.0000      -0.523189       -14.2367
 158   2.0000      -0.521574       -14.1927
 159   2.0000      -0.519582       -14.1385
 160   2.0000      -0.518676       -14.1139
 161   2.0000      -0.518284       -14.1032
 162   2.0000      -0.516162       -14.0455
 163   2.0000      -0.514661       -14.0046
 164   2.0000      -0.514011       -13.9870
 165   2.0000      -0.510629       -13.8949
 166   2.0000      -0.509224       -13.8567
 167   2.0000      -0.505550       -13.7567
 168   2.0000      -0.503114       -13.6904
 169   2.0000      -0.502592       -13.6762
 170   2.0000      -0.501099       -13.6356
 171   2.0000      -0.496908       -13.5215
 172   2.0000      -0.496614       -13.5136
 173   2.0000      -0.492086       -13.3903
 174   2.0000      -0.489212       -13.3121
 175   2.0000      -0.484471       -13.1831
 176   2.0000      -0.482209       -13.1216
 177   2.0000      -0.480144       -13.0654
 178   2.0000      -0.475529       -12.9398
 179   2.0000      -0.473350       -12.8805
 180   2.0000      -0.469823       -12.7845
 181   2.0000      -0.469059       -12.7638
 182   2.0000      -0.468163       -12.7394
 183   2.0000      -0.464419       -12.6375
 184   2.0000      -0.463634       -12.6161
 185   2.0000      -0.462912       -12.5965
 186   2.0000      -0.461394       -12.5552
 187   2.0000      -0.461094       -12.5470
 188   2.0000      -0.459161       -12.4944
 189   2.0000      -0.456651       -12.4261
 190   2.0000      -0.451721       -12.2919
 191   2.0000      -0.451280       -12.2799
 192   2.0000      -0.450434       -12.2569
 193   2.0000      -0.444530       -12.0963
 194   2.0000      -0.443032       -12.0555
 195   2.0000      -0.442501       -12.0411
 196   2.0000      -0.440545       -11.9879
 197   2.0000      -0.437499       -11.9050
 198   2.0000      -0.436911       -11.8890
 199   2.0000      -0.435081       -11.8392
 200   2.0000      -0.434837       -11.8325
 201   2.0000      -0.433597       -11.7988
 202   2.0000      -0.432968       -11.7817
 203   2.0000      -0.427275       -11.6267
 204   2.0000      -0.425655       -11.5827
 205   2.0000      -0.424847       -11.5607
 206   2.0000      -0.421307       -11.4644
 207   2.0000      -0.420778       -11.4500
 208   2.0000      -0.419164       -11.4060
 209   2.0000      -0.410547       -11.1716
 210   2.0000      -0.410125       -11.1601
 211   2.0000      -0.403194       -10.9715
 212   2.0000      -0.402961       -10.9651
 213   2.0000      -0.390243       -10.6191
 214   2.0000      -0.384154       -10.4534
 215   2.0000      -0.362955        -9.8765
 216   2.0000      -0.355185        -9.6651
 217   2.0000      -0.351031        -9.5520
 218   2.0000      -0.350283        -9.5317
 219   2.0000      -0.348062        -9.4712
 220   2.0000      -0.346391        -9.4258
 221   2.0000      -0.334037        -9.0896
 222   2.0000      -0.332784        -9.0555
 223   2.0000      -0.330613        -8.9964
 224   2.0000      -0.321388        -8.7454
 225   2.0000      -0.318807        -8.6752
 226   2.0000      -0.315017        -8.5721
 227   2.0000      -0.309189        -8.4135
 228   2.0000      -0.308309        -8.3895
 229   2.0000      -0.297541        -8.0965
 230   2.0000      -0.286941        -7.8081
 231   2.0000      -0.249536        -6.7902
 232   2.0000      -0.240454        -6.5431
 233   0.0000      -0.133927        -3.6443
 234   0.0000      -0.120403        -3.2763
 235   0.0000      -0.065047        -1.7700
 236   0.0000      -0.056678        -1.5423
 237   0.0000      -0.051305        -1.3961

MULLIKEN ATOMIC CHARGES
-----------------------
   0 C :    0.048520
   1 N :   -0.256389
   2 C :    0.110218
   3 C :   -0.004155
   4 C :    0.177423
   5 O :   -0.199396
   6 C :   -0.100709
   7 C :   -0.003058
   8 C :    0.164035
   9 O :   -0.183154
  10 N :   -0.269154
  11 C :    0.099528
  12 C :    0.003063
  13 C :    0.162423
  14 C :   -0.023289
  15 C :    0.009879
  16 C :    0.113626
  17 C :   -0.102238
  18 C :    0.117901
  19 C :   -0.092299
  20 C :   -0.008727
  21 C :   -0.170884
  22 N :    0.138593
  23 C :    0.115433
  24 C :   -0.130751
  25 C :    0.149205
  26 C :   -0.026283
  27 C :   -0.085708
  28 C :   -0.181343
  29 N :    0.144063
  30 C :   -0.060026
  31 S :    0.152460
  32 C :   -0.198310
  33 C :    0.182556
  34 O :   -0.180308
  35 C :    0.151235
  36 C :   -0.036634
  37 C :    0.054606
  38 C :   -0.100269
  39 C :    0.099207
  40 C :   -0.104262
  41 C :    0.056730
  42 C :   -0.184139
  43 N :    0.138043
  44 C :    0.113421
  45 C :   -0.100660
  46 C :    0.038690
  47 C :   -0.026093
  48 C :   -0.091167
  49 C :   -0.185243
  50 N :    0.137354
  51 C :    0.146871
  52 N :   -0.259208
  53 C :    0.110247
  54 C :   -0.000764
  55 C :    0.158518
  56 O :   -0.212434
  57 C :   -0.065344
  58 C :   -0.051306
  59 C :    0.144853
  60 O :   -0.179151
  61 N :   -0.261316
  62 C :    0.096962
  63 C :    0.002710
  64 C :    0.116709
  65 C :   -0.035340
  66 C :    0.018376
  67 H :    0.018224
  68 H :    0.047417
  69 H :    0.020344
  70 H :    0.031582
  71 H :    0.026670
  72 H :    0.015826
  73 H :    0.045102
  74 H :    0.020860
  75 H :    0.031222
  76 H :    0.025837
  77 H :    0.012220
  78 H :   -0.029675
  79 H :    0.017410
  80 H :    0.018702
  81 H :    0.000639
  82 H :    0.005618
  83 H :    0.007297
  84 H :   -0.012589
  85 H :    0.009959
  86 H :    0.004007
  87 H :    0.003019
  88 H :    0.028223
  89 H :   -0.012435
  90 H :    0.023759
  91 H :    0.037186
  92 H :    0.018454
  93 H :    0.023698
  94 H :    0.035758
  95 H :    0.047765
  96 H :    0.022164
  97 H :    0.039838
  98 H :    0.023252
  99 H :    0.013844
 100 H :   -0.016666
 101 H :    0.058979
 102 H :    0.032538
Sum of atomic charges:   -0.0000000

LOEWDIN ATOMIC CHARGES
----------------------
   0 C :    0.096826
   1 N :    0.002992
   2 C :    0.038771
   3 C :   -0.060082
   4 C :    0.078903
   5 O :   -0.190012
   6 C :   -0.120572
   7 C :   -0.129114
   8 C :    0.080809
   9 O :   -0.188593
  10 N :   -0.008987
  11 C :    0.035651
  12 C :   -0.061212
  13 C :    0.079035
  14 C :   -0.035880
  15 C :    0.034098
  16 C :   -0.015434
  17 C :   -0.010367
  18 C :    0.041091
  19 C :   -0.075888
  20 C :    0.054688
  21 C :   -0.032154
  22 N :   -0.055766
  23 C :    0.034839
  24 C :   -0.015908
  25 C :   -0.032949
  26 C :    0.040648
  27 C :   -0.075104
  28 C :   -0.033093
  29 N :   -0.053604
  30 C :   -0.146071
  31 S :    0.473082
  32 C :   -0.232215
  33 C :    0.082316
  34 O :   -0.129535
  35 C :   -0.014392
  36 C :   -0.024175
  37 C :   -0.008304
  38 C :   -0.013758
  39 C :    0.051206
  40 C :   -0.088075
  41 C :    0.072933
  42 C :   -0.030609
  43 N :   -0.058742
  44 C :    0.029601
  45 C :    0.017654
  46 C :   -0.036681
  47 C :    0.044139
  48 C :   -0.081473
  49 C :   -0.031821
  50 N :   -0.064563
  51 C :    0.067272
  52 N :    0.000533
  53 C :    0.037712
  54 C :   -0.062490
  55 C :    0.080117
  56 O :   -0.203656
  57 C :   -0.130330
  58 C :   -0.106840
  59 C :    0.084207
  60 O :   -0.173358
  61 N :    0.001507
  62 C :    0.036278
  63 C :   -0.060293
  64 C :    0.090586
  65 C :   -0.054773
  66 C :    0.032507
  67 H :    0.034385
  68 H :    0.038085
  69 H :    0.025380
  70 H :    0.032124
  71 H :    0.031801
  72 H :    0.022430
  73 H :    0.038893
  74 H :    0.021255
  75 H :    0.033203
  76 H :    0.031511
  77 H :    0.020450
  78 H :    0.027501
  79 H :    0.043720
  80 H :    0.041362
  81 H :    0.035609
  82 H :    0.035788
  83 H :    0.033045
  84 H :   -0.002491
  85 H :    0.042375
  86 H :    0.034807
  87 H :    0.037467
  88 H :    0.040165
  89 H :    0.035464
  90 H :    0.024443
  91 H :    0.037012
  92 H :    0.019859
  93 H :    0.030895
  94 H :    0.035098
  95 H :    0.039123
  96 H :    0.022393
  97 H :    0.036206
  98 H :    0.030816
  99 H :    0.021505
 100 H :    0.030619
 101 H :    0.033790
 102 H :    0.030783

  Mayer bond orders larger than 0.100000
B(  0-C ,  1-N ) :   1.2033 B(  0-C ,  7-C ) :   1.4416 B(  0-C , 67-H ) :   0.9897
B(  1-N ,  2-C ) :   0.9394 B(  1-N ,  4-C ) :   1.0506 B(  2-C ,  3-C ) :   1.1181
B(  2-C , 68-H ) :   0.9343 B(  2-C , 69-H ) :   0.9541 B(  3-C , 70-H ) :   0.9674
B(  3-C , 71-H ) :   0.9689 B(  3-C , 72-H ) :   0.9693 B(  4-C ,  5-O ) :   2.0295
B(  4-C ,  6-C ) :   0.9970 B(  5-O , 79-H ) :   0.1080 B(  6-C ,  7-C ) :   1.2162
B(  6-C , 13-C ) :   1.3738 B(  7-C ,  8-C ) :   0.9498 B(  8-C ,  9-O ) :   2.1785
B(  8-C , 10-N ) :   1.0177 B( 10-N , 11-C ) :   0.9476 B( 10-N , 13-C ) :   1.1553
B( 11-C , 12-C ) :   1.1197 B( 11-C , 73-H ) :   0.9267 B( 11-C , 74-H ) :   0.9498
B( 12-C , 75-H ) :   0.9641 B( 12-C , 76-H ) :   0.9679 B( 12-C , 77-H ) :   0.9683
B( 13-C , 14-C ) :   1.1538 B( 14-C , 15-C ) :   1.5587 B( 14-C , 78-H ) :   0.9634
B( 15-C , 16-C ) :   1.1246 B( 15-C , 79-H ) :   0.9612 B( 16-C , 17-C ) :   1.5063
B( 16-C , 20-C ) :   1.0291 B( 17-C , 18-C ) :   1.1117 B( 17-C , 80-H ) :   1.0136
B( 18-C , 19-C ) :   1.0968 B( 18-C , 23-C ) :   1.4038 B( 19-C , 20-C ) :   1.6928
B( 19-C , 21-C ) :   1.0873 B( 20-C , 81-H ) :   1.0159 B( 21-C , 22-N ) :   2.9697
B( 23-C , 24-C ) :   1.1145 B( 23-C , 27-C ) :   1.1108 B( 24-C , 25-C ) :   1.5780
B( 24-C , 82-H ) :   1.0016 B( 25-C , 26-C ) :   1.0460 B( 25-C , 30-C ) :   1.0702
B( 26-C , 27-C ) :   1.6783 B( 26-C , 83-H ) :   1.0127 B( 27-C , 28-C ) :   1.0843
B( 28-C , 29-N ) :   2.9720 B( 30-C , 31-S ) :   1.1564 B( 30-C , 36-C ) :   1.4657
B( 31-S , 32-C ) :   1.1036 B( 32-C , 33-C ) :   1.0197 B( 32-C , 35-C ) :   1.4318
B( 33-C , 34-O ) :   2.1266 B( 33-C , 84-H ) :   0.9516 B( 35-C , 36-C ) :   1.2948
B( 35-C , 37-C ) :   0.9750 B( 36-C , 85-H ) :   1.0058 B( 37-C , 38-C ) :   1.6164
B( 37-C , 41-C ) :   1.0628 B( 38-C , 39-C ) :   1.0876 B( 38-C , 86-H ) :   1.0046
B( 39-C , 40-C ) :   1.1148 B( 39-C , 44-C ) :   1.4222 B( 40-C , 41-C ) :   1.6643
B( 40-C , 42-C ) :   1.0880 B( 41-C , 87-H ) :   1.0091 B( 42-C , 43-N ) :   2.9810
B( 44-C , 45-C ) :   1.1071 B( 44-C , 48-C ) :   1.1015 B( 45-C , 46-C ) :   1.5637
B( 45-C , 88-H ) :   0.9949 B( 46-C , 47-C ) :   1.0358 B( 46-C , 51-C ) :   1.0230
B( 47-C , 48-C ) :   1.6590 B( 47-C , 89-H ) :   1.0243 B( 48-C , 49-C ) :   1.0858
B( 49-C , 50-N ) :   2.9699 B( 51-C , 52-N ) :   1.1966 B( 51-C , 58-C ) :   1.3953
B( 52-N , 53-C ) :   0.9430 B( 52-N , 55-C ) :   1.0451 B( 53-C , 54-C ) :   1.1174
B( 53-C , 90-H ) :   0.9506 B( 53-C , 91-H ) :   0.9290 B( 54-C , 92-H ) :   0.9642
B( 54-C , 93-H ) :   0.9686 B( 54-C , 94-H ) :   0.9609 B( 55-C , 56-O ) :   2.0367
B( 55-C , 57-C ) :   0.9937 B( 57-C , 58-C ) :   1.2311 B( 57-C , 64-C ) :   1.3402
B( 58-C , 59-C ) :   0.9702 B( 59-C , 60-O ) :   2.1084 B( 59-C , 61-N ) :   1.0274
B( 61-N , 62-C ) :   0.9423 B( 61-N , 64-C ) :   1.1907 B( 62-C , 63-C ) :   1.1203
B( 62-C , 95-H ) :   0.9276 B( 62-C , 96-H ) :   0.9507 B( 63-C , 97-H ) :   0.9640
B( 63-C , 98-H ) :   0.9680 B( 63-C , 99-H ) :   0.9686 B( 64-C , 65-C ) :   1.1300
B( 65-C , 66-C ) :   1.8832 B( 65-C ,100-H ) :   0.9535 B( 66-C ,101-H ) :   0.9265
B( 66-C ,102-H ) :   0.9450

-----------------------------------------------------------------------------
         ABSORPTION SPECTRUM VIA TRANSITION ELECTRIC DIPOLE MOMENTS
-----------------------------------------------------------------------------
State   Energy  Wavelength   fosc         T2         TX        TY        TZ
        (cm-1)    (nm)                  (au**2)     (au)      (au)      (au)
-----------------------------------------------------------------------------
   0   10105.9    989.5   0.390074468  12.70715  -0.30600   3.10652   1.72135
   1   11158.5    896.2   0.344146487  10.15340   1.36829  -2.83332   0.50347
   2   15038.6    665.0   0.007129314   0.15607   0.10489  -0.34400   0.16350
   3   16612.9    601.9   0.094217288   1.86707  -0.35971   1.19133  -0.56428
   4   17720.2    564.3   0.031399315   0.58335  -0.31680   0.05934  -0.69243
   5   19084.2    524.0   0.032581624   0.56205   0.05783  -0.22771  -0.71194
   6   19862.2    503.5   0.006212011   0.10296  -0.02654  -0.05980  -0.31414
   7   20770.4    481.5   0.055699469   0.88284  -0.34222   0.87119   0.08219
   8   21765.1    459.5   0.049360183   0.74661  -0.25891   0.81272  -0.13803
   9   23251.3    430.1   0.227751872   3.22471   0.47088  -1.72417  -0.17381
  10   23621.9    423.3   0.167649494   2.33648   0.49178  -1.23000  -0.76272
  11   23723.1    421.5   0.095859438   1.33027   0.14348   0.00437   1.14441
  12   24453.5    408.9   0.018239400   0.24555  -0.16563   0.44700  -0.13532
  13   24936.3    401.0   0.063733138   0.84141   0.23677  -0.75011  -0.47190
  14   25666.1    389.6   0.646894994   8.29756   0.64801  -2.79913  -0.20625
  15   25937.8    385.5   0.005563773   0.07062  -0.16875   0.17926  -0.10004
  16   26343.6    379.6   0.000287438   0.00359  -0.03144   0.00422   0.05085
  17   26477.5    377.7   0.393529471   4.89301  -0.87468   0.62060  -1.93463
  18   28052.5    356.5   0.022570571   0.26488   0.17967  -0.05038   0.47964
  19   28501.4    350.9   0.178638448   2.06340   0.59370   0.13269   1.30128
  20   28970.3    345.2   0.215421976   2.44800  -0.29032  -0.32264  -1.50320
  21   29899.4    334.5   0.122369785   1.34737   0.03086   0.92946   0.69464
  22   30829.9    324.4   0.026556869   0.28358  -0.27251   0.36535  -0.27540
  23   30920.3    323.4   0.001990999   0.02120  -0.02954   0.13939   0.02993
  24   30983.6    322.8   0.093191638   0.99019  -0.46029   0.67945  -0.56274
  25   31527.1    317.2   0.006763148   0.07062   0.09542  -0.24802   0.00206
  26   31875.8    313.7   0.121221039   1.25196   0.52969  -0.88552   0.43272
  27   32179.2    310.8   0.000457407   0.00468   0.02520  -0.06345   0.00439
  28   32371.8    308.9   0.007016599   0.07136  -0.07945   0.24552   0.06903
  29   32521.7    307.5   0.249067710   2.52127   0.54606  -1.49077   0.02632
  30   32915.3    303.8   0.004480448   0.04481   0.08683  -0.09768   0.16653
  31   33174.8    301.4   0.035997458   0.35722  -0.27951   0.51244   0.12845
  32   33568.9    297.9   0.176554518   1.73148   0.55882  -1.19054  -0.04260
  33   33751.4    296.3   0.225067229   2.19531  -0.42887  -0.10287  -1.41450
  34   34569.0    289.3   0.024937382   0.23749  -0.14698   0.32550   0.33156
  35   34840.0    287.0   0.039641196   0.37458  -0.10178   0.36876   0.47774
  36   35057.6    285.2   0.059427621   0.55806   0.01569  -0.62474  -0.40929
  37   35520.3    281.5   0.004162821   0.03858   0.05033  -0.02389   0.18836
  38   35818.5    279.2   0.042249847   0.38832   0.15785   0.23354   0.55576
  39   35843.0    279.0   0.000808219   0.00742  -0.07195   0.04668  -0.00824
  40   35966.4    278.0   0.029452139   0.26958  -0.19281  -0.32695   0.35428
  41   36123.7    276.8   0.199597936   1.81903  -0.55131   1.22843  -0.07778
  42   36250.9    275.9   0.003929445   0.03569   0.13346  -0.06745   0.11543
  43   36470.4    274.2   0.051518672   0.46505  -0.16948   0.59633   0.28411
  44   36662.7    272.8   0.148992346   1.33787  -0.26046  -0.48660  -1.01649
  45   36834.6    271.5   0.066427495   0.59370  -0.32641   0.64401  -0.26909
  46   36930.5    270.8   0.001143477   0.01019   0.01881  -0.09893  -0.00721
  47   36939.9    270.7   0.000714103   0.00636  -0.04888   0.05613  -0.02871
  48   37140.5    269.2   0.037892646   0.33588  -0.08591   0.45288   0.35128
  49   37435.7    267.1   0.243292927   2.13953   0.59621  -1.00820   0.87613
  50   37624.8    265.8   0.026408208   0.23107  -0.21034   0.35881  -0.24101
  51   37795.9    264.6   0.077378792   0.67399   0.07524  -0.34188  -0.74259
  52   37999.2    263.2   0.009415590   0.08157   0.17401  -0.07644   0.21320
  53   38895.4    257.1   0.057368416   0.48557  -0.04413   0.44419  -0.53508
  54   39070.8    255.9   0.000948858   0.00800  -0.00501  -0.04986  -0.07405
  55   39208.4    255.0   0.007007151   0.05884  -0.06153   0.01640  -0.23405
  56   39381.4    253.9   0.100752429   0.84225   0.31162  -0.31063   0.80539
  57   39553.1    252.8   0.013151666   0.10947  -0.00996   0.23060   0.23705
  58   39866.8    250.8   0.112814927   0.93160  -0.38139   0.74914   0.47428

FINAL SINGLE POINT ENERGY     -3249.778038418903

DIPOLE MOMENT
-------------
                                X             Y             Z
Electronic contribution:    -20.29277       5.34661     -27.78425
Nuclear contribution   :     20.98356      -6.05464      27.55009
                        -----------------------------------------
Total Dipole Moment    :      0.69079      -0.70803      -0.23416
                        -----------------------------------------
Magnitude (a.u.)       :      1.01653
Magnitude (Debye)      :      2.58381

Rotational constants in cm-1:     0.002105     0.000269     0.000241
Rotational constants in MHz :    63.093473     8.061439     7.231838

                             ****ORCA TERMINATED NORMALLY****
TOTAL RUN TIME: 0 days 0 hours 9 minutes 20 seconds 215 msec
