                         Program Version 4.2.0 -  RELEASE  -
|  1> # ORCA input file
|  2> # SCF done       -203.263069639070          0.000446751884
|  3> ! CAM-B3LYP def2-SVP def2/J RIJCOSX Grid4 TightSCF
|  4> %maxcore 5000
|  5> %tddft
|  6>     Mode sTDDFT
|  7>     Ethresh 5.0
|  8>     maxcore 5000
|  9> end
| 10>
| 11> %pal
| 12>   nprocs 6
| 13>   end
| 14> * xyz 0 1
| 15>    C       -6.13527       -11.00865        -8.75940
| 16>    C       -6.61688       -11.66058        -9.88128
| 17>    C       -7.24411       -12.89772        -9.71457
| 18>    C       -7.75169       -13.57934       -10.84761
| 19>    N       -8.16058       -14.12566       -11.76712
| 20>    C       -7.38338       -13.47937        -8.44049
| 21>    C       -8.03383       -14.72756        -8.29763
| 22>    N       -8.56004       -15.73507        -8.15512
| 23>    C       -6.88260       -12.82387        -7.31371
| 24>    C       -6.27316       -11.60153        -7.49071
| 25>    C       -5.67161       -10.71918        -6.46215
| 26>    O       -5.50976       -10.99562        -5.29021
| 27>    C       -5.20861        -9.52608        -7.19823
| 28>    C       -5.47348        -9.71205        -8.60170
| 29>    C       -5.24115        -8.81042        -9.60984
| 30>    C       -5.54722        -9.04224       -10.96609
| 31>    N       -5.76657        -9.18064       -12.08451
| 32>    C       -4.68184        -7.52892        -9.42653
| 33>    N       -4.24678        -6.46895        -9.34938
| 34>    C       -4.51883        -8.48517        -6.61825
| 35>    C       -4.47855        -8.21320        -5.24491
| 36>    S       -3.00629        -7.54222        -4.59797
| 37>    C       -3.52075        -7.74376        -2.97390
| 38>    C       -4.85240        -8.19463        -2.91759
| 39>    C       -5.41085        -8.42969        -4.21297
| 40>    C       -6.79292        -8.71154        -4.31472
| 41>    S       -7.62425        -8.68769        -5.87263
| 42>    C       -7.52496        -8.89162        -3.16230
| 43>    C       -6.95402        -8.71237        -1.89866
| 44>    C       -5.64741        -8.32704        -1.76558
| 45>    C       -2.62663        -7.45738        -1.88458
| 46>    C       -2.64633        -8.20785        -0.72873
| 47>    C       -1.78746        -7.87718         0.33636
| 48>    C       -1.64033        -8.44572         1.59737
| 49>    C       -2.39993        -9.61859         2.11408
| 50>    C       -1.55937       -10.91547         2.09164
| 51>    N       -0.33421       -10.77111         2.86160
| 52>    C       -2.98279        -9.40915         3.52255
| 53>    N       -4.08771       -10.33260         3.71807
| 54>    C       -0.63622        -7.66932         2.28463
| 55>    C       -0.11755        -7.77124         3.52390
| 56>    C        0.90882        -6.81417         4.02244
| 57>    C        1.31264        -5.75441         3.04379
| 58>    C        0.80355        -5.68309         1.79889
| 59>    C       -0.17975        -6.60568         1.37443
| 60>    C       -0.87908        -6.74852         0.19256
| 61>    C       -0.84156        -6.03493        -1.02775
| 62>    C       -1.68267        -6.38658        -2.03119
| 63>    C        2.16333        -7.55073         4.39988
| 64>    C        2.73789        -7.46512         5.60740
| 65>    C        4.00212        -8.03397         5.94840
| 66>    S        5.07661        -8.52908         4.69311
| 67>    C        6.39300        -8.81050         5.79152
| 68>    C        5.98139        -8.54956         7.11822
| 69>    C        4.61296        -8.14246         7.20944
| 70>    C        4.07189        -7.91818         8.49974
| 71>    S        2.35029        -7.61376         8.80680
| 72>    C        4.89687        -7.95219         9.59820
| 73>    C        6.25439        -8.26859         9.47830
| 74>    C        6.79163        -8.59680         8.26123
| 75>    C        7.63014        -9.32600         5.40004
| 76>    C        8.16378        -9.48874         4.14381
| 77>    C        9.20914       -10.51436         3.93847
| 78>    O        9.82603       -11.11718         4.78746
| 79>    C        9.29557       -10.68781         2.46659
| 80>    C       10.03816       -11.59844         1.74743
| 81>    C        9.92043       -11.59129         0.35538
| 82>    C        9.06192       -10.67304        -0.27772
| 83>    C        8.32494        -9.74374         0.46080
| 84>    C        8.44772        -9.75454         1.83811
| 85>    C        7.85070        -8.90142         2.86868
| 86>    C        7.35421        -7.63934         2.64754
| 87>    C        7.12977        -6.71493         3.68719
| 88>    N        6.98887        -5.92380         4.50749
| 89>    C        7.10636        -7.10037         1.37117
| 90>    N        6.85273        -6.63132         0.35432
| 91>    C        8.93822       -10.69299        -1.68879
| 92>    N        8.82493       -10.70585        -2.82804
| 93>    C       10.66086       -12.51559        -0.41967
| 94>    N       11.26717       -13.27248        -1.02880
| 95>    H       -6.52513       -11.24810       -10.87337
| 96>    H       -6.97562       -13.25912        -6.33023
| 97>    H       -3.89125        -7.86403        -7.24488
| 98>    H       -8.85042        -8.76485        -5.34893
| 99>    H       -8.57591        -9.13391        -3.22912
|100>    H       -7.57734        -8.83489        -1.02630
|101>    H       -5.23810        -8.08582        -0.79807
|102>    H       -3.28406        -9.07562        -0.65723
|103>    H       -3.24595        -9.79388         1.44082
|104>    H       -1.37574       -11.19302         1.04177
|105>    H       -2.16750       -11.69347         2.55720
|106>    H        0.34761       -10.23584         2.33385
|107>    H        0.06662       -11.68247         3.05086
|108>    H       -3.26765        -8.35012         3.64529
|109>    H       -2.22254        -9.65410         4.26482
|110>    H       -4.87113       -10.08479         3.12243
|111>    H       -4.40906       -10.30766         4.67885
|112>    H       -0.39785        -8.56916         4.19350
|113>    H        0.51125        -6.33383         4.92840
|114>    H        2.06248        -5.05848         3.38640
|115>    H        1.12596        -4.90955         1.11752
|116>    H       -0.14696        -5.21745        -1.14787
|117>    H       -1.67698        -5.84839        -2.96768
|118>    H        2.61934        -8.13081         3.60930
|119>    H        2.25811        -6.88034         6.38090
|120>    H        1.88691        -8.48729         7.91025
|121>    H        4.47676        -7.75562        10.57258
|122>    H        6.86794        -8.28455        10.36531
|123>    H        7.82857        -8.87805         8.17583
|124>    H        8.22978        -9.76214         6.19311
|125>    H       10.69158       -12.29858         2.24534
|126>    H        7.67513        -9.05363        -0.05423
|127> *
|128>
|129>                          ****END OF INPUT****

CARTESIAN COORDINATES (ANGSTROEM)
---------------------------------
  C     -6.135270  -11.008650   -8.759400
  C     -6.616880  -11.660580   -9.881280
  C     -7.244110  -12.897720   -9.714570
  C     -7.751690  -13.579340  -10.847610
  N     -8.160580  -14.125660  -11.767120
  C     -7.383380  -13.479370   -8.440490
  C     -8.033830  -14.727560   -8.297630
  N     -8.560040  -15.735070   -8.155120
  C     -6.882600  -12.823870   -7.313710
  C     -6.273160  -11.601530   -7.490710
  C     -5.671610  -10.719180   -6.462150
  O     -5.509760  -10.995620   -5.290210
  C     -5.208610   -9.526080   -7.198230
  C     -5.473480   -9.712050   -8.601700
  C     -5.241150   -8.810420   -9.609840
  C     -5.547220   -9.042240  -10.966090
  N     -5.766570   -9.180640  -12.084510
  C     -4.681840   -7.528920   -9.426530
  N     -4.246780   -6.468950   -9.349380
  C     -4.518830   -8.485170   -6.618250
  C     -4.478550   -8.213200   -5.244910
  S     -3.006290   -7.542220   -4.597970
  C     -3.520750   -7.743760   -2.973900
  C     -4.852400   -8.194630   -2.917590
  C     -5.410850   -8.429690   -4.212970
  C     -6.792920   -8.711540   -4.314720
  S     -7.624250   -8.687690   -5.872630
  C     -7.524960   -8.891620   -3.162300
  C     -6.954020   -8.712370   -1.898660
  C     -5.647410   -8.327040   -1.765580
  C     -2.626630   -7.457380   -1.884580
  C     -2.646330   -8.207850   -0.728730
  C     -1.787460   -7.877180    0.336360
  C     -1.640330   -8.445720    1.597370
  C     -2.399930   -9.618590    2.114080
  C     -1.559370  -10.915470    2.091640
  N     -0.334210  -10.771110    2.861600
  C     -2.982790   -9.409150    3.522550
  N     -4.087710  -10.332600    3.718070
  C     -0.636220   -7.669320    2.284630
  C     -0.117550   -7.771240    3.523900
  C      0.908820   -6.814170    4.022440
  C      1.312640   -5.754410    3.043790
  C      0.803550   -5.683090    1.798890
  C     -0.179750   -6.605680    1.374430
  C     -0.879080   -6.748520    0.192560
  C     -0.841560   -6.034930   -1.027750
  C     -1.682670   -6.386580   -2.031190
  C      2.163330   -7.550730    4.399880
  C      2.737890   -7.465120    5.607400
  C      4.002120   -8.033970    5.948400
  S      5.076610   -8.529080    4.693110
  C      6.393000   -8.810500    5.791520
  C      5.981390   -8.549560    7.118220
  C      4.612960   -8.142460    7.209440
  C      4.071890   -7.918180    8.499740
  S      2.350290   -7.613760    8.806800
  C      4.896870   -7.952190    9.598200
  C      6.254390   -8.268590    9.478300
  C      6.791630   -8.596800    8.261230
  C      7.630140   -9.326000    5.400040
  C      8.163780   -9.488740    4.143810
  C      9.209140  -10.514360    3.938470
  O      9.826030  -11.117180    4.787460
  C      9.295570  -10.687810    2.466590
  C     10.038160  -11.598440    1.747430
  C      9.920430  -11.591290    0.355380
  C      9.061920  -10.673040   -0.277720
  C      8.324940   -9.743740    0.460800
  C      8.447720   -9.754540    1.838110
  C      7.850700   -8.901420    2.868680
  C      7.354210   -7.639340    2.647540
  C      7.129770   -6.714930    3.687190
  N      6.988870   -5.923800    4.507490
  C      7.106360   -7.100370    1.371170
  N      6.852730   -6.631320    0.354320
  C      8.938220  -10.692990   -1.688790
  N      8.824930  -10.705850   -2.828040
  C     10.660860  -12.515590   -0.419670
  N     11.267170  -13.272480   -1.028800
  H     -6.525130  -11.248100  -10.873370
  H     -6.975620  -13.259120   -6.330230
  H     -3.891250   -7.864030   -7.244880
  H     -8.850420   -8.764850   -5.348930
  H     -8.575910   -9.133910   -3.229120
  H     -7.577340   -8.834890   -1.026300
  H     -5.238100   -8.085820   -0.798070
  H     -3.284060   -9.075620   -0.657230
  H     -3.245950   -9.793880    1.440820
  H     -1.375740  -11.193020    1.041770
  H     -2.167500  -11.693470    2.557200
  H      0.347610  -10.235840    2.333850
  H      0.066620  -11.682470    3.050860
  H     -3.267650   -8.350120    3.645290
  H     -2.222540   -9.654100    4.264820
  H     -4.871130  -10.084790    3.122430
  H     -4.409060  -10.307660    4.678850
  H     -0.397850   -8.569160    4.193500
  H      0.511250   -6.333830    4.928400
  H      2.062480   -5.058480    3.386400
  H      1.125960   -4.909550    1.117520
  H     -0.146960   -5.217450   -1.147870
  H     -1.676980   -5.848390   -2.967680
  H      2.619340   -8.130810    3.609300
  H      2.258110   -6.880340    6.380900
  H      1.886910   -8.487290    7.910250
  H      4.476760   -7.755620   10.572580
  H      6.867940   -8.284550   10.365310
  H      7.828570   -8.878050    8.175830
  H      8.229780   -9.762140    6.193110
  H     10.691580  -12.298580    2.245340
  H      7.675130   -9.053630   -0.054230

 Total Charge           Charge          ....    0
 Multiplicity           Mult            ....    1
 Number of Electrons    NEL             ....  566
 Basis Dimension        Dim             .... 1296

ORBITAL ENERGIES
----------------

  NO   OCC          E(Eh)            E(eV)
   0   2.0000     -89.001025     -2421.8410
   1   2.0000     -88.991166     -2421.5727
   2   2.0000     -88.959859     -2420.7208
   3   2.0000     -88.948964     -2420.4244
   4   2.0000     -19.231593      -523.3183
   5   2.0000     -19.215611      -522.8834
   6   2.0000     -14.430231      -392.6666
   7   2.0000     -14.428666      -392.6240
   8   2.0000     -14.427214      -392.5845
   9   2.0000     -14.427067      -392.5804
  10   2.0000     -14.419775      -392.3820
  11   2.0000     -14.418387      -392.3443
  12   2.0000     -14.417215      -392.3124
  13   2.0000     -14.417120      -392.3098
  14   2.0000     -14.399921      -391.8418
  15   2.0000     -14.394417      -391.6920
  16   2.0000     -10.383451      -282.5481
  17   2.0000     -10.370361      -282.1919
  18   2.0000     -10.359312      -281.8912
  19   2.0000     -10.358632      -281.8727
  20   2.0000     -10.358390      -281.8661
  21   2.0000     -10.357897      -281.8527
  22   2.0000     -10.357439      -281.8402
  23   2.0000     -10.347549      -281.5711
  24   2.0000     -10.346928      -281.5542
  25   2.0000     -10.346449      -281.5412
  26   2.0000     -10.344611      -281.4912
  27   2.0000     -10.342759      -281.4408
  28   2.0000     -10.340206      -281.3713
  29   2.0000     -10.338150      -281.3154
  30   2.0000     -10.337407      -281.2951
  31   2.0000     -10.334143      -281.2063
  32   2.0000     -10.332412      -281.1592
  33   2.0000     -10.332401      -281.1589
  34   2.0000     -10.332196      -281.1533
  35   2.0000     -10.330278      -281.1012
  36   2.0000     -10.326606      -281.0012
  37   2.0000     -10.325291      -280.9654
  38   2.0000     -10.323972      -280.9296
  39   2.0000     -10.323942      -280.9288
  40   2.0000     -10.323640      -280.9205
  41   2.0000     -10.323585      -280.9190
  42   2.0000     -10.323091      -280.9056
  43   2.0000     -10.323065      -280.9049
  44   2.0000     -10.323002      -280.9032
  45   2.0000     -10.321932      -280.8740
  46   2.0000     -10.320873      -280.8452
  47   2.0000     -10.320779      -280.8427
  48   2.0000     -10.320564      -280.8368
  49   2.0000     -10.320514      -280.8355
  50   2.0000     -10.319652      -280.8120
  51   2.0000     -10.318539      -280.7817
  52   2.0000     -10.316846      -280.7357
  53   2.0000     -10.313972      -280.6575
  54   2.0000     -10.313914      -280.6559
  55   2.0000     -10.310929      -280.5746
  56   2.0000     -10.310390      -280.5600
  57   2.0000     -10.309234      -280.5285
  58   2.0000     -10.308058      -280.4965
  59   2.0000     -10.307925      -280.4929
  60   2.0000     -10.306420      -280.4520
  61   2.0000     -10.303301      -280.3671
  62   2.0000     -10.303056      -280.3604
  63   2.0000     -10.299779      -280.2712
  64   2.0000     -10.297709      -280.2149
  65   2.0000     -10.297217      -280.2015
  66   2.0000     -10.295788      -280.1626
  67   2.0000     -10.295020      -280.1417
  68   2.0000     -10.294610      -280.1306
  69   2.0000     -10.293614      -280.1035
  70   2.0000     -10.292966      -280.0858
  71   2.0000     -10.292371      -280.0696
  72   2.0000     -10.290903      -280.0297
  73   2.0000     -10.290631      -280.0223
  74   2.0000     -10.289272      -279.9853
  75   2.0000     -10.285690      -279.8878
  76   2.0000     -10.283690      -279.8334
  77   2.0000     -10.283132      -279.8182
  78   2.0000     -10.282472      -279.8003
  79   2.0000     -10.281675      -279.7786
  80   2.0000      -8.095828      -220.2987
  81   2.0000      -8.086452      -220.0435
  82   2.0000      -8.055102      -219.1905
  83   2.0000      -8.043576      -218.8768
  84   2.0000      -6.064754      -165.0303
  85   2.0000      -6.060683      -164.9196
  86   2.0000      -6.058605      -164.8630
  87   2.0000      -6.055300      -164.7731
  88   2.0000      -6.051223      -164.6621
  89   2.0000      -6.049388      -164.6122
  90   2.0000      -6.025339      -163.9578
  91   2.0000      -6.021489      -163.8530
  92   2.0000      -6.015065      -163.6782
  93   2.0000      -6.013900      -163.6466
  94   2.0000      -6.009544      -163.5280
  95   2.0000      -6.003899      -163.3744
  96   2.0000      -1.146708       -31.2035
  97   2.0000      -1.131779       -30.7973
  98   2.0000      -1.042553       -28.3693
  99   2.0000      -1.035469       -28.1765
 100   2.0000      -1.029600       -28.0168
 101   2.0000      -1.025763       -27.9124
 102   2.0000      -1.024609       -27.8810
 103   2.0000      -1.015751       -27.6400
 104   2.0000      -1.009721       -27.4759
 105   2.0000      -1.007663       -27.4199
 106   2.0000      -1.006512       -27.3886
 107   2.0000      -1.004848       -27.3433
 108   2.0000      -0.999639       -27.2016
 109   2.0000      -0.997422       -27.1412
 110   2.0000      -0.996147       -27.1065
 111   2.0000      -0.983850       -26.7719
 112   2.0000      -0.978970       -26.6391
 113   2.0000      -0.974114       -26.5070
 114   2.0000      -0.969115       -26.3710
 115   2.0000      -0.966891       -26.3105
 116   2.0000      -0.966491       -26.2995
 117   2.0000      -0.960499       -26.1365
 118   2.0000      -0.945291       -25.7227
 119   2.0000      -0.932717       -25.3805
 120   2.0000      -0.924064       -25.1451
 121   2.0000      -0.916205       -24.9312
 122   2.0000      -0.911825       -24.8120
 123   2.0000      -0.907924       -24.7059
 124   2.0000      -0.902210       -24.5504
 125   2.0000      -0.898909       -24.4606
 126   2.0000      -0.893032       -24.3006
 127   2.0000      -0.889025       -24.1916
 128   2.0000      -0.884852       -24.0781
 129   2.0000      -0.865056       -23.5394
 130   2.0000      -0.864671       -23.5289
 131   2.0000      -0.859526       -23.3889
 132   2.0000      -0.854721       -23.2581
 133   2.0000      -0.852221       -23.1901
 134   2.0000      -0.846292       -23.0288
 135   2.0000      -0.829643       -22.5757
 136   2.0000      -0.824006       -22.4223
 137   2.0000      -0.815742       -22.1975
 138   2.0000      -0.807070       -21.9615
 139   2.0000      -0.797202       -21.6930
 140   2.0000      -0.795434       -21.6449
 141   2.0000      -0.781506       -21.2658
 142   2.0000      -0.777144       -21.1472
 143   2.0000      -0.759340       -20.6627
 144   2.0000      -0.751964       -20.4620
 145   2.0000      -0.744201       -20.2507
 146   2.0000      -0.740170       -20.1410
 147   2.0000      -0.737654       -20.0726
 148   2.0000      -0.727744       -19.8029
 149   2.0000      -0.726973       -19.7819
 150   2.0000      -0.720652       -19.6099
 151   2.0000      -0.714042       -19.4301
 152   2.0000      -0.708528       -19.2800
 153   2.0000      -0.700446       -19.0601
 154   2.0000      -0.699658       -19.0387
 155   2.0000      -0.696843       -18.9621
 156   2.0000      -0.693665       -18.8756
 157   2.0000      -0.685122       -18.6431
 158   2.0000      -0.677168       -18.4267
 159   2.0000      -0.674155       -18.3447
 160   2.0000      -0.664888       -18.0925
 161   2.0000      -0.662150       -18.0180
 162   2.0000      -0.657549       -17.8928
 163   2.0000      -0.653442       -17.7811
 164   2.0000      -0.646197       -17.5839
 165   2.0000      -0.643554       -17.5120
 166   2.0000      -0.631974       -17.1969
 167   2.0000      -0.624099       -16.9826
 168   2.0000      -0.619977       -16.8704
 169   2.0000      -0.615047       -16.7363
 170   2.0000      -0.609490       -16.5851
 171   2.0000      -0.606092       -16.4926
 172   2.0000      -0.599787       -16.3210
 173   2.0000      -0.598813       -16.2945
 174   2.0000      -0.594472       -16.1764
 175   2.0000      -0.593813       -16.1585
 176   2.0000      -0.587096       -15.9757
 177   2.0000      -0.586821       -15.9682
 178   2.0000      -0.581387       -15.8203
 179   2.0000      -0.580411       -15.7938
 180   2.0000      -0.571329       -15.5467
 181   2.0000      -0.568108       -15.4590
 182   2.0000      -0.567303       -15.4371
 183   2.0000      -0.565670       -15.3927
 184   2.0000      -0.560595       -15.2546
 185   2.0000      -0.558980       -15.2106
 186   2.0000      -0.557096       -15.1593
 187   2.0000      -0.556145       -15.1335
 188   2.0000      -0.554928       -15.1003
 189   2.0000      -0.552386       -15.0312
 190   2.0000      -0.548325       -14.9207
 191   2.0000      -0.542658       -14.7665
 192   2.0000      -0.541407       -14.7324
 193   2.0000      -0.540901       -14.7187
 194   2.0000      -0.536937       -14.6108
 195   2.0000      -0.536114       -14.5884
 196   2.0000      -0.534822       -14.5533
 197   2.0000      -0.530893       -14.4463
 198   2.0000      -0.529464       -14.4074
 199   2.0000      -0.527875       -14.3642
 200   2.0000      -0.525738       -14.3061
 201   2.0000      -0.522514       -14.2183
 202   2.0000      -0.520996       -14.1770
 203   2.0000      -0.519009       -14.1230
 204   2.0000      -0.518424       -14.1070
 205   2.0000      -0.513279       -13.9670
 206   2.0000      -0.512465       -13.9449
 207   2.0000      -0.509317       -13.8592
 208   2.0000      -0.506974       -13.7955
 209   2.0000      -0.505175       -13.7465
 210   2.0000      -0.502655       -13.6779
 211   2.0000      -0.497738       -13.5441
 212   2.0000      -0.494541       -13.4571
 213   2.0000      -0.490606       -13.3501
 214   2.0000      -0.490080       -13.3357
 215   2.0000      -0.484327       -13.1792
 216   2.0000      -0.483283       -13.1508
 217   2.0000      -0.480638       -13.0788
 218   2.0000      -0.477958       -13.0059
 219   2.0000      -0.470399       -12.8002
 220   2.0000      -0.470271       -12.7967
 221   2.0000      -0.467597       -12.7240
 222   2.0000      -0.465443       -12.6654
 223   2.0000      -0.463664       -12.6169
 224   2.0000      -0.462385       -12.5821
 225   2.0000      -0.461782       -12.5657
 226   2.0000      -0.459545       -12.5048
 227   2.0000      -0.456755       -12.4289
 228   2.0000      -0.454747       -12.3743
 229   2.0000      -0.453279       -12.3343
 230   2.0000      -0.452497       -12.3131
 231   2.0000      -0.451429       -12.2840
 232   2.0000      -0.451070       -12.2742
 233   2.0000      -0.450771       -12.2661
 234   2.0000      -0.449821       -12.2403
 235   2.0000      -0.449123       -12.2213
 236   2.0000      -0.447109       -12.1665
 237   2.0000      -0.446159       -12.1406
 238   2.0000      -0.445745       -12.1293
 239   2.0000      -0.444504       -12.0956
 240   2.0000      -0.443669       -12.0728
 241   2.0000      -0.442474       -12.0403
 242   2.0000      -0.439611       -11.9624
 243   2.0000      -0.437542       -11.9061
 244   2.0000      -0.437384       -11.9018
 245   2.0000      -0.436131       -11.8677
 246   2.0000      -0.434927       -11.8350
 247   2.0000      -0.432481       -11.7684
 248   2.0000      -0.430698       -11.7199
 249   2.0000      -0.428594       -11.6626
 250   2.0000      -0.427385       -11.6297
 251   2.0000      -0.427253       -11.6261
 252   2.0000      -0.424375       -11.5478
 253   2.0000      -0.422514       -11.4972
 254   2.0000      -0.418510       -11.3882
 255   2.0000      -0.417588       -11.3631
 256   2.0000      -0.412605       -11.2276
 257   2.0000      -0.410647       -11.1743
 258   2.0000      -0.406607       -11.0643
 259   2.0000      -0.405809       -11.0426
 260   2.0000      -0.403683       -10.9848
 261   2.0000      -0.394833       -10.7439
 262   2.0000      -0.390104       -10.6153
 263   2.0000      -0.383056       -10.4235
 264   2.0000      -0.368997       -10.0409
 265   2.0000      -0.364621        -9.9218
 266   2.0000      -0.363041        -9.8789
 267   2.0000      -0.356560        -9.7025
 268   2.0000      -0.355362        -9.6699
 269   2.0000      -0.350548        -9.5389
 270   2.0000      -0.349912        -9.5216
 271   2.0000      -0.348016        -9.4700
 272   2.0000      -0.337721        -9.1899
 273   2.0000      -0.334999        -9.1158
 274   2.0000      -0.332437        -9.0461
 275   2.0000      -0.325711        -8.8631
 276   2.0000      -0.324156        -8.8207
 277   2.0000      -0.320677        -8.7261
 278   2.0000      -0.316137        -8.6025
 279   2.0000      -0.300404        -8.1744
 280   2.0000      -0.273068        -7.4306
 281   2.0000      -0.267669        -7.2837
 282   2.0000      -0.241065        -6.5597
 283   0.0000      -0.122896        -3.3442
 284   0.0000      -0.109902        -2.9906
 285   0.0000      -0.094791        -2.5794
 286   0.0000      -0.088397        -2.4054
 287   0.0000      -0.078290        -2.1304

MULLIKEN ATOMIC CHARGES
-----------------------
   0 C :    0.050908
   1 C :   -0.052887
   2 C :   -0.062236
   3 C :   -0.176162
   4 N :    0.197418
   5 C :   -0.071409
   6 C :   -0.173317
   7 N :    0.191056
   8 C :   -0.047491
   9 C :    0.008659
  10 C :    0.147108
  11 O :   -0.143060
  12 C :   -0.159037
  13 C :    0.327299
  14 C :   -0.340143
  15 C :   -0.186537
  16 N :    0.155101
  17 C :   -0.202519
  18 N :    0.162176
  19 C :    0.049490
  20 C :   -0.202543
  21 S :    0.209740
  22 C :   -0.111265
  23 C :    0.097756
  24 C :    0.176747
  25 C :   -0.088390
  26 S :    0.044983
  27 C :    0.005214
  28 C :    0.032564
  29 C :   -0.033174
  30 C :    0.086687
  31 C :   -0.092101
  32 C :    0.041749
  33 C :   -0.033488
  34 C :   -0.020696
  35 C :    0.141275
  36 N :   -0.242199
  37 C :    0.118788
  38 N :   -0.218057
  39 C :    0.066659
  40 C :   -0.123887
  41 C :    0.138593
  42 C :   -0.041716
  43 C :    0.028005
  44 C :    0.011664
  45 C :    0.037513
  46 C :    0.002600
  47 C :   -0.013443
  48 C :   -0.038688
  49 C :   -0.027204
  50 C :   -0.094638
  51 S :    0.178552
  52 C :   -0.121945
  53 C :    0.149347
  54 C :    0.125699
  55 C :   -0.127161
  56 S :    0.038501
  57 C :    0.022992
  58 C :    0.046303
  59 C :   -0.026210
  60 C :    0.026313
  61 C :   -0.152186
  62 C :    0.142483
  63 O :   -0.136868
  64 C :    0.011663
  65 C :   -0.036798
  66 C :   -0.069072
  67 C :   -0.058960
  68 C :   -0.040294
  69 C :    0.033318
  70 C :    0.248107
  71 C :   -0.318980
  72 C :   -0.223890
  73 N :    0.181557
  74 C :   -0.171766
  75 N :    0.157899
  76 C :   -0.175476
  77 N :    0.195793
  78 C :   -0.174030
  79 N :    0.194180
  80 H :    0.017464
  81 H :    0.007226
  82 H :    0.026084
  83 H :    0.060657
  84 H :   -0.016416
  85 H :   -0.009591
  86 H :   -0.017614
  87 H :   -0.012974
  88 H :   -0.032267
  89 H :   -0.008987
  90 H :    0.008018
  91 H :    0.100281
  92 H :    0.100739
  93 H :   -0.008526
  94 H :    0.004861
  95 H :    0.090194
  96 H :    0.093314
  97 H :    0.010025
  98 H :    0.037436
  99 H :    0.001251
 100 H :   -0.024281
 101 H :   -0.024383
 102 H :   -0.013518
 103 H :    0.020116
 104 H :    0.015175
 105 H :    0.072808
 106 H :   -0.007134
 107 H :    0.004904
 108 H :   -0.007829
 109 H :    0.024111
 110 H :    0.016059
 111 H :    0.020261
Sum of atomic charges:   -0.0000000

LOEWDIN ATOMIC CHARGES
----------------------
   0 C :    0.003394
   1 C :    0.031329
   2 C :   -0.030096
   3 C :   -0.031251
   4 N :   -0.018865
   5 C :   -0.032602
   6 C :   -0.030876
   7 N :   -0.022521
   8 C :    0.041050
   9 C :   -0.021568
  10 C :    0.055929
  11 O :   -0.148279
  12 C :   -0.130958
  13 C :    0.069445
  14 C :   -0.135109
  15 C :   -0.022239
  16 N :   -0.047041
  17 C :   -0.021602
  18 N :   -0.047776
  19 C :    0.028887
  20 C :   -0.192932
  21 S :    0.523565
  22 C :   -0.118396
  23 C :   -0.041422
  24 C :   -0.031263
  25 C :   -0.134917
  26 S :    0.283091
  27 C :   -0.025124
  28 C :   -0.023102
  29 C :   -0.010661
  30 C :   -0.049842
  31 C :    0.003348
  32 C :   -0.022655
  33 C :   -0.028033
  34 C :   -0.040658
  35 C :    0.030689
  36 N :   -0.113024
  37 C :    0.023213
  38 N :   -0.114905
  39 C :   -0.023036
  40 C :    0.076115
  41 C :   -0.028998
  42 C :   -0.030616
  43 C :   -0.009256
  44 C :   -0.032606
  45 C :   -0.031531
  46 C :    0.002535
  47 C :   -0.035389
  48 C :    0.027016
  49 C :   -0.073793
  50 C :   -0.120591
  51 S :    0.528986
  52 C :   -0.196985
  53 C :   -0.000295
  54 C :   -0.067571
  55 C :   -0.138989
  56 S :    0.248131
  57 C :   -0.041981
  58 C :    0.006654
  59 C :   -0.019318
  60 C :    0.055911
  61 C :   -0.122181
  62 C :    0.079784
  63 O :   -0.139994
  64 C :   -0.029245
  65 C :    0.046591
  66 C :   -0.031453
  67 C :   -0.025169
  68 C :    0.028114
  69 C :    0.005830
  70 C :    0.053238
  71 C :   -0.145027
  72 C :   -0.039471
  73 N :   -0.043850
  74 C :   -0.024787
  75 N :   -0.045227
  76 C :   -0.031360
  77 N :   -0.014063
  78 C :   -0.032152
  79 N :   -0.016523
  80 H :    0.051247
  81 H :    0.050674
  82 H :    0.043605
  83 H :   -0.026158
  84 H :    0.029239
  85 H :    0.032817
  86 H :    0.031238
  87 H :    0.029715
  88 H :    0.024511
  89 H :    0.002613
  90 H :    0.021232
  91 H :    0.051138
  92 H :    0.059069
  93 H :   -0.001201
  94 H :    0.016855
  95 H :    0.051372
  96 H :    0.055948
  97 H :    0.031780
  98 H :    0.059735
  99 H :    0.030051
 100 H :    0.034770
 101 H :    0.032642
 102 H :    0.023141
 103 H :    0.024913
 104 H :    0.023698
 105 H :   -0.019692
 106 H :    0.032979
 107 H :    0.038474
 108 H :    0.034833
 109 H :    0.049982
 110 H :    0.053786
 111 H :    0.051319

  Mayer bond orders larger than 0.100000
B(  0-C ,  1-C ) :   1.3576 B(  0-C ,  9-C ) :   1.3412 B(  0-C , 13-C ) :   0.9528
B(  1-C ,  2-C ) :   1.3838 B(  1-C , 80-H ) :   0.9871 B(  2-C ,  3-C ) :   1.0863
B(  2-C ,  5-C ) :   1.4107 B(  3-C ,  4-N ) :   3.0445 B(  5-C ,  6-C ) :   1.0837
B(  5-C ,  8-C ) :   1.3512 B(  6-C ,  7-N ) :   3.0452 B(  8-C ,  9-C ) :   1.3706
B(  8-C , 81-H ) :   1.0174 B(  9-C , 10-C ) :   0.9051 B( 10-C , 11-O ) :   2.2249
B( 10-C , 12-C ) :   0.9584 B( 12-C , 13-C ) :   1.1119 B( 12-C , 19-C ) :   1.4863
B( 13-C , 14-C ) :   1.6330 B( 14-C , 15-C ) :   1.1435 B( 14-C , 17-C ) :   1.1497
B( 15-C , 16-N ) :   2.9581 B( 17-C , 18-N ) :   2.9810 B( 19-C , 20-C ) :   1.2650
B( 19-C , 82-H ) :   0.9292 B( 20-C , 21-S ) :   1.0981 B( 20-C , 24-C ) :   1.2902
B( 21-S , 22-C ) :   1.2482 B( 22-C , 23-C ) :   1.3036 B( 22-C , 30-C ) :   1.0466
B( 23-C , 24-C ) :   1.2535 B( 23-C , 29-C ) :   1.2288 B( 24-C , 25-C ) :   1.2548
B( 25-C , 26-S ) :   1.0514 B( 25-C , 27-C ) :   1.4928 B( 26-S , 83-H ) :   0.9458
B( 27-C , 28-C ) :   1.2787 B( 27-C , 84-H ) :   0.9775 B( 28-C , 29-C ) :   1.4900
B( 28-C , 85-H ) :   0.9837 B( 29-C , 86-H ) :   0.9899 B( 30-C , 31-C ) :   1.5149
B( 30-C , 47-C ) :   1.1166 B( 31-C , 32-C ) :   1.1512 B( 31-C , 87-H ) :   0.9915
B( 32-C , 33-C ) :   1.4803 B( 32-C , 45-C ) :   1.1208 B( 33-C , 34-C ) :   1.0168
B( 33-C , 39-C ) :   1.0999 B( 34-C , 35-C ) :   1.0263 B( 34-C , 37-C ) :   1.0300
B( 34-C , 88-H ) :   0.8906 B( 35-C , 36-N ) :   1.0944 B( 35-C , 89-H ) :   0.9428
B( 35-C , 90-H ) :   0.9321 B( 36-N , 91-H ) :   0.9598 B( 36-N , 92-H ) :   0.9695
B( 37-C , 38-N ) :   1.0916 B( 37-C , 93-H ) :   0.9551 B( 37-C , 94-H ) :   0.9223
B( 38-N , 95-H ) :   0.9708 B( 38-N , 96-H ) :   0.9680 B( 39-C , 40-C ) :   1.6445
B( 39-C , 44-C ) :   1.0484 B( 40-C , 41-C ) :   0.9496 B( 40-C , 97-H ) :   0.9659
B( 41-C , 42-C ) :   0.9824 B( 41-C , 48-C ) :   0.9626 B( 41-C , 98-H ) :   0.8719
B( 42-C , 43-C ) :   1.7016 B( 42-C , 99-H ) :   0.9751 B( 43-C , 44-C ) :   1.1359
B( 43-C ,100-H ) :   0.9904 B( 44-C , 45-C ) :   1.4317 B( 45-C , 46-C ) :   1.1424
B( 46-C , 47-C ) :   1.6159 B( 46-C ,101-H ) :   0.9936 B( 47-C ,102-H ) :   0.9804
B( 48-C , 49-C ) :   1.7533 B( 48-C ,103-H ) :   0.9668 B( 49-C , 50-C ) :   1.1140
B( 49-C ,104-H ) :   0.9573 B( 50-C , 51-S ) :   1.2207 B( 50-C , 54-C ) :   1.3178
B( 51-S , 52-C ) :   1.1009 B( 52-C , 53-C ) :   1.2447 B( 52-C , 60-C ) :   1.2684
B( 53-C , 54-C ) :   1.2287 B( 53-C , 59-C ) :   1.2576 B( 54-C , 55-C ) :   1.2214
B( 55-C , 56-S ) :   1.0420 B( 55-C , 57-C ) :   1.5342 B( 56-S ,105-H ) :   0.9495
B( 57-C , 58-C ) :   1.2529 B( 57-C ,106-H ) :   0.9832 B( 58-C , 59-C ) :   1.4967
B( 58-C ,107-H ) :   0.9861 B( 59-C ,108-H ) :   0.9895 B( 60-C , 61-C ) :   1.5247
B( 60-C ,109-H ) :   0.9376 B( 61-C , 62-C ) :   0.9715 B( 61-C , 70-C ) :   1.0808
B( 62-C , 63-O ) :   2.2601 B( 62-C , 64-C ) :   0.8990 B( 64-C , 65-C ) :   1.3771
B( 64-C , 69-C ) :   1.3346 B( 65-C , 66-C ) :   1.3603 B( 65-C ,110-H ) :   1.0144
B( 66-C , 67-C ) :   1.4089 B( 66-C , 78-C ) :   1.0864 B( 67-C , 68-C ) :   1.3802
B( 67-C , 76-C ) :   1.0844 B( 68-C , 69-C ) :   1.3707 B( 68-C ,111-H ) :   0.9899
B( 69-C , 70-C ) :   0.9777 B( 70-C , 71-C ) :   1.6278 B( 71-C , 72-C ) :   1.1619
B( 71-C , 74-C ) :   1.1351 B( 72-C , 73-N ) :   3.0251 B( 74-C , 75-N ) :   2.9778
B( 76-C , 77-N ) :   3.0437 B( 78-C , 79-N ) :   3.0452

-----------------------------------------------------------------------------
         ABSORPTION SPECTRUM VIA TRANSITION ELECTRIC DIPOLE MOMENTS
-----------------------------------------------------------------------------
State   Energy  Wavelength   fosc         T2         TX        TY        TZ
        (cm-1)    (nm)                  (au**2)     (au)      (au)      (au)
-----------------------------------------------------------------------------
   0   12226.1    817.9   0.243622147   6.56001  -1.94313   0.35304  -1.63083
   1   13678.4    731.1   0.161968574   3.89827  -1.22153  -0.02394   1.55099
   2   15731.3    635.7   0.272239699   5.69720  -2.24108  -0.04200   0.82036
   3   16959.6    589.6   0.986513222  19.14978  -1.09794  -1.25155  -4.04697
   4   19150.4    522.2   0.062984019   1.08275   0.41644   0.19877  -0.93264
   5   20278.3    493.1   0.138627057   2.25057  -0.77248  -0.76382  -1.03461
   6   20779.4    481.2   0.086883604   1.37652  -1.00626   0.60329   0.00331
   7   22725.1    440.0   0.061502025   0.89096   0.71914  -0.56882  -0.22416
   8   22873.1    437.2   0.032973342   0.47458  -0.20249   0.03475  -0.65755
   9   23036.3    434.1   0.010887104   0.15559  -0.26404   0.29181  -0.02680
  10   24881.5    401.9   0.012300963   0.16276  -0.39490   0.07536  -0.03367
  11   24992.5    400.1   0.062937198   0.82904  -0.51601  -0.29423  -0.69007
  12   25850.1    386.8   0.033479116   0.42637  -0.49201  -0.10668  -0.41583
  13   26083.3    383.4   0.136271630   1.71996  -0.79183   0.59235  -0.86145
  14   26678.7    374.8   0.077662414   0.95835  -0.26391   0.24828   0.90942
  15   27750.1    360.4   0.036636134   0.43463  -0.05487   0.38394   0.53312
  16   27985.7    357.3   0.100769597   1.18541   0.35258   0.18112   1.01405
  17   28231.1    354.2   0.198628386   2.31627  -1.20299   0.27441  -0.89094
  18   28734.7    348.0   0.029599092   0.33912   0.23178   0.51679   0.13535
  19   29011.9    344.7   0.001402866   0.01592   0.09841   0.03277  -0.07184
  20   29480.7    339.2   0.020501003   0.22894   0.22354  -0.38210  -0.18155
  21   29573.9    338.1   0.009039142   0.10062  -0.16855   0.26825   0.01599
  22   29632.2    337.5   0.008827773   0.09808  -0.03870   0.08942  -0.29763
  23   30039.8    332.9   0.108227419   1.18609   0.62561  -0.75941  -0.46691
  24   30116.1    332.0   0.015491253   0.16934  -0.08600  -0.10286  -0.38906
  25   30496.0    327.9   0.150627831   1.62606  -0.72444  -0.41279  -0.96481
  26   30636.9    326.4   0.082127490   0.88251   0.15295  -0.23217   0.89734
  27   30949.6    323.1   0.040423571   0.42999  -0.60865   0.22088  -0.10365
  28   30960.0    323.0   0.022829613   0.24276  -0.39974   0.18457  -0.22114
  29   31168.9    320.8   0.122546899   1.29436   0.26653   1.05963  -0.31702
  30   31277.4    319.7   0.013046141   0.13732  -0.27078   0.14396   0.20802
  31   31777.6    314.7   0.004214771   0.04366  -0.09376  -0.05502   0.17845
  32   32645.1    306.3   0.130451444   1.31555  -0.50071  -0.89064   0.52114
  33   32921.0    303.8   0.028098129   0.28098   0.41124  -0.09718  -0.32003
  34   33318.8    300.1   0.115996805   1.14612   0.88215  -0.12590   0.59337
  35   33581.1    297.8   0.069757288   0.68387  -0.43062  -0.37667   0.59712
  36   34047.8    293.7   0.071877683   0.69499   0.69532  -0.42586  -0.17368
  37   34116.3    293.1   0.153005969   1.47646  -0.71958   0.96579  -0.16101
  38   34716.2    288.1   0.078115384   0.74076  -0.39512  -0.46946  -0.60353
  39   34743.3    287.8   0.083663853   0.79276  -0.06684  -0.56869   0.68182
  40   34949.9    286.1   0.311305993   2.93236   0.93833   0.61255   1.29486
  41   35000.9    285.7   0.273144929   2.56915  -0.10850   1.58947   0.17597
  42   35286.6    283.4   0.287465684   2.68196  -0.32270   0.67554   1.45653
  43   35470.7    281.9   0.062083048   0.57621  -0.33991   0.44075  -0.51615
  44   36371.9    274.9   0.136802806   1.23824  -0.34140   0.22906  -1.03403
  45   36557.3    273.5   0.034711224   0.31259  -0.06506   0.42114  -0.36193
  46   36664.8    272.7   0.025049043   0.22491   0.19619   0.08421  -0.42348
  47   36681.7    272.6   0.024514730   0.22002  -0.09245  -0.30958   0.34004
  48   36914.0    270.9   0.185044337   1.65029  -0.29387  -0.78799   0.97108
  49   37113.1    269.4   0.053695301   0.47630   0.31134  -0.51269   0.34135
  50   37223.3    268.6   0.057564642   0.50912   0.46995   0.36448   0.39423
  51   37408.2    267.3   0.041104248   0.36174  -0.40159   0.42249   0.14819
  52   37626.1    265.8   0.056457515   0.49398   0.39717  -0.48736  -0.31418
  53   37839.2    264.3   0.055493152   0.48281  -0.34714   0.13394  -0.58682
  54   38023.4    263.0   0.039663489   0.34341   0.28170  -0.03330   0.51278
  55   38029.3    263.0   0.075508490   0.65366  -0.43488   0.06606  -0.67837
  56   38140.0    262.2   0.028453517   0.24560   0.31774   0.03925   0.37829
  57   38205.4    261.7   0.006766854   0.05831   0.17195   0.14188   0.09281
  58   38303.6    261.1   0.083210993   0.71518  -0.75680  -0.37458   0.04602
  59   38682.7    258.5   0.001077160   0.00917  -0.05212  -0.03373  -0.07289
  60   38749.1    258.1   0.045013547   0.38244   0.34984   0.32482  -0.39312
  61   38982.1    256.5   0.070028343   0.59140   0.33131  -0.22231   0.65743
  62   39043.8    256.1   0.007147394   0.06027   0.04291  -0.18063  -0.16061
  63   39194.8    255.1   0.009599500   0.08063  -0.00223  -0.08797  -0.26997
  64   39368.8    254.0   0.120196543   1.00511   0.61743  -0.55707  -0.55997
  65   39395.0    253.8   0.011368873   0.09501   0.29769   0.00135  -0.07989
  66   39610.8    252.5   0.115948290   0.96367   0.20524   0.61101   0.74041
  67   39743.7    251.6   0.004273102   0.03540  -0.07968   0.09962   0.13828
  68   39843.4    251.0   0.027583006   0.22791   0.27676   0.08269  -0.38010
  69   39872.7    250.8   0.059637701   0.49240   0.54305   0.27843   0.34638
  70   39977.1    250.1   0.087063296   0.71697  -0.53059   0.48209  -0.45059
  71   40041.3    249.7   0.240234000   1.97516   0.30209   1.36897  -0.09905
  72   40066.1    249.6   0.067257967   0.55264  -0.39329  -0.40845   0.48076

FINAL SINGLE POINT ENERGY     -4744.061537388741

DIPOLE MOMENT
-------------
                                X             Y             Z
Electronic contribution:     22.90009      -6.57641     -63.17691
Nuclear contribution   :    -23.68452       8.49225      72.34483
                        -----------------------------------------
Total Dipole Moment    :     -0.78444       1.91584       9.16791
                        -----------------------------------------
Magnitude (a.u.)       :      9.39875
Magnitude (Debye)      :     23.88971

Rotational constants in cm-1:     0.001056     0.000240     0.000214
Rotational constants in MHz :    31.643829     7.203278     6.423982

                             ****ORCA TERMINATED NORMALLY****
TOTAL RUN TIME: 0 days 0 hours 13 minutes 41 seconds 692 msec
