                         Program Version 4.2.0 -  RELEASE  -
|  1> # ORCA input file
|  2> # SCF done       -190.307205083536          0.000691711123
|  3> ! CAM-B3LYP def2-SVP def2/J RIJCOSX Grid4 TightSCF
|  4> %maxcore 5000
|  5> %tddft
|  6>     Mode sTDDFT
|  7>     Ethresh 5.0
|  8>     maxcore 5000
|  9> end
| 10>
| 11> %pal
| 12>   nprocs 6
| 13>   end
| 14> * xyz 0 1
| 15>    C        8.24659       -17.61005        29.33176
| 16>    S        7.28893       -17.66926        27.90703
| 17>    C        8.22665       -16.41783        27.12596
| 18>    C        9.23173       -16.00056        27.97363
| 19>    C        9.23447       -16.68127        29.21909
| 20>    S       10.46585       -16.23265        30.37283
| 21>    C       11.23588       -14.99409        29.35264
| 22>    O       12.17874       -14.35693        29.70121
| 23>    S       10.47084       -14.79321        27.75700
| 24>    C        7.86932       -16.00525        25.81264
| 25>    C        8.50719       -15.04828        25.10114
| 26>    C        8.14414       -14.62763        23.79392
| 27>    S        9.05712       -13.35461        23.03021
| 28>    C        8.05732       -13.42095        21.61076
| 29>    C        7.08062       -14.38805        21.74484
| 30>    C        7.12928       -15.06146        22.96207
| 31>    C        8.28039       -12.54567        20.51698
| 32>    C        9.26655       -11.58969        20.38425
| 33>    C        9.19159       -10.87869        19.18983
| 34>    C        8.14368       -11.27354        18.38082
| 35>    S        7.24326       -12.56312        19.12001
| 36>    C        7.77968       -10.74664        17.11354
| 37>    S        6.47338       -11.41134        16.18524
| 38>    C        6.75425       -10.29190        14.88328
| 39>    C        7.78677        -9.43312        15.20318
| 40>    C        8.36184        -9.68514        16.44524
| 41>    C        5.93155       -10.33424        13.71832
| 42>    C        6.25400        -9.92280        12.47020
| 43>    C        7.54626        -9.57764        11.95365
| 44>    C        8.75752       -10.17710        12.36376
| 45>    C       10.04868        -9.75380        11.86643
| 46>    N       11.15722       -10.28150        12.40132
| 47>    C       11.06508       -11.19968        13.33309
| 48>    C        9.78492       -11.70567        13.73059
| 49>    N        8.68888       -11.19248        13.23858
| 50>    C        9.68563       -12.73462        14.69946
| 51>    N        9.63551       -13.52991        15.52266
| 52>    C       12.24791       -11.69650        13.93015
| 53>    N       13.18783       -12.11776        14.43301
| 54>    C       10.16923        -8.76304        10.85675
| 55>    C        8.94610        -8.24082        10.38060
| 56>    C        7.66572        -8.64309        10.90642
| 57>    N        6.66192        -7.99439        10.31049
| 58>    S        7.26093        -6.99836         9.20538
| 59>    N        8.82006        -7.32030         9.42487
| 60>    C       11.40285        -8.26393        10.36145
| 61>    S       11.41683        -6.88984         9.28855
| 62>    C       13.15333        -6.89368         9.23662
| 63>    C       13.67179        -7.93594         9.99233
| 64>    C       12.69757        -8.69371        10.62105
| 65>    C       13.87588        -5.90725         8.52250
| 66>    C       15.24549        -5.81088         8.34861
| 67>    C       15.63569        -4.68286         7.63560
| 68>    C       14.57726        -3.88439         7.24582
| 69>    S       13.06298        -4.56569         7.76708
| 70>    C       14.62529        -2.65130         6.54955
| 71>    S       16.14104        -1.93662         6.08655
| 72>    C       15.33596        -0.54929         5.40505
| 73>    C       13.96446        -0.67212         5.53614
| 74>    C       13.56890        -1.84304         6.17385
| 75>    C       16.11066         0.49952         4.84687
| 76>    C       15.61249         1.64738         4.33055
| 77>    C       16.41106         2.69511         3.80871
| 78>    S       18.15312         2.64483         3.74954
| 79>    C       18.26850         4.23488         3.04216
| 80>    C       17.00676         4.75916         2.86592
| 81>    C       15.97261         3.89836         3.29318
| 82>    S       14.33356         4.46539         3.11974
| 83>    C       14.75476         6.03957         2.40535
| 84>    O       13.94138         6.84894         2.08925
| 85>    S       16.50549         6.29723         2.21120
| 86>    C       19.56543         4.77457         2.75228
| 87>    C       19.80637         5.97693         2.23279
| 88>    H        8.03223       -18.25234        30.16016
| 89>    H        7.01746       -16.51687        25.38895
| 90>    H        9.35814       -14.54228        25.53590
| 91>    H        6.36059       -14.58610        20.97047
| 92>    H        6.44413       -15.84412        23.23196
| 93>    H       10.01301       -11.42301        21.14073
| 94>    H        9.88015       -10.09982        18.91825
| 95>    H        8.09308        -8.62858        14.55697
| 96>    H        9.17668        -9.11343        16.85153
| 97>    H        4.92907       -10.71036        13.88034
| 98>    H        5.45572        -9.82636        11.74548
| 99>    H       14.72536        -8.12391        10.09081
|100>    H       12.90456        -9.53304        11.25771
|101>    H       15.93457        -6.54083         8.73150
|102>    H       16.65703        -4.43543         7.40584
|103>    H       13.27404         0.07054         5.18041
|104>    H       12.54557        -2.11053         6.37057
|105>    H       17.18433         0.35965         4.85676
|106>    H       14.54677         1.82688         4.30311
|107>    H       20.38617         4.11311         2.99605
|108>    H       19.01668         6.66231         1.97861
|109>    H       20.81208         6.30797         2.04592
|110> *
|111>
|112>                          ****END OF INPUT****

CARTESIAN COORDINATES (ANGSTROEM)
---------------------------------
  C      8.246590  -17.610050   29.331760
  S      7.288930  -17.669260   27.907030
  C      8.226650  -16.417830   27.125960
  C      9.231730  -16.000560   27.973630
  C      9.234470  -16.681270   29.219090
  S     10.465850  -16.232650   30.372830
  C     11.235880  -14.994090   29.352640
  O     12.178740  -14.356930   29.701210
  S     10.470840  -14.793210   27.757000
  C      7.869320  -16.005250   25.812640
  C      8.507190  -15.048280   25.101140
  C      8.144140  -14.627630   23.793920
  S      9.057120  -13.354610   23.030210
  C      8.057320  -13.420950   21.610760
  C      7.080620  -14.388050   21.744840
  C      7.129280  -15.061460   22.962070
  C      8.280390  -12.545670   20.516980
  C      9.266550  -11.589690   20.384250
  C      9.191590  -10.878690   19.189830
  C      8.143680  -11.273540   18.380820
  S      7.243260  -12.563120   19.120010
  C      7.779680  -10.746640   17.113540
  S      6.473380  -11.411340   16.185240
  C      6.754250  -10.291900   14.883280
  C      7.786770   -9.433120   15.203180
  C      8.361840   -9.685140   16.445240
  C      5.931550  -10.334240   13.718320
  C      6.254000   -9.922800   12.470200
  C      7.546260   -9.577640   11.953650
  C      8.757520  -10.177100   12.363760
  C     10.048680   -9.753800   11.866430
  N     11.157220  -10.281500   12.401320
  C     11.065080  -11.199680   13.333090
  C      9.784920  -11.705670   13.730590
  N      8.688880  -11.192480   13.238580
  C      9.685630  -12.734620   14.699460
  N      9.635510  -13.529910   15.522660
  C     12.247910  -11.696500   13.930150
  N     13.187830  -12.117760   14.433010
  C     10.169230   -8.763040   10.856750
  C      8.946100   -8.240820   10.380600
  C      7.665720   -8.643090   10.906420
  N      6.661920   -7.994390   10.310490
  S      7.260930   -6.998360    9.205380
  N      8.820060   -7.320300    9.424870
  C     11.402850   -8.263930   10.361450
  S     11.416830   -6.889840    9.288550
  C     13.153330   -6.893680    9.236620
  C     13.671790   -7.935940    9.992330
  C     12.697570   -8.693710   10.621050
  C     13.875880   -5.907250    8.522500
  C     15.245490   -5.810880    8.348610
  C     15.635690   -4.682860    7.635600
  C     14.577260   -3.884390    7.245820
  S     13.062980   -4.565690    7.767080
  C     14.625290   -2.651300    6.549550
  S     16.141040   -1.936620    6.086550
  C     15.335960   -0.549290    5.405050
  C     13.964460   -0.672120    5.536140
  C     13.568900   -1.843040    6.173850
  C     16.110660    0.499520    4.846870
  C     15.612490    1.647380    4.330550
  C     16.411060    2.695110    3.808710
  S     18.153120    2.644830    3.749540
  C     18.268500    4.234880    3.042160
  C     17.006760    4.759160    2.865920
  C     15.972610    3.898360    3.293180
  S     14.333560    4.465390    3.119740
  C     14.754760    6.039570    2.405350
  O     13.941380    6.848940    2.089250
  S     16.505490    6.297230    2.211200
  C     19.565430    4.774570    2.752280
  C     19.806370    5.976930    2.232790
  H      8.032230  -18.252340   30.160160
  H      7.017460  -16.516870   25.388950
  H      9.358140  -14.542280   25.535900
  H      6.360590  -14.586100   20.970470
  H      6.444130  -15.844120   23.231960
  H     10.013010  -11.423010   21.140730
  H      9.880150  -10.099820   18.918250
  H      8.093080   -8.628580   14.556970
  H      9.176680   -9.113430   16.851530
  H      4.929070  -10.710360   13.880340
  H      5.455720   -9.826360   11.745480
  H     14.725360   -8.123910   10.090810
  H     12.904560   -9.533040   11.257710
  H     15.934570   -6.540830    8.731500
  H     16.657030   -4.435430    7.405840
  H     13.274040    0.070540    5.180410
  H     12.545570   -2.110530    6.370570
  H     17.184330    0.359650    4.856760
  H     14.546770    1.826880    4.303110
  H     20.386170    4.113110    2.996050
  H     19.016680    6.662310    1.978610
  H     20.812080    6.307970    2.045920

 Total Charge           Charge          ....    0
 Multiplicity           Mult            ....    1
 Number of Electrons    NEL             ....  600
 Basis Dimension        Dim             .... 1184

ORBITAL ENERGIES
----------------

  NO   OCC          E(Eh)            E(eV)
   0   2.0000     -89.046057     -2423.0664
   1   2.0000     -88.968523     -2420.9566
   2   2.0000     -88.965753     -2420.8812
   3   2.0000     -88.965751     -2420.8812
   4   2.0000     -88.964952     -2420.8594
   5   2.0000     -88.964521     -2420.8477
   6   2.0000     -88.964343     -2420.8428
   7   2.0000     -88.960247     -2420.7314
   8   2.0000     -88.959817     -2420.7197
   9   2.0000     -88.956856     -2420.6391
  10   2.0000     -88.954090     -2420.5639
  11   2.0000     -88.953012     -2420.5345
  12   2.0000     -88.952828     -2420.5295
  13   2.0000     -19.230798      -523.2966
  14   2.0000     -19.224387      -523.1222
  15   2.0000     -14.457989      -393.4219
  16   2.0000     -14.455922      -393.3656
  17   2.0000     -14.452579      -393.2747
  18   2.0000     -14.451590      -393.2478
  19   2.0000     -14.426314      -392.5600
  20   2.0000     -14.423726      -392.4895
  21   2.0000     -10.410128      -283.2740
  22   2.0000     -10.403522      -283.0942
  23   2.0000     -10.375195      -282.3234
  24   2.0000     -10.374956      -282.3169
  25   2.0000     -10.344651      -281.4923
  26   2.0000     -10.341433      -281.4047
  27   2.0000     -10.339736      -281.3585
  28   2.0000     -10.339625      -281.3555
  29   2.0000     -10.322643      -280.8934
  30   2.0000     -10.320998      -280.8486
  31   2.0000     -10.320660      -280.8394
  32   2.0000     -10.320051      -280.8229
  33   2.0000     -10.319309      -280.8027
  34   2.0000     -10.318843      -280.7900
  35   2.0000     -10.317098      -280.7425
  36   2.0000     -10.316939      -280.7382
  37   2.0000     -10.315207      -280.6911
  38   2.0000     -10.314917      -280.6832
  39   2.0000     -10.314453      -280.6705
  40   2.0000     -10.313995      -280.6581
  41   2.0000     -10.313774      -280.6521
  42   2.0000     -10.312809      -280.6258
  43   2.0000     -10.310821      -280.5717
  44   2.0000     -10.310589      -280.5654
  45   2.0000     -10.305713      -280.4327
  46   2.0000     -10.305444      -280.4254
  47   2.0000     -10.304614      -280.4028
  48   2.0000     -10.303727      -280.3787
  49   2.0000     -10.302501      -280.3453
  50   2.0000     -10.302078      -280.3338
  51   2.0000     -10.298434      -280.2346
  52   2.0000     -10.297723      -280.2153
  53   2.0000     -10.296315      -280.1770
  54   2.0000     -10.295661      -280.1592
  55   2.0000     -10.292781      -280.0808
  56   2.0000     -10.289326      -279.9868
  57   2.0000     -10.287069      -279.9254
  58   2.0000     -10.285989      -279.8960
  59   2.0000     -10.285929      -279.8944
  60   2.0000     -10.284142      -279.8457
  61   2.0000     -10.283793      -279.8362
  62   2.0000     -10.282576      -279.8031
  63   2.0000     -10.280430      -279.7447
  64   2.0000     -10.279567      -279.7212
  65   2.0000     -10.277995      -279.6785
  66   2.0000     -10.277242      -279.6580
  67   2.0000     -10.272915      -279.5402
  68   2.0000     -10.272510      -279.5292
  69   2.0000     -10.272380      -279.5257
  70   2.0000     -10.271656      -279.5060
  71   2.0000     -10.271208      -279.4938
  72   2.0000     -10.270684      -279.4795
  73   2.0000      -8.137291      -221.4269
  74   2.0000      -8.063989      -219.4323
  75   2.0000      -8.062299      -219.3863
  76   2.0000      -8.061943      -219.3766
  77   2.0000      -8.061355      -219.3606
  78   2.0000      -8.060194      -219.3290
  79   2.0000      -8.060067      -219.3256
  80   2.0000      -8.056234      -219.2213
  81   2.0000      -8.054778      -219.1816
  82   2.0000      -8.054140      -219.1643
  83   2.0000      -8.049846      -219.0475
  84   2.0000      -8.048722      -219.0169
  85   2.0000      -8.048584      -219.0131
  86   2.0000      -6.108307      -166.2155
  87   2.0000      -6.100597      -166.0057
  88   2.0000      -6.100128      -165.9929
  89   2.0000      -6.033284      -164.1740
  90   2.0000      -6.032041      -164.1402
  91   2.0000      -6.031542      -164.1266
  92   2.0000      -6.030702      -164.1037
  93   2.0000      -6.029459      -164.0699
  94   2.0000      -6.029441      -164.0694
  95   2.0000      -6.029427      -164.0690
  96   2.0000      -6.028019      -164.0307
  97   2.0000      -6.027764      -164.0238
  98   2.0000      -6.026602      -163.9922
  99   2.0000      -6.025987      -163.9754
 100   2.0000      -6.025784      -163.9699
 101   2.0000      -6.025431      -163.9603
 102   2.0000      -6.025259      -163.9556
 103   2.0000      -6.024284      -163.9291
 104   2.0000      -6.023790      -163.9157
 105   2.0000      -6.023312      -163.9026
 106   2.0000      -6.022902      -163.8915
 107   2.0000      -6.022536      -163.8815
 108   2.0000      -6.022282      -163.8746
 109   2.0000      -6.022002      -163.8670
 110   2.0000      -6.021967      -163.8660
 111   2.0000      -6.020025      -163.8132
 112   2.0000      -6.019794      -163.8069
 113   2.0000      -6.019077      -163.7874
 114   2.0000      -6.018067      -163.7599
 115   2.0000      -6.017825      -163.7534
 116   2.0000      -6.016868      -163.7273
 117   2.0000      -6.016804      -163.7256
 118   2.0000      -6.014978      -163.6759
 119   2.0000      -6.014558      -163.6644
 120   2.0000      -6.013989      -163.6490
 121   2.0000      -6.013818      -163.6443
 122   2.0000      -6.012019      -163.5953
 123   2.0000      -6.010649      -163.5581
 124   2.0000      -6.010644      -163.5579
 125   2.0000      -1.160323       -31.5740
 126   2.0000      -1.153928       -31.4000
 127   2.0000      -1.142477       -31.0884
 128   2.0000      -1.115216       -30.3466
 129   2.0000      -1.041840       -28.3499
 130   2.0000      -1.017919       -27.6990
 131   2.0000      -1.010523       -27.4977
 132   2.0000      -1.009631       -27.4735
 133   2.0000      -1.007117       -27.4050
 134   2.0000      -1.001505       -27.2523
 135   2.0000      -0.998020       -27.1575
 136   2.0000      -0.995331       -27.0843
 137   2.0000      -0.990020       -26.9398
 138   2.0000      -0.983261       -26.7559
 139   2.0000      -0.979191       -26.6451
 140   2.0000      -0.966813       -26.3083
 141   2.0000      -0.964250       -26.2386
 142   2.0000      -0.944819       -25.7098
 143   2.0000      -0.936263       -25.4770
 144   2.0000      -0.923268       -25.1234
 145   2.0000      -0.909898       -24.7596
 146   2.0000      -0.905959       -24.6524
 147   2.0000      -0.904634       -24.6163
 148   2.0000      -0.894756       -24.3476
 149   2.0000      -0.882390       -24.0110
 150   2.0000      -0.874852       -23.8059
 151   2.0000      -0.866687       -23.5838
 152   2.0000      -0.864748       -23.5310
 153   2.0000      -0.852406       -23.1952
 154   2.0000      -0.850542       -23.1444
 155   2.0000      -0.839752       -22.8508
 156   2.0000      -0.839575       -22.8460
 157   2.0000      -0.835594       -22.7377
 158   2.0000      -0.829939       -22.5838
 159   2.0000      -0.829504       -22.5719
 160   2.0000      -0.825376       -22.4596
 161   2.0000      -0.818831       -22.2815
 162   2.0000      -0.817877       -22.2556
 163   2.0000      -0.815278       -22.1848
 164   2.0000      -0.807853       -21.9828
 165   2.0000      -0.801316       -21.8049
 166   2.0000      -0.797000       -21.6875
 167   2.0000      -0.785963       -21.3871
 168   2.0000      -0.773034       -21.0353
 169   2.0000      -0.759416       -20.6648
 170   2.0000      -0.743100       -20.2208
 171   2.0000      -0.732344       -19.9281
 172   2.0000      -0.724461       -19.7136
 173   2.0000      -0.715892       -19.4804
 174   2.0000      -0.707297       -19.2465
 175   2.0000      -0.697508       -18.9802
 176   2.0000      -0.694730       -18.9046
 177   2.0000      -0.688497       -18.7350
 178   2.0000      -0.685635       -18.6571
 179   2.0000      -0.674934       -18.3659
 180   2.0000      -0.670272       -18.2390
 181   2.0000      -0.665464       -18.1082
 182   2.0000      -0.656379       -17.8610
 183   2.0000      -0.653194       -17.7743
 184   2.0000      -0.648068       -17.6348
 185   2.0000      -0.645664       -17.5694
 186   2.0000      -0.640855       -17.4386
 187   2.0000      -0.639259       -17.3951
 188   2.0000      -0.635725       -17.2989
 189   2.0000      -0.632221       -17.2036
 190   2.0000      -0.625003       -17.0072
 191   2.0000      -0.624044       -16.9811
 192   2.0000      -0.620140       -16.8749
 193   2.0000      -0.619445       -16.8560
 194   2.0000      -0.617131       -16.7930
 195   2.0000      -0.608946       -16.5703
 196   2.0000      -0.606924       -16.5152
 197   2.0000      -0.602575       -16.3969
 198   2.0000      -0.598505       -16.2861
 199   2.0000      -0.596573       -16.2336
 200   2.0000      -0.584564       -15.9068
 201   2.0000      -0.579797       -15.7771
 202   2.0000      -0.579094       -15.7579
 203   2.0000      -0.571074       -15.5397
 204   2.0000      -0.561798       -15.2873
 205   2.0000      -0.559870       -15.2348
 206   2.0000      -0.556424       -15.1411
 207   2.0000      -0.555660       -15.1203
 208   2.0000      -0.552864       -15.0442
 209   2.0000      -0.552118       -15.0239
 210   2.0000      -0.547138       -14.8884
 211   2.0000      -0.539361       -14.6768
 212   2.0000      -0.534097       -14.5335
 213   2.0000      -0.534021       -14.5314
 214   2.0000      -0.531765       -14.4701
 215   2.0000      -0.526782       -14.3345
 216   2.0000      -0.526300       -14.3213
 217   2.0000      -0.523517       -14.2456
 218   2.0000      -0.519635       -14.1400
 219   2.0000      -0.513865       -13.9830
 220   2.0000      -0.509709       -13.8699
 221   2.0000      -0.508516       -13.8374
 222   2.0000      -0.506043       -13.7701
 223   2.0000      -0.501046       -13.6342
 224   2.0000      -0.499881       -13.6024
 225   2.0000      -0.498930       -13.5766
 226   2.0000      -0.495352       -13.4792
 227   2.0000      -0.494812       -13.4645
 228   2.0000      -0.493456       -13.4276
 229   2.0000      -0.490981       -13.3603
 230   2.0000      -0.489884       -13.3304
 231   2.0000      -0.486470       -13.2375
 232   2.0000      -0.484319       -13.1790
 233   2.0000      -0.482940       -13.1415
 234   2.0000      -0.480279       -13.0691
 235   2.0000      -0.479268       -13.0416
 236   2.0000      -0.475356       -12.9351
 237   2.0000      -0.474599       -12.9145
 238   2.0000      -0.473897       -12.8954
 239   2.0000      -0.470307       -12.7977
 240   2.0000      -0.464983       -12.6528
 241   2.0000      -0.463783       -12.6202
 242   2.0000      -0.462035       -12.5726
 243   2.0000      -0.460710       -12.5365
 244   2.0000      -0.458583       -12.4787
 245   2.0000      -0.453332       -12.3358
 246   2.0000      -0.451764       -12.2931
 247   2.0000      -0.450740       -12.2652
 248   2.0000      -0.448697       -12.2097
 249   2.0000      -0.446777       -12.1574
 250   2.0000      -0.445987       -12.1359
 251   2.0000      -0.443790       -12.0762
 252   2.0000      -0.442798       -12.0492
 253   2.0000      -0.438973       -11.9451
 254   2.0000      -0.437847       -11.9144
 255   2.0000      -0.433712       -11.8019
 256   2.0000      -0.432357       -11.7650
 257   2.0000      -0.429818       -11.6960
 258   2.0000      -0.429290       -11.6816
 259   2.0000      -0.428593       -11.6626
 260   2.0000      -0.428171       -11.6511
 261   2.0000      -0.426477       -11.6050
 262   2.0000      -0.420797       -11.4505
 263   2.0000      -0.420558       -11.4440
 264   2.0000      -0.419589       -11.4176
 265   2.0000      -0.418665       -11.3924
 266   2.0000      -0.414232       -11.2718
 267   2.0000      -0.413449       -11.2505
 268   2.0000      -0.409554       -11.1445
 269   2.0000      -0.406083       -11.0501
 270   2.0000      -0.404649       -11.0110
 271   2.0000      -0.404268       -11.0007
 272   2.0000      -0.401561       -10.9270
 273   2.0000      -0.388220       -10.5640
 274   2.0000      -0.386275       -10.5111
 275   2.0000      -0.381663       -10.3856
 276   2.0000      -0.370999       -10.0954
 277   2.0000      -0.367525       -10.0009
 278   2.0000      -0.361975        -9.8499
 279   2.0000      -0.356630        -9.7044
 280   2.0000      -0.350821        -9.5463
 281   2.0000      -0.348688        -9.4883
 282   2.0000      -0.345638        -9.4053
 283   2.0000      -0.344163        -9.3652
 284   2.0000      -0.340390        -9.2625
 285   2.0000      -0.339105        -9.2275
 286   2.0000      -0.332163        -9.0386
 287   2.0000      -0.328088        -8.9277
 288   2.0000      -0.325959        -8.8698
 289   2.0000      -0.323878        -8.8132
 290   2.0000      -0.321603        -8.7512
 291   2.0000      -0.315315        -8.5802
 292   2.0000      -0.306355        -8.3363
 293   2.0000      -0.298935        -8.1344
 294   2.0000      -0.292288        -7.9535
 295   2.0000      -0.290620        -7.9082
 296   2.0000      -0.268877        -7.3165
 297   2.0000      -0.254494        -6.9251
 298   2.0000      -0.233248        -6.3470
 299   2.0000      -0.221702        -6.0328
 300   0.0000      -0.120983        -3.2921
 301   0.0000      -0.066809        -1.8180
 302   0.0000      -0.056111        -1.5269
 303   0.0000      -0.048478        -1.3192
 304   0.0000      -0.037424        -1.0184

MULLIKEN ATOMIC CHARGES
-----------------------
   0 C :   -0.138673
   1 S :    0.134377
   2 C :   -0.164041
   3 C :   -0.012045
   4 C :    0.002982
   5 S :    0.095881
   6 C :    0.074673
   7 O :   -0.156319
   8 S :    0.081903
   9 C :    0.042474
  10 C :    0.057302
  11 C :   -0.081418
  12 S :    0.127345
  13 C :   -0.042652
  14 C :   -0.012559
  15 C :    0.012651
  16 C :   -0.028755
  17 C :   -0.011335
  18 C :    0.000652
  19 C :   -0.021206
  20 S :    0.130468
  21 C :   -0.038936
  22 S :    0.136408
  23 C :   -0.094970
  24 C :    0.043264
  25 C :   -0.036953
  26 C :    0.086821
  27 C :   -0.068159
  28 C :    0.056015
  29 C :   -0.095640
  30 C :   -0.068443
  31 N :    0.050933
  32 C :   -0.128926
  33 C :   -0.130189
  34 N :    0.071340
  35 C :   -0.213347
  36 N :    0.245035
  37 C :   -0.227841
  38 N :    0.235772
  39 C :    0.230887
  40 C :   -0.044025
  41 C :    0.011815
  42 N :   -0.267389
  43 S :    0.547232
  44 N :   -0.314443
  45 C :   -0.194423
  46 S :    0.150896
  47 C :   -0.002808
  48 C :   -0.000884
  49 C :    0.036314
  50 C :   -0.049214
  51 C :    0.009362
  52 C :   -0.012087
  53 C :   -0.026475
  54 S :    0.130725
  55 C :   -0.047559
  56 S :    0.127872
  57 C :   -0.075366
  58 C :    0.016472
  59 C :   -0.010035
  60 C :    0.056725
  61 C :   -0.010038
  62 C :   -0.117069
  63 S :    0.130140
  64 C :   -0.165728
  65 C :    0.003133
  66 C :   -0.024229
  67 S :    0.091015
  68 C :    0.076146
  69 O :   -0.153487
  70 S :    0.089284
  71 C :    0.039223
  72 C :   -0.031145
  73 H :    0.028403
  74 H :   -0.022672
  75 H :   -0.013186
  76 H :   -0.010280
  77 H :   -0.018131
  78 H :   -0.010051
  79 H :   -0.020666
  80 H :   -0.015870
  81 H :   -0.019944
  82 H :    0.001977
  83 H :    0.009547
  84 H :   -0.018705
  85 H :    0.002526
  86 H :   -0.013629
  87 H :   -0.008533
  88 H :   -0.014610
  89 H :   -0.008496
  90 H :   -0.009816
  91 H :   -0.006603
  92 H :   -0.008571
  93 H :    0.028724
  94 H :    0.033860
Sum of atomic charges:   -0.0000000

LOEWDIN ATOMIC CHARGES
----------------------
   0 C :   -0.209804
   1 S :    0.449765
   2 C :   -0.184752
   3 C :   -0.220387
   4 C :   -0.215670
   5 S :    0.348999
   6 C :   -0.202434
   7 O :   -0.150611
   8 S :    0.359492
   9 C :   -0.048123
  10 C :   -0.037872
  11 C :   -0.173486
  12 S :    0.440020
  13 C :   -0.179866
  14 C :   -0.060883
  15 C :   -0.049187
  16 C :   -0.182040
  17 C :   -0.058199
  18 C :   -0.049390
  19 C :   -0.182419
  20 S :    0.436262
  21 C :   -0.180077
  22 S :    0.442810
  23 C :   -0.176471
  24 C :   -0.056598
  25 C :   -0.063957
  26 C :   -0.013794
  27 C :   -0.028763
  28 C :   -0.038225
  29 C :   -0.011074
  30 C :   -0.014468
  31 N :    0.006991
  32 C :   -0.035159
  33 C :   -0.024772
  34 N :    0.020902
  35 C :   -0.035376
  36 N :   -0.006540
  37 C :   -0.039105
  38 N :   -0.012316
  39 C :   -0.026244
  40 C :   -0.052622
  41 C :   -0.040855
  42 N :   -0.282414
  43 S :    0.676661
  44 N :   -0.297313
  45 C :   -0.175339
  46 S :    0.463913
  47 C :   -0.171680
  48 C :   -0.058538
  49 C :   -0.020973
  50 C :   -0.187018
  51 C :   -0.040756
  52 C :   -0.060654
  53 C :   -0.175540
  54 S :    0.434824
  55 C :   -0.184791
  56 S :    0.438917
  57 C :   -0.168834
  58 C :   -0.049241
  59 C :   -0.055978
  60 C :   -0.041204
  61 C :   -0.039681
  62 C :   -0.187586
  63 S :    0.443428
  64 C :   -0.186097
  65 C :   -0.211320
  66 C :   -0.214153
  67 S :    0.350963
  68 C :   -0.201628
  69 O :   -0.148709
  70 S :    0.363907
  71 C :   -0.044548
  72 C :   -0.037800
  73 H :    0.028182
  74 H :    0.027818
  75 H :    0.015262
  76 H :    0.027515
  77 H :    0.028746
  78 H :    0.027712
  79 H :    0.029532
  80 H :    0.028156
  81 H :    0.028619
  82 H :    0.034383
  83 H :    0.038615
  84 H :    0.029539
  85 H :    0.032247
  86 H :    0.032379
  87 H :    0.028369
  88 H :    0.030593
  89 H :    0.028035
  90 H :    0.023755
  91 H :    0.030653
  92 H :    0.031283
  93 H :    0.013159
  94 H :    0.030932

  Mayer bond orders larger than 0.100000
B(  0-C ,  1-S ) :   1.1522 B(  0-C ,  4-C ) :   1.6002 B(  0-C , 73-H ) :   0.9733
B(  1-S ,  2-C ) :   1.1388 B(  2-C ,  3-C ) :   1.5645 B(  2-C ,  9-C ) :   1.1406
B(  3-C ,  4-C ) :   1.2422 B(  3-C ,  8-S ) :   0.9984 B(  4-C ,  5-S ) :   0.9806
B(  5-S ,  6-C ) :   0.9943 B(  5-S ,  7-O ) :   0.1090 B(  6-C ,  7-O ) :   2.1140
B(  6-C ,  8-S ) :   0.9782 B(  7-O ,  8-S ) :   0.1034 B(  9-C , 10-C ) :   1.6974
B(  9-C , 74-H ) :   0.9585 B( 10-C , 11-C ) :   1.1355 B( 10-C , 75-H ) :   0.9468
B( 11-C , 12-S ) :   1.1149 B( 11-C , 15-C ) :   1.4949 B( 12-S , 13-C ) :   1.1337
B( 13-C , 14-C ) :   1.4850 B( 13-C , 16-C ) :   1.1564 B( 14-C , 15-C ) :   1.2848
B( 14-C , 76-H ) :   0.9924 B( 15-C , 77-H ) :   0.9929 B( 16-C , 17-C ) :   1.4953
B( 16-C , 19-C ) :   0.1075 B( 16-C , 20-S ) :   1.1259 B( 17-C , 18-C ) :   1.2725
B( 17-C , 78-H ) :   0.9919 B( 18-C , 19-C ) :   1.5190 B( 18-C , 79-H ) :   0.9960
B( 19-C , 20-S ) :   1.1173 B( 19-C , 21-C ) :   1.1145 B( 21-C , 22-S ) :   1.1355
B( 21-C , 23-C ) :   0.1093 B( 21-C , 25-C ) :   1.4997 B( 22-S , 23-C ) :   1.1217
B( 23-C , 24-C ) :   1.5005 B( 23-C , 26-C ) :   1.0866 B( 24-C , 25-C ) :   1.2790
B( 24-C , 80-H ) :   0.9867 B( 25-C , 81-H ) :   1.0005 B( 26-C , 27-C ) :   1.7543
B( 26-C , 82-H ) :   0.9500 B( 27-C , 28-C ) :   1.1137 B( 27-C , 83-H ) :   0.9532
B( 28-C , 29-C ) :   1.2822 B( 28-C , 39-C ) :   0.1191 B( 28-C , 41-C ) :   1.2160
B( 29-C , 30-C ) :   1.0960 B( 29-C , 34-N ) :   1.4325 B( 30-C , 31-N ) :   1.4570
B( 30-C , 39-C ) :   1.2395 B( 31-N , 32-C ) :   1.7246 B( 32-C , 33-C ) :   1.1978
B( 32-C , 37-C ) :   1.1530 B( 33-C , 34-N ) :   1.7333 B( 33-C , 35-C ) :   1.1676
B( 35-C , 36-N ) :   3.0405 B( 37-C , 38-N ) :   3.0471 B( 39-C , 40-C ) :   1.1843
B( 39-C , 45-C ) :   1.2022 B( 40-C , 41-C ) :   1.1084 B( 40-C , 44-N ) :   1.4860
B( 41-C , 42-N ) :   1.5338 B( 42-N , 43-S ) :   1.2867 B( 42-N , 44-N ) :   0.1547
B( 43-S , 44-N ) :   1.2746 B( 45-C , 46-S ) :   1.1085 B( 45-C , 49-C ) :   1.4216
B( 46-S , 47-C ) :   1.1114 B( 47-C , 48-C ) :   1.4479 B( 47-C , 50-C ) :   1.1359
B( 48-C , 49-C ) :   1.2986 B( 48-C , 84-H ) :   0.9987 B( 49-C , 85-H ) :   0.9842
B( 50-C , 51-C ) :   1.4987 B( 50-C , 53-C ) :   0.1047 B( 50-C , 54-S ) :   1.1094
B( 51-C , 52-C ) :   1.2837 B( 51-C , 86-H ) :   0.9959 B( 52-C , 53-C ) :   1.4791
B( 52-C , 87-H ) :   0.9931 B( 53-C , 54-S ) :   1.1291 B( 53-C , 55-C ) :   1.1620
B( 55-C , 56-S ) :   1.1302 B( 55-C , 59-C ) :   1.4767 B( 56-S , 57-C ) :   1.1144
B( 57-C , 58-C ) :   1.4897 B( 57-C , 60-C ) :   1.1258 B( 58-C , 59-C ) :   1.2907
B( 58-C , 88-H ) :   0.9924 B( 59-C , 89-H ) :   0.9924 B( 60-C , 61-C ) :   1.6818
B( 60-C , 90-H ) :   0.9614 B( 61-C , 62-C ) :   1.1691 B( 61-C , 91-H ) :   0.9693
B( 62-C , 63-S ) :   1.1046 B( 62-C , 66-C ) :   1.5603 B( 63-S , 64-C ) :   1.1166
B( 64-C , 65-C ) :   1.5898 B( 64-C , 71-C ) :   1.1147 B( 65-C , 66-C ) :   1.2517
B( 65-C , 70-S ) :   0.9943 B( 66-C , 67-S ) :   0.9923 B( 67-S , 68-C ) :   0.9866
B( 67-S , 69-O ) :   0.1073 B( 68-C , 69-O ) :   2.1153 B( 68-C , 70-S ) :   0.9832
B( 69-O , 70-S ) :   0.1046 B( 71-C , 72-C ) :   1.9216 B( 71-C , 92-H ) :   0.9520
B( 72-C , 93-H ) :   0.9515 B( 72-C , 94-H ) :   0.9474

-----------------------------------------------------------------------------
         ABSORPTION SPECTRUM VIA TRANSITION ELECTRIC DIPOLE MOMENTS
-----------------------------------------------------------------------------
State   Energy  Wavelength   fosc         T2         TX        TY        TZ
        (cm-1)    (nm)                  (au**2)     (au)      (au)      (au)
-----------------------------------------------------------------------------
   0    7206.0   1387.7   0.275296015  12.57706   1.81898   1.82713  -2.43515
   1   11907.3    839.8   0.431930033  11.94192  -2.18045  -2.24640   1.46329
   2   17596.5    568.3   0.227562095   4.25744  -0.23634  -1.67484   1.18173
   3   20224.4    494.5   0.177186006   2.88423  -0.52300  -0.78362   1.41303
   4   20974.3    476.8   2.448325816  38.42885   0.99994   3.80862  -4.78784
   5   21237.1    470.9   0.147776979   2.29080   0.48099   0.71446   1.24459
   6   22528.7    443.9   0.325686689   4.75925   1.25414   1.59051   0.81034
   7   24330.9    411.0   0.165192689   2.23516  -0.36825   0.96260  -1.08303
   8   24482.4    408.5   0.260458437   3.50236  -0.46880   1.31214  -1.24935
   9   25586.6    390.8   0.008774561   0.11290   0.06099  -0.14862   0.29511
  10   26272.8    380.6   0.019551867   0.24499   0.19856  -0.30092   0.33914
  11   26500.4    377.4   0.008535870   0.10604   0.30649   0.06033  -0.09201
  12   26548.2    376.7   0.000809146   0.01003  -0.09651   0.02522   0.00912
  13   27070.7    369.4   0.105959152   1.28859  -0.02724   1.05940  -0.40683
  14   27460.7    364.2   0.089572387   1.07384  -0.73817   0.56585  -0.45689
  15   28594.9    349.7   0.014079259   0.16209   0.15974   0.24015  -0.28090
  16   28993.0    344.9   0.034744680   0.39452   0.19195  -0.46629   0.37450
  17   29580.2    338.1   0.121575872   1.35307   0.04170   0.86704  -0.77432
  18   30128.0    331.9   0.029571788   0.32313   0.24277  -0.11707   0.50049
  19   30544.0    327.4   0.000655375   0.00706   0.01693   0.08003   0.01931
  20   30723.4    325.5   0.000491380   0.00527   0.03202  -0.06510   0.00133
  21   31224.6    320.3   0.000757064   0.00798   0.05820   0.06144   0.02864
  22   31386.7    318.6   0.018087538   0.18972  -0.27605   0.32067  -0.10337
  23   31454.6    317.9   0.348170781   3.64405   1.14497  -1.08845   1.07162
  24   31510.6    317.4   0.008270401   0.08641  -0.23642   0.08267  -0.15388
  25   31927.2    313.2   0.029777776   0.30705   0.49024  -0.22768   0.12199
  26   32273.9    309.8   0.026853610   0.27392   0.18839  -0.30538   0.38102
  27   32758.9    305.3   0.020509173   0.20611   0.23062  -0.31199   0.23576
  28   33145.2    301.7   0.090897178   0.90283   0.01714   0.77609  -0.54792
  29   33492.7    298.6   0.108730972   1.06876   0.78185   0.22061  -0.63937
  30   34218.7    292.2   0.077231328   0.74303  -0.74332   0.18472   0.39545
  31   34377.9    290.9   0.039040565   0.37386  -0.24438   0.33630  -0.44838
  32   35000.6    285.7   0.029578456   0.27821   0.25416  -0.44637   0.11986
  33   35086.6    285.0   0.018803945   0.17643   0.21366  -0.35903  -0.04341
  34   35527.7    281.5   0.074235519   0.68789   0.30540  -0.73498   0.23329
  35   35787.6    279.4   0.008681673   0.07986   0.08850  -0.23690  -0.12613
  36   35924.3    278.4   0.313353427   2.87159  -0.05624  -1.29193   1.09514
  37   35944.3    278.2   0.081055644   0.74238  -0.42156   0.44702  -0.60402
  38   36524.7    273.8   0.027431581   0.24725   0.48154  -0.12247  -0.01930
  39   36587.2    273.3   0.200874540   1.80747  -1.15863  -0.63267  -0.25454
  40   36867.6    271.2   0.053838998   0.48076   0.57952  -0.35316   0.14211
  41   37266.6    268.3   0.420746932   3.71686   1.64908  -0.48149   0.87497
  42   37805.4    264.5   0.009513172   0.08284   0.22497  -0.08573   0.15773
  43   37990.4    263.2   0.056360515   0.48840   0.28539  -0.11222   0.62798
  44   38263.8    261.3   0.035105278   0.30204   0.16691   0.14160  -0.50411
  45   38954.4    256.7   0.015758065   0.13317   0.28609  -0.13198   0.18415
  46   39158.0    255.4   0.023193642   0.19500   0.18077   0.32139   0.24295
  47   39450.1    253.5   0.000337016   0.00281   0.03833  -0.00034   0.03665
  48   39626.1    252.4   0.000498105   0.00414  -0.05576   0.02391  -0.02138
  49   40055.3    249.7   0.002616003   0.02150   0.03788   0.00252  -0.14163
  50   40109.4    249.3   0.037194858   0.30529  -0.28772   0.07009  -0.46647

FINAL SINGLE POINT ENERGY     -7645.416298670341

DIPOLE MOMENT
-------------
                                X             Y             Z
Electronic contribution:    -14.28777     -14.36383      12.40376
Nuclear contribution   :     13.75767      15.11723     -14.46801
                        -----------------------------------------
Total Dipole Moment    :     -0.53010       0.75340      -2.06425
                        -----------------------------------------
Magnitude (a.u.)       :      2.26047
Magnitude (Debye)      :      5.74566

Rotational constants in cm-1:     0.001283     0.000110     0.000105
Rotational constants in MHz :    38.466400     3.288142     3.140746

                             ****ORCA TERMINATED NORMALLY****
TOTAL RUN TIME: 0 days 0 hours 9 minutes 33 seconds 229 msec
