                         Program Version 4.2.0 -  RELEASE  -
|  1> # ORCA input file
|  2> # SCF done       -173.597381964447          0.000974033559
|  3> ! CAM-B3LYP def2-SVP def2/J RIJCOSX Grid4 TightSCF
|  4> %maxcore 5000
|  5> %tddft
|  6>     Mode sTDDFT
|  7>     Ethresh 5.0
|  8>     maxcore 5000
|  9> end
| 10>
| 11> %pal
| 12>   nprocs 6
| 13>   end
| 14> * xyz 0 1
| 15>    C       -9.70170         2.86554         1.98903
| 16>    C       -9.39292         4.01487         1.27552
| 17>    C       -8.55007         3.96818         0.17587
| 18>    C       -7.99857         2.76751        -0.24782
| 19>    C       -8.29937         1.61450         0.45667
| 20>    C       -9.14963         1.66142         1.58295
| 21>    C       -9.26187         0.31795         2.13933
| 22>    C       -9.96825        -0.01454         3.26788
| 23>    C      -10.75196         0.89520         4.00870
| 24>    N      -11.40884         1.57208         4.66364
| 25>    C      -10.02022        -1.28415         3.87930
| 26>    N      -10.10501        -2.27192         4.46084
| 27>    C       -8.41258        -0.54907         1.33684
| 28>    C       -7.90908         0.22937         0.23251
| 29>    C       -7.36525        -0.25414        -0.93494
| 30>    C       -7.26764        -1.61564        -1.26777
| 31>    N       -7.15611        -2.71263        -1.59191
| 32>    C       -6.85649         0.55219        -1.97018
| 33>    N       -6.37065         1.13572        -2.83275
| 34>    C       -8.16390        -1.86973         1.66189
| 35>    C       -7.06718        -2.68796         1.37938
| 36>    S       -7.20222        -4.39926         1.70439
| 37>    C       -5.53834        -4.68344         1.31621
| 38>    C       -4.90157        -3.49097         0.97782
| 39>    C       -5.75610        -2.38096         0.97679
| 40>    O       -5.41921        -1.10377         0.69346
| 41>    C       -4.19833        -0.90755         0.00691
| 42>    C       -3.03017        -1.56470         0.71676
| 43>    S       -3.18632        -3.37204         0.58418
| 44>    C       -5.02667        -6.00170         1.38090
| 45>    N       -3.68222        -6.30799         1.38521
| 46>    C       -3.55342        -7.65601         1.47187
| 47>    C       -2.62887        -8.68914         1.55474
| 48>    C       -3.37689        -9.87469         1.59404
| 49>    N       -4.72185        -9.57079         1.53913
| 50>    C       -4.85875        -8.22102         1.49086
| 51>    C       -5.78024        -7.18345         1.45195
| 52>    C       -2.92532       -11.21606         1.64273
| 53>    C       -1.66979       -11.59507         1.99235
| 54>    C       -1.21530       -12.93232         1.98528
| 55>    S       -2.06598       -14.21701         1.18479
| 56>    C       -0.85302       -15.39458         1.63855
| 57>    C        0.15051       -14.77870         2.39813
| 58>    C       -0.04468       -13.40306         2.57771
| 59>    O        0.76918       -12.54477         3.24510
| 60>    C        2.06563       -13.02852         3.52938
| 61>    C        2.04302       -14.37327         4.23690
| 62>    S        1.47216       -15.67731         3.09513
| 63>    C       -0.78411       -16.71178         1.17609
| 64>    C       -1.72066       -17.44643         0.48562
| 65>    C       -1.39891       -18.54135        -0.41246
| 66>    C       -0.21678       -19.23203        -0.50076
| 67>    C        0.91464       -19.03221         0.31659
| 68>    N        1.87562       -18.93108         0.93818
| 69>    C        0.02351       -20.27529        -1.41844
| 70>    N        0.29162       -21.12841        -2.13886
| 71>    C       -2.57636       -18.75629        -1.24796
| 72>    C       -3.61926       -17.91776        -0.79336
| 73>    C       -4.84816       -17.90697        -1.42984
| 74>    C       -5.03196       -18.73617        -2.52681
| 75>    C       -4.01350       -19.56690        -2.96991
| 76>    C       -2.77900       -19.58849        -2.33669
| 77>    C       -3.14645       -17.20367         0.38239
| 78>    C       -3.93681       -16.66037         1.36412
| 79>    C       -5.32313       -16.45543         1.23742
| 80>    N       -6.44759       -16.23030         1.17426
| 81>    C       -3.45000       -16.33649         2.64714
| 82>    N       -3.09914       -16.12236         3.71936
| 83>    H      -10.36051         2.92302         2.83937
| 84>    H       -9.81659         4.95795         1.58543
| 85>    H       -8.31878         4.87554        -0.36110
| 86>    H       -7.34373         2.74596        -1.10370
| 87>    H       -8.89616        -2.34762         2.30085
| 88>    H       -4.06840         0.17709        -0.03204
| 89>    H       -4.28080        -1.29568        -1.01755
| 90>    H       -3.01024        -1.29136         1.77237
| 91>    H       -2.08614        -1.30360         0.24389
| 92>    H       -2.93866        -5.63146         1.35911
| 93>    H       -1.56034        -8.62379         1.55704
| 94>    H       -5.46192       -10.25061         1.58218
| 95>    H       -6.85035        -7.23108         1.45433
| 96>    H       -3.64964       -11.98545         1.40247
| 97>    H       -0.95228       -10.86526         2.33830
| 98>    H        2.51392       -12.26684         4.17231
| 99>    H        2.64965       -13.10656         2.60205
|100>    H        1.36616       -14.34963         5.09130
|101>    H        3.04032       -14.66367         4.55859
|102>    H        0.19653       -17.15585         1.30089
|103>    H       -5.64396       -17.26184        -1.09373
|104>    H       -5.98108       -18.73282        -3.04077
|105>    H       -4.17914       -20.20712        -3.82298
|106>    H       -2.00055       -20.24065        -2.69676
|107> *
|108>
|109>                          ****END OF INPUT****

CARTESIAN COORDINATES (ANGSTROEM)
---------------------------------
  C     -9.701700    2.865540    1.989030
  C     -9.392920    4.014870    1.275520
  C     -8.550070    3.968180    0.175870
  C     -7.998570    2.767510   -0.247820
  C     -8.299370    1.614500    0.456670
  C     -9.149630    1.661420    1.582950
  C     -9.261870    0.317950    2.139330
  C     -9.968250   -0.014540    3.267880
  C    -10.751960    0.895200    4.008700
  N    -11.408840    1.572080    4.663640
  C    -10.020220   -1.284150    3.879300
  N    -10.105010   -2.271920    4.460840
  C     -8.412580   -0.549070    1.336840
  C     -7.909080    0.229370    0.232510
  C     -7.365250   -0.254140   -0.934940
  C     -7.267640   -1.615640   -1.267770
  N     -7.156110   -2.712630   -1.591910
  C     -6.856490    0.552190   -1.970180
  N     -6.370650    1.135720   -2.832750
  C     -8.163900   -1.869730    1.661890
  C     -7.067180   -2.687960    1.379380
  S     -7.202220   -4.399260    1.704390
  C     -5.538340   -4.683440    1.316210
  C     -4.901570   -3.490970    0.977820
  C     -5.756100   -2.380960    0.976790
  O     -5.419210   -1.103770    0.693460
  C     -4.198330   -0.907550    0.006910
  C     -3.030170   -1.564700    0.716760
  S     -3.186320   -3.372040    0.584180
  C     -5.026670   -6.001700    1.380900
  N     -3.682220   -6.307990    1.385210
  C     -3.553420   -7.656010    1.471870
  C     -2.628870   -8.689140    1.554740
  C     -3.376890   -9.874690    1.594040
  N     -4.721850   -9.570790    1.539130
  C     -4.858750   -8.221020    1.490860
  C     -5.780240   -7.183450    1.451950
  C     -2.925320  -11.216060    1.642730
  C     -1.669790  -11.595070    1.992350
  C     -1.215300  -12.932320    1.985280
  S     -2.065980  -14.217010    1.184790
  C     -0.853020  -15.394580    1.638550
  C      0.150510  -14.778700    2.398130
  C     -0.044680  -13.403060    2.577710
  O      0.769180  -12.544770    3.245100
  C      2.065630  -13.028520    3.529380
  C      2.043020  -14.373270    4.236900
  S      1.472160  -15.677310    3.095130
  C     -0.784110  -16.711780    1.176090
  C     -1.720660  -17.446430    0.485620
  C     -1.398910  -18.541350   -0.412460
  C     -0.216780  -19.232030   -0.500760
  C      0.914640  -19.032210    0.316590
  N      1.875620  -18.931080    0.938180
  C      0.023510  -20.275290   -1.418440
  N      0.291620  -21.128410   -2.138860
  C     -2.576360  -18.756290   -1.247960
  C     -3.619260  -17.917760   -0.793360
  C     -4.848160  -17.906970   -1.429840
  C     -5.031960  -18.736170   -2.526810
  C     -4.013500  -19.566900   -2.969910
  C     -2.779000  -19.588490   -2.336690
  C     -3.146450  -17.203670    0.382390
  C     -3.936810  -16.660370    1.364120
  C     -5.323130  -16.455430    1.237420
  N     -6.447590  -16.230300    1.174260
  C     -3.450000  -16.336490    2.647140
  N     -3.099140  -16.122360    3.719360
  H    -10.360510    2.923020    2.839370
  H     -9.816590    4.957950    1.585430
  H     -8.318780    4.875540   -0.361100
  H     -7.343730    2.745960   -1.103700
  H     -8.896160   -2.347620    2.300850
  H     -4.068400    0.177090   -0.032040
  H     -4.280800   -1.295680   -1.017550
  H     -3.010240   -1.291360    1.772370
  H     -2.086140   -1.303600    0.243890
  H     -2.938660   -5.631460    1.359110
  H     -1.560340   -8.623790    1.557040
  H     -5.461920  -10.250610    1.582180
  H     -6.850350   -7.231080    1.454330
  H     -3.649640  -11.985450    1.402470
  H     -0.952280  -10.865260    2.338300
  H      2.513920  -12.266840    4.172310
  H      2.649650  -13.106560    2.602050
  H      1.366160  -14.349630    5.091300
  H      3.040320  -14.663670    4.558590
  H      0.196530  -17.155850    1.300890
  H     -5.643960  -17.261840   -1.093730
  H     -5.981080  -18.732820   -3.040770
  H     -4.179140  -20.207120   -3.822980
  H     -2.000550  -20.240650   -2.696760

 Total Charge           Charge          ....    0
 Multiplicity           Mult            ....    1
 Number of Electrons    NEL             ....  486
 Basis Dimension        Dim             .... 1088

ORBITAL ENERGIES
----------------

  NO   OCC          E(Eh)            E(eV)
   0   2.0000     -88.975970     -2421.1592
   1   2.0000     -88.973931     -2421.1037
   2   2.0000     -88.961525     -2420.7662
   3   2.0000     -88.955510     -2420.6025
   4   2.0000     -19.291166      -524.9393
   5   2.0000     -19.272634      -524.4350
   6   2.0000     -14.475284      -393.8925
   7   2.0000     -14.475220      -393.8908
   8   2.0000     -14.417249      -392.3133
   9   2.0000     -14.416419      -392.2907
  10   2.0000     -14.415950      -392.2779
  11   2.0000     -14.415918      -392.2771
  12   2.0000     -14.415387      -392.2626
  13   2.0000     -14.412632      -392.1877
  14   2.0000     -14.412278      -392.1780
  15   2.0000     -14.412013      -392.1708
  16   2.0000     -10.377209      -282.3782
  17   2.0000     -10.361212      -281.9429
  18   2.0000     -10.356839      -281.8239
  19   2.0000     -10.353812      -281.7416
  20   2.0000     -10.343743      -281.4676
  21   2.0000     -10.343494      -281.4608
  22   2.0000     -10.341713      -281.4123
  23   2.0000     -10.340998      -281.3929
  24   2.0000     -10.340406      -281.3768
  25   2.0000     -10.339932      -281.3639
  26   2.0000     -10.339539      -281.3532
  27   2.0000     -10.338019      -281.3118
  28   2.0000     -10.334660      -281.2204
  29   2.0000     -10.333884      -281.1993
  30   2.0000     -10.333817      -281.1974
  31   2.0000     -10.332351      -281.1576
  32   2.0000     -10.329019      -281.0669
  33   2.0000     -10.328189      -281.0443
  34   2.0000     -10.325758      -280.9782
  35   2.0000     -10.324568      -280.9458
  36   2.0000     -10.324455      -280.9427
  37   2.0000     -10.324256      -280.9373
  38   2.0000     -10.323588      -280.9191
  39   2.0000     -10.322944      -280.9016
  40   2.0000     -10.320025      -280.8222
  41   2.0000     -10.319556      -280.8094
  42   2.0000     -10.319470      -280.8070
  43   2.0000     -10.318460      -280.7796
  44   2.0000     -10.316985      -280.7394
  45   2.0000     -10.316012      -280.7129
  46   2.0000     -10.315434      -280.6972
  47   2.0000     -10.314851      -280.6814
  48   2.0000     -10.313500      -280.6446
  49   2.0000     -10.312734      -280.6238
  50   2.0000     -10.307185      -280.4728
  51   2.0000     -10.306409      -280.4516
  52   2.0000     -10.306370      -280.4506
  53   2.0000     -10.306179      -280.4454
  54   2.0000     -10.306079      -280.4427
  55   2.0000     -10.303264      -280.3661
  56   2.0000     -10.302902      -280.3562
  57   2.0000     -10.298232      -280.2291
  58   2.0000     -10.295519      -280.1553
  59   2.0000     -10.294714      -280.1334
  60   2.0000     -10.294413      -280.1252
  61   2.0000     -10.293378      -280.0970
  62   2.0000     -10.293054      -280.0882
  63   2.0000     -10.292950      -280.0854
  64   2.0000     -10.292504      -280.0733
  65   2.0000     -10.291031      -280.0332
  66   2.0000     -10.286871      -279.9200
  67   2.0000     -10.282274      -279.7949
  68   2.0000      -8.071405      -219.6341
  69   2.0000      -8.068701      -219.5605
  70   2.0000      -8.057049      -219.2434
  71   2.0000      -8.050985      -219.0784
  72   2.0000      -6.040950      -164.3826
  73   2.0000      -6.038162      -164.3068
  74   2.0000      -6.036979      -164.2746
  75   2.0000      -6.034308      -164.2019
  76   2.0000      -6.032724      -164.1588
  77   2.0000      -6.030170      -164.0893
  78   2.0000      -6.027511      -164.0169
  79   2.0000      -6.023567      -163.9096
  80   2.0000      -6.021271      -163.8471
  81   2.0000      -6.017273      -163.7383
  82   2.0000      -6.016495      -163.7172
  83   2.0000      -6.010709      -163.5597
  84   2.0000      -1.199224       -32.6325
  85   2.0000      -1.181245       -32.1433
  86   2.0000      -1.109184       -30.1824
  87   2.0000      -1.073272       -29.2052
  88   2.0000      -1.030759       -28.0484
  89   2.0000      -1.027871       -27.9698
  90   2.0000      -1.013307       -27.5735
  91   2.0000      -1.012681       -27.5564
  92   2.0000      -1.011320       -27.5194
  93   2.0000      -1.008929       -27.4544
  94   2.0000      -1.001419       -27.2500
  95   2.0000      -1.001383       -27.2490
  96   2.0000      -0.994257       -27.0551
  97   2.0000      -0.992746       -27.0140
  98   2.0000      -0.992413       -27.0049
  99   2.0000      -0.992175       -26.9985
 100   2.0000      -0.954330       -25.9686
 101   2.0000      -0.953819       -25.9547
 102   2.0000      -0.945360       -25.7245
 103   2.0000      -0.944292       -25.6955
 104   2.0000      -0.933225       -25.3943
 105   2.0000      -0.931272       -25.3412
 106   2.0000      -0.918404       -24.9910
 107   2.0000      -0.907374       -24.6909
 108   2.0000      -0.898406       -24.4469
 109   2.0000      -0.892166       -24.2771
 110   2.0000      -0.886986       -24.1361
 111   2.0000      -0.886572       -24.1248
 112   2.0000      -0.882734       -24.0204
 113   2.0000      -0.878189       -23.8967
 114   2.0000      -0.869131       -23.6502
 115   2.0000      -0.860327       -23.4107
 116   2.0000      -0.858429       -23.3590
 117   2.0000      -0.850904       -23.1543
 118   2.0000      -0.836032       -22.7496
 119   2.0000      -0.810752       -22.0617
 120   2.0000      -0.796623       -21.6772
 121   2.0000      -0.787920       -21.4404
 122   2.0000      -0.784861       -21.3571
 123   2.0000      -0.784483       -21.3469
 124   2.0000      -0.783425       -21.3181
 125   2.0000      -0.780357       -21.2346
 126   2.0000      -0.762993       -20.7621
 127   2.0000      -0.735180       -20.0053
 128   2.0000      -0.731131       -19.8951
 129   2.0000      -0.717939       -19.5361
 130   2.0000      -0.711923       -19.3724
 131   2.0000      -0.709187       -19.2980
 132   2.0000      -0.708681       -19.2842
 133   2.0000      -0.706844       -19.2342
 134   2.0000      -0.706486       -19.2245
 135   2.0000      -0.698451       -19.0058
 136   2.0000      -0.682329       -18.5671
 137   2.0000      -0.676594       -18.4111
 138   2.0000      -0.670065       -18.2334
 139   2.0000      -0.665289       -18.1034
 140   2.0000      -0.660603       -17.9759
 141   2.0000      -0.657955       -17.9039
 142   2.0000      -0.657461       -17.8904
 143   2.0000      -0.657268       -17.8852
 144   2.0000      -0.645888       -17.5755
 145   2.0000      -0.645097       -17.5540
 146   2.0000      -0.639008       -17.3883
 147   2.0000      -0.633589       -17.2408
 148   2.0000      -0.623348       -16.9622
 149   2.0000      -0.611125       -16.6296
 150   2.0000      -0.601944       -16.3797
 151   2.0000      -0.596473       -16.2309
 152   2.0000      -0.589771       -16.0485
 153   2.0000      -0.588093       -16.0028
 154   2.0000      -0.582587       -15.8530
 155   2.0000      -0.579381       -15.7658
 156   2.0000      -0.577398       -15.7118
 157   2.0000      -0.577052       -15.7024
 158   2.0000      -0.571935       -15.5631
 159   2.0000      -0.565510       -15.3883
 160   2.0000      -0.556930       -15.1548
 161   2.0000      -0.556105       -15.1324
 162   2.0000      -0.549950       -14.9649
 163   2.0000      -0.546956       -14.8834
 164   2.0000      -0.545913       -14.8550
 165   2.0000      -0.541196       -14.7267
 166   2.0000      -0.538842       -14.6626
 167   2.0000      -0.534987       -14.5577
 168   2.0000      -0.534627       -14.5480
 169   2.0000      -0.532852       -14.4996
 170   2.0000      -0.532094       -14.4790
 171   2.0000      -0.530246       -14.4287
 172   2.0000      -0.525308       -14.2943
 173   2.0000      -0.523267       -14.2388
 174   2.0000      -0.520033       -14.1508
 175   2.0000      -0.516056       -14.0426
 176   2.0000      -0.513050       -13.9608
 177   2.0000      -0.511169       -13.9096
 178   2.0000      -0.508584       -13.8393
 179   2.0000      -0.502142       -13.6640
 180   2.0000      -0.501671       -13.6512
 181   2.0000      -0.499732       -13.5984
 182   2.0000      -0.495755       -13.4902
 183   2.0000      -0.494526       -13.4567
 184   2.0000      -0.487176       -13.2567
 185   2.0000      -0.482631       -13.1331
 186   2.0000      -0.481155       -13.0929
 187   2.0000      -0.478257       -13.0140
 188   2.0000      -0.474949       -12.9240
 189   2.0000      -0.472445       -12.8559
 190   2.0000      -0.470294       -12.7974
 191   2.0000      -0.463991       -12.6258
 192   2.0000      -0.460458       -12.5297
 193   2.0000      -0.460098       -12.5199
 194   2.0000      -0.459460       -12.5025
 195   2.0000      -0.453508       -12.3406
 196   2.0000      -0.453072       -12.3287
 197   2.0000      -0.450458       -12.2576
 198   2.0000      -0.449327       -12.2268
 199   2.0000      -0.447894       -12.1878
 200   2.0000      -0.447118       -12.1667
 201   2.0000      -0.446175       -12.1410
 202   2.0000      -0.444331       -12.0909
 203   2.0000      -0.442495       -12.0409
 204   2.0000      -0.442094       -12.0300
 205   2.0000      -0.441188       -12.0053
 206   2.0000      -0.440577       -11.9887
 207   2.0000      -0.438391       -11.9292
 208   2.0000      -0.435229       -11.8432
 209   2.0000      -0.434349       -11.8192
 210   2.0000      -0.429913       -11.6985
 211   2.0000      -0.426247       -11.5988
 212   2.0000      -0.425986       -11.5917
 213   2.0000      -0.424858       -11.5610
 214   2.0000      -0.424146       -11.5416
 215   2.0000      -0.423563       -11.5257
 216   2.0000      -0.421777       -11.4771
 217   2.0000      -0.421214       -11.4618
 218   2.0000      -0.417861       -11.3706
 219   2.0000      -0.412224       -11.2172
 220   2.0000      -0.410720       -11.1763
 221   2.0000      -0.410247       -11.1634
 222   2.0000      -0.408280       -11.1099
 223   2.0000      -0.405200       -11.0261
 224   2.0000      -0.404145       -10.9973
 225   2.0000      -0.400882       -10.9086
 226   2.0000      -0.391163       -10.6441
 227   2.0000      -0.381953       -10.3935
 228   2.0000      -0.378988       -10.3128
 229   2.0000      -0.377270       -10.2660
 230   2.0000      -0.365158        -9.9365
 231   2.0000      -0.358824        -9.7641
 232   2.0000      -0.345728        -9.4077
 233   2.0000      -0.328217        -8.9312
 234   2.0000      -0.326648        -8.8886
 235   2.0000      -0.317903        -8.6506
 236   2.0000      -0.308215        -8.3870
 237   2.0000      -0.307159        -8.3582
 238   2.0000      -0.301471        -8.2034
 239   2.0000      -0.295746        -8.0477
 240   2.0000      -0.288434        -7.8487
 241   2.0000      -0.269247        -7.3266
 242   2.0000      -0.232642        -6.3305
 243   0.0000      -0.109086        -2.9684
 244   0.0000      -0.090055        -2.4505
 245   0.0000      -0.082177        -2.2361
 246   0.0000      -0.081085        -2.2064
 247   0.0000      -0.037742        -1.0270

MULLIKEN ATOMIC CHARGES
-----------------------
   0 C :   -0.036711
   1 C :    0.045815
   2 C :    0.047245
   3 C :   -0.047205
   4 C :    0.006571
   5 C :    0.002469
   6 C :    0.311583
   7 C :   -0.358802
   8 C :   -0.190149
   9 N :    0.154318
  10 C :   -0.192717
  11 N :    0.152926
  12 C :   -0.076552
  13 C :    0.299703
  14 C :   -0.354693
  15 C :   -0.222512
  16 N :    0.171075
  17 C :   -0.196623
  18 N :    0.145871
  19 C :    0.048084
  20 C :   -0.143314
  21 S :    0.175683
  22 C :   -0.114646
  23 C :   -0.037351
  24 C :    0.178239
  25 O :   -0.289871
  26 C :    0.200536
  27 C :   -0.078019
  28 S :   -0.012359
  29 C :    0.068485
  30 N :   -0.034532
  31 C :    0.116698
  32 C :   -0.162201
  33 C :    0.105717
  34 N :   -0.028560
  35 C :    0.121447
  36 C :   -0.169642
  37 C :    0.007659
  38 C :   -0.001312
  39 C :   -0.107045
  40 S :    0.142984
  41 C :   -0.137755
  42 C :   -0.019580
  43 C :    0.191571
  44 O :   -0.300285
  45 C :    0.217224
  46 C :   -0.097844
  47 S :    0.062042
  48 C :    0.007854
  49 C :   -0.076223
  50 C :    0.303775
  51 C :   -0.348235
  52 C :   -0.183239
  53 N :    0.144731
  54 C :   -0.189268
  55 N :    0.149983
  56 C :    0.007804
  57 C :    0.009814
  58 C :   -0.035950
  59 C :    0.047849
  60 C :    0.044953
  61 C :   -0.034657
  62 C :    0.214952
  63 C :   -0.330502
  64 C :   -0.176788
  65 N :    0.149249
  66 C :   -0.211238
  67 N :    0.173716
  68 H :    0.003385
  69 H :   -0.001150
  70 H :   -0.000920
  71 H :   -0.000045
  72 H :    0.021346
  73 H :    0.049941
  74 H :    0.058195
  75 H :    0.080451
  76 H :    0.072141
  77 H :    0.125742
  78 H :   -0.026093
  79 H :    0.129662
  80 H :   -0.011321
  81 H :   -0.005452
  82 H :    0.004614
  83 H :    0.038584
  84 H :    0.036899
  85 H :    0.086617
  86 H :    0.070538
  87 H :    0.025167
  88 H :    0.002186
  89 H :    0.001170
  90 H :    0.001720
  91 H :    0.004380
Sum of atomic charges:   -0.0000000

LOEWDIN ATOMIC CHARGES
----------------------
   0 C :    0.003497
   1 C :   -0.004690
   2 C :   -0.000053
   3 C :   -0.005941
   4 C :   -0.009239
   5 C :   -0.016876
   6 C :    0.079114
   7 C :   -0.140145
   8 C :   -0.018447
   9 N :   -0.053832
  10 C :   -0.024059
  11 N :   -0.052464
  12 C :   -0.075187
  13 C :    0.066652
  14 C :   -0.146724
  15 C :   -0.020348
  16 N :   -0.058097
  17 C :   -0.022852
  18 N :   -0.064867
  19 C :    0.035473
  20 C :   -0.202557
  21 S :    0.475919
  22 C :   -0.146790
  23 C :   -0.231443
  24 C :    0.038018
  25 O :   -0.060641
  26 C :    0.074359
  27 C :   -0.134183
  28 S :    0.297851
  29 C :   -0.024369
  30 N :    0.072309
  31 C :   -0.007763
  32 C :   -0.082676
  33 C :    0.004052
  34 N :    0.075048
  35 C :   -0.014071
  36 C :   -0.077002
  37 C :   -0.014208
  38 C :   -0.040788
  39 C :   -0.151284
  40 S :    0.463913
  41 C :   -0.204880
  42 C :   -0.171877
  43 C :   -0.012167
  44 O :   -0.098924
  45 C :    0.072308
  46 C :   -0.136520
  47 S :    0.346381
  48 C :    0.037188
  49 C :   -0.078696
  50 C :    0.079160
  51 C :   -0.142878
  52 C :   -0.022388
  53 N :   -0.052148
  54 C :   -0.019222
  55 N :   -0.055124
  56 C :   -0.012753
  57 C :   -0.010068
  58 C :   -0.001668
  59 C :    0.001087
  60 C :   -0.001346
  61 C :    0.003510
  62 C :    0.060832
  63 C :   -0.149106
  64 C :   -0.020105
  65 N :   -0.056159
  66 C :   -0.039586
  67 N :   -0.050265
  68 H :    0.040464
  69 H :    0.035522
  70 H :    0.035402
  71 H :    0.038615
  72 H :    0.045318
  73 H :    0.038033
  74 H :    0.029120
  75 H :    0.034515
  76 H :    0.042633
  77 H :    0.064214
  78 H :    0.027452
  79 H :    0.094656
  80 H :    0.028030
  81 H :    0.027330
  82 H :    0.038502
  83 H :    0.033697
  84 H :    0.021416
  85 H :    0.037264
  86 H :    0.041019
  87 H :    0.044107
  88 H :    0.039584
  89 H :    0.036232
  90 H :    0.036540
  91 H :    0.041136

  Mayer bond orders larger than 0.100000
B(  0-C ,  1-C ) :   1.3635 B(  0-C ,  5-C ) :   1.3844 B(  0-C , 68-H ) :   0.9834
B(  1-C ,  2-C ) :   1.3852 B(  1-C , 69-H ) :   0.9860 B(  2-C ,  3-C ) :   1.3566
B(  2-C , 70-H ) :   0.9863 B(  3-C ,  4-C ) :   1.3885 B(  3-C , 71-H ) :   0.9855
B(  4-C ,  5-C ) :   1.3156 B(  4-C , 13-C ) :   0.9987 B(  5-C ,  6-C ) :   0.9858
B(  6-C ,  7-C ) :   1.6013 B(  6-C , 12-C ) :   1.0990 B(  7-C ,  8-C ) :   1.1543
B(  7-C , 10-C ) :   1.1403 B(  8-C ,  9-N ) :   2.9709 B( 10-C , 11-N ) :   2.9687
B( 12-C , 13-C ) :   1.1018 B( 12-C , 19-C ) :   1.4690 B( 13-C , 14-C ) :   1.5705
B( 14-C , 15-C ) :   1.1816 B( 14-C , 17-C ) :   1.1520 B( 15-C , 16-N ) :   2.9840
B( 17-C , 18-N ) :   2.9716 B( 19-C , 20-C ) :   1.3043 B( 19-C , 72-H ) :   0.9068
B( 20-C , 21-S ) :   1.0716 B( 20-C , 22-C ) :   0.1045 B( 20-C , 24-C ) :   1.3708
B( 21-S , 22-C ) :   1.1694 B( 22-C , 23-C ) :   1.4853 B( 22-C , 29-C ) :   1.1362
B( 23-C , 24-C ) :   1.3035 B( 23-C , 28-S ) :   0.9654 B( 24-C , 25-O ) :   1.1891
B( 25-O , 26-C ) :   0.9229 B( 26-C , 27-C ) :   1.0489 B( 26-C , 73-H ) :   0.9508
B( 26-C , 74-H ) :   0.9476 B( 27-C , 28-S ) :   1.0077 B( 27-C , 75-H ) :   0.9436
B( 27-C , 76-H ) :   0.9465 B( 29-C , 30-N ) :   1.2064 B( 29-C , 36-C ) :   1.3707
B( 30-N , 31-C ) :   1.1777 B( 30-N , 77-H ) :   0.9126 B( 31-C , 32-C ) :   1.2699
B( 31-C , 35-C ) :   1.2875 B( 32-C , 33-C ) :   1.3874 B( 32-C , 78-H ) :   1.0340
B( 33-C , 34-N ) :   1.1734 B( 33-C , 37-C ) :   1.1289 B( 34-N , 35-C ) :   1.1713
B( 34-N , 79-H ) :   0.9350 B( 35-C , 36-C ) :   1.2927 B( 36-C , 80-H ) :   1.0249
B( 37-C , 38-C ) :   1.6059 B( 37-C , 81-H ) :   0.9629 B( 38-C , 39-C ) :   1.1917
B( 38-C , 82-H ) :   0.9767 B( 39-C , 40-S ) :   1.1200 B( 39-C , 43-C ) :   1.4197
B( 40-S , 41-C ) :   1.0714 B( 41-C , 42-C ) :   1.3976 B( 41-C , 48-C ) :   1.2969
B( 42-C , 43-C ) :   1.2881 B( 42-C , 47-S ) :   1.0583 B( 43-C , 44-O ) :   1.1677
B( 44-O , 45-C ) :   0.9586 B( 45-C , 46-C ) :   1.0419 B( 45-C , 83-H ) :   0.9513
B( 45-C , 84-H ) :   0.9523 B( 46-C , 47-S ) :   1.0041 B( 46-C , 85-H ) :   0.9420
B( 46-C , 86-H ) :   0.9475 B( 48-C , 49-C ) :   1.5101 B( 48-C , 87-H ) :   0.9227
B( 49-C , 50-C ) :   1.0926 B( 49-C , 62-C ) :   1.0456 B( 50-C , 51-C ) :   1.6123
B( 50-C , 56-C ) :   0.9920 B( 51-C , 52-C ) :   1.1414 B( 51-C , 54-C ) :   1.1479
B( 52-C , 53-N ) :   2.9618 B( 54-C , 55-N ) :   2.9727 B( 56-C , 57-C ) :   1.3156
B( 56-C , 61-C ) :   1.3880 B( 57-C , 58-C ) :   1.3879 B( 57-C , 62-C ) :   1.0142
B( 58-C , 59-C ) :   1.3569 B( 58-C , 88-H ) :   0.9875 B( 59-C , 60-C ) :   1.3835
B( 59-C , 89-H ) :   0.9866 B( 60-C , 61-C ) :   1.3651 B( 60-C , 90-H ) :   0.9863
B( 61-C , 91-H ) :   0.9834 B( 62-C , 63-C ) :   1.6202 B( 63-C , 64-C ) :   1.1469
B( 63-C , 66-C ) :   1.1455 B( 64-C , 65-N ) :   2.9898 B( 66-C , 67-N ) :   3.0312

-----------------------------------------------------------------------------
         ABSORPTION SPECTRUM VIA TRANSITION ELECTRIC DIPOLE MOMENTS
-----------------------------------------------------------------------------
State   Energy  Wavelength   fosc         T2         TX        TY        TZ
        (cm-1)    (nm)                  (au**2)     (au)      (au)      (au)
-----------------------------------------------------------------------------
   0   12508.0    799.5   1.907408041  50.20307   2.09776  -6.75768  -0.36899
   1   17410.8    574.4   0.370225056   7.00039  -2.26154   1.30123  -0.43889
   2   19585.4    510.6   0.086584462   1.45540  -0.52656   1.00418   0.41203
   3   19708.6    507.4   0.115656366   1.93192   0.51458   0.00525  -1.29116
   4   21244.7    470.7   0.125016383   1.93728  -1.27406   0.02469  -0.55985
   5   23120.2    432.5   0.082972214   1.18145   0.80636   0.17822   0.70673
   6   24932.8    401.1   0.017643025   0.23296   0.19349  -0.43878  -0.05473
   7   26160.7    382.3   0.044600027   0.56126  -0.66837  -0.24830  -0.22997
   8   26651.7    375.2   0.058155487   0.71836  -0.81323   0.23770   0.02271
   9   27095.9    369.1   0.089091472   1.08245  -0.10348   0.28957   0.99393
  10   27614.8    362.1   0.051697872   0.61632   0.76490  -0.17177   0.04183
  11   28386.3    352.3   0.114032590   1.32250   0.03644  -0.48973   1.03987
  12   28504.0    350.8   0.227440534   2.62686   1.35655  -0.71154  -0.52947
  13   29144.1    343.1   0.064446187   0.72798   0.11043   0.79842  -0.27986
  14   29392.1    340.2   0.196225873   2.19786   0.78968  -1.24602  -0.14733
  15   29899.0    334.5   0.121247888   1.33504   0.81958  -0.62342  -0.52409
  16   30698.4    325.8   0.109608763   1.17545  -0.09290   0.39458   1.00555
  17   31026.0    322.3   0.011539117   0.12244   0.28688  -0.10017  -0.17351
  18   31644.5    316.0   0.012145353   0.12635  -0.34840  -0.05774   0.04046
  19   32129.4    311.2   0.086205936   0.88330  -0.56695   0.10011   0.74287
  20   32639.0    306.4   0.511236098   5.15657   1.50906  -1.23049  -1.16841
  21   32982.7    303.2   0.211333999   2.10940   0.99922  -0.13171  -1.04576
  22   33318.5    300.1   0.251473860   2.48475   0.31559   0.52202  -1.45349
  23   33622.8    297.4   0.055385107   0.54229  -0.33896  -0.05526   0.65142
  24   33872.8    295.2   0.089398293   0.86887  -0.78370   0.31658   0.39301
  25   34135.5    292.9   0.126681402   1.22175  -0.53528   0.88757  -0.38399
  26   34274.8    291.8   0.263399425   2.52997   1.06072   0.68923   0.96426
  27   34511.5    289.8   0.074227578   0.70807  -0.22577  -0.80645  -0.08209
  28   35687.6    280.2   0.004285783   0.03954   0.03486   0.09004  -0.17382
  29   36401.2    274.7   0.097720662   0.88378  -0.45300   0.74277  -0.35620
  30   36778.6    271.9   0.090796827   0.81274  -0.44876   0.78083   0.04066
  31   36946.6    270.7   0.027581371   0.24576  -0.13203  -0.00092  -0.47784
  32   38214.8    261.7   0.076544760   0.65942   0.41576  -0.10903   0.68897
  33   38256.3    261.4   0.021768430   0.18733   0.25247  -0.08817   0.34031
  34   38629.1    258.9   0.007546139   0.06431  -0.10206   0.20530  -0.10837
  35   39254.9    254.7   0.041685542   0.34960  -0.35078  -0.42484  -0.21462
  36   39435.3    253.6   0.210123537   1.75414   0.79150   0.89101   0.57773
  37   39558.7    252.8   0.023812609   0.19817   0.32276   0.22173   0.21174
  38   39871.5    250.8   0.041285977   0.34089   0.08316  -0.57326   0.07316
  39   40043.2    249.7   0.040267802   0.33106  -0.50197   0.03711  -0.27875

FINAL SINGLE POINT ENERGY     -4282.593702607369

DIPOLE MOMENT
-------------
                                X             Y             Z
Electronic contribution:    -11.95882     -12.35556       2.01732
Nuclear contribution   :     14.86767      14.88389      -2.34094
                        -----------------------------------------
Total Dipole Moment    :      2.90885       2.52833      -0.32361
                        -----------------------------------------
Magnitude (a.u.)       :      3.86764
Magnitude (Debye)      :      9.83075

Rotational constants in cm-1:     0.002382     0.000252     0.000245
Rotational constants in MHz :    71.397078     7.543438     7.355761

                             ****ORCA TERMINATED NORMALLY****
TOTAL RUN TIME: 0 days 0 hours 12 minutes 14 seconds 52 msec
