                         Program Version 4.2.0 -  RELEASE  -
|  1> # ORCA input file
|  2> # SCF done       -209.402113569078          0.000842336297
|  3> ! CAM-B3LYP def2-SVP def2/J RIJCOSX Grid4 TightSCF
|  4> %maxcore 5000
|  5> %tddft
|  6>     Mode sTDDFT
|  7>     Ethresh 5.0
|  8>     maxcore 5000
|  9> end
| 10>
| 11> %pal
| 12>   nprocs 6
| 13>   end
| 14> * xyz 0 1
| 15>    C       -2.32867         1.56083        -0.23588
| 16>    C       -1.49322         1.04294        -1.18975
| 17>    C       -0.20444         0.53777        -0.91513
| 18>    N        0.84920         0.11179        -0.75460
| 19>    C       -1.75610         1.00062        -2.57667
| 20>    N       -1.86887         0.96168        -3.71843
| 21>    C       -1.99579         1.74560         1.16957
| 22>    C       -3.02053         2.51130         1.77806
| 23>    C       -2.98622         2.87423         3.10318
| 24>    C       -1.89406         2.45349         3.86722
| 25>    C       -0.88001         1.67881         3.25335
| 26>    C       -0.91074         1.31793         1.91164
| 27>    S        0.36707         1.26479         4.38664
| 28>    C       -0.46112         2.11390         5.64538
| 29>    C       -1.61789         2.68481         5.24421
| 30>    C       -4.06797         2.82349         0.78825
| 31>    O       -5.04721         3.50708         0.98865
| 32>    C       -3.65905         2.11064        -0.45535
| 33>    C       -4.41104         1.85312        -1.56507
| 34>    C       -5.70189         2.33415        -1.88574
| 35>    O       -6.30336         3.29682        -1.17856
| 36>    C       -7.50318         3.59057        -1.71796
| 37>    C       -7.69851         2.77484        -2.84703
| 38>    C       -6.54477         1.96771        -2.94118
| 39>    C       -6.32247         0.93641        -3.99256
| 40>    F       -5.49036        -0.04073        -3.59287
| 41>    F       -7.45781         0.32729        -4.35848
| 42>    F       -5.78889         1.45150        -5.11374
| 43>    O       -8.69120         2.66885        -3.73913
| 44>    C       -9.84168         3.47406        -3.61872
| 45>    C       -8.27749         4.59785        -1.07515
| 46>    C       -7.84232         5.21031         0.05394
| 47>    C       -8.55559         6.23436         0.73436
| 48>    C       -9.81145         6.72852         0.49384
| 49>    C      -10.19288         7.77613         1.35899
| 50>    C      -11.39764         8.51214         1.35271
| 51>    C      -12.44622         8.29652         0.37678
| 52>    C      -13.79794         8.34536         0.57278
| 53>    C      -14.54532         8.15336        -0.60613
| 54>    C      -13.77723         7.97134        -1.71374
| 55>    S      -12.09168         8.01912        -1.30966
| 56>    C      -14.20969         7.74521        -3.11743
| 57>    C      -11.52494         9.49656         2.32615
| 58>    C      -10.50830         9.79501         3.26956
| 59>    C       -9.29481         9.07248         3.26676
| 60>    C       -9.18388         8.06411         2.31570
| 61>    S       -7.79316         7.04129         2.08734
| 62>    C       -8.20589         9.37499         4.17040
| 63>    C       -7.35518         8.49966         4.78843
| 64>    C       -6.37006         9.13486         5.56801
| 65>    C       -6.44632        10.49401         5.53859
| 66>    S       -7.76323        11.01998         4.54580
| 67>    C       -5.58334        11.48726         6.22850
| 68>    C      -10.88587        10.84705         4.13035
| 69>    C      -12.12034        11.37157         3.85281
| 70>    S      -12.89496        10.55664         2.51341
| 71>    C      -12.74358        12.47490         4.51124
| 72>    C      -14.01324        12.93522         4.17993
| 73>    O      -14.73077        12.22452         3.23811
| 74>    C      -15.71948        11.37752         3.79955
| 75>    C      -14.59490        14.09589         4.75712
| 76>    O      -15.79695        14.55801         4.33077
| 77>    C      -16.10479        14.55662         2.94456
| 78>    C      -13.99650        14.80096         5.82188
| 79>    C      -12.72697        14.30412         6.22497
| 80>    C      -12.09603        13.18870         5.55449
| 81>    N      -10.92135        13.00133         6.11727
| 82>    O      -10.80855        13.92300         7.06717
| 83>    N      -11.87864        14.71334         7.14709
| 84>    C      -14.68310        15.94885         6.32034
| 85>    C      -14.47438        16.77257         7.38108
| 86>    S      -15.58546        18.12741         7.61098
| 87>    C      -14.73429        18.66354         9.10905
| 88>    O      -15.07658        19.61910         9.74799
| 89>    C      -13.63178        17.74495         9.33563
| 90>    C      -13.50014        16.75873         8.43208
| 91>    H       -3.78026         3.46353         3.53509
| 92>    H       -0.11619         0.72439         1.49157
| 93>    H       -0.02215         2.13446         6.62396
| 94>    H       -2.26443         3.25270         5.88845
| 95>    H       -3.99873         1.17905        -2.30254
| 96>    H      -10.48290         3.17706        -4.44716
| 97>    H       -9.59584         4.53550        -3.71281
| 98>    H      -10.36016         3.28831        -2.67413
| 99>    H       -9.22204         4.87189        -1.51188
|100>    H       -6.88808         4.91856         0.47005
|101>    H      -10.45157         6.34029        -0.27567
|102>    H      -14.24721         8.47917         1.53982
|103>    H      -15.62066         8.15402        -0.63065
|104>    H      -15.29086         7.83529        -3.19085
|105>    H      -13.91797         6.75085        -3.45669
|106>    H      -13.74897         8.47259        -3.78500
|107>    H       -7.45517         7.43161         4.72031
|108>    H       -5.62694         8.59965         6.13207
|109>    H       -4.81884        10.97681         6.80927
|110>    H       -6.17627        12.11158         6.89649
|111>    H       -5.09734        12.14300         5.50630
|112>    H      -10.28452        11.22156         4.93645
|113>    H      -16.44499        11.94282         4.39199
|114>    H      -15.26303        10.61063         4.43345
|115>    H      -16.21680        10.90191         2.95681
|116>    H      -15.20395        14.59991         2.33169
|117>    H      -16.70380        15.45320         2.77874
|118>    H      -16.69031        13.67949         2.66315
|119>    H      -15.55526        16.19181         5.72589
|120>    H      -12.99763        17.89828        10.19121
|121>    H      -12.73495        16.00448         8.45038
|122> *
|123>
|124>                          ****END OF INPUT****

CARTESIAN COORDINATES (ANGSTROEM)
---------------------------------
  C     -2.328670    1.560830   -0.235880
  C     -1.493220    1.042940   -1.189750
  C     -0.204440    0.537770   -0.915130
  N      0.849200    0.111790   -0.754600
  C     -1.756100    1.000620   -2.576670
  N     -1.868870    0.961680   -3.718430
  C     -1.995790    1.745600    1.169570
  C     -3.020530    2.511300    1.778060
  C     -2.986220    2.874230    3.103180
  C     -1.894060    2.453490    3.867220
  C     -0.880010    1.678810    3.253350
  C     -0.910740    1.317930    1.911640
  S      0.367070    1.264790    4.386640
  C     -0.461120    2.113900    5.645380
  C     -1.617890    2.684810    5.244210
  C     -4.067970    2.823490    0.788250
  O     -5.047210    3.507080    0.988650
  C     -3.659050    2.110640   -0.455350
  C     -4.411040    1.853120   -1.565070
  C     -5.701890    2.334150   -1.885740
  O     -6.303360    3.296820   -1.178560
  C     -7.503180    3.590570   -1.717960
  C     -7.698510    2.774840   -2.847030
  C     -6.544770    1.967710   -2.941180
  C     -6.322470    0.936410   -3.992560
  F     -5.490360   -0.040730   -3.592870
  F     -7.457810    0.327290   -4.358480
  F     -5.788890    1.451500   -5.113740
  O     -8.691200    2.668850   -3.739130
  C     -9.841680    3.474060   -3.618720
  C     -8.277490    4.597850   -1.075150
  C     -7.842320    5.210310    0.053940
  C     -8.555590    6.234360    0.734360
  C     -9.811450    6.728520    0.493840
  C    -10.192880    7.776130    1.358990
  C    -11.397640    8.512140    1.352710
  C    -12.446220    8.296520    0.376780
  C    -13.797940    8.345360    0.572780
  C    -14.545320    8.153360   -0.606130
  C    -13.777230    7.971340   -1.713740
  S    -12.091680    8.019120   -1.309660
  C    -14.209690    7.745210   -3.117430
  C    -11.524940    9.496560    2.326150
  C    -10.508300    9.795010    3.269560
  C     -9.294810    9.072480    3.266760
  C     -9.183880    8.064110    2.315700
  S     -7.793160    7.041290    2.087340
  C     -8.205890    9.374990    4.170400
  C     -7.355180    8.499660    4.788430
  C     -6.370060    9.134860    5.568010
  C     -6.446320   10.494010    5.538590
  S     -7.763230   11.019980    4.545800
  C     -5.583340   11.487260    6.228500
  C    -10.885870   10.847050    4.130350
  C    -12.120340   11.371570    3.852810
  S    -12.894960   10.556640    2.513410
  C    -12.743580   12.474900    4.511240
  C    -14.013240   12.935220    4.179930
  O    -14.730770   12.224520    3.238110
  C    -15.719480   11.377520    3.799550
  C    -14.594900   14.095890    4.757120
  O    -15.796950   14.558010    4.330770
  C    -16.104790   14.556620    2.944560
  C    -13.996500   14.800960    5.821880
  C    -12.726970   14.304120    6.224970
  C    -12.096030   13.188700    5.554490
  N    -10.921350   13.001330    6.117270
  O    -10.808550   13.923000    7.067170
  N    -11.878640   14.713340    7.147090
  C    -14.683100   15.948850    6.320340
  C    -14.474380   16.772570    7.381080
  S    -15.585460   18.127410    7.610980
  C    -14.734290   18.663540    9.109050
  O    -15.076580   19.619100    9.747990
  C    -13.631780   17.744950    9.335630
  C    -13.500140   16.758730    8.432080
  H     -3.780260    3.463530    3.535090
  H     -0.116190    0.724390    1.491570
  H     -0.022150    2.134460    6.623960
  H     -2.264430    3.252700    5.888450
  H     -3.998730    1.179050   -2.302540
  H    -10.482900    3.177060   -4.447160
  H     -9.595840    4.535500   -3.712810
  H    -10.360160    3.288310   -2.674130
  H     -9.222040    4.871890   -1.511880
  H     -6.888080    4.918560    0.470050
  H    -10.451570    6.340290   -0.275670
  H    -14.247210    8.479170    1.539820
  H    -15.620660    8.154020   -0.630650
  H    -15.290860    7.835290   -3.190850
  H    -13.917970    6.750850   -3.456690
  H    -13.748970    8.472590   -3.785000
  H     -7.455170    7.431610    4.720310
  H     -5.626940    8.599650    6.132070
  H     -4.818840   10.976810    6.809270
  H     -6.176270   12.111580    6.896490
  H     -5.097340   12.143000    5.506300
  H    -10.284520   11.221560    4.936450
  H    -16.444990   11.942820    4.391990
  H    -15.263030   10.610630    4.433450
  H    -16.216800   10.901910    2.956810
  H    -15.203950   14.599910    2.331690
  H    -16.703800   15.453200    2.778740
  H    -16.690310   13.679490    2.663150
  H    -15.555260   16.191810    5.725890
  H    -12.997630   17.898280   10.191210
  H    -12.734950   16.004480    8.450380

 Total Charge           Charge          ....    0
 Multiplicity           Mult            ....    1
 Number of Electrons    NEL             ....  574
 Basis Dimension        Dim             .... 1243

ORBITAL ENERGIES
----------------

  NO   OCC          E(Eh)            E(eV)
   0   2.0000     -88.966920     -2420.9130
   1   2.0000     -88.954753     -2420.5819
   2   2.0000     -88.950873     -2420.4763
   3   2.0000     -88.950033     -2420.4535
   4   2.0000     -88.947619     -2420.3878
   5   2.0000     -88.921381     -2419.6738
   6   2.0000     -24.800465      -674.8550
   7   2.0000     -24.793932      -674.6772
   8   2.0000     -24.791017      -674.5979
   9   2.0000     -19.362018      -526.8673
  10   2.0000     -19.306264      -525.3501
  11   2.0000     -19.271795      -524.4122
  12   2.0000     -19.271039      -524.3916
  13   2.0000     -19.267035      -524.2827
  14   2.0000     -19.215624      -522.8837
  15   2.0000     -19.198390      -522.4148
  16   2.0000     -14.490110      -394.2959
  17   2.0000     -14.486410      -394.1953
  18   2.0000     -14.413963      -392.2239
  19   2.0000     -14.413347      -392.2071
  20   2.0000     -10.522728      -286.3380
  21   2.0000     -10.372012      -282.2368
  22   2.0000     -10.369196      -282.1602
  23   2.0000     -10.363548      -282.0065
  24   2.0000     -10.363179      -281.9965
  25   2.0000     -10.362823      -281.9868
  26   2.0000     -10.362371      -281.9744
  27   2.0000     -10.356343      -281.8104
  28   2.0000     -10.343097      -281.4500
  29   2.0000     -10.342236      -281.4266
  30   2.0000     -10.340517      -281.3798
  31   2.0000     -10.339405      -281.3495
  32   2.0000     -10.338799      -281.3330
  33   2.0000     -10.337420      -281.2955
  34   2.0000     -10.336636      -281.2742
  35   2.0000     -10.324024      -280.9310
  36   2.0000     -10.322696      -280.8948
  37   2.0000     -10.320754      -280.8420
  38   2.0000     -10.316647      -280.7302
  39   2.0000     -10.315547      -280.7003
  40   2.0000     -10.314779      -280.6794
  41   2.0000     -10.312857      -280.6271
  42   2.0000     -10.311651      -280.5943
  43   2.0000     -10.310280      -280.5570
  44   2.0000     -10.310211      -280.5551
  45   2.0000     -10.306550      -280.4555
  46   2.0000     -10.306303      -280.4488
  47   2.0000     -10.305270      -280.4206
  48   2.0000     -10.303884      -280.3829
  49   2.0000     -10.303113      -280.3620
  50   2.0000     -10.302155      -280.3359
  51   2.0000     -10.301994      -280.3315
  52   2.0000     -10.301525      -280.3187
  53   2.0000     -10.300826      -280.2997
  54   2.0000     -10.298890      -280.2470
  55   2.0000     -10.296942      -280.1940
  56   2.0000     -10.295953      -280.1671
  57   2.0000     -10.295660      -280.1592
  58   2.0000     -10.295118      -280.1444
  59   2.0000     -10.294872      -280.1377
  60   2.0000     -10.293773      -280.1078
  61   2.0000     -10.290101      -280.0079
  62   2.0000     -10.290061      -280.0068
  63   2.0000     -10.289708      -279.9972
  64   2.0000     -10.289157      -279.9822
  65   2.0000     -10.285685      -279.8877
  66   2.0000     -10.284515      -279.8559
  67   2.0000     -10.282111      -279.7905
  68   2.0000     -10.276644      -279.6417
  69   2.0000     -10.276195      -279.6295
  70   2.0000     -10.274786      -279.5912
  71   2.0000     -10.273215      -279.5484
  72   2.0000     -10.273191      -279.5477
  73   2.0000     -10.270407      -279.4720
  74   2.0000     -10.268335      -279.4156
  75   2.0000     -10.263437      -279.2823
  76   2.0000      -8.063181      -219.4103
  77   2.0000      -8.050481      -219.0647
  78   2.0000      -8.045522      -218.9298
  79   2.0000      -8.044981      -218.9151
  80   2.0000      -8.043271      -218.8685
  81   2.0000      -8.019395      -218.2188
  82   2.0000      -6.032685      -164.1577
  83   2.0000      -6.028396      -164.0410
  84   2.0000      -6.024848      -163.9445
  85   2.0000      -6.019739      -163.8054
  86   2.0000      -6.015563      -163.6918
  87   2.0000      -6.015099      -163.6792
  88   2.0000      -6.014749      -163.6696
  89   2.0000      -6.012711      -163.6142
  90   2.0000      -6.012565      -163.6102
  91   2.0000      -6.010934      -163.5658
  92   2.0000      -6.010289      -163.5483
  93   2.0000      -6.008298      -163.4941
  94   2.0000      -6.006977      -163.4582
  95   2.0000      -6.006436      -163.4434
  96   2.0000      -6.005505      -163.4181
  97   2.0000      -5.988689      -162.9605
  98   2.0000      -5.985237      -162.8666
  99   2.0000      -5.980207      -162.7297
 100   2.0000      -1.386515       -37.7290
 101   2.0000      -1.316851       -35.8333
 102   2.0000      -1.289892       -35.0997
 103   2.0000      -1.284718       -34.9590
 104   2.0000      -1.236033       -33.6342
 105   2.0000      -1.186003       -32.2728
 106   2.0000      -1.177289       -32.0357
 107   2.0000      -1.159740       -31.5581
 108   2.0000      -1.131426       -30.7877
 109   2.0000      -1.120053       -30.4782
 110   2.0000      -1.022183       -27.8150
 111   2.0000      -1.019744       -27.7486
 112   2.0000      -1.012465       -27.5506
 113   2.0000      -1.007741       -27.4220
 114   2.0000      -1.005697       -27.3664
 115   2.0000      -0.992179       -26.9986
 116   2.0000      -0.985392       -26.8139
 117   2.0000      -0.982766       -26.7424
 118   2.0000      -0.977981       -26.6122
 119   2.0000      -0.974102       -26.5067
 120   2.0000      -0.960525       -26.1372
 121   2.0000      -0.944153       -25.6917
 122   2.0000      -0.932114       -25.3641
 123   2.0000      -0.930152       -25.3107
 124   2.0000      -0.925325       -25.1794
 125   2.0000      -0.918533       -24.9946
 126   2.0000      -0.904139       -24.6029
 127   2.0000      -0.901318       -24.5261
 128   2.0000      -0.893097       -24.3024
 129   2.0000      -0.881346       -23.9826
 130   2.0000      -0.876608       -23.8537
 131   2.0000      -0.857729       -23.3400
 132   2.0000      -0.852622       -23.2010
 133   2.0000      -0.843603       -22.9556
 134   2.0000      -0.843409       -22.9503
 135   2.0000      -0.836852       -22.7719
 136   2.0000      -0.827329       -22.5128
 137   2.0000      -0.823322       -22.4037
 138   2.0000      -0.823112       -22.3980
 139   2.0000      -0.820778       -22.3345
 140   2.0000      -0.818259       -22.2660
 141   2.0000      -0.815802       -22.1991
 142   2.0000      -0.809476       -22.0270
 143   2.0000      -0.803002       -21.8508
 144   2.0000      -0.800632       -21.7863
 145   2.0000      -0.790353       -21.5066
 146   2.0000      -0.781060       -21.2537
 147   2.0000      -0.770941       -20.9784
 148   2.0000      -0.758942       -20.6519
 149   2.0000      -0.757240       -20.6055
 150   2.0000      -0.748437       -20.3660
 151   2.0000      -0.745730       -20.2923
 152   2.0000      -0.735370       -20.0104
 153   2.0000      -0.727086       -19.7850
 154   2.0000      -0.724412       -19.7123
 155   2.0000      -0.711388       -19.3579
 156   2.0000      -0.698485       -19.0067
 157   2.0000      -0.692962       -18.8565
 158   2.0000      -0.692276       -18.8378
 159   2.0000      -0.687678       -18.7127
 160   2.0000      -0.677298       -18.4302
 161   2.0000      -0.675819       -18.3900
 162   2.0000      -0.668531       -18.1917
 163   2.0000      -0.664917       -18.0933
 164   2.0000      -0.661507       -18.0005
 165   2.0000      -0.657962       -17.9041
 166   2.0000      -0.650986       -17.7142
 167   2.0000      -0.648928       -17.6582
 168   2.0000      -0.643411       -17.5081
 169   2.0000      -0.636691       -17.3252
 170   2.0000      -0.634558       -17.2672
 171   2.0000      -0.631916       -17.1953
 172   2.0000      -0.625653       -17.0249
 173   2.0000      -0.621699       -16.9173
 174   2.0000      -0.620156       -16.8753
 175   2.0000      -0.619985       -16.8707
 176   2.0000      -0.615968       -16.7613
 177   2.0000      -0.612930       -16.6787
 178   2.0000      -0.606779       -16.5113
 179   2.0000      -0.604637       -16.4530
 180   2.0000      -0.601035       -16.3550
 181   2.0000      -0.594926       -16.1887
 182   2.0000      -0.592198       -16.1145
 183   2.0000      -0.587895       -15.9974
 184   2.0000      -0.586339       -15.9551
 185   2.0000      -0.584264       -15.8986
 186   2.0000      -0.582598       -15.8533
 187   2.0000      -0.577382       -15.7114
 188   2.0000      -0.576321       -15.6825
 189   2.0000      -0.571568       -15.5531
 190   2.0000      -0.566212       -15.4074
 191   2.0000      -0.563418       -15.3314
 192   2.0000      -0.561137       -15.2693
 193   2.0000      -0.550972       -14.9927
 194   2.0000      -0.549040       -14.9401
 195   2.0000      -0.547715       -14.9041
 196   2.0000      -0.543432       -14.7875
 197   2.0000      -0.540405       -14.7052
 198   2.0000      -0.538619       -14.6566
 199   2.0000      -0.537789       -14.6340
 200   2.0000      -0.535486       -14.5713
 201   2.0000      -0.533960       -14.5298
 202   2.0000      -0.530828       -14.4446
 203   2.0000      -0.527255       -14.3473
 204   2.0000      -0.523340       -14.2408
 205   2.0000      -0.521812       -14.1992
 206   2.0000      -0.519183       -14.1277
 207   2.0000      -0.518407       -14.1066
 208   2.0000      -0.516544       -14.0559
 209   2.0000      -0.513449       -13.9717
 210   2.0000      -0.513099       -13.9621
 211   2.0000      -0.511363       -13.9149
 212   2.0000      -0.507566       -13.8116
 213   2.0000      -0.505589       -13.7578
 214   2.0000      -0.502863       -13.6836
 215   2.0000      -0.500857       -13.6290
 216   2.0000      -0.500089       -13.6081
 217   2.0000      -0.499393       -13.5892
 218   2.0000      -0.498051       -13.5527
 219   2.0000      -0.495033       -13.4705
 220   2.0000      -0.493629       -13.4323
 221   2.0000      -0.492520       -13.4021
 222   2.0000      -0.490235       -13.3400
 223   2.0000      -0.489490       -13.3197
 224   2.0000      -0.486461       -13.2373
 225   2.0000      -0.483666       -13.1612
 226   2.0000      -0.479949       -13.0601
 227   2.0000      -0.476758       -12.9732
 228   2.0000      -0.474319       -12.9069
 229   2.0000      -0.471613       -12.8332
 230   2.0000      -0.470319       -12.7980
 231   2.0000      -0.467312       -12.7162
 232   2.0000      -0.465487       -12.6665
 233   2.0000      -0.461711       -12.5638
 234   2.0000      -0.459795       -12.5117
 235   2.0000      -0.458347       -12.4723
 236   2.0000      -0.457751       -12.4560
 237   2.0000      -0.453906       -12.3514
 238   2.0000      -0.452890       -12.3238
 239   2.0000      -0.451393       -12.2830
 240   2.0000      -0.448673       -12.2090
 241   2.0000      -0.446461       -12.1488
 242   2.0000      -0.445070       -12.1110
 243   2.0000      -0.442680       -12.0459
 244   2.0000      -0.441009       -12.0005
 245   2.0000      -0.438796       -11.9402
 246   2.0000      -0.438240       -11.9251
 247   2.0000      -0.434618       -11.8266
 248   2.0000      -0.432568       -11.7708
 249   2.0000      -0.430022       -11.7015
 250   2.0000      -0.428593       -11.6626
 251   2.0000      -0.425964       -11.5911
 252   2.0000      -0.423997       -11.5376
 253   2.0000      -0.422232       -11.4895
 254   2.0000      -0.421090       -11.4584
 255   2.0000      -0.420481       -11.4419
 256   2.0000      -0.415844       -11.3157
 257   2.0000      -0.413070       -11.2402
 258   2.0000      -0.411340       -11.1931
 259   2.0000      -0.409139       -11.1332
 260   2.0000      -0.408120       -11.1055
 261   2.0000      -0.406987       -11.0747
 262   2.0000      -0.403824       -10.9886
 263   2.0000      -0.399553       -10.8724
 264   2.0000      -0.390743       -10.6327
 265   2.0000      -0.384904       -10.4738
 266   2.0000      -0.380862       -10.3638
 267   2.0000      -0.374471       -10.1899
 268   2.0000      -0.370649       -10.0859
 269   2.0000      -0.362795        -9.8722
 270   2.0000      -0.347403        -9.4533
 271   2.0000      -0.346779        -9.4363
 272   2.0000      -0.335837        -9.1386
 273   2.0000      -0.334197        -9.0940
 274   2.0000      -0.325092        -8.8462
 275   2.0000      -0.322823        -8.7845
 276   2.0000      -0.320442        -8.7197
 277   2.0000      -0.318228        -8.6594
 278   2.0000      -0.315299        -8.5797
 279   2.0000      -0.313573        -8.5328
 280   2.0000      -0.304699        -8.2913
 281   2.0000      -0.301398        -8.2015
 282   2.0000      -0.295762        -8.0481
 283   2.0000      -0.293851        -7.9961
 284   2.0000      -0.261929        -7.1275
 285   2.0000      -0.258156        -7.0248
 286   2.0000      -0.234829        -6.3900
 287   0.0000      -0.100299        -2.7293
 288   0.0000      -0.089251        -2.4287
 289   0.0000      -0.060280        -1.6403
 290   0.0000      -0.042400        -1.1538
 291   0.0000      -0.028082        -0.7642

MULLIKEN ATOMIC CHARGES
-----------------------
   0 C :    0.289988
   1 C :   -0.340180
   2 C :   -0.183737
   3 N :    0.151696
   4 C :   -0.206285
   5 N :    0.169897
   6 C :    0.022327
   7 C :   -0.015287
   8 C :   -0.072941
   9 C :    0.116559
  10 C :   -0.093669
  11 C :   -0.023932
  12 S :    0.141557
  13 C :   -0.050051
  14 C :    0.025545
  15 C :    0.144444
  16 O :   -0.129400
  17 C :   -0.059929
  18 C :   -0.069686
  19 C :    0.133734
  20 O :   -0.159736
  21 C :    0.085283
  22 C :    0.160462
  23 C :   -0.142019
  24 C :    0.530441
  25 F :   -0.158077
  26 F :   -0.149093
  27 F :   -0.152824
  28 O :   -0.277603
  29 C :    0.172346
  30 C :   -0.056769
  31 C :    0.066325
  32 C :   -0.041857
  33 C :   -0.073591
  34 C :    0.088222
  35 C :    0.132239
  36 C :   -0.210357
  37 C :    0.031849
  38 C :    0.017074
  39 C :   -0.209659
  40 S :    0.108783
  41 C :    0.124991
  42 C :   -0.120765
  43 C :    0.094033
  44 C :    0.149914
  45 C :   -0.149640
  46 S :    0.129894
  47 C :   -0.220071
  48 C :    0.027112
  49 C :    0.020014
  50 C :   -0.210500
  51 S :    0.132210
  52 C :    0.123766
  53 C :   -0.087860
  54 C :   -0.137954
  55 S :    0.111683
  56 C :    0.227801
  57 C :   -0.039882
  58 O :   -0.360694
  59 C :    0.192841
  60 C :    0.145170
  61 O :   -0.318948
  62 C :    0.196611
  63 C :   -0.020961
  64 C :    0.011721
  65 C :   -0.075549
  66 N :    0.044804
  67 O :   -0.088702
  68 N :    0.021548
  69 C :    0.011842
  70 C :   -0.101922
  71 S :    0.001106
  72 C :    0.085684
  73 O :   -0.163811
  74 C :   -0.026465
  75 C :    0.092457
  76 H :   -0.014153
  77 H :   -0.005429
  78 H :    0.038529
  79 H :   -0.007539
  80 H :    0.030356
  81 H :    0.047426
  82 H :    0.039820
  83 H :    0.036440
  84 H :   -0.023268
  85 H :    0.009853
  86 H :   -0.019513
  87 H :   -0.016501
  88 H :   -0.026692
  89 H :    0.021353
  90 H :    0.028703
  91 H :    0.033674
  92 H :   -0.008924
  93 H :   -0.027895
  94 H :    0.017964
  95 H :    0.037404
  96 H :    0.034185
  97 H :    0.012473
  98 H :    0.036472
  99 H :    0.029443
 100 H :    0.044612
 101 H :    0.037949
 102 H :    0.039621
 103 H :    0.024682
 104 H :    0.001026
 105 H :    0.004415
 106 H :    0.009945
Sum of atomic charges:   -0.0000000

LOEWDIN ATOMIC CHARGES
----------------------
   0 C :    0.073365
   1 C :   -0.136216
   2 C :   -0.017525
   3 N :   -0.051574
   4 C :   -0.028414
   5 N :   -0.042006
   6 C :   -0.022408
   7 C :   -0.053146
   8 C :    0.021807
   9 C :   -0.034741
  10 C :   -0.145153
  11 C :   -0.008997
  12 S :    0.430245
  13 C :   -0.149227
  14 C :   -0.058568
  15 C :    0.081849
  16 O :   -0.137891
  17 C :   -0.078130
  18 C :    0.039026
  19 C :    0.035706
  20 O :    0.057141
  21 C :    0.016405
  22 C :    0.022154
  23 C :   -0.111495
  24 C :    0.170970
  25 F :   -0.055481
  26 F :   -0.050905
  27 F :   -0.058181
  28 O :   -0.082714
  29 C :    0.083297
  30 C :   -0.047247
  31 C :   -0.011620
  32 C :   -0.155284
  33 C :   -0.062542
  34 C :   -0.036888
  35 C :   -0.059765
  36 C :   -0.174842
  37 C :   -0.065216
  38 C :   -0.076433
  39 C :   -0.174682
  40 S :    0.425373
  41 C :   -0.059627
  42 C :   -0.145732
  43 C :   -0.047414
  44 C :   -0.045690
  45 C :   -0.146600
  46 S :    0.426900
  47 C :   -0.181105
  48 C :   -0.062607
  49 C :   -0.077353
  50 C :   -0.170329
  51 S :    0.444330
  52 C :   -0.059442
  53 C :   -0.040599
  54 C :   -0.165446
  55 S :    0.437860
  56 C :   -0.039930
  57 C :    0.017357
  58 O :   -0.127970
  59 C :    0.074377
  60 C :    0.060463
  61 O :   -0.095029
  62 C :    0.086624
  63 C :   -0.066999
  64 C :   -0.037032
  65 C :   -0.045561
  66 N :   -0.013259
  67 O :    0.073647
  68 N :   -0.020942
  69 C :   -0.028581
  70 C :   -0.142747
  71 S :    0.293324
  72 C :   -0.059421
  73 O :   -0.151944
  74 C :   -0.071747
  75 C :    0.001657
  76 H :    0.039147
  77 H :    0.040802
  78 H :    0.029438
  79 H :    0.034807
  80 H :    0.049840
  81 H :    0.035554
  82 H :    0.019638
  83 H :    0.019543
  84 H :    0.030109
  85 H :    0.036978
  86 H :    0.012282
  87 H :    0.019848
  88 H :    0.026154
  89 H :    0.038561
  90 H :    0.035049
  91 H :    0.037114
  92 H :    0.022092
  93 H :    0.025938
  94 H :    0.037181
  95 H :    0.038894
  96 H :    0.037744
  97 H :    0.018314
  98 H :    0.018180
  99 H :    0.016799
 100 H :    0.028275
 101 H :    0.024042
 102 H :    0.026556
 103 H :    0.017158
 104 H :    0.035557
 105 H :    0.036882
 106 H :    0.028045

  Mayer bond orders larger than 0.100000
B(  0-C ,  1-C ) :   1.6445 B(  0-C ,  6-C ) :   1.0082 B(  0-C , 17-C ) :   1.0575
B(  1-C ,  2-C ) :   1.1398 B(  1-C ,  4-C ) :   1.1360 B(  2-C ,  3-N ) :   2.9749
B(  4-C ,  5-N ) :   2.9994 B(  6-C ,  7-C ) :   1.2693 B(  6-C , 11-C ) :   1.4085
B(  7-C ,  8-C ) :   1.4229 B(  7-C , 15-C ) :   0.9482 B(  8-C ,  9-C ) :   1.2472
B(  8-C , 76-H ) :   1.0164 B(  9-C , 10-C ) :   1.3004 B(  9-C , 14-C ) :   1.1721
B( 10-C , 11-C ) :   1.3249 B( 10-C , 12-S ) :   1.0981 B( 11-C , 77-H ) :   0.9832
B( 12-S , 13-C ) :   1.1278 B( 13-C , 14-C ) :   1.6265 B( 13-C , 78-H ) :   0.9692
B( 14-C , 79-H ) :   0.9998 B( 15-C , 16-O ) :   2.2048 B( 15-C , 17-C ) :   0.9228
B( 17-C , 18-C ) :   1.5762 B( 18-C , 19-C ) :   1.2209 B( 18-C , 80-H ) :   0.9243
B( 19-C , 20-O ) :   1.1789 B( 19-C , 21-C ) :   0.1059 B( 19-C , 23-C ) :   1.3900
B( 20-O , 21-C ) :   1.1554 B( 21-C , 22-C ) :   1.2682 B( 21-C , 30-C ) :   1.1506
B( 22-C , 23-C ) :   1.3293 B( 22-C , 28-O ) :   1.2457 B( 23-C , 24-C ) :   0.9187
B( 24-C , 25-F ) :   1.1317 B( 24-C , 26-F ) :   1.1907 B( 24-C , 27-F ) :   1.2097
B( 28-O , 29-C ) :   0.9409 B( 29-C , 81-H ) :   0.9749 B( 29-C , 82-H ) :   0.9671
B( 29-C , 83-H ) :   0.9673 B( 30-C , 31-C ) :   1.6742 B( 30-C , 84-H ) :   0.9568
B( 31-C , 32-C ) :   1.0909 B( 31-C , 85-H ) :   0.9634 B( 32-C , 33-C ) :   1.5566
B( 32-C , 46-S ) :   1.0696 B( 33-C , 34-C ) :   1.1966 B( 33-C , 86-H ) :   0.9701
B( 34-C , 35-C ) :   1.2856 B( 34-C , 45-C ) :   1.2625 B( 35-C , 36-C ) :   0.9883
B( 35-C , 42-C ) :   1.4245 B( 36-C , 37-C ) :   1.5817 B( 36-C , 39-C ) :   0.1028
B( 36-C , 40-S ) :   1.1216 B( 37-C , 38-C ) :   1.2187 B( 37-C , 87-H ) :   0.9869
B( 38-C , 39-C ) :   1.6107 B( 38-C , 88-H ) :   0.9948 B( 39-C , 40-S ) :   1.1297
B( 39-C , 41-C ) :   1.0654 B( 41-C , 89-H ) :   0.9568 B( 41-C , 90-H ) :   0.9512
B( 41-C , 91-H ) :   0.9518 B( 42-C , 43-C ) :   1.2621 B( 42-C , 55-S ) :   1.0249
B( 43-C , 44-C ) :   1.2885 B( 43-C , 53-C ) :   1.1583 B( 44-C , 45-C ) :   1.4229
B( 44-C , 47-C ) :   0.9965 B( 45-C , 46-S ) :   1.0621 B( 47-C , 48-C ) :   1.5666
B( 47-C , 50-C ) :   0.1032 B( 47-C , 51-S ) :   1.1307 B( 48-C , 49-C ) :   1.2278
B( 48-C , 92-H ) :   0.9872 B( 49-C , 50-C ) :   1.6028 B( 49-C , 93-H ) :   0.9936
B( 50-C , 51-S ) :   1.1434 B( 50-C , 52-C ) :   1.0653 B( 52-C , 94-H ) :   0.9570
B( 52-C , 95-H ) :   0.9508 B( 52-C , 96-H ) :   0.9513 B( 53-C , 54-C ) :   1.5728
B( 53-C , 97-H ) :   0.9610 B( 54-C , 55-S ) :   1.0487 B( 54-C , 56-C ) :   1.1344
B( 56-C , 57-C ) :   1.4327 B( 56-C , 63-C ) :   0.1136 B( 56-C , 65-C ) :   1.1019
B( 57-C , 58-O ) :   1.1202 B( 57-C , 60-C ) :   1.1386 B( 58-O , 59-C ) :   0.9053
B( 59-C , 98-H ) :   0.9689 B( 59-C , 99-H ) :   0.9642 B( 59-C ,100-H ) :   0.9814
B( 60-C , 61-O ) :   1.1938 B( 60-C , 63-C ) :   1.4220 B( 61-O , 62-C ) :   0.9171
B( 62-C ,101-H ) :   0.9716 B( 62-C ,102-H ) :   0.9784 B( 62-C ,103-H ) :   0.9755
B( 63-C , 64-C ) :   1.1063 B( 63-C , 69-C ) :   1.1999 B( 64-C , 65-C ) :   1.1339
B( 64-C , 68-N ) :   1.5839 B( 65-C , 66-N ) :   1.6156 B( 66-N , 67-O ) :   1.0649
B( 66-N , 68-N ) :   0.1731 B( 67-O , 68-N ) :   1.0572 B( 69-C , 70-C ) :   1.6460
B( 69-C ,104-H ) :   0.9255 B( 70-C , 71-S ) :   1.0350 B( 70-C , 75-C ) :   1.0839
B( 71-S , 72-C ) :   0.9868 B( 71-S , 73-O ) :   0.1105 B( 72-C , 73-O ) :   2.1315
B( 72-C , 74-C ) :   0.9832 B( 74-C , 75-C ) :   1.6680 B( 74-C ,105-H ) :   0.9924
B( 75-C ,106-H ) :   0.9644

-----------------------------------------------------------------------------
         ABSORPTION SPECTRUM VIA TRANSITION ELECTRIC DIPOLE MOMENTS
-----------------------------------------------------------------------------
State   Energy  Wavelength   fosc         T2         TX        TY        TZ
        (cm-1)    (nm)                  (au**2)     (au)      (au)      (au)
-----------------------------------------------------------------------------
   0   15705.3    636.7   1.546956491  32.42708  -3.85642   3.92203   1.47404
   1   18057.3    553.8   0.092565873   1.68762  -0.90920  -0.27483  -0.88625
   2   20446.5    489.1   0.591201413   9.51903   0.80517  -2.36603  -1.80904
   3   21831.7    458.0   0.182991350   2.75942   0.61616   0.88211   1.26556
   4   24494.0    408.3   0.029152695   0.39183  -0.25186   0.49693   0.28540
   5   25173.5    397.2   0.027549668   0.36029   0.08966   0.35748   0.47377
   6   26403.8    378.7   0.044598377   0.55607  -0.11512   0.18995  -0.71185
   7   26947.1    371.1   0.065714490   0.80283  -0.43347  -0.02146  -0.78388
   8   27136.6    368.5   0.149393016   1.81239   1.16049  -0.61365  -0.29845
   9   27200.5    367.6   0.103670004   1.25473   0.93985  -0.06832   0.60559
  10   28563.6    350.1   0.089834050   1.03539   0.93988  -0.30250   0.24600
  11   28981.5    345.0   0.022299192   0.25331   0.25863  -0.14015  -0.40838
  12   29074.2    343.9   0.000141682   0.00160  -0.01494  -0.02730  -0.02522
  13   29728.4    336.4   0.049506474   0.54823   0.07532   0.56328   0.47463
  14   29986.4    333.5   0.072658025   0.79769   0.00032  -0.38353  -0.80660
  15   30138.3    331.8   0.052285331   0.57113  -0.41012   0.58385   0.24912
  16   30709.3    325.6   0.055809901   0.59830   0.04061   0.42217   0.64685
  17   31280.5    319.7   0.021391547   0.22514  -0.30189   0.24043  -0.27603
  18   31695.5    315.5   0.507690324   5.27324  -0.25380  -1.56816  -1.65822
  19   32165.3    310.9   0.065163315   0.66695   0.41021   0.45328   0.54149
  20   32455.2    308.1   0.082714456   0.83902  -0.38102  -0.61500  -0.56180
  21   32547.6    307.2   0.099781969   1.00927  -0.05622  -0.45615  -0.89333
  22   32873.1    304.2   0.011343832   0.11360  -0.16578  -0.22607  -0.18712
  23   33291.6    300.4   0.537034928   5.31059   0.11401  -0.62865  -2.21413
  24   33726.4    296.5   0.674593326   6.58489   0.83278   0.94262   2.23670
  25   34214.7    292.3   0.145316875   1.39823   0.63404   0.24968   0.96637
  26   34453.2    290.2   0.001984481   0.01896   0.10248  -0.04900  -0.07784
  27   35286.9    283.4   0.205540688   1.91761   0.69011   0.35104   1.14810
  28   35451.5    282.1   0.029231848   0.27145  -0.15802  -0.18721  -0.45982
  29   35513.0    281.6   0.007911582   0.07334  -0.08836   0.08853  -0.24020
  30   35615.2    280.8   0.051071259   0.47208  -0.55419   0.39534   0.09306
  31   36303.3    275.5   0.079340455   0.71949  -0.67208   0.51236  -0.07271
  32   36423.4    274.5   0.060728377   0.54889  -0.09855  -0.31118  -0.66509
  33   36902.6    271.0   0.009080110   0.08100   0.23317  -0.16316   0.00395
  34   37103.1    269.5   0.026020069   0.23087  -0.38690   0.28464  -0.01257
  35   37304.2    268.1   0.018171596   0.16037  -0.16150   0.34215   0.13120
  36   37573.0    266.1   0.003732524   0.03270  -0.10565   0.11707  -0.08853
  37   37934.5    263.6   0.043741370   0.37961   0.53824   0.10209   0.28192
  38   38369.3    260.6   0.029833983   0.25598   0.45547  -0.18959   0.11215
  39   38414.6    260.3   0.264416248   2.26604   1.28355  -0.63710  -0.46113
  40   39054.0    256.1   0.075342515   0.63511   0.25466   0.39502   0.64360
  41   39118.1    255.6   0.003275738   0.02757  -0.00111   0.08881   0.14028
  42   39545.6    252.9   0.060137645   0.50064  -0.26106   0.47201   0.45793
  43   39871.5    250.8   0.008631248   0.07127   0.01962   0.15601   0.21574
  44   40026.8    249.8   0.016524158   0.13591  -0.34814  -0.11425  -0.04067

FINAL SINGLE POINT ENERGY     -5582.082190712897

DIPOLE MOMENT
-------------
                                X             Y             Z
Electronic contribution:     48.17134     -45.46545     -22.94710
Nuclear contribution   :    -50.61968      44.72117      23.37112
                        -----------------------------------------
Total Dipole Moment    :     -2.44834      -0.74428       0.42402
                        -----------------------------------------
Magnitude (a.u.)       :      2.59386
Magnitude (Debye)      :      6.59307

Rotational constants in cm-1:     0.001247     0.000265     0.000222
Rotational constants in MHz :    37.398682     7.954139     6.666083

                             ****ORCA TERMINATED NORMALLY****
TOTAL RUN TIME: 0 days 0 hours 11 minutes 54 seconds 585 msec
