                         Program Version 4.2.0 -  RELEASE  -
|  1> # ORCA input file
|  2> # SCF done       -169.980546250487          0.000839443913
|  3> ! CAM-B3LYP def2-SVP def2/J RIJCOSX Grid4 TightSCF
|  4> %maxcore 5000
|  5> %tddft
|  6>     Mode sTDDFT
|  7>     Ethresh 5.0
|  8>     maxcore 5000
|  9> end
| 10>
| 11> %pal
| 12>   nprocs 6
| 13>   end
| 14> * xyz 0 1
| 15>    C       -2.47084        -0.35824         0.89563
| 16>    C       -1.38363        -0.45011         0.03667
| 17>    C       -0.57627        -1.64960        -0.06675
| 18>    N        0.50189        -1.64201        -0.85408
| 19>    C        0.79239        -0.57500        -1.56181
| 20>    C       -0.04354         0.59029        -1.50517
| 21>    N       -1.08267         0.63097        -0.71763
| 22>    C        0.27006         1.71321        -2.31450
| 23>    N        0.56356         2.59318        -2.98583
| 24>    C        1.92828        -0.60821        -2.40569
| 25>    N        2.82742        -0.62214        -3.11670
| 26>    C       -0.88039        -2.81545         0.69032
| 27>    C       -1.97424        -2.67820         1.57864
| 28>    C       -2.76205        -1.47027         1.67541
| 29>    N       -3.74097        -1.59275         2.58115
| 30>    S       -3.67524        -3.05281         3.23088
| 31>    N       -2.41484        -3.61910         2.41175
| 32>    C       -0.15321        -4.03577         0.67070
| 33>    S       -0.38190        -5.14391         2.00329
| 34>    C        0.84618        -6.23853         1.43593
| 35>    C        1.35595        -5.78261         0.22897
| 36>    C        0.79452        -4.55729        -0.22591
| 37>    C        1.30933        -4.20205        -1.49317
| 38>    C        2.24375        -5.08223        -1.94869
| 39>    C        3.03816        -4.98262        -3.17954
| 40>    O        3.89500        -5.77099        -3.49563
| 41>    O        2.69372        -3.89453        -3.87289
| 42>    C        3.43938        -3.59040        -5.04531
| 43>    S        2.53385        -6.41847        -0.87085
| 44>    C        1.18747        -7.39421         2.18881
| 45>    C        2.22122        -8.27050         1.86943
| 46>    C        2.55939        -9.37389         2.64957
| 47>    C        1.89502        -9.72372         3.82110
| 48>    C        0.81115        -8.86972         4.17107
| 49>    C        0.47069        -7.71941         3.37290
| 50>    N       -0.55402        -7.13014         3.95112
| 51>    O       -0.84508        -7.84872         5.03062
| 52>    N       -0.03414        -8.90132         5.18299
| 53>    C        2.25146       -10.82815         4.64741
| 54>    N        1.52099       -11.13502         5.77249
| 55>    C        2.09464       -12.20568         6.37634
| 56>    C        1.99023       -13.08364         7.44116
| 57>    C        3.08673       -13.96322         7.32707
| 58>    N        3.83434       -13.63159         6.21299
| 59>    C        3.23518       -12.58306         5.60242
| 60>    C        3.32506       -11.72305         4.51642
| 61>    C        3.41967       -15.03069         8.18205
| 62>    C        4.63446       -15.66111         8.16133
| 63>    C        4.90853       -16.84389         8.85452
| 64>    C        6.03781       -17.62306         8.78125
| 65>    C        6.20442       -18.69392         9.79351
| 66>    O        5.37634       -19.07451        10.59014
| 67>    C        7.59809       -19.16573         9.64435
| 68>    C        8.19778       -18.49496         8.56410
| 69>    C        7.20607       -17.61287         7.93592
| 70>    C        7.38164       -17.05461         6.68924
| 71>    C        6.45689       -16.30704         5.94237
| 72>    N        5.78300       -15.67640         5.25329
| 73>    C        8.55607       -17.20459         5.91867
| 74>    N        9.47228       -17.27324         5.23037
| 75>    C        9.53226       -18.73531         8.27197
| 76>    C       10.23422       -19.64866         9.04524
| 77>    C        9.61357       -20.31441        10.09287
| 78>    C        8.28299       -20.08061        10.41513
| 79>   Br       10.61260       -21.56462        11.11672
| 80>    H       -3.04896         0.54754         0.95147
| 81>    H        1.02335        -3.33827        -2.05735
| 82>    H        3.67062        -2.52688        -5.00449
| 83>    H        2.82797        -3.80912        -5.92229
| 84>    H        4.35260        -4.18727        -5.07358
| 85>    H        2.80167        -8.08171         0.98054
| 86>    H        3.38520        -9.98620         2.32514
| 87>    H        0.71382       -10.60272         6.06392
| 88>    H        1.26259       -13.10088         8.22732
| 89>    H        4.56992       -14.21112         5.82094
| 90>    H        4.05928       -11.72401         3.73757
| 91>    H        2.65057       -15.37265         8.86114
| 92>    H        5.42559       -15.22345         7.57724
| 93>    H        4.16211       -17.20113         9.55703
| 94>    H       10.04190       -18.22519         7.47170
| 95>    H       11.27390       -19.84284         8.83086
| 96>    H        7.79654       -20.58685        11.23436
| 97> *
| 98>
| 99>                          ****END OF INPUT****

CARTESIAN COORDINATES (ANGSTROEM)
---------------------------------
  C     -2.470840   -0.358240    0.895630
  C     -1.383630   -0.450110    0.036670
  C     -0.576270   -1.649600   -0.066750
  N      0.501890   -1.642010   -0.854080
  C      0.792390   -0.575000   -1.561810
  C     -0.043540    0.590290   -1.505170
  N     -1.082670    0.630970   -0.717630
  C      0.270060    1.713210   -2.314500
  N      0.563560    2.593180   -2.985830
  C      1.928280   -0.608210   -2.405690
  N      2.827420   -0.622140   -3.116700
  C     -0.880390   -2.815450    0.690320
  C     -1.974240   -2.678200    1.578640
  C     -2.762050   -1.470270    1.675410
  N     -3.740970   -1.592750    2.581150
  S     -3.675240   -3.052810    3.230880
  N     -2.414840   -3.619100    2.411750
  C     -0.153210   -4.035770    0.670700
  S     -0.381900   -5.143910    2.003290
  C      0.846180   -6.238530    1.435930
  C      1.355950   -5.782610    0.228970
  C      0.794520   -4.557290   -0.225910
  C      1.309330   -4.202050   -1.493170
  C      2.243750   -5.082230   -1.948690
  C      3.038160   -4.982620   -3.179540
  O      3.895000   -5.770990   -3.495630
  O      2.693720   -3.894530   -3.872890
  C      3.439380   -3.590400   -5.045310
  S      2.533850   -6.418470   -0.870850
  C      1.187470   -7.394210    2.188810
  C      2.221220   -8.270500    1.869430
  C      2.559390   -9.373890    2.649570
  C      1.895020   -9.723720    3.821100
  C      0.811150   -8.869720    4.171070
  C      0.470690   -7.719410    3.372900
  N     -0.554020   -7.130140    3.951120
  O     -0.845080   -7.848720    5.030620
  N     -0.034140   -8.901320    5.182990
  C      2.251460  -10.828150    4.647410
  N      1.520990  -11.135020    5.772490
  C      2.094640  -12.205680    6.376340
  C      1.990230  -13.083640    7.441160
  C      3.086730  -13.963220    7.327070
  N      3.834340  -13.631590    6.212990
  C      3.235180  -12.583060    5.602420
  C      3.325060  -11.723050    4.516420
  C      3.419670  -15.030690    8.182050
  C      4.634460  -15.661110    8.161330
  C      4.908530  -16.843890    8.854520
  C      6.037810  -17.623060    8.781250
  C      6.204420  -18.693920    9.793510
  O      5.376340  -19.074510   10.590140
  C      7.598090  -19.165730    9.644350
  C      8.197780  -18.494960    8.564100
  C      7.206070  -17.612870    7.935920
  C      7.381640  -17.054610    6.689240
  C      6.456890  -16.307040    5.942370
  N      5.783000  -15.676400    5.253290
  C      8.556070  -17.204590    5.918670
  N      9.472280  -17.273240    5.230370
  C      9.532260  -18.735310    8.271970
  C     10.234220  -19.648660    9.045240
  C      9.613570  -20.314410   10.092870
  C      8.282990  -20.080610   10.415130
  Br    10.612600  -21.564620   11.116720
  H     -3.048960    0.547540    0.951470
  H      1.023350   -3.338270   -2.057350
  H      3.670620   -2.526880   -5.004490
  H      2.827970   -3.809120   -5.922290
  H      4.352600   -4.187270   -5.073580
  H      2.801670   -8.081710    0.980540
  H      3.385200   -9.986200    2.325140
  H      0.713820  -10.602720    6.063920
  H      1.262590  -13.100880    8.227320
  H      4.569920  -14.211120    5.820940
  H      4.059280  -11.724010    3.737570
  H      2.650570  -15.372650    8.861140
  H      5.425590  -15.223450    7.577240
  H      4.162110  -17.201130    9.557030
  H     10.041900  -18.225190    7.471700
  H     11.273900  -19.842840    8.830860
  H      7.796540  -20.586850   11.234360

 Total Charge           Charge          ....    0
 Multiplicity           Mult            ....    1
 Number of Electrons    NEL             ....  486
 Basis Dimension        Dim             .... 1025

ORBITAL ENERGIES
----------------

  NO   OCC          E(Eh)            E(eV)
   0   2.0000    -482.870160    -13139.5651
   1   2.0000     -89.051419     -2423.2123
   2   2.0000     -88.974360     -2421.1154
   3   2.0000     -88.967741     -2420.9353
   4   2.0000     -62.547875     -1702.0142
   5   2.0000     -56.381705     -1534.2242
   6   2.0000     -56.379190     -1534.1558
   7   2.0000     -56.379185     -1534.1556
   8   2.0000     -19.373714      -527.1856
   9   2.0000     -19.258807      -524.0588
  10   2.0000     -19.213078      -522.8144
  11   2.0000     -19.204786      -522.5888
  12   2.0000     -14.503208      -394.6524
  13   2.0000     -14.498786      -394.5320
  14   2.0000     -14.467173      -393.6718
  15   2.0000     -14.465305      -393.6210
  16   2.0000     -14.461636      -393.5211
  17   2.0000     -14.460222      -393.4826
  18   2.0000     -14.460010      -393.4769
  19   2.0000     -14.456037      -393.3688
  20   2.0000     -14.433993      -392.7689
  21   2.0000     -14.432135      -392.7184
  22   2.0000     -14.429032      -392.6339
  23   2.0000     -14.414187      -392.2300
  24   2.0000     -10.406438      -283.1736
  25   2.0000     -10.384787      -282.5844
  26   2.0000     -10.381822      -282.5037
  27   2.0000     -10.362893      -281.9886
  28   2.0000     -10.354013      -281.7470
  29   2.0000     -10.350290      -281.6457
  30   2.0000     -10.348113      -281.5865
  31   2.0000     -10.346488      -281.5422
  32   2.0000     -10.346208      -281.5346
  33   2.0000     -10.346065      -281.5308
  34   2.0000     -10.343065      -281.4491
  35   2.0000     -10.342688      -281.4388
  36   2.0000     -10.342293      -281.4281
  37   2.0000     -10.337797      -281.3058
  38   2.0000     -10.335825      -281.2521
  39   2.0000     -10.330356      -281.1033
  40   2.0000     -10.327895      -281.0363
  41   2.0000     -10.327888      -281.0361
  42   2.0000     -10.327804      -281.0338
  43   2.0000     -10.325375      -280.9677
  44   2.0000     -10.325068      -280.9594
  45   2.0000     -10.323866      -280.9267
  46   2.0000     -10.320114      -280.8246
  47   2.0000     -10.318298      -280.7752
  48   2.0000     -10.317006      -280.7400
  49   2.0000     -10.313481      -280.6441
  50   2.0000     -10.313204      -280.6366
  51   2.0000     -10.312708      -280.6230
  52   2.0000     -10.312606      -280.6203
  53   2.0000     -10.312255      -280.6107
  54   2.0000     -10.311383      -280.5870
  55   2.0000     -10.310438      -280.5613
  56   2.0000     -10.308886      -280.5191
  57   2.0000     -10.308300      -280.5031
  58   2.0000     -10.304698      -280.4051
  59   2.0000     -10.303062      -280.3606
  60   2.0000     -10.301477      -280.3174
  61   2.0000     -10.300946      -280.3030
  62   2.0000     -10.299989      -280.2769
  63   2.0000     -10.295874      -280.1650
  64   2.0000     -10.290794      -280.0267
  65   2.0000     -10.289559      -279.9931
  66   2.0000     -10.286907      -279.9210
  67   2.0000     -10.285563      -279.8844
  68   2.0000     -10.281235      -279.7666
  69   2.0000      -8.777163      -238.8387
  70   2.0000      -8.142629      -221.5722
  71   2.0000      -8.067481      -219.5273
  72   2.0000      -8.062565      -219.3935
  73   2.0000      -6.612971      -179.9481
  74   2.0000      -6.599285      -179.5757
  75   2.0000      -6.598864      -179.5642
  76   2.0000      -6.113601      -166.3595
  77   2.0000      -6.105825      -166.1480
  78   2.0000      -6.105592      -166.1416
  79   2.0000      -6.036984      -164.2747
  80   2.0000      -6.032290      -164.1470
  81   2.0000      -6.032249      -164.1458
  82   2.0000      -6.029673      -164.0758
  83   2.0000      -6.027997      -164.0301
  84   2.0000      -6.023981      -163.9209
  85   2.0000      -2.728939       -74.2582
  86   2.0000      -2.725176       -74.1558
  87   2.0000      -2.724812       -74.1459
  88   2.0000      -2.713961       -73.8506
  89   2.0000      -2.713947       -73.8502
  90   2.0000      -1.326207       -36.0879
  91   2.0000      -1.190323       -32.3903
  92   2.0000      -1.147846       -31.2345
  93   2.0000      -1.128066       -30.6962
  94   2.0000      -1.122579       -30.5469
  95   2.0000      -1.104108       -30.0443
  96   2.0000      -1.099192       -29.9105
  97   2.0000      -1.067286       -29.0423
  98   2.0000      -1.049427       -28.5564
  99   2.0000      -1.033856       -28.1327
 100   2.0000      -1.025946       -27.9174
 101   2.0000      -1.025247       -27.8984
 102   2.0000      -1.017113       -27.6771
 103   2.0000      -1.012700       -27.5570
 104   2.0000      -1.006485       -27.3878
 105   2.0000      -1.005585       -27.3633
 106   2.0000      -1.001105       -27.2415
 107   2.0000      -0.996400       -27.1134
 108   2.0000      -0.980128       -26.6706
 109   2.0000      -0.962697       -26.1963
 110   2.0000      -0.956793       -26.0357
 111   2.0000      -0.937711       -25.5164
 112   2.0000      -0.927136       -25.2287
 113   2.0000      -0.918713       -24.9994
 114   2.0000      -0.910564       -24.7777
 115   2.0000      -0.909710       -24.7545
 116   2.0000      -0.895599       -24.3705
 117   2.0000      -0.890968       -24.2445
 118   2.0000      -0.879690       -23.9376
 119   2.0000      -0.875014       -23.8103
 120   2.0000      -0.862770       -23.4772
 121   2.0000      -0.858088       -23.3498
 122   2.0000      -0.851401       -23.1678
 123   2.0000      -0.844396       -22.9772
 124   2.0000      -0.837218       -22.7819
 125   2.0000      -0.823465       -22.4076
 126   2.0000      -0.809218       -22.0199
 127   2.0000      -0.799861       -21.7653
 128   2.0000      -0.795250       -21.6399
 129   2.0000      -0.778729       -21.1903
 130   2.0000      -0.771277       -20.9875
 131   2.0000      -0.768536       -20.9129
 132   2.0000      -0.766038       -20.8449
 133   2.0000      -0.748372       -20.3642
 134   2.0000      -0.737425       -20.0663
 135   2.0000      -0.723113       -19.6769
 136   2.0000      -0.718538       -19.5524
 137   2.0000      -0.707507       -19.2523
 138   2.0000      -0.704217       -19.1627
 139   2.0000      -0.702033       -19.1033
 140   2.0000      -0.699618       -19.0376
 141   2.0000      -0.692822       -18.8527
 142   2.0000      -0.685920       -18.6648
 143   2.0000      -0.683530       -18.5998
 144   2.0000      -0.674296       -18.3485
 145   2.0000      -0.664033       -18.0692
 146   2.0000      -0.658314       -17.9136
 147   2.0000      -0.652281       -17.7495
 148   2.0000      -0.648141       -17.6368
 149   2.0000      -0.641070       -17.4444
 150   2.0000      -0.635830       -17.3018
 151   2.0000      -0.633048       -17.2261
 152   2.0000      -0.625238       -17.0136
 153   2.0000      -0.621844       -16.9212
 154   2.0000      -0.616968       -16.7885
 155   2.0000      -0.614866       -16.7313
 156   2.0000      -0.611051       -16.6276
 157   2.0000      -0.599953       -16.3256
 158   2.0000      -0.597704       -16.2644
 159   2.0000      -0.588765       -16.0211
 160   2.0000      -0.583458       -15.8767
 161   2.0000      -0.581612       -15.8265
 162   2.0000      -0.572249       -15.5717
 163   2.0000      -0.568833       -15.4787
 164   2.0000      -0.568419       -15.4675
 165   2.0000      -0.568015       -15.4565
 166   2.0000      -0.561405       -15.2766
 167   2.0000      -0.556327       -15.1384
 168   2.0000      -0.549876       -14.9629
 169   2.0000      -0.549185       -14.9441
 170   2.0000      -0.543638       -14.7931
 171   2.0000      -0.542548       -14.7635
 172   2.0000      -0.540715       -14.7136
 173   2.0000      -0.538275       -14.6472
 174   2.0000      -0.536727       -14.6051
 175   2.0000      -0.532795       -14.4981
 176   2.0000      -0.531753       -14.4697
 177   2.0000      -0.525337       -14.2952
 178   2.0000      -0.523823       -14.2539
 179   2.0000      -0.519074       -14.1247
 180   2.0000      -0.514650       -14.0043
 181   2.0000      -0.502581       -13.6759
 182   2.0000      -0.502105       -13.6630
 183   2.0000      -0.500802       -13.6275
 184   2.0000      -0.497238       -13.5305
 185   2.0000      -0.496586       -13.5128
 186   2.0000      -0.492414       -13.3993
 187   2.0000      -0.490001       -13.3336
 188   2.0000      -0.488953       -13.3051
 189   2.0000      -0.487433       -13.2637
 190   2.0000      -0.484943       -13.1960
 191   2.0000      -0.481786       -13.1101
 192   2.0000      -0.478647       -13.0247
 193   2.0000      -0.474368       -12.9082
 194   2.0000      -0.473778       -12.8922
 195   2.0000      -0.471823       -12.8390
 196   2.0000      -0.469881       -12.7861
 197   2.0000      -0.467548       -12.7226
 198   2.0000      -0.460141       -12.5211
 199   2.0000      -0.459275       -12.4975
 200   2.0000      -0.456767       -12.4293
 201   2.0000      -0.455511       -12.3951
 202   2.0000      -0.454190       -12.3591
 203   2.0000      -0.451280       -12.2799
 204   2.0000      -0.448794       -12.2123
 205   2.0000      -0.446335       -12.1454
 206   2.0000      -0.444006       -12.0820
 207   2.0000      -0.442427       -12.0390
 208   2.0000      -0.438605       -11.9350
 209   2.0000      -0.435287       -11.8448
 210   2.0000      -0.433697       -11.8015
 211   2.0000      -0.431692       -11.7469
 212   2.0000      -0.427131       -11.6228
 213   2.0000      -0.426033       -11.5929
 214   2.0000      -0.424553       -11.5527
 215   2.0000      -0.424545       -11.5525
 216   2.0000      -0.420341       -11.4381
 217   2.0000      -0.417174       -11.3519
 218   2.0000      -0.414661       -11.2835
 219   2.0000      -0.410974       -11.1832
 220   2.0000      -0.408094       -11.1048
 221   2.0000      -0.405942       -11.0462
 222   2.0000      -0.404564       -11.0087
 223   2.0000      -0.386653       -10.5214
 224   2.0000      -0.385550       -10.4914
 225   2.0000      -0.378233       -10.2922
 226   2.0000      -0.374078       -10.1792
 227   2.0000      -0.369083       -10.0433
 228   2.0000      -0.365844        -9.9551
 229   2.0000      -0.364742        -9.9251
 230   2.0000      -0.360659        -9.8140
 231   2.0000      -0.359739        -9.7890
 232   2.0000      -0.351861        -9.5746
 233   2.0000      -0.348027        -9.4703
 234   2.0000      -0.341087        -9.2814
 235   2.0000      -0.334828        -9.1111
 236   2.0000      -0.323092        -8.7918
 237   2.0000      -0.317452        -8.6383
 238   2.0000      -0.311862        -8.4862
 239   2.0000      -0.305610        -8.3161
 240   2.0000      -0.300739        -8.1835
 241   2.0000      -0.265559        -7.2262
 242   2.0000      -0.234319        -6.3761
 243   0.0000      -0.130683        -3.5561
 244   0.0000      -0.100737        -2.7412
 245   0.0000      -0.079570        -2.1652
 246   0.0000      -0.060248        -1.6394
 247   0.0000      -0.053800        -1.4640

MULLIKEN ATOMIC CHARGES
-----------------------
   0 C :   -0.090826
   1 C :    0.028529
   2 C :   -0.095628
   3 N :    0.026689
   4 C :   -0.125520
   5 C :   -0.138378
   6 N :    0.050512
   7 C :   -0.204563
   8 N :    0.234887
   9 C :   -0.207403
  10 N :    0.231453
  11 C :    0.213275
  12 C :   -0.045845
  13 C :    0.112383
  14 N :   -0.266475
  15 S :    0.558472
  16 N :   -0.319277
  17 C :   -0.203952
  18 S :    0.205963
  19 C :   -0.111828
  20 C :   -0.068505
  21 C :    0.178141
  22 C :    0.019208
  23 C :   -0.127626
  24 C :    0.210581
  25 O :   -0.197497
  26 O :   -0.298268
  27 C :    0.159090
  28 S :    0.151341
  29 C :    0.108033
  30 C :   -0.045336
  31 C :   -0.039815
  32 C :    0.123787
  33 C :   -0.014009
  34 C :   -0.061420
  35 N :    0.036384
  36 O :   -0.089604
  37 N :    0.002306
  38 C :    0.012395
  39 N :   -0.033381
  40 C :    0.128703
  41 C :   -0.147820
  42 C :    0.086642
  43 N :   -0.030667
  44 C :    0.128330
  45 C :   -0.152972
  46 C :    0.033661
  47 C :   -0.022973
  48 C :    0.022745
  49 C :   -0.124589
  50 C :    0.135450
  51 O :   -0.147518
  52 C :   -0.011045
  53 C :    0.013715
  54 C :    0.327288
  55 C :   -0.371137
  56 C :   -0.123444
  57 N :    0.097807
  58 C :   -0.194319
  59 N :    0.148100
  60 C :   -0.026709
  61 C :    0.046103
  62 C :   -0.004073
  63 C :   -0.013268
  64 Br:   -0.022522
  65 H :   -0.018191
  66 H :   -0.006168
  67 H :    0.053017
  68 H :    0.033347
  69 H :    0.046513
  70 H :   -0.007426
  71 H :   -0.010153
  72 H :    0.132712
  73 H :   -0.021717
  74 H :    0.126000
  75 H :   -0.021489
  76 H :    0.006049
  77 H :    0.002436
  78 H :    0.014166
  79 H :    0.009610
  80 H :    0.005131
  81 H :    0.002406
Sum of atomic charges:   -0.0000000

LOEWDIN ATOMIC CHARGES
----------------------
   0 C :   -0.019931
   1 C :   -0.005734
   2 C :   -0.017366
   3 N :    0.011075
   4 C :   -0.039316
   5 C :   -0.024769
   6 N :   -0.002609
   7 C :   -0.034400
   8 N :   -0.003129
   9 C :   -0.032749
  10 N :   -0.012659
  11 C :   -0.020830
  12 C :   -0.051940
  13 C :   -0.045404
  14 N :   -0.283606
  15 S :    0.689257
  16 N :   -0.298204
  17 C :   -0.168067
  18 S :    0.540269
  19 C :   -0.178210
  20 C :   -0.184954
  21 C :   -0.053331
  22 C :   -0.010327
  23 C :   -0.196509
  24 C :    0.065626
  25 O :   -0.178932
  26 O :   -0.084119
  27 C :    0.082630
  28 S :    0.441973
  29 C :   -0.053015
  30 C :   -0.001094
  31 C :   -0.002181
  32 C :   -0.028260
  33 C :   -0.038831
  34 C :   -0.050083
  35 N :   -0.028387
  36 O :    0.076249
  37 N :   -0.037690
  38 C :    0.016339
  39 N :    0.074785
  40 C :   -0.013650
  41 C :   -0.060840
  42 C :   -0.006638
  43 N :    0.077057
  44 C :    0.008236
  45 C :   -0.082635
  46 C :    0.037526
  47 C :   -0.063429
  48 C :    0.072091
  49 C :   -0.119074
  50 C :    0.081260
  51 O :   -0.145451
  52 C :   -0.037241
  53 C :   -0.014838
  54 C :    0.080752
  55 C :   -0.158552
  56 C :    0.020049
  57 N :   -0.080655
  58 C :   -0.021599
  59 N :   -0.057079
  60 C :    0.005517
  61 C :   -0.015704
  62 C :   -0.098948
  63 C :   -0.001387
  64 Br:    0.113276
  65 H :    0.047614
  66 H :    0.031768
  67 H :    0.028788
  68 H :    0.023059
  69 H :    0.024307
  70 H :    0.026240
  71 H :    0.038927
  72 H :    0.078618
  73 H :    0.030441
  74 H :    0.072442
  75 H :    0.029598
  76 H :    0.042115
  77 H :    0.026837
  78 H :    0.043648
  79 H :    0.042331
  80 H :    0.039864
  81 H :    0.043792

  Mayer bond orders larger than 0.100000
B(  0-C ,  1-C ) :   1.3145 B(  0-C , 11-C ) :   0.1211 B(  0-C , 13-C ) :   1.1705
B(  0-C , 65-H ) :   1.0590 B(  1-C ,  2-C ) :   1.1102 B(  1-C ,  6-N ) :   1.3316
B(  2-C ,  3-N ) :   1.4738 B(  2-C , 11-C ) :   1.2273 B(  3-N ,  4-C ) :   1.6964
B(  4-C ,  5-C ) :   1.1922 B(  4-C ,  9-C ) :   1.1518 B(  5-C ,  6-N ) :   1.7866
B(  5-C ,  7-C ) :   1.1526 B(  7-C ,  8-N ) :   3.0514 B(  9-C , 10-N ) :   3.0168
B( 11-C , 12-C ) :   1.1941 B( 11-C , 17-C ) :   1.2189 B( 12-C , 13-C ) :   1.1281
B( 12-C , 16-N ) :   1.4754 B( 13-C , 14-N ) :   1.4673 B( 14-N , 15-S ) :   1.3045
B( 14-N , 16-N ) :   0.1534 B( 15-S , 16-N ) :   1.2739 B( 17-C , 18-S ) :   1.1180
B( 17-C , 19-C ) :   0.1075 B( 17-C , 21-C ) :   1.2932 B( 18-S , 19-C ) :   1.1297
B( 19-C , 20-C ) :   1.4360 B( 19-C , 29-C ) :   1.1805 B( 20-C , 21-C ) :   1.2744
B( 20-C , 28-S ) :   1.0692 B( 21-C , 22-C ) :   1.1524 B( 22-C , 23-C ) :   1.5884
B( 22-C , 66-H ) :   0.9976 B( 23-C , 24-C ) :   0.9476 B( 23-C , 28-S ) :   1.0691
B( 24-C , 25-O ) :   2.1486 B( 24-C , 26-O ) :   1.2516 B( 26-O , 27-C ) :   0.9067
B( 27-C , 67-H ) :   0.9762 B( 27-C , 68-H ) :   0.9828 B( 27-C , 69-H ) :   0.9620
B( 29-C , 30-C ) :   1.4173 B( 29-C , 32-C ) :   0.1029 B( 29-C , 34-C ) :   1.1260
B( 30-C , 31-C ) :   1.2599 B( 30-C , 70-H ) :   0.9833 B( 31-C , 32-C ) :   1.4724
B( 31-C , 71-H ) :   0.9892 B( 32-C , 33-C ) :   1.1101 B( 32-C , 38-C ) :   1.0718
B( 33-C , 34-C ) :   1.1559 B( 33-C , 37-N ) :   1.5668 B( 34-C , 35-N ) :   1.5886
B( 35-N , 36-O ) :   1.0671 B( 35-N , 37-N ) :   0.1774 B( 36-O , 37-N ) :   1.0661
B( 38-C , 39-N ) :   1.2556 B( 38-C , 45-C ) :   1.3777 B( 39-N , 40-C ) :   1.1604
B( 39-N , 72-H ) :   0.8983 B( 40-C , 41-C ) :   1.2984 B( 40-C , 44-C ) :   1.2552
B( 41-C , 42-C ) :   1.2877 B( 41-C , 73-H ) :   1.0413 B( 42-C , 43-N ) :   1.1929
B( 42-C , 46-C ) :   1.2006 B( 43-N , 44-C ) :   1.2143 B( 43-N , 74-H ) :   0.8797
B( 44-C , 45-C ) :   1.2796 B( 45-C , 75-H ) :   1.0194 B( 46-C , 47-C ) :   1.5157
B( 46-C , 76-H ) :   0.9735 B( 47-C , 48-C ) :   1.2190 B( 47-C , 77-H ) :   0.9595
B( 48-C , 49-C ) :   1.5041 B( 48-C , 78-H ) :   0.9566 B( 49-C , 50-C ) :   0.9626
B( 49-C , 54-C ) :   1.0849 B( 50-C , 51-O ) :   2.2506 B( 50-C , 52-C ) :   0.9195
B( 52-C , 53-C ) :   1.3345 B( 52-C , 63-C ) :   1.3895 B( 53-C , 54-C ) :   0.9962
B( 53-C , 60-C ) :   1.3662 B( 54-C , 55-C ) :   1.5744 B( 55-C , 56-C ) :   1.1953
B( 55-C , 58-C ) :   1.1265 B( 56-C , 57-N ) :   2.8830 B( 57-N , 74-H ) :   0.1245
B( 58-C , 59-N ) :   2.9850 B( 60-C , 61-C ) :   1.3814 B( 60-C , 79-H ) :   0.9835
B( 61-C , 62-C ) :   1.3973 B( 61-C , 80-H ) :   0.9842 B( 62-C , 63-C ) :   1.3306
B( 62-C , 64-Br) :   0.9907 B( 63-C , 81-H ) :   1.0082

-----------------------------------------------------------------------------
         ABSORPTION SPECTRUM VIA TRANSITION ELECTRIC DIPOLE MOMENTS
-----------------------------------------------------------------------------
State   Energy  Wavelength   fosc         T2         TX        TY        TZ
        (cm-1)    (nm)                  (au**2)     (au)      (au)      (au)
-----------------------------------------------------------------------------
   0    9578.9   1044.0   1.226556222  42.15463   2.65469  -5.49930   2.20566
   1   14727.6    679.0   0.651313168  14.55907  -1.71959   2.71588  -2.05574
   2   16891.4    592.0   0.061468590   1.19802  -0.66202   0.86978   0.05679
   3   19148.5    522.2   0.126359177   2.17244  -1.00956  -0.17431   1.05964
   4   22580.4    442.9   0.025664298   0.37417   0.23539   0.07941  -0.55898
   5   23162.6    431.7   0.024732653   0.35153   0.48288  -0.00850  -0.34392
   6   24051.3    415.8   0.254833135   3.48813  -0.63166   1.40733  -1.05288
   7   24207.7    413.1   0.007215903   0.09813  -0.15465  -0.10155   0.25279
   8   24409.3    409.7   0.007494136   0.10107   0.11125   0.28971  -0.06905
   9   25434.4    393.2   0.033607340   0.43500   0.29235  -0.59121   0.00144
  10   26090.4    383.3   0.012297224   0.15517  -0.05046  -0.34672   0.18002
  11   27102.7    369.0   0.118673586   1.44151   0.89480  -0.32210  -0.73286
  12   27254.3    366.9   0.049423295   0.59700  -0.16661  -0.22939   0.71876
  13   28288.2    353.5   0.007792265   0.09068  -0.25025   0.02673   0.16536
  14   28696.7    348.5   0.052158441   0.59837  -0.32819  -0.30381   0.63116
  15   29102.8    343.6   0.180264997   2.03916  -0.39184   1.08058  -0.84733
  16   29153.5    343.0   0.011838823   0.13369   0.18156   0.31630  -0.02601
  17   29578.1    338.1   0.040678858   0.45277   0.58306  -0.25352   0.22032
  18   30490.7    328.0   0.054631580   0.58986   0.43351  -0.44790   0.44869
  19   31038.4    322.2   0.031046911   0.32930   0.00574   0.54457  -0.18087
  20   31205.5    320.5   0.017332960   0.18286  -0.04744   0.25192  -0.34226
  21   31566.4    316.8   0.527470911   5.50109   1.39358   0.83912  -1.68964
  22   32041.6    312.1   0.076472257   0.78572  -0.78486   0.40837   0.05421
  23   32391.3    308.7   0.040748837   0.41415  -0.52880   0.33626  -0.14647
  24   33150.5    301.7   0.130676445   1.29773  -0.34910   0.64914  -0.86860
  25   33526.0    298.3   0.036043245   0.35393   0.09185  -0.57520  -0.12099
  26   34031.4    293.8   0.220026185   2.12848   0.40691   1.01179  -0.96912
  27   34283.2    291.7   0.382713835   3.67510   0.34934  -1.30604   1.35916
  28   34435.6    290.4   0.016596661   0.15867   0.06215   0.25050  -0.30341
  29   34527.0    289.6   0.130787084   1.24704  -0.11581   0.52362  -0.97952
  30   34901.5    286.5   0.012458516   0.11752   0.23069  -0.24890   0.04844
  31   35009.1    285.6   0.085981789   0.80854  -0.70934  -0.33226   0.44156
  32   35711.9    280.0   0.078262308   0.72146   0.47546   0.27783  -0.64669
  33   36480.2    274.1   0.053189355   0.48000   0.53171  -0.44366  -0.02110
  34   37024.4    270.1   0.018176281   0.16162   0.35876   0.00621  -0.18130
  35   37180.3    269.0   0.129838519   1.14965   0.17328   0.55804  -0.89901
  36   37339.5    267.8   0.113970480   1.00485  -0.40358  -0.40503   0.82336
  37   37589.5    266.0   0.021634304   0.18947  -0.34361   0.25036   0.09341
  38   37898.5    263.9   0.029028094   0.25216   0.07859  -0.31870   0.38001
  39   37940.7    263.6   0.017302373   0.15013  -0.26447   0.28200  -0.02578
  40   38223.9    261.6   0.047792713   0.41163   0.41770  -0.47738   0.09626
  41   38558.7    259.3   0.002978801   0.02543   0.02160   0.02209  -0.15645
  42   38752.9    258.0   0.011481948   0.09754  -0.02314  -0.22676   0.21351
  43   39140.0    255.5   0.020241565   0.17025  -0.32767   0.08176   0.23707
  44   39594.5    252.6   0.014889630   0.12380  -0.26455   0.11217   0.20306
  45   40109.8    249.3   0.041595576   0.34141   0.16542  -0.31179   0.46565
  46   40228.1    248.6   0.031258578   0.25581  -0.39420  -0.10827   0.29782

FINAL SINGLE POINT ENERGY     -6447.603520971974

DIPOLE MOMENT
-------------
                                X             Y             Z
Electronic contribution:     53.88643     -89.00064      70.53026
Nuclear contribution   :    -55.87913      88.72005     -68.70232
                        -----------------------------------------
Total Dipole Moment    :     -1.99270      -0.28058       1.82794
                        -----------------------------------------
Magnitude (a.u.)       :      2.71863
Magnitude (Debye)      :      6.91020

Rotational constants in cm-1:     0.002511     0.000209     0.000196
Rotational constants in MHz :    75.291353     6.277150     5.885570

                             ****ORCA TERMINATED NORMALLY****
TOTAL RUN TIME: 0 days 0 hours 7 minutes 57 seconds 357 msec
