                         Program Version 4.2.0 -  RELEASE  -
|  1> # ORCA input file
|  2> # SCF done       -171.715371861780          0.000657206821
|  3> ! CAM-B3LYP def2-SVP def2/J RIJCOSX Grid4 TightSCF
|  4> %maxcore 5000
|  5> %tddft
|  6>     Mode sTDDFT
|  7>     Ethresh 5.0
|  8>     maxcore 5000
|  9> end
| 10>
| 11> %pal
| 12>   nprocs 6
| 13>   end
| 14> * xyz 0 1
| 15>    C        8.07200         2.38799        -3.73616
| 16>    C        7.68806         2.21434        -2.46377
| 17>    C        7.72526         3.17288        -1.39672
| 18>    C        7.27141         2.70571        -0.21259
| 19>    C        6.84106         1.34954        -0.24488
| 20>    S        7.03534         0.68595        -1.85185
| 21>    C        6.33987         0.61115         0.80316
| 22>    C        6.14133         1.02266         2.14251
| 23>    C        5.63522         0.05081         2.94725
| 24>    C        5.40062        -1.18923         2.29858
| 25>    S        5.85049        -1.06156         0.60848
| 26>    C        4.90788        -2.31127         2.91955
| 27>    C        4.64930        -3.57235         2.36634
| 28>    C        4.77474        -4.03747         1.05798
| 29>    C        4.41624        -5.37173         0.93680
| 30>    C        4.01001        -5.95662         2.15717
| 31>    S        4.06728        -4.84192         3.45220
| 32>    C        3.68386        -7.30399         1.92469
| 33>    C        3.87475        -7.58820         0.55502
| 34>    C        4.33848        -6.38310        -0.10704
| 35>    C        4.64180        -6.23054        -1.43032
| 36>    C        5.08890        -5.00658        -1.96835
| 37>    N        5.45336        -4.01687        -2.41984
| 38>    C        4.52754        -7.29182        -2.35099
| 39>    N        4.43761        -8.15178        -3.10520
| 40>    C        3.58515        -8.91005         0.22929
| 41>    C        3.17992        -9.64336         1.33267
| 42>    S        3.14879        -8.67168         2.80443
| 43>    C        2.83102       -11.00912         1.38856
| 44>    C        2.47640       -11.73910         2.50972
| 45>    C        2.21949       -13.07355         2.21203
| 46>    C        2.37420       -13.37275         0.83362
| 47>    S        2.83809       -11.99516        -0.07685
| 48>    C        2.11032       -14.73205         0.63426
| 49>    C        1.79030       -15.31475         1.88791
| 50>    C        1.84848       -14.27875         2.91152
| 51>    C        1.60749       -14.43109         4.25077
| 52>    C        1.69199       -13.35288         5.15310
| 53>    N        1.75675       -12.48085         5.89655
| 54>    C        1.26280       -15.66958         4.82540
| 55>    N        0.98346       -16.66977         5.31512
| 56>    C        1.52370       -16.66357         1.82074
| 57>    C        1.62615       -17.16877         0.51563
| 58>    S        2.06199       -15.88919        -0.63171
| 59>    C        1.44483       -18.46352         0.04173
| 60>    C        1.16954       -19.60577         0.77869
| 61>    C        0.98540       -20.89786         0.25259
| 62>    C        0.74643       -21.86596         1.19661
| 63>    C        0.73530       -21.37813         2.50843
| 64>    S        1.02592       -19.66009         2.52151
| 65>    C        0.54116       -22.06097         3.71238
| 66>    C        0.28886       -23.41914         3.92894
| 67>    C        0.15877       -23.74740         5.25947
| 68>    C        0.30514       -22.66283         6.13169
| 69>    S        0.61007       -21.19988         5.22712
| 70>    C        0.23643       -22.67082         7.52604
| 71>    C        0.40222       -21.55026         8.30426
| 72>    C        0.34626       -21.51717         9.69510
| 73>    C        0.51749       -20.38540        10.50702
| 74>    C        0.41265       -20.63603        11.84970
| 75>    C        0.15197       -21.98448        12.15411
| 76>    S        0.04515       -22.92775        10.68305
| 77>    C       -0.01107       -22.55847        13.40414
| 78>    C        0.05038       -21.90656        14.66101
| 79>    C       -0.15139       -22.72329        15.72405
| 80>    C       -0.38882       -24.09185        15.37794
| 81>    S       -0.33603       -24.26241        13.61599
| 82>    C       -0.62065       -25.12476        16.20339
| 83>    H        8.46436         3.33328        -4.06757
| 84>    H        8.00145         1.59715        -4.46010
| 85>    H        8.09154         4.16984        -1.56637
| 86>    H        7.22807         3.28590         0.69209
| 87>    H        6.37818         2.01789         2.47293
| 88>    H        5.42072         0.17904         3.99377
| 89>    H        4.69950        -2.21060         3.97749
| 90>    H        5.10933        -3.42077         0.24511
| 91>    H        3.66369        -9.34017        -0.75330
| 92>    H        2.41939       -11.30199         3.49082
| 93>    H        1.25766       -17.26735         2.66696
| 94>    H        1.54019       -18.60452        -1.02738
| 95>    H        1.03336       -21.08644        -0.80547
| 96>    H        0.58572       -22.90421         0.96805
| 97>    H        0.20709       -24.12509         3.12206
| 98>    H       -0.03663       -24.74229         5.61920
| 99>    H        0.04384       -23.62186         8.00629
|100>    H        0.59443       -20.60499         7.81130
|101>    H        0.71320       -19.41547        10.08495
|102>    H        0.51643       -19.88573        12.61233
|103>    H        0.24230       -20.85109        14.73726
|104>    H       -0.14205       -22.40875        16.75230
|105>    H       -0.64526       -24.98000        17.26887
|106>    H       -0.78767       -26.11889        15.83170
|107> *
|108>
|109>                          ****END OF INPUT****

CARTESIAN COORDINATES (ANGSTROEM)
---------------------------------
  C      8.072000    2.387990   -3.736160
  C      7.688060    2.214340   -2.463770
  C      7.725260    3.172880   -1.396720
  C      7.271410    2.705710   -0.212590
  C      6.841060    1.349540   -0.244880
  S      7.035340    0.685950   -1.851850
  C      6.339870    0.611150    0.803160
  C      6.141330    1.022660    2.142510
  C      5.635220    0.050810    2.947250
  C      5.400620   -1.189230    2.298580
  S      5.850490   -1.061560    0.608480
  C      4.907880   -2.311270    2.919550
  C      4.649300   -3.572350    2.366340
  C      4.774740   -4.037470    1.057980
  C      4.416240   -5.371730    0.936800
  C      4.010010   -5.956620    2.157170
  S      4.067280   -4.841920    3.452200
  C      3.683860   -7.303990    1.924690
  C      3.874750   -7.588200    0.555020
  C      4.338480   -6.383100   -0.107040
  C      4.641800   -6.230540   -1.430320
  C      5.088900   -5.006580   -1.968350
  N      5.453360   -4.016870   -2.419840
  C      4.527540   -7.291820   -2.350990
  N      4.437610   -8.151780   -3.105200
  C      3.585150   -8.910050    0.229290
  C      3.179920   -9.643360    1.332670
  S      3.148790   -8.671680    2.804430
  C      2.831020  -11.009120    1.388560
  C      2.476400  -11.739100    2.509720
  C      2.219490  -13.073550    2.212030
  C      2.374200  -13.372750    0.833620
  S      2.838090  -11.995160   -0.076850
  C      2.110320  -14.732050    0.634260
  C      1.790300  -15.314750    1.887910
  C      1.848480  -14.278750    2.911520
  C      1.607490  -14.431090    4.250770
  C      1.691990  -13.352880    5.153100
  N      1.756750  -12.480850    5.896550
  C      1.262800  -15.669580    4.825400
  N      0.983460  -16.669770    5.315120
  C      1.523700  -16.663570    1.820740
  C      1.626150  -17.168770    0.515630
  S      2.061990  -15.889190   -0.631710
  C      1.444830  -18.463520    0.041730
  C      1.169540  -19.605770    0.778690
  C      0.985400  -20.897860    0.252590
  C      0.746430  -21.865960    1.196610
  C      0.735300  -21.378130    2.508430
  S      1.025920  -19.660090    2.521510
  C      0.541160  -22.060970    3.712380
  C      0.288860  -23.419140    3.928940
  C      0.158770  -23.747400    5.259470
  C      0.305140  -22.662830    6.131690
  S      0.610070  -21.199880    5.227120
  C      0.236430  -22.670820    7.526040
  C      0.402220  -21.550260    8.304260
  C      0.346260  -21.517170    9.695100
  C      0.517490  -20.385400   10.507020
  C      0.412650  -20.636030   11.849700
  C      0.151970  -21.984480   12.154110
  S      0.045150  -22.927750   10.683050
  C     -0.011070  -22.558470   13.404140
  C      0.050380  -21.906560   14.661010
  C     -0.151390  -22.723290   15.724050
  C     -0.388820  -24.091850   15.377940
  S     -0.336030  -24.262410   13.615990
  C     -0.620650  -25.124760   16.203390
  H      8.464360    3.333280   -4.067570
  H      8.001450    1.597150   -4.460100
  H      8.091540    4.169840   -1.566370
  H      7.228070    3.285900    0.692090
  H      6.378180    2.017890    2.472930
  H      5.420720    0.179040    3.993770
  H      4.699500   -2.210600    3.977490
  H      5.109330   -3.420770    0.245110
  H      3.663690   -9.340170   -0.753300
  H      2.419390  -11.301990    3.490820
  H      1.257660  -17.267350    2.666960
  H      1.540190  -18.604520   -1.027380
  H      1.033360  -21.086440   -0.805470
  H      0.585720  -22.904210    0.968050
  H      0.207090  -24.125090    3.122060
  H     -0.036630  -24.742290    5.619200
  H      0.043840  -23.621860    8.006290
  H      0.594430  -20.604990    7.811300
  H      0.713200  -19.415470   10.084950
  H      0.516430  -19.885730   12.612330
  H      0.242300  -20.851090   14.737260
  H     -0.142050  -22.408750   16.752300
  H     -0.645260  -24.980000   17.268870
  H     -0.787670  -26.118890   15.831700

 Total Charge           Charge          ....    0
 Multiplicity           Mult            ....    1
 Number of Electrons    NEL             ....  536
 Basis Dimension        Dim             .... 1112

ORBITAL ENERGIES
----------------

  NO   OCC          E(Eh)            E(eV)
   0   2.0000     -88.977640     -2421.2047
   1   2.0000     -88.976654     -2421.1779
   2   2.0000     -88.973255     -2421.0853
   3   2.0000     -88.970162     -2421.0012
   4   2.0000     -88.946014     -2420.3441
   5   2.0000     -88.944923     -2420.3144
   6   2.0000     -88.943056     -2420.2636
   7   2.0000     -88.942944     -2420.2606
   8   2.0000     -88.942467     -2420.2476
   9   2.0000     -88.935640     -2420.0618
  10   2.0000     -14.420759      -392.4088
  11   2.0000     -14.420519      -392.4023
  12   2.0000     -14.419883      -392.3850
  13   2.0000     -14.419095      -392.3635
  14   2.0000     -10.353132      -281.7230
  15   2.0000     -10.351781      -281.6863
  16   2.0000     -10.340506      -281.3795
  17   2.0000     -10.339367      -281.3485
  18   2.0000     -10.321380      -280.8590
  19   2.0000     -10.321365      -280.8586
  20   2.0000     -10.321333      -280.8578
  21   2.0000     -10.320590      -280.8375
  22   2.0000     -10.319373      -280.8044
  23   2.0000     -10.319078      -280.7964
  24   2.0000     -10.316473      -280.7255
  25   2.0000     -10.315634      -280.7027
  26   2.0000     -10.314082      -280.6604
  27   2.0000     -10.313876      -280.6548
  28   2.0000     -10.311410      -280.5877
  29   2.0000     -10.310453      -280.5617
  30   2.0000     -10.310387      -280.5599
  31   2.0000     -10.310209      -280.5550
  32   2.0000     -10.310075      -280.5514
  33   2.0000     -10.309287      -280.5300
  34   2.0000     -10.309098      -280.5248
  35   2.0000     -10.307807      -280.4897
  36   2.0000     -10.306923      -280.4656
  37   2.0000     -10.306479      -280.4536
  38   2.0000     -10.305086      -280.4156
  39   2.0000     -10.303895      -280.3832
  40   2.0000     -10.303870      -280.3826
  41   2.0000     -10.302268      -280.3390
  42   2.0000     -10.291072      -280.0343
  43   2.0000     -10.290443      -280.0172
  44   2.0000     -10.290274      -280.0126
  45   2.0000     -10.289711      -279.9973
  46   2.0000     -10.289251      -279.9848
  47   2.0000     -10.289174      -279.9827
  48   2.0000     -10.287588      -279.9395
  49   2.0000     -10.287145      -279.9274
  50   2.0000     -10.287021      -279.9241
  51   2.0000     -10.286968      -279.9226
  52   2.0000     -10.284697      -279.8608
  53   2.0000     -10.284601      -279.8582
  54   2.0000     -10.283866      -279.8382
  55   2.0000     -10.283725      -279.8344
  56   2.0000     -10.283287      -279.8225
  57   2.0000     -10.283132      -279.8183
  58   2.0000     -10.282892      -279.8117
  59   2.0000     -10.282791      -279.8090
  60   2.0000     -10.282337      -279.7966
  61   2.0000     -10.281878      -279.7841
  62   2.0000     -10.281792      -279.7818
  63   2.0000     -10.281319      -279.7689
  64   2.0000     -10.278364      -279.6885
  65   2.0000     -10.277315      -279.6600
  66   2.0000     -10.274012      -279.5701
  67   2.0000     -10.268810      -279.4285
  68   2.0000      -8.072006      -219.6505
  69   2.0000      -8.070979      -219.6225
  70   2.0000      -8.067908      -219.5389
  71   2.0000      -8.064611      -219.4492
  72   2.0000      -8.042383      -218.8444
  73   2.0000      -8.040622      -218.7964
  74   2.0000      -8.039495      -218.7658
  75   2.0000      -8.039177      -218.7571
  76   2.0000      -8.038652      -218.7428
  77   2.0000      -8.032335      -218.5709
  78   2.0000      -6.041368      -164.3940
  79   2.0000      -6.040375      -164.3669
  80   2.0000      -6.037206      -164.2807
  81   2.0000      -6.037168      -164.2797
  82   2.0000      -6.036216      -164.2538
  83   2.0000      -6.034169      -164.1981
  84   2.0000      -6.033952      -164.1922
  85   2.0000      -6.033104      -164.1691
  86   2.0000      -6.033077      -164.1684
  87   2.0000      -6.030185      -164.0897
  88   2.0000      -6.029926      -164.0826
  89   2.0000      -6.026729      -163.9956
  90   2.0000      -6.012005      -163.5950
  91   2.0000      -6.010288      -163.5483
  92   2.0000      -6.009072      -163.5152
  93   2.0000      -6.008957      -163.5120
  94   2.0000      -6.008439      -163.4979
  95   2.0000      -6.008057      -163.4875
  96   2.0000      -6.006139      -163.4353
  97   2.0000      -6.005021      -163.4049
  98   2.0000      -6.005013      -163.4047
  99   2.0000      -6.004358      -163.3869
 100   2.0000      -6.003436      -163.3618
 101   2.0000      -6.002162      -163.3271
 102   2.0000      -6.001875      -163.3193
 103   2.0000      -6.000679      -163.2868
 104   2.0000      -5.999822      -163.2635
 105   2.0000      -5.999568      -163.2565
 106   2.0000      -5.998191      -163.2191
 107   2.0000      -5.992871      -163.0743
 108   2.0000      -1.031817       -28.0772
 109   2.0000      -1.028715       -27.9928
 110   2.0000      -1.011407       -27.5218
 111   2.0000      -1.010018       -27.4840
 112   2.0000      -0.997413       -27.1410
 113   2.0000      -0.997199       -27.1352
 114   2.0000      -0.995464       -27.0879
 115   2.0000      -0.993904       -27.0455
 116   2.0000      -0.991488       -26.9798
 117   2.0000      -0.987354       -26.8673
 118   2.0000      -0.976516       -26.5724
 119   2.0000      -0.972501       -26.4631
 120   2.0000      -0.969465       -26.3805
 121   2.0000      -0.966196       -26.2915
 122   2.0000      -0.948491       -25.8097
 123   2.0000      -0.941147       -25.6099
 124   2.0000      -0.910347       -24.7718
 125   2.0000      -0.904751       -24.6195
 126   2.0000      -0.898572       -24.4514
 127   2.0000      -0.882243       -24.0071
 128   2.0000      -0.878025       -23.8923
 129   2.0000      -0.868117       -23.6227
 130   2.0000      -0.860013       -23.4022
 131   2.0000      -0.856336       -23.3021
 132   2.0000      -0.850910       -23.1544
 133   2.0000      -0.846156       -23.0251
 134   2.0000      -0.845569       -23.0091
 135   2.0000      -0.842991       -22.9390
 136   2.0000      -0.839000       -22.8303
 137   2.0000      -0.838118       -22.8063
 138   2.0000      -0.835800       -22.7433
 139   2.0000      -0.820215       -22.3192
 140   2.0000      -0.818909       -22.2836
 141   2.0000      -0.817962       -22.2579
 142   2.0000      -0.811199       -22.0738
 143   2.0000      -0.801041       -21.7974
 144   2.0000      -0.788275       -21.4500
 145   2.0000      -0.775165       -21.0933
 146   2.0000      -0.766512       -20.8578
 147   2.0000      -0.760510       -20.6945
 148   2.0000      -0.751166       -20.4403
 149   2.0000      -0.740471       -20.1492
 150   2.0000      -0.724413       -19.7123
 151   2.0000      -0.709755       -19.3134
 152   2.0000      -0.698641       -19.0110
 153   2.0000      -0.689810       -18.7707
 154   2.0000      -0.689001       -18.7487
 155   2.0000      -0.680751       -18.5242
 156   2.0000      -0.676052       -18.3963
 157   2.0000      -0.673676       -18.3317
 158   2.0000      -0.673175       -18.3180
 159   2.0000      -0.664418       -18.0797
 160   2.0000      -0.656090       -17.8531
 161   2.0000      -0.646001       -17.5786
 162   2.0000      -0.638303       -17.3691
 163   2.0000      -0.628872       -17.1125
 164   2.0000      -0.627402       -17.0725
 165   2.0000      -0.625112       -17.0102
 166   2.0000      -0.620909       -16.8958
 167   2.0000      -0.619996       -16.8709
 168   2.0000      -0.618095       -16.8192
 169   2.0000      -0.615375       -16.7452
 170   2.0000      -0.614489       -16.7211
 171   2.0000      -0.607553       -16.5323
 172   2.0000      -0.603828       -16.4310
 173   2.0000      -0.599255       -16.3066
 174   2.0000      -0.597919       -16.2702
 175   2.0000      -0.595949       -16.2166
 176   2.0000      -0.592921       -16.1342
 177   2.0000      -0.588741       -16.0205
 178   2.0000      -0.581825       -15.8323
 179   2.0000      -0.560689       -15.2571
 180   2.0000      -0.560377       -15.2486
 181   2.0000      -0.555700       -15.1214
 182   2.0000      -0.547617       -14.9014
 183   2.0000      -0.535953       -14.5840
 184   2.0000      -0.535856       -14.5814
 185   2.0000      -0.531966       -14.4755
 186   2.0000      -0.530397       -14.4328
 187   2.0000      -0.523251       -14.2384
 188   2.0000      -0.520608       -14.1665
 189   2.0000      -0.517385       -14.0788
 190   2.0000      -0.513050       -13.9608
 191   2.0000      -0.507483       -13.8093
 192   2.0000      -0.503288       -13.6952
 193   2.0000      -0.498047       -13.5525
 194   2.0000      -0.497916       -13.5490
 195   2.0000      -0.496979       -13.5235
 196   2.0000      -0.496706       -13.5160
 197   2.0000      -0.495235       -13.4760
 198   2.0000      -0.494554       -13.4575
 199   2.0000      -0.494102       -13.4452
 200   2.0000      -0.490956       -13.3596
 201   2.0000      -0.490210       -13.3393
 202   2.0000      -0.489851       -13.3295
 203   2.0000      -0.486792       -13.2463
 204   2.0000      -0.485759       -13.2182
 205   2.0000      -0.482624       -13.1329
 206   2.0000      -0.481618       -13.1055
 207   2.0000      -0.478683       -13.0256
 208   2.0000      -0.476500       -12.9662
 209   2.0000      -0.471537       -12.8312
 210   2.0000      -0.470130       -12.7929
 211   2.0000      -0.467619       -12.7246
 212   2.0000      -0.465913       -12.6781
 213   2.0000      -0.463954       -12.6248
 214   2.0000      -0.458906       -12.4875
 215   2.0000      -0.457961       -12.4618
 216   2.0000      -0.456826       -12.4309
 217   2.0000      -0.453966       -12.3531
 218   2.0000      -0.452394       -12.3103
 219   2.0000      -0.451784       -12.2937
 220   2.0000      -0.450713       -12.2645
 221   2.0000      -0.449177       -12.2227
 222   2.0000      -0.447514       -12.1775
 223   2.0000      -0.446161       -12.1407
 224   2.0000      -0.438712       -11.9380
 225   2.0000      -0.432990       -11.7822
 226   2.0000      -0.432421       -11.7668
 227   2.0000      -0.430394       -11.7116
 228   2.0000      -0.430102       -11.7037
 229   2.0000      -0.429850       -11.6968
 230   2.0000      -0.428248       -11.6532
 231   2.0000      -0.428026       -11.6472
 232   2.0000      -0.426004       -11.5921
 233   2.0000      -0.425346       -11.5743
 234   2.0000      -0.425019       -11.5654
 235   2.0000      -0.423138       -11.5142
 236   2.0000      -0.420318       -11.4374
 237   2.0000      -0.417914       -11.3720
 238   2.0000      -0.416889       -11.3441
 239   2.0000      -0.414895       -11.2899
 240   2.0000      -0.412709       -11.2304
 241   2.0000      -0.407491       -11.0884
 242   2.0000      -0.401036       -10.9128
 243   2.0000      -0.398402       -10.8411
 244   2.0000      -0.393693       -10.7129
 245   2.0000      -0.391198       -10.6451
 246   2.0000      -0.388559       -10.5732
 247   2.0000      -0.384292       -10.4571
 248   2.0000      -0.372944       -10.1483
 249   2.0000      -0.359813        -9.7910
 250   2.0000      -0.344219        -9.3667
 251   2.0000      -0.338990        -9.2244
 252   2.0000      -0.337960        -9.1964
 253   2.0000      -0.336071        -9.1450
 254   2.0000      -0.334552        -9.1036
 255   2.0000      -0.331688        -9.0257
 256   2.0000      -0.328083        -8.9276
 257   2.0000      -0.323006        -8.7895
 258   2.0000      -0.318647        -8.6708
 259   2.0000      -0.316719        -8.6184
 260   2.0000      -0.312455        -8.5023
 261   2.0000      -0.309168        -8.4129
 262   2.0000      -0.300078        -8.1655
 263   2.0000      -0.280451        -7.6315
 264   2.0000      -0.255986        -6.9657
 265   2.0000      -0.233290        -6.3481
 266   2.0000      -0.208854        -5.6832
 267   2.0000      -0.183708        -4.9989
 268   0.0000      -0.107171        -2.9163
 269   0.0000      -0.094715        -2.5773
 270   0.0000      -0.086899        -2.3646
 271   0.0000      -0.063923        -1.7394
 272   0.0000      -0.043545        -1.1849

MULLIKEN ATOMIC CHARGES
-----------------------
   0 C :   -0.026402
   1 C :   -0.067709
   2 C :    0.056813
   3 C :    0.024990
   4 C :   -0.060861
   5 S :    0.100017
   6 C :   -0.040734
   7 C :    0.031527
   8 C :    0.030358
   9 C :   -0.027425
  10 S :    0.064346
  11 C :    0.017891
  12 C :   -0.089057
  13 C :   -0.045214
  14 C :   -0.003573
  15 C :   -0.102038
  16 S :    0.171425
  17 C :   -0.098967
  18 C :    0.013919
  19 C :    0.309748
  20 C :   -0.304873
  21 C :   -0.185266
  22 N :    0.173670
  23 C :   -0.191418
  24 N :    0.168294
  25 C :   -0.072343
  26 C :   -0.050848
  27 S :    0.180510
  28 C :   -0.053662
  29 C :   -0.068392
  30 C :    0.001908
  31 C :   -0.094847
  32 S :    0.181775
  33 C :   -0.107948
  34 C :    0.002249
  35 C :    0.316600
  36 C :   -0.306787
  37 C :   -0.195481
  38 N :    0.166467
  39 C :   -0.182578
  40 N :    0.163285
  41 C :   -0.056323
  42 C :   -0.082084
  43 S :    0.168504
  44 C :    0.019864
  45 C :   -0.027326
  46 C :    0.019233
  47 C :    0.030182
  48 C :   -0.034608
  49 S :    0.056542
  50 C :   -0.029363
  51 C :    0.008789
  52 C :    0.032386
  53 C :   -0.033528
  54 S :    0.095338
  55 C :    0.003783
  56 C :   -0.020137
  57 C :   -0.022423
  58 C :    0.028381
  59 C :    0.019510
  60 C :   -0.045431
  61 S :    0.084082
  62 C :   -0.063458
  63 C :    0.029520
  64 C :    0.051337
  65 C :   -0.066420
  66 S :    0.087418
  67 C :   -0.026351
  68 H :    0.020621
  69 H :    0.027579
  70 H :   -0.011101
  71 H :   -0.011122
  72 H :   -0.015988
  73 H :   -0.014463
  74 H :   -0.020855
  75 H :    0.021339
  76 H :    0.006545
  77 H :    0.007305
  78 H :    0.026572
  79 H :   -0.020675
  80 H :   -0.015167
  81 H :   -0.015836
  82 H :   -0.014260
  83 H :   -0.012754
  84 H :   -0.006298
  85 H :    0.008096
  86 H :   -0.004806
  87 H :   -0.011376
  88 H :   -0.008860
  89 H :   -0.009320
  90 H :    0.023616
  91 H :    0.024420
Sum of atomic charges:   -0.0000000

LOEWDIN ATOMIC CHARGES
----------------------
   0 C :   -0.069931
   1 C :   -0.140733
   2 C :   -0.027217
   3 C :   -0.028162
   4 C :   -0.171506
   5 S :    0.365684
   6 C :   -0.184566
   7 C :   -0.033425
   8 C :   -0.036348
   9 C :   -0.142199
  10 S :    0.389032
  11 C :   -0.091197
  12 C :   -0.159008
  13 C :   -0.043363
  14 C :   -0.067111
  15 C :   -0.190496
  16 S :    0.460818
  17 C :   -0.178542
  18 C :   -0.072398
  19 C :    0.085076
  20 C :   -0.104662
  21 C :   -0.017786
  22 N :   -0.032325
  23 C :   -0.015209
  24 N :   -0.038659
  25 C :   -0.043717
  26 C :   -0.178367
  27 S :    0.471378
  28 C :   -0.187578
  29 C :   -0.039118
  30 C :   -0.082046
  31 C :   -0.165492
  32 S :    0.466371
  33 C :   -0.205732
  34 C :   -0.057260
  35 C :    0.085066
  36 C :   -0.109131
  37 C :   -0.015494
  38 N :   -0.041889
  39 C :   -0.016462
  40 N :   -0.040149
  41 C :   -0.046327
  42 C :   -0.153070
  43 S :    0.451128
  44 C :   -0.092607
  45 C :   -0.142977
  46 C :   -0.045057
  47 C :   -0.035173
  48 C :   -0.191127
  49 S :    0.407224
  50 C :   -0.167315
  51 C :   -0.044719
  52 C :   -0.030847
  53 C :   -0.156083
  54 S :    0.400359
  55 C :   -0.045608
  56 C :   -0.066242
  57 C :   -0.139503
  58 C :   -0.035871
  59 C :   -0.031258
  60 C :   -0.181945
  61 S :    0.379999
  62 C :   -0.172610
  63 C :   -0.027299
  64 C :   -0.029751
  65 C :   -0.140326
  66 S :    0.360617
  67 C :   -0.070127
  68 H :    0.028996
  69 H :    0.028549
  70 H :    0.033666
  71 H :    0.032251
  72 H :    0.030999
  73 H :    0.032468
  74 H :    0.031726
  75 H :    0.025999
  76 H :    0.034305
  77 H :    0.033615
  78 H :    0.022427
  79 H :    0.032425
  80 H :    0.031677
  81 H :    0.031480
  82 H :    0.031230
  83 H :    0.033485
  84 H :    0.029385
  85 H :    0.031913
  86 H :    0.036928
  87 H :    0.032072
  88 H :    0.033514
  89 H :    0.034151
  90 H :    0.029893
  91 H :    0.027214

  Mayer bond orders larger than 0.100000
B(  0-C ,  1-C ) :   1.8630 B(  0-C , 68-H ) :   0.9509 B(  0-C , 69-H ) :   0.9416
B(  1-C ,  2-C ) :   1.0795 B(  1-C ,  5-S ) :   1.0083 B(  2-C ,  3-C ) :   1.6614
B(  2-C , 70-H ) :   0.9928 B(  3-C ,  4-C ) :   1.1500 B(  3-C , 71-H ) :   0.9926
B(  4-C ,  5-S ) :   1.0544 B(  4-C ,  6-C ) :   1.5468 B(  6-C ,  7-C ) :   1.1763
B(  6-C , 10-S ) :   1.0326 B(  7-C ,  8-C ) :   1.6011 B(  7-C , 72-H ) :   0.9912
B(  8-C ,  9-C ) :   1.1433 B(  8-C , 73-H ) :   0.9989 B(  9-C , 10-S ) :   1.0463
B(  9-C , 11-C ) :   1.5964 B( 11-C , 12-C ) :   1.1752 B( 11-C , 74-H ) :   0.9492
B( 12-C , 13-C ) :   1.4091 B( 12-C , 16-S ) :   1.0909 B( 13-C , 14-C ) :   1.3408
B( 13-C , 75-H ) :   0.9707 B( 14-C , 15-C ) :   1.4190 B( 14-C , 19-C ) :   0.9964
B( 15-C , 16-S ) :   1.1103 B( 15-C , 17-C ) :   1.2159 B( 17-C , 18-C ) :   1.4297
B( 17-C , 27-S ) :   1.1107 B( 18-C , 19-C ) :   0.9986 B( 18-C , 25-C ) :   1.3001
B( 19-C , 20-C ) :   1.7013 B( 20-C , 21-C ) :   1.1379 B( 20-C , 23-C ) :   1.1373
B( 21-C , 22-N ) :   2.9859 B( 23-C , 24-N ) :   2.9919 B( 25-C , 26-C ) :   1.4486
B( 25-C , 76-H ) :   0.9878 B( 26-C , 27-S ) :   1.0984 B( 26-C , 28-C ) :   1.1892
B( 28-C , 29-C ) :   1.4539 B( 28-C , 32-S ) :   1.0826 B( 29-C , 30-C ) :   1.2984
B( 29-C , 77-H ) :   0.9853 B( 30-C , 31-C ) :   1.3965 B( 30-C , 35-C ) :   1.0198
B( 31-C , 32-S ) :   1.1137 B( 31-C , 33-C ) :   1.2538 B( 33-C , 34-C ) :   1.3934
B( 33-C , 43-S ) :   1.0864 B( 34-C , 35-C ) :   0.9868 B( 34-C , 41-C ) :   1.3899
B( 35-C , 36-C ) :   1.6854 B( 36-C , 37-C ) :   1.1412 B( 36-C , 39-C ) :   1.1412
B( 37-C , 38-N ) :   2.9910 B( 39-C , 40-N ) :   2.9788 B( 41-C , 42-C ) :   1.3447
B( 41-C , 78-H ) :   0.9641 B( 42-C , 43-S ) :   1.0903 B( 42-C , 44-C ) :   1.2407
B( 44-C , 45-C ) :   1.5036 B( 44-C , 79-H ) :   0.9525 B( 45-C , 46-C ) :   1.2038
B( 45-C , 49-S ) :   1.0596 B( 46-C , 47-C ) :   1.5158 B( 46-C , 80-H ) :   0.9999
B( 47-C , 48-C ) :   1.2562 B( 47-C , 81-H ) :   0.9938 B( 48-C , 49-S ) :   1.0540
B( 48-C , 50-C ) :   1.3946 B( 50-C , 51-C ) :   1.2599 B( 50-C , 54-S ) :   1.0763
B( 51-C , 52-C ) :   1.4967 B( 51-C , 82-H ) :   0.9967 B( 52-C , 53-C ) :   1.2238
B( 52-C , 83-H ) :   1.0008 B( 53-C , 54-S ) :   1.0534 B( 53-C , 55-C ) :   1.4539
B( 55-C , 56-C ) :   1.2661 B( 55-C , 84-H ) :   0.9752 B( 56-C , 57-C ) :   1.4690
B( 56-C , 85-H ) :   0.9710 B( 57-C , 58-C ) :   1.2015 B( 57-C , 61-S ) :   1.0560
B( 58-C , 59-C ) :   1.5349 B( 58-C , 86-H ) :   1.0016 B( 59-C , 60-C ) :   1.2167
B( 59-C , 87-H ) :   0.9946 B( 60-C , 61-S ) :   1.0462 B( 60-C , 62-C ) :   1.4910
B( 62-C , 63-C ) :   1.1764 B( 62-C , 66-S ) :   1.0583 B( 63-C , 64-C ) :   1.6366
B( 63-C , 88-H ) :   0.9924 B( 64-C , 65-C ) :   1.0901 B( 64-C , 89-H ) :   0.9940
B( 65-C , 66-S ) :   1.0080 B( 65-C , 67-C ) :   1.8480 B( 67-C , 90-H ) :   0.9515
B( 67-C , 91-H ) :   0.9421

-----------------------------------------------------------------------------
         ABSORPTION SPECTRUM VIA TRANSITION ELECTRIC DIPOLE MOMENTS
-----------------------------------------------------------------------------
State   Energy  Wavelength   fosc         T2         TX        TY        TZ
        (cm-1)    (nm)                  (au**2)     (au)      (au)      (au)
-----------------------------------------------------------------------------
   0    4008.5   2494.7   0.344295342  28.27634   1.05678   4.26576  -2.99380
   1    7091.5   1410.1   0.258279227  11.99025  -0.93511  -3.04797   1.35117
   2    8798.4   1136.6   0.865761674  32.39424   0.63875   2.15809  -5.22770
   3   11437.5    874.3   0.017944237   0.51650  -0.23522  -0.62746  -0.25975
   4   12484.2    801.0   0.136103263   3.58908  -0.20686  -1.14240  -1.49707
   5   15443.2    647.5   0.190253405   4.05575  -0.63033  -1.67507   0.92335
   6   16582.2    603.1   0.736117272  14.61434   1.18307   3.63408  -0.09026
   7   17353.7    576.2   0.772655019  14.65780  -1.28738  -3.57451   0.47260
   8   17993.3    555.8   0.022234594   0.40681  -0.03829   0.33355   0.54230
   9   19164.0    521.8   0.339063904   5.82465  -0.16493   0.87251   2.24414
  10   20488.9    488.1   0.197139362   3.16760  -0.39058   0.07122   1.73493
  11   21080.5    474.4   0.102501924   1.60076  -0.36406  -1.14054  -0.40914
  12   21399.5    467.3   0.036807542   0.56625   0.13872   0.66094   0.33192
  13   23624.5    423.3   0.007508357   0.10463   0.04765   0.31623  -0.04853
  14   23897.6    418.5   0.064701958   0.89133  -0.19687  -0.90081   0.20278
  15   25567.7    391.1   0.345970553   4.45474  -0.41315  -2.06979   0.00385
  16   26100.8    383.1   0.049195511   0.62051   0.07589   0.74046   0.25780
  17   27045.5    369.7   0.003491701   0.04250   0.04531  -0.13538  -0.14874
  18   27231.1    367.2   0.037715983   0.45597  -0.02373   0.36660   0.56658
  19   27801.5    359.7   0.036576602   0.43312   0.01280   0.54792   0.36434
  20   28376.6    352.4   0.001357557   0.01575  -0.01858   0.07377   0.09981
  21   29327.9    341.0   0.038181033   0.42859   0.10809   0.60245  -0.23228
  22   29610.0    337.7   0.058514702   0.65058  -0.23227  -0.55203   0.54028
  23   30330.8    329.7   0.053349835   0.57906  -0.11367  -0.68263  -0.31647
  24   30646.6    326.3   0.371361567   3.98924  -0.24366   0.58566   1.89390
  25   30809.3    324.6   0.111604274   1.19254   0.21030   0.53986  -0.92567
  26   31391.0    318.6   0.075959410   0.79662   0.24343   0.54707  -0.66187
  27   31422.6    318.2   0.078944496   0.82709  -0.24906  -0.52743   0.69777
  28   31527.1    317.2   0.684944727   7.15233  -0.59592  -0.34330   2.58444
  29   31623.0    316.2   0.294927525   3.07035  -0.17852  -1.50762  -0.87497
  30   32157.2    311.0   0.114760275   1.17487   0.28000   0.83664  -0.62968
  31   32315.0    309.5   0.053087164   0.54083   0.15684   0.70862   0.11871
  32   32496.1    307.7   0.143486615   1.45364  -0.33170  -0.81665   0.82262
  33   32618.8    306.6   0.104229989   1.05196   0.14571  -0.36244  -0.94835
  34   32893.8    304.0   0.089606030   0.89681  -0.27314  -0.74199   0.52121
  35   33133.2    301.8   0.027166818   0.26993   0.02328   0.24497   0.45758
  36   33229.3    300.9   0.000179861   0.00178  -0.00093   0.02888  -0.03077
  37   33433.0    299.1   0.149838641   1.47545  -0.14807  -1.09869  -0.49638
  38   33870.6    295.2   0.170918712   1.66128   0.08306   0.92605   0.89264
  39   34048.9    293.7   0.026321034   0.25449  -0.18670  -0.37929   0.27527
  40   34265.1    291.8   0.000385738   0.00371   0.02778   0.03043   0.04481
  41   34354.0    291.1   0.009358771   0.08968  -0.06445  -0.18787   0.22413
  42   34787.6    287.5   0.064318100   0.60867   0.05661  -0.18747  -0.75520
  43   34852.5    286.9   0.029647762   0.28005  -0.08874  -0.04491   0.51977
  44   35067.9    285.2   0.001087415   0.01021   0.03294  -0.01265  -0.09468
  45   35147.4    284.5   0.039422332   0.36925   0.15547   0.22426  -0.54295
  46   35910.1    278.5   0.001470117   0.01348  -0.01510  -0.04817   0.10454
  47   35944.0    278.2   0.039656475   0.36321   0.06484   0.14361  -0.58171
  48   36152.2    276.6   0.016089911   0.14652   0.01961   0.20472   0.32284
  49   36262.9    275.8   0.003600450   0.03269  -0.03189  -0.17140  -0.04789
  50   36452.3    274.3   0.004923131   0.04446  -0.07520   0.00810   0.19683
  51   36546.1    273.6   0.011229579   0.10116   0.02396   0.14885  -0.28005
  52   36998.3    270.3   0.009007619   0.08015  -0.05527  -0.27698   0.01950
  53   37126.5    269.3   0.000038920   0.00035  -0.01440   0.00993  -0.00627
  54   37497.0    266.7   0.055223051   0.48484   0.07068   0.18849  -0.66657
  55   37704.5    265.2   0.026490115   0.23129   0.11901   0.45089  -0.11758
  56   38260.2    261.4   0.134819734   1.16006  -0.23041   0.05737   1.05056
  57   38457.5    260.0   0.044049651   0.37708   0.07042  -0.04255  -0.60853
  58   38553.2    259.4   0.017567722   0.15001   0.10650   0.26076  -0.26585
  59   38605.3    259.0   0.001895000   0.01616   0.01033  -0.06946  -0.10596
  60   38782.3    257.8   0.005109675   0.04337  -0.03192   0.19452   0.06721
  61   38831.6    257.5   0.046326596   0.39275   0.15974   0.60591  -0.01062
  62   39178.3    255.2   0.052859129   0.44417   0.08644  -0.13127  -0.64766
  63   39329.4    254.3   0.007778415   0.06511  -0.05210  -0.10501   0.22665
  64   39338.6    254.2   0.038349822   0.32094   0.05270  -0.12550  -0.54992
  65   39719.0    251.8   0.000258658   0.00214   0.00920  -0.03978   0.02184
  66   40030.2    249.8   0.014945727   0.12292   0.04338   0.03244  -0.34638
  67   40320.5    248.0   0.041832864   0.34156  -0.13605  -0.52184   0.22525

FINAL SINGLE POINT ENERGY     -6268.698346345933

DIPOLE MOMENT
-------------
                                X             Y             Z
Electronic contribution:      0.60375      14.80384     -28.49448
Nuclear contribution   :     -0.68240     -15.30045      30.57415
                        -----------------------------------------
Total Dipole Moment    :     -0.07864      -0.49662       2.07967
                        -----------------------------------------
Magnitude (a.u.)       :      2.13958
Magnitude (Debye)      :      5.43839

Rotational constants in cm-1:     0.001440     0.000169     0.000152
Rotational constants in MHz :    43.162895     5.068484     4.549306

                             ****ORCA TERMINATED NORMALLY****
TOTAL RUN TIME: 0 days 0 hours 10 minutes 9 seconds 494 msec
