                         Program Version 4.2.0 -  RELEASE  -
|  1> # ORCA input file
|  2> # SCF done       -183.372002617703          0.000529496481
|  3> ! CAM-B3LYP def2-SVP def2/J RIJCOSX Grid4 TightSCF
|  4> %maxcore 5000
|  5> %tddft
|  6>     Mode sTDDFT
|  7>     Ethresh 5.0
|  8>     maxcore 5000
|  9> end
| 10>
| 11> %pal
| 12>   nprocs 6
| 13>   end
| 14> * xyz 0 1
| 15>    C        6.99091         0.12586        -4.64645
| 16>    C        7.32848         1.08755        -5.54492
| 17>    S        6.93376         0.59213        -7.15450
| 18>    C        6.29485        -0.94260        -6.61703
| 19>    C        5.78985        -1.95442        -7.57162
| 20>    C        6.39568        -1.02019        -5.26230
| 21>    C        6.03306        -1.99381        -4.23521
| 22>    O        5.43321        -3.03930        -4.43338
| 23>    C        6.51851        -1.42604        -2.95503
| 24>    C        7.06457        -0.10234        -3.21646
| 25>    C        7.55114         0.82760        -2.32905
| 26>    C        8.02968         2.07440        -2.77990
| 27>    N        8.42431         3.09593        -3.12523
| 28>    C        7.62978         0.71651        -0.92846
| 29>    N        7.72155         0.71889         0.21752
| 30>    C        6.55836        -1.98513        -1.69392
| 31>    C        6.07028        -3.18400        -1.14118
| 32>    C        5.30844        -4.15110        -1.77598
| 33>    C        4.78330        -5.28018        -1.17679
| 34>    C        5.13122        -5.64018         0.20487
| 35>    C        5.86534        -4.85621         1.02775
| 36>    S        6.49349        -3.32941         0.57761
| 37>    C        4.54875        -6.91595         0.42427
| 38>    C        3.85994        -7.32423        -0.72200
| 39>    C        3.24671        -8.58680        -0.55328
| 40>    C        3.48314        -9.09364         0.68324
| 41>    S        4.44871        -8.06666         1.69472
| 42>    C        3.96002        -6.30453        -1.72613
| 43>    C        3.29443        -6.37157        -2.96483
| 44>    C        3.09256        -5.33244        -3.82841
| 45>    C        2.45609        -5.41360        -5.07243
| 46>    S        1.78737        -6.87304        -5.76045
| 47>    C        1.27533        -6.06916        -7.22501
| 48>    C        1.62391        -4.73127        -7.16658
| 49>    C        2.27809        -4.35049        -5.96622
| 50>    C        2.62335        -2.98393        -5.95335
| 51>    C        2.25417        -2.34869        -7.10315
| 52>    C        2.46556        -0.95096        -7.46572
| 53>    O        2.18213        -0.46684        -8.53514
| 54>    O        3.03676        -0.25956        -6.46118
| 55>    C        3.28358         1.11304        -6.72458
| 56>    S        1.45554        -3.39481        -8.26179
| 57>    C        0.60915        -6.76717        -8.26049
| 58>    C        0.12054        -6.24305        -9.42782
| 59>    C       -0.49444        -7.20047       -10.26434
| 60>    C       -1.12702        -6.98050       -11.50675
| 61>    C       -1.08569        -5.68032       -12.13998
| 62>    C       -0.03192        -4.81109       -12.21088
| 63>    C       -0.33330        -3.62306       -12.90402
| 64>    C       -1.61444        -3.57238       -13.36035
| 65>    S       -2.47986        -5.01679       -12.94841
| 66>    C       -2.28459        -2.48564       -14.12037
| 67>    C       -1.76912        -8.07557       -12.07257
| 68>    C       -1.77790        -9.36787       -11.48811
| 69>    C       -1.11679        -9.59411       -10.26177
| 70>    C       -0.48993        -8.49494        -9.68767
| 71>    S        0.32687        -8.49244        -8.14562
| 72>    C       -1.09566       -10.88401        -9.60201
| 73>    C       -0.06194       -11.45544        -8.91482
| 74>    C       -0.39048       -12.69790        -8.33664
| 75>    C       -1.67602       -13.07930        -8.56271
| 76>    S       -2.51167       -11.89895        -9.51956
| 77>    C       -2.37303       -14.31142        -8.10987
| 78>    C       -2.45989       -10.30610       -12.29723
| 79>    C       -2.97286        -9.77875       -13.44901
| 80>    S       -2.61553        -8.07037       -13.59279
| 81>    C       -3.72657       -10.41044       -14.48612
| 82>    C       -4.12813       -11.69572       -14.48436
| 83>    C       -4.89410       -12.28007       -15.54919
| 84>    C       -5.30534       -13.54768       -15.55248
| 85>    H        7.78326         2.04534        -5.39200
| 86>    H        5.03527        -1.52994        -8.23278
| 87>    H        5.36006        -2.78629        -7.01790
| 88>    H        6.60349        -2.32496        -8.19621
| 89>    H        7.06745        -1.37338        -0.95670
| 90>    H        5.15451        -3.99827        -2.83254
| 91>    H        6.09309        -5.13979         2.04349
| 92>    H        2.66626        -9.09427        -1.30209
| 93>    H        3.14619       -10.02858         1.08648
| 94>    H        2.87144        -7.33468        -3.22687
| 95>    H        3.42054        -4.33966        -3.56822
| 96>    H        3.13932        -2.48968        -5.15240
| 97>    H        3.82771         1.49462        -5.86416
| 98>    H        2.34154         1.65108        -6.84910
| 99>    H        3.87500         1.22790        -7.63581
|100>    H        0.16829        -5.19526        -9.65773
|101>    H        0.94332        -5.03395       -11.81669
|102>    H        0.37888        -2.83155       -13.05555
|103>    H       -1.59535        -1.65821       -14.27019
|104>    H       -3.15947        -2.12225       -13.58200
|105>    H       -2.61913        -2.84668       -15.09277
|106>    H        0.91839       -11.01868        -8.85363
|107>    H        0.30775       -13.28790        -7.76974
|108>    H       -1.69676       -14.92307        -7.51744
|109>    H       -2.71889       -14.89519        -8.96284
|110>    H       -3.24356       -14.06112        -7.50387
|111>    H       -2.55734       -11.34398       -12.04115
|112>    H       -3.98956        -9.77590       -15.32301
|113>    H       -3.88229       -12.34155       -13.65307
|114>    H       -5.13613       -11.62964       -16.38000
|115>    H       -5.07683       -14.21553       -14.73817
|116>    H       -5.87903       -13.95910       -16.36447
|117> *
|118>
|119>                          ****END OF INPUT****

CARTESIAN COORDINATES (ANGSTROEM)
---------------------------------
  C      6.990910    0.125860   -4.646450
  C      7.328480    1.087550   -5.544920
  S      6.933760    0.592130   -7.154500
  C      6.294850   -0.942600   -6.617030
  C      5.789850   -1.954420   -7.571620
  C      6.395680   -1.020190   -5.262300
  C      6.033060   -1.993810   -4.235210
  O      5.433210   -3.039300   -4.433380
  C      6.518510   -1.426040   -2.955030
  C      7.064570   -0.102340   -3.216460
  C      7.551140    0.827600   -2.329050
  C      8.029680    2.074400   -2.779900
  N      8.424310    3.095930   -3.125230
  C      7.629780    0.716510   -0.928460
  N      7.721550    0.718890    0.217520
  C      6.558360   -1.985130   -1.693920
  C      6.070280   -3.184000   -1.141180
  C      5.308440   -4.151100   -1.775980
  C      4.783300   -5.280180   -1.176790
  C      5.131220   -5.640180    0.204870
  C      5.865340   -4.856210    1.027750
  S      6.493490   -3.329410    0.577610
  C      4.548750   -6.915950    0.424270
  C      3.859940   -7.324230   -0.722000
  C      3.246710   -8.586800   -0.553280
  C      3.483140   -9.093640    0.683240
  S      4.448710   -8.066660    1.694720
  C      3.960020   -6.304530   -1.726130
  C      3.294430   -6.371570   -2.964830
  C      3.092560   -5.332440   -3.828410
  C      2.456090   -5.413600   -5.072430
  S      1.787370   -6.873040   -5.760450
  C      1.275330   -6.069160   -7.225010
  C      1.623910   -4.731270   -7.166580
  C      2.278090   -4.350490   -5.966220
  C      2.623350   -2.983930   -5.953350
  C      2.254170   -2.348690   -7.103150
  C      2.465560   -0.950960   -7.465720
  O      2.182130   -0.466840   -8.535140
  O      3.036760   -0.259560   -6.461180
  C      3.283580    1.113040   -6.724580
  S      1.455540   -3.394810   -8.261790
  C      0.609150   -6.767170   -8.260490
  C      0.120540   -6.243050   -9.427820
  C     -0.494440   -7.200470  -10.264340
  C     -1.127020   -6.980500  -11.506750
  C     -1.085690   -5.680320  -12.139980
  C     -0.031920   -4.811090  -12.210880
  C     -0.333300   -3.623060  -12.904020
  C     -1.614440   -3.572380  -13.360350
  S     -2.479860   -5.016790  -12.948410
  C     -2.284590   -2.485640  -14.120370
  C     -1.769120   -8.075570  -12.072570
  C     -1.777900   -9.367870  -11.488110
  C     -1.116790   -9.594110  -10.261770
  C     -0.489930   -8.494940   -9.687670
  S      0.326870   -8.492440   -8.145620
  C     -1.095660  -10.884010   -9.602010
  C     -0.061940  -11.455440   -8.914820
  C     -0.390480  -12.697900   -8.336640
  C     -1.676020  -13.079300   -8.562710
  S     -2.511670  -11.898950   -9.519560
  C     -2.373030  -14.311420   -8.109870
  C     -2.459890  -10.306100  -12.297230
  C     -2.972860   -9.778750  -13.449010
  S     -2.615530   -8.070370  -13.592790
  C     -3.726570  -10.410440  -14.486120
  C     -4.128130  -11.695720  -14.484360
  C     -4.894100  -12.280070  -15.549190
  C     -5.305340  -13.547680  -15.552480
  H      7.783260    2.045340   -5.392000
  H      5.035270   -1.529940   -8.232780
  H      5.360060   -2.786290   -7.017900
  H      6.603490   -2.324960   -8.196210
  H      7.067450   -1.373380   -0.956700
  H      5.154510   -3.998270   -2.832540
  H      6.093090   -5.139790    2.043490
  H      2.666260   -9.094270   -1.302090
  H      3.146190  -10.028580    1.086480
  H      2.871440   -7.334680   -3.226870
  H      3.420540   -4.339660   -3.568220
  H      3.139320   -2.489680   -5.152400
  H      3.827710    1.494620   -5.864160
  H      2.341540    1.651080   -6.849100
  H      3.875000    1.227900   -7.635810
  H      0.168290   -5.195260   -9.657730
  H      0.943320   -5.033950  -11.816690
  H      0.378880   -2.831550  -13.055550
  H     -1.595350   -1.658210  -14.270190
  H     -3.159470   -2.122250  -13.582000
  H     -2.619130   -2.846680  -15.092770
  H      0.918390  -11.018680   -8.853630
  H      0.307750  -13.287900   -7.769740
  H     -1.696760  -14.923070   -7.517440
  H     -2.718890  -14.895190   -8.962840
  H     -3.243560  -14.061120   -7.503870
  H     -2.557340  -11.343980  -12.041150
  H     -3.989560   -9.775900  -15.323010
  H     -3.882290  -12.341550  -13.653070
  H     -5.136130  -11.629640  -16.380000
  H     -5.076830  -14.215530  -14.738170
  H     -5.879030  -13.959100  -16.364470

 Total Charge           Charge          ....    0
 Multiplicity           Mult            ....    1
 Number of Electrons    NEL             ....  550
 Basis Dimension        Dim             .... 1176

ORBITAL ENERGIES
----------------

  NO   OCC          E(Eh)            E(eV)
   0   2.0000     -88.974008     -2421.1059
   1   2.0000     -88.973323     -2421.0872
   2   2.0000     -88.968527     -2420.9567
   3   2.0000     -88.965843     -2420.8837
   4   2.0000     -88.958518     -2420.6843
   5   2.0000     -88.947043     -2420.3721
   6   2.0000     -88.945593     -2420.3326
   7   2.0000     -88.941910     -2420.2324
   8   2.0000     -88.941089     -2420.2101
   9   2.0000     -19.262902      -524.1702
  10   2.0000     -19.219224      -522.9817
  11   2.0000     -19.207672      -522.6673
  12   2.0000     -14.410399      -392.1269
  13   2.0000     -14.406584      -392.0231
  14   2.0000     -10.406307      -283.1700
  15   2.0000     -10.373115      -282.2668
  16   2.0000     -10.336897      -281.2813
  17   2.0000     -10.332619      -281.1648
  18   2.0000     -10.332046      -281.1493
  19   2.0000     -10.325414      -280.9688
  20   2.0000     -10.322687      -280.8946
  21   2.0000     -10.321981      -280.8754
  22   2.0000     -10.320010      -280.8218
  23   2.0000     -10.318765      -280.7879
  24   2.0000     -10.314448      -280.6704
  25   2.0000     -10.313647      -280.6486
  26   2.0000     -10.313128      -280.6345
  27   2.0000     -10.310040      -280.5504
  28   2.0000     -10.309253      -280.5290
  29   2.0000     -10.307574      -280.4834
  30   2.0000     -10.306457      -280.4530
  31   2.0000     -10.305539      -280.4280
  32   2.0000     -10.301678      -280.3229
  33   2.0000     -10.301251      -280.3113
  34   2.0000     -10.299417      -280.2614
  35   2.0000     -10.298597      -280.2391
  36   2.0000     -10.298071      -280.2248
  37   2.0000     -10.296192      -280.1736
  38   2.0000     -10.296145      -280.1723
  39   2.0000     -10.295445      -280.1533
  40   2.0000     -10.294933      -280.1394
  41   2.0000     -10.293256      -280.0937
  42   2.0000     -10.292671      -280.0778
  43   2.0000     -10.291415      -280.0436
  44   2.0000     -10.290348      -280.0146
  45   2.0000     -10.290190      -280.0103
  46   2.0000     -10.290113      -280.0082
  47   2.0000     -10.290108      -280.0081
  48   2.0000     -10.289248      -279.9847
  49   2.0000     -10.288565      -279.9661
  50   2.0000     -10.287908      -279.9482
  51   2.0000     -10.285277      -279.8766
  52   2.0000     -10.284115      -279.8450
  53   2.0000     -10.282706      -279.8067
  54   2.0000     -10.280359      -279.7428
  55   2.0000     -10.280264      -279.7402
  56   2.0000     -10.279786      -279.7272
  57   2.0000     -10.279749      -279.7262
  58   2.0000     -10.277261      -279.6585
  59   2.0000     -10.273242      -279.5491
  60   2.0000     -10.272986      -279.5421
  61   2.0000     -10.272604      -279.5318
  62   2.0000     -10.270453      -279.4732
  63   2.0000     -10.268722      -279.4261
  64   2.0000     -10.264627      -279.3147
  65   2.0000     -10.263780      -279.2917
  66   2.0000     -10.262760      -279.2639
  67   2.0000     -10.262564      -279.2586
  68   2.0000     -10.261393      -279.2267
  69   2.0000     -10.257705      -279.1263
  70   2.0000      -8.069516      -219.5827
  71   2.0000      -8.068679      -219.5599
  72   2.0000      -8.063283      -219.4131
  73   2.0000      -8.061213      -219.3567
  74   2.0000      -8.052943      -219.1317
  75   2.0000      -8.042406      -218.8450
  76   2.0000      -8.041259      -218.8138
  77   2.0000      -8.037860      -218.7213
  78   2.0000      -8.036764      -218.6915
  79   2.0000      -6.038839      -164.3252
  80   2.0000      -6.038177      -164.3072
  81   2.0000      -6.034231      -164.1998
  82   2.0000      -6.033761      -164.1870
  83   2.0000      -6.032628      -164.1561
  84   2.0000      -6.032047      -164.1403
  85   2.0000      -6.030696      -164.1036
  86   2.0000      -6.030530      -164.0991
  87   2.0000      -6.028513      -164.0442
  88   2.0000      -6.026391      -163.9864
  89   2.0000      -6.025394      -163.9593
  90   2.0000      -6.023231      -163.9004
  91   2.0000      -6.022807      -163.8889
  92   2.0000      -6.018543      -163.7729
  93   2.0000      -6.014127      -163.6527
  94   2.0000      -6.012178      -163.5997
  95   2.0000      -6.010540      -163.5551
  96   2.0000      -6.007955      -163.4848
  97   2.0000      -6.007103      -163.4616
  98   2.0000      -6.006325      -163.4404
  99   2.0000      -6.006323      -163.4404
 100   2.0000      -6.003571      -163.3655
 101   2.0000      -6.003502      -163.3636
 102   2.0000      -6.002854      -163.3460
 103   2.0000      -6.002206      -163.3283
 104   2.0000      -6.000126      -163.2717
 105   2.0000      -5.998194      -163.2192
 106   2.0000      -1.193002       -32.4632
 107   2.0000      -1.133200       -30.8359
 108   2.0000      -1.100083       -29.9348
 109   2.0000      -1.017645       -27.6915
 110   2.0000      -1.014978       -27.6190
 111   2.0000      -1.013317       -27.5738
 112   2.0000      -1.000998       -27.2385
 113   2.0000      -1.000456       -27.2238
 114   2.0000      -0.987160       -26.8620
 115   2.0000      -0.978129       -26.6162
 116   2.0000      -0.975149       -26.5352
 117   2.0000      -0.972459       -26.4619
 118   2.0000      -0.967257       -26.3204
 119   2.0000      -0.957647       -26.0589
 120   2.0000      -0.952502       -25.9189
 121   2.0000      -0.935733       -25.4626
 122   2.0000      -0.919318       -25.0159
 123   2.0000      -0.909066       -24.7369
 124   2.0000      -0.899177       -24.4678
 125   2.0000      -0.894814       -24.3491
 126   2.0000      -0.892037       -24.2736
 127   2.0000      -0.886193       -24.1145
 128   2.0000      -0.869083       -23.6490
 129   2.0000      -0.863545       -23.4983
 130   2.0000      -0.855447       -23.2779
 131   2.0000      -0.851200       -23.1623
 132   2.0000      -0.849920       -23.1275
 133   2.0000      -0.845260       -23.0007
 134   2.0000      -0.839391       -22.8410
 135   2.0000      -0.835073       -22.7235
 136   2.0000      -0.830548       -22.6003
 137   2.0000      -0.818234       -22.2653
 138   2.0000      -0.816139       -22.2083
 139   2.0000      -0.812118       -22.0988
 140   2.0000      -0.807201       -21.9651
 141   2.0000      -0.800086       -21.7715
 142   2.0000      -0.792935       -21.5769
 143   2.0000      -0.790942       -21.5226
 144   2.0000      -0.785745       -21.3812
 145   2.0000      -0.773959       -21.0605
 146   2.0000      -0.771205       -20.9855
 147   2.0000      -0.756073       -20.5738
 148   2.0000      -0.742261       -20.1979
 149   2.0000      -0.737660       -20.0728
 150   2.0000      -0.736393       -20.0383
 151   2.0000      -0.721056       -19.6209
 152   2.0000      -0.718620       -19.5546
 153   2.0000      -0.709747       -19.3132
 154   2.0000      -0.688690       -18.7402
 155   2.0000      -0.685249       -18.6466
 156   2.0000      -0.672613       -18.3027
 157   2.0000      -0.666211       -18.1285
 158   2.0000      -0.664630       -18.0855
 159   2.0000      -0.661393       -17.9974
 160   2.0000      -0.656764       -17.8714
 161   2.0000      -0.648609       -17.6495
 162   2.0000      -0.641052       -17.4439
 163   2.0000      -0.639202       -17.3936
 164   2.0000      -0.633472       -17.2376
 165   2.0000      -0.630841       -17.1661
 166   2.0000      -0.628003       -17.0888
 167   2.0000      -0.620383       -16.8815
 168   2.0000      -0.616755       -16.7828
 169   2.0000      -0.616094       -16.7648
 170   2.0000      -0.608350       -16.5540
 171   2.0000      -0.604775       -16.4568
 172   2.0000      -0.602962       -16.4074
 173   2.0000      -0.595185       -16.1958
 174   2.0000      -0.592175       -16.1139
 175   2.0000      -0.584057       -15.8930
 176   2.0000      -0.579702       -15.7745
 177   2.0000      -0.577643       -15.7185
 178   2.0000      -0.576166       -15.6783
 179   2.0000      -0.573221       -15.5981
 180   2.0000      -0.569663       -15.5013
 181   2.0000      -0.566859       -15.4250
 182   2.0000      -0.562218       -15.2987
 183   2.0000      -0.559578       -15.2269
 184   2.0000      -0.552498       -15.0342
 185   2.0000      -0.549439       -14.9510
 186   2.0000      -0.540092       -14.6966
 187   2.0000      -0.533944       -14.5293
 188   2.0000      -0.531373       -14.4594
 189   2.0000      -0.524994       -14.2858
 190   2.0000      -0.524271       -14.2661
 191   2.0000      -0.521769       -14.1981
 192   2.0000      -0.520325       -14.1587
 193   2.0000      -0.518723       -14.1152
 194   2.0000      -0.516056       -14.0426
 195   2.0000      -0.514733       -14.0066
 196   2.0000      -0.511239       -13.9115
 197   2.0000      -0.509448       -13.8628
 198   2.0000      -0.509273       -13.8580
 199   2.0000      -0.508650       -13.8411
 200   2.0000      -0.505646       -13.7593
 201   2.0000      -0.504782       -13.7358
 202   2.0000      -0.501578       -13.6486
 203   2.0000      -0.501273       -13.6403
 204   2.0000      -0.499237       -13.5849
 205   2.0000      -0.496025       -13.4975
 206   2.0000      -0.490720       -13.3532
 207   2.0000      -0.489031       -13.3072
 208   2.0000      -0.485226       -13.2037
 209   2.0000      -0.485007       -13.1977
 210   2.0000      -0.480720       -13.0810
 211   2.0000      -0.476311       -12.9611
 212   2.0000      -0.474996       -12.9253
 213   2.0000      -0.473131       -12.8745
 214   2.0000      -0.470718       -12.8089
 215   2.0000      -0.464489       -12.6394
 216   2.0000      -0.464252       -12.6329
 217   2.0000      -0.461235       -12.5508
 218   2.0000      -0.460338       -12.5264
 219   2.0000      -0.458457       -12.4753
 220   2.0000      -0.456389       -12.4190
 221   2.0000      -0.454275       -12.3615
 222   2.0000      -0.452786       -12.3209
 223   2.0000      -0.452160       -12.3039
 224   2.0000      -0.451202       -12.2778
 225   2.0000      -0.448230       -12.1970
 226   2.0000      -0.443323       -12.0634
 227   2.0000      -0.441913       -12.0251
 228   2.0000      -0.440275       -11.9805
 229   2.0000      -0.437787       -11.9128
 230   2.0000      -0.436925       -11.8893
 231   2.0000      -0.436692       -11.8830
 232   2.0000      -0.434604       -11.8262
 233   2.0000      -0.433696       -11.8015
 234   2.0000      -0.432596       -11.7715
 235   2.0000      -0.431402       -11.7391
 236   2.0000      -0.427689       -11.6380
 237   2.0000      -0.424001       -11.5377
 238   2.0000      -0.423070       -11.5123
 239   2.0000      -0.422477       -11.4962
 240   2.0000      -0.421369       -11.4660
 241   2.0000      -0.420084       -11.4311
 242   2.0000      -0.418761       -11.3951
 243   2.0000      -0.415060       -11.2944
 244   2.0000      -0.413444       -11.2504
 245   2.0000      -0.410134       -11.1603
 246   2.0000      -0.408130       -11.1058
 247   2.0000      -0.406128       -11.0513
 248   2.0000      -0.402234       -10.9453
 249   2.0000      -0.399084       -10.8596
 250   2.0000      -0.395935       -10.7739
 251   2.0000      -0.392589       -10.6829
 252   2.0000      -0.391257       -10.6466
 253   2.0000      -0.381531       -10.3820
 254   2.0000      -0.372797       -10.1443
 255   2.0000      -0.366915        -9.9843
 256   2.0000      -0.360667        -9.8143
 257   2.0000      -0.353097        -9.6083
 258   2.0000      -0.338689        -9.2162
 259   2.0000      -0.335479        -9.1289
 260   2.0000      -0.332045        -9.0354
 261   2.0000      -0.326601        -8.8873
 262   2.0000      -0.325802        -8.8655
 263   2.0000      -0.317725        -8.6457
 264   2.0000      -0.313884        -8.5412
 265   2.0000      -0.310221        -8.4415
 266   2.0000      -0.308885        -8.4052
 267   2.0000      -0.302136        -8.2216
 268   2.0000      -0.296104        -8.0574
 269   2.0000      -0.294226        -8.0063
 270   2.0000      -0.286346        -7.7919
 271   2.0000      -0.271059        -7.3759
 272   2.0000      -0.260192        -7.0802
 273   2.0000      -0.238467        -6.4890
 274   2.0000      -0.216324        -5.8865
 275   0.0000      -0.103830        -2.8253
 276   0.0000      -0.063822        -1.7367
 277   0.0000      -0.046453        -1.2641
 278   0.0000      -0.041841        -1.1385
 279   0.0000      -0.034716        -0.9447

MULLIKEN ATOMIC CHARGES
-----------------------
   0 C :    0.040779
   1 C :   -0.152376
   2 S :    0.140724
   3 C :   -0.329407
   4 C :    0.113569
   5 C :    0.084116
   6 C :    0.168571
   7 O :   -0.201324
   8 C :   -0.098734
   9 C :    0.299201
  10 C :   -0.358871
  11 C :   -0.193537
  12 N :    0.146645
  13 C :   -0.185792
  14 N :    0.145814
  15 C :    0.039565
  16 C :   -0.120733
  17 C :   -0.028285
  18 C :    0.030264
  19 C :    0.056933
  20 C :   -0.120246
  21 S :    0.144482
  22 C :   -0.094942
  23 C :    0.040383
  24 C :    0.015996
  25 C :   -0.066124
  26 S :    0.137794
  27 C :    0.117104
  28 C :   -0.044658
  29 C :    0.005924
  30 C :   -0.081414
  31 S :    0.147517
  32 C :   -0.111454
  33 C :   -0.034465
  34 C :    0.120111
  35 C :    0.027147
  36 C :   -0.145210
  37 C :    0.201092
  38 O :   -0.202123
  39 O :   -0.308915
  40 C :    0.191958
  41 S :    0.146021
  42 C :   -0.024968
  43 C :   -0.103119
  44 C :    0.085842
  45 C :    0.148746
  46 C :   -0.217325
  47 C :    0.029729
  48 C :    0.016855
  49 C :   -0.210019
  50 S :    0.124159
  51 C :    0.124547
  52 C :   -0.151856
  53 C :    0.076652
  54 C :    0.139520
  55 C :   -0.137682
  56 S :    0.104218
  57 C :   -0.213041
  58 C :    0.023662
  59 C :    0.019305
  60 C :   -0.211884
  61 S :    0.117278
  62 C :    0.124966
  63 C :   -0.062771
  64 C :   -0.043350
  65 S :    0.117167
  66 C :    0.047414
  67 C :    0.014553
  68 C :    0.004481
  69 C :   -0.016498
  70 H :    0.047094
  71 H :    0.040054
  72 H :    0.053109
  73 H :    0.039332
  74 H :    0.007880
  75 H :    0.005280
  76 H :    0.039130
  77 H :   -0.011027
  78 H :    0.030483
  79 H :   -0.023362
  80 H :   -0.007634
  81 H :    0.000480
  82 H :    0.037221
  83 H :    0.034424
  84 H :    0.028886
  85 H :   -0.010334
  86 H :   -0.013715
  87 H :   -0.021866
  88 H :    0.019733
  89 H :    0.033132
  90 H :    0.032198
  91 H :   -0.009148
  92 H :   -0.026835
  93 H :    0.018590
  94 H :    0.030783
  95 H :    0.033994
  96 H :   -0.020039
  97 H :   -0.018792
  98 H :   -0.008272
  99 H :   -0.007881
 100 H :    0.014487
 101 H :    0.022932
Sum of atomic charges:   -0.0000000

LOEWDIN ATOMIC CHARGES
----------------------
   0 C :   -0.062055
   1 C :   -0.154496
   2 S :    0.459848
   3 C :   -0.125222
   4 C :   -0.059778
   5 C :   -0.101790
   6 C :    0.092793
   7 O :   -0.165851
   8 C :   -0.105618
   9 C :    0.076996
  10 C :   -0.154051
  11 C :   -0.014062
  12 N :   -0.064754
  13 C :   -0.028295
  14 N :   -0.057269
  15 C :    0.038025
  16 C :   -0.190384
  17 C :    0.029352
  18 C :   -0.037100
  19 C :   -0.059389
  20 C :   -0.133203
  21 S :    0.458217
  22 C :   -0.181851
  23 C :   -0.045678
  24 C :   -0.058335
  25 C :   -0.159470
  26 S :    0.428161
  27 C :   -0.008089
  28 C :   -0.033294
  29 C :   -0.013800
  30 C :   -0.162790
  31 S :    0.448063
  32 C :   -0.197277
  33 C :   -0.182034
  34 C :   -0.067578
  35 C :   -0.002564
  36 C :   -0.204948
  37 C :    0.062251
  38 O :   -0.179548
  39 O :   -0.093413
  40 C :    0.078754
  41 S :    0.429415
  42 C :   -0.177915
  43 C :   -0.054040
  44 C :   -0.038663
  45 C :   -0.051160
  46 C :   -0.181631
  47 C :   -0.053959
  48 C :   -0.075007
  49 C :   -0.172049
  50 S :    0.420387
  51 C :   -0.059636
  52 C :   -0.153894
  53 C :   -0.038232
  54 C :   -0.058151
  55 C :   -0.140300
  56 S :    0.401035
  57 C :   -0.176943
  58 C :   -0.065131
  59 C :   -0.076291
  60 C :   -0.173852
  61 S :    0.429408
  62 C :   -0.059824
  63 C :   -0.065485
  64 C :   -0.152918
  65 S :    0.400271
  66 C :   -0.043615
  67 C :   -0.008501
  68 C :   -0.025617
  69 C :   -0.042909
  70 H :    0.033754
  71 H :    0.039949
  72 H :    0.047319
  73 H :    0.044736
  74 H :    0.040460
  75 H :    0.035106
  76 H :    0.038049
  77 H :    0.032872
  78 H :    0.025289
  79 H :    0.024115
  80 H :    0.037396
  81 H :    0.035359
  82 H :    0.026361
  83 H :    0.024297
  84 H :    0.015753
  85 H :    0.021678
  86 H :    0.029275
  87 H :    0.028103
  88 H :    0.038020
  89 H :    0.037020
  90 H :    0.036599
  91 H :    0.022663
  92 H :    0.026247
  93 H :    0.037465
  94 H :    0.036086
  95 H :    0.037129
  96 H :    0.014557
  97 H :    0.027110
  98 H :    0.028436
  99 H :    0.028990
 100 H :    0.021680
 101 H :    0.024857

  Mayer bond orders larger than 0.100000
B(  0-C ,  1-C ) :   1.5523 B(  0-C ,  5-C ) :   1.2013 B(  0-C ,  9-C ) :   0.9765
B(  1-C ,  2-S ) :   1.1469 B(  1-C , 70-H ) :   0.9563 B(  2-S ,  3-C ) :   1.1573
B(  3-C ,  4-C ) :   1.0876 B(  3-C ,  5-C ) :   1.5389 B(  4-C , 71-H ) :   0.9352
B(  4-C , 72-H ) :   0.9440 B(  4-C , 73-H ) :   0.9376 B(  5-C ,  6-C ) :   0.9956
B(  6-C ,  7-O ) :   2.0067 B(  6-C ,  8-C ) :   0.9737 B(  7-O , 75-H ) :   0.1344
B(  8-C ,  9-C ) :   1.1189 B(  8-C , 15-C ) :   1.5250 B(  9-C , 10-C ) :   1.6008
B( 10-C , 11-C ) :   1.1634 B( 10-C , 13-C ) :   1.1356 B( 11-C , 12-N ) :   2.9853
B( 13-C , 14-N ) :   2.9672 B( 15-C , 16-C ) :   1.2789 B( 15-C , 74-H ) :   0.9050
B( 16-C , 17-C ) :   1.4134 B( 16-C , 21-S ) :   1.0343 B( 17-C , 18-C ) :   1.3294
B( 17-C , 75-H ) :   0.9265 B( 18-C , 19-C ) :   1.0382 B( 18-C , 27-C ) :   1.2859
B( 19-C , 20-C ) :   1.5858 B( 19-C , 22-C ) :   1.1993 B( 20-C , 21-S ) :   1.1635
B( 20-C , 76-H ) :   0.9427 B( 22-C , 23-C ) :   1.4078 B( 22-C , 26-S ) :   1.0885
B( 23-C , 24-C ) :   1.2096 B( 23-C , 27-C ) :   1.1330 B( 24-C , 25-C ) :   1.6033
B( 24-C , 77-H ) :   0.9976 B( 25-C , 26-S ) :   1.1398 B( 25-C , 78-H ) :   0.9660
B( 27-C , 28-C ) :   1.2088 B( 28-C , 29-C ) :   1.5407 B( 28-C , 79-H ) :   0.9639
B( 29-C , 30-C ) :   1.2424 B( 29-C , 80-H ) :   0.9637 B( 30-C , 31-S ) :   1.0978
B( 30-C , 32-C ) :   0.1061 B( 30-C , 34-C ) :   1.3310 B( 31-S , 32-C ) :   1.1219
B( 32-C , 33-C ) :   1.5183 B( 32-C , 42-C ) :   1.1580 B( 33-C , 34-C ) :   1.2558
B( 33-C , 41-S ) :   1.0533 B( 34-C , 35-C ) :   1.1540 B( 35-C , 36-C ) :   1.5923
B( 35-C , 81-H ) :   0.9953 B( 36-C , 37-C ) :   0.9731 B( 36-C , 41-S ) :   1.0599
B( 37-C , 38-O ) :   2.1335 B( 37-C , 39-O ) :   1.2256 B( 39-O , 40-C ) :   0.9159
B( 40-C , 82-H ) :   0.9808 B( 40-C , 83-H ) :   0.9758 B( 40-C , 84-H ) :   0.9702
B( 42-C , 43-C ) :   1.5480 B( 42-C , 56-S ) :   1.0484 B( 43-C , 44-C ) :   1.1911
B( 43-C , 85-H ) :   0.9845 B( 44-C , 45-C ) :   1.3143 B( 44-C , 55-C ) :   1.2681
B( 45-C , 46-C ) :   0.9924 B( 45-C , 52-C ) :   1.3917 B( 46-C , 47-C ) :   1.5658
B( 46-C , 49-C ) :   0.1044 B( 46-C , 50-S ) :   1.1285 B( 47-C , 48-C ) :   1.2243
B( 47-C , 86-H ) :   0.9984 B( 48-C , 49-C ) :   1.6025 B( 48-C , 87-H ) :   0.9948
B( 49-C , 50-S ) :   1.1341 B( 49-C , 51-C ) :   1.0669 B( 51-C , 88-H ) :   0.9568
B( 51-C , 89-H ) :   0.9513 B( 51-C , 90-H ) :   0.9510 B( 52-C , 53-C ) :   1.2736
B( 52-C , 65-S ) :   1.0645 B( 53-C , 54-C ) :   1.2882 B( 53-C , 63-C ) :   1.1944
B( 54-C , 55-C ) :   1.4294 B( 54-C , 57-C ) :   0.9835 B( 55-C , 56-S ) :   1.0519
B( 57-C , 58-C ) :   1.5785 B( 57-C , 60-C ) :   0.1027 B( 57-C , 61-S ) :   1.1255
B( 58-C , 59-C ) :   1.2214 B( 58-C , 91-H ) :   0.9877 B( 59-C , 60-C ) :   1.6106
B( 59-C , 92-H ) :   0.9946 B( 60-C , 61-S ) :   1.1326 B( 60-C , 62-C ) :   1.0660
B( 62-C , 93-H ) :   0.9568 B( 62-C , 94-H ) :   0.9511 B( 62-C , 95-H ) :   0.9514
B( 63-C , 64-C ) :   1.5850 B( 63-C , 96-H ) :   0.9728 B( 64-C , 65-S ) :   1.0639
B( 64-C , 66-C ) :   1.0815 B( 66-C , 67-C ) :   1.7381 B( 66-C , 69-C ) :   0.1006
B( 66-C , 97-H ) :   0.9645 B( 67-C , 68-C ) :   1.1130 B( 67-C , 98-H ) :   0.9707
B( 68-C , 69-C ) :   1.8986 B( 68-C , 99-H ) :   0.9763 B( 69-C ,100-H ) :   0.9577
B( 69-C ,101-H ) :   0.9519

-----------------------------------------------------------------------------
         ABSORPTION SPECTRUM VIA TRANSITION ELECTRIC DIPOLE MOMENTS
-----------------------------------------------------------------------------
State   Energy  Wavelength   fosc         T2         TX        TY        TZ
        (cm-1)    (nm)                  (au**2)     (au)      (au)      (au)
-----------------------------------------------------------------------------
   0   10334.1    967.7   0.707147361  22.52739  -3.03439  -2.57844  -2.58292
   1   17656.4    566.4   0.283213758   5.28066   0.33638  -0.88215   2.09507
   2   18793.4    532.1   0.413805040   7.24882  -1.34938  -0.40730  -2.29393
   3   20803.2    480.7   0.257318054   4.07207   0.10577  -1.04609   1.72238
   4   21855.6    457.5   0.091919136   1.38458  -0.34281  -0.18700  -1.11000
   5   22480.8    444.8   0.525701169   7.69845  -0.64837   0.78044  -2.58244
   6   23902.3    418.4   0.172118757   2.37063   0.33584   1.36744  -0.62285
   7   24723.5    404.5   0.222102089   2.95746  -1.00974  -0.99034  -0.97833
   8   25684.4    389.3   0.069383469   0.88933   0.38269   0.68567   0.52224
   9   26106.5    383.0   0.086940627   1.09635   0.29890   1.00080  -0.07357
  10   27208.3    367.5   0.068205152   0.82526  -0.05226   0.17512  -0.88987
  11   27990.5    357.3   0.115656336   1.36030  -0.22384  -1.14075   0.09429
  12   28130.3    355.5   0.158174098   1.85113   0.31828   1.31178  -0.17046
  13   29363.8    340.6   0.008655890   0.09705   0.03648   0.09968   0.29288
  14   29850.8    335.0   0.061140560   0.67429  -0.27632   0.38097  -0.67290
  15   29888.2    334.6   0.045950429   0.50613   0.24188   0.57960   0.33421
  16   30330.0    329.7   0.004882553   0.05300  -0.20051  -0.10919   0.02946
  17   30368.4    329.3   0.287677645   3.11860   0.40820   1.71599  -0.08577
  18   30757.7    325.1   0.163862488   1.75388  -0.06644  -1.01159   0.85215
  19   31187.6    320.6   0.064850664   0.68455  -0.24522  -0.72219  -0.32072
  20   31445.5    318.0   0.098507275   1.03130   0.06197   0.98305  -0.24713
  21   31910.4    313.4   0.355636891   3.66902  -0.54531  -1.81716  -0.26378
  22   32113.2    311.4   0.013394708   0.13732   0.18541   0.25837  -0.19022
  23   32473.9    307.9   0.106424665   1.07890   0.41344   0.25585   0.91788
  24   32954.9    303.4   0.274890191   2.74609  -0.97871  -1.14949  -0.68328
  25   33488.2    298.6   0.154151248   1.51541  -0.43958  -1.14986   0.00072
  26   33738.5    296.4   0.020262054   0.19771  -0.11310  -0.42619   0.05729
  27   34264.7    291.8   0.104995002   1.00878  -0.11202  -0.52624   0.84812
  28   34348.3    291.1   0.049771745   0.47704   0.11290  -0.30959   0.60700
  29   34816.8    287.2   0.161163760   1.52389  -0.11641   0.32171  -1.18610
  30   35461.3    282.0   0.101874477   0.94577  -0.48478  -0.57946  -0.61236
  31   35661.5    280.4   0.005433405   0.05016   0.21355   0.06212   0.02641
  32   35899.4    278.6   0.076309181   0.69979   0.34957   0.69027   0.31799
  33   35950.9    278.2   0.001249301   0.01144   0.04838   0.08785  -0.03718
  34   36210.2    276.2   0.007541406   0.06856  -0.06030   0.00753  -0.25470
  35   36337.4    275.2   0.158859972   1.43925  -0.23693  -1.03143   0.56503
  36   36549.5    273.6   0.015165505   0.13660  -0.11028  -0.33881   0.09821
  37   36683.4    272.6   0.080408938   0.72162   0.00012   0.17023  -0.83225
  38   36899.9    271.0   0.373225792   3.32983  -0.38845  -0.37551  -1.74297
  39   37348.1    267.8   0.065539197   0.57771  -0.13462  -0.71018  -0.23502
  40   37378.3    267.5   0.041999432   0.36991   0.23187   0.54610   0.13387
  41   37692.0    265.3   0.070482045   0.61561   0.07871  -0.25481   0.73789
  42   37858.9    264.1   0.038123359   0.33151  -0.03717  -0.28855   0.49686
  43   37927.7    263.7   0.005675343   0.04926  -0.02128   0.03065  -0.21879
  44   38377.1    260.6   0.098412850   0.84422  -0.35589  -0.84333  -0.07969
  45   38470.4    259.9   0.071962186   0.61582  -0.38078  -0.67789  -0.10622
  46   38527.2    259.6   0.042939831   0.36692  -0.22876  -0.44916   0.33593
  47   39046.7    256.1   0.039271489   0.33111   0.05551   0.54032  -0.18996
  48   39606.7    252.5   0.479483012   3.98548   0.53842   1.92170  -0.05154
  49   39852.2    250.9   0.027939630   0.23080   0.25130   0.40680   0.04660
  50   39954.5    250.3   0.008918323   0.07348  -0.14438  -0.22421  -0.04866
  51   40044.4    249.7   0.088862523   0.73055  -0.52977  -0.60963  -0.27973

FINAL SINGLE POINT ENERGY     -6067.795445094542

DIPOLE MOMENT
-------------
                                X             Y             Z
Electronic contribution:     33.32631      27.23649      46.93609
Nuclear contribution   :    -34.40114     -30.15606     -47.40316
                        -----------------------------------------
Total Dipole Moment    :     -1.07483      -2.91958      -0.46707
                        -----------------------------------------
Magnitude (a.u.)       :      3.14600
Magnitude (Debye)      :      7.99650

Rotational constants in cm-1:     0.001211     0.000380     0.000296
Rotational constants in MHz :    36.306061    11.393848     8.882381

                             ****ORCA TERMINATED NORMALLY****
TOTAL RUN TIME: 0 days 0 hours 19 minutes 45 seconds 393 msec
