                         Program Version 4.2.0 -  RELEASE  -
|  1> # ORCA input file
|  2> # SCF done       -145.413904039804          0.000438501119
|  3> ! CAM-B3LYP def2-SVP def2/J RIJCOSX Grid4 TightSCF
|  4> %maxcore 5000
|  5> %tddft
|  6>     Mode sTDDFT
|  7>     Ethresh 5.0
|  8>     maxcore 5000
|  9> end
| 10>
| 11> %pal
| 12>   nprocs 6
| 13>   end
| 14> * xyz 0 1
| 15>    C        1.39835        -8.05891         2.99337
| 16>    O        0.35184        -7.78193         3.56669
| 17>    C        2.74311        -7.91724         3.59163
| 18>    C        3.70082        -8.47065         2.72645
| 19>    C        5.03835        -8.45177         3.08900
| 20>    C        5.39813        -7.86851         4.29759
| 21>    C        4.43545        -7.31663         5.12888
| 22>    C        3.08766        -7.33998         4.79468
| 23>   Br        4.95727        -6.49451         6.76432
| 24>    C        3.01049        -8.95376         1.52911
| 25>    C        3.63420        -9.48267         0.42459
| 26>    C        5.02077        -9.72036         0.34305
| 27>    N        6.14031        -9.94380         0.21634
| 28>    C        3.00374        -9.83104        -0.78708
| 29>    N        2.57752       -10.11139        -1.81686
| 30>    C        1.60089        -8.67725         1.68418
| 31>    C        0.62656        -9.08552         0.78236
| 32>    C       -0.68905        -8.63236         0.64071
| 33>    C       -1.18313        -7.44313         1.16249
| 34>    C       -2.45937        -6.95880         0.97036
| 35>    C       -3.38464        -7.58163         0.01518
| 36>    C       -3.13075        -8.74852        -0.61866
| 37>    S       -1.69646        -9.66163        -0.39546
| 38>    C       -4.48392        -6.68541        -0.07599
| 39>    C       -4.28114        -5.58989         0.77389
| 40>    C       -5.35844        -4.67520         0.72943
| 41>    C       -6.32302        -5.08328        -0.13312
| 42>    S       -5.97448        -6.59016        -0.92024
| 43>    C       -3.04604        -5.76201         1.47386
| 44>    C       -2.53473        -4.94867         2.50674
| 45>    C       -1.66587        -5.43556         3.44058
| 46>    C       -0.95059        -4.73782         4.43087
| 47>    N       -0.11995        -5.46370         5.25981
| 48>    C        0.52505        -4.60700         6.08538
| 49>    C        1.44588        -4.52392         7.11933
| 50>    C        1.55534        -3.15958         7.43501
| 51>    N        0.72173        -2.43012         6.60826
| 52>    C        0.06939        -3.28838         5.78085
| 53>    C       -0.85225        -3.36950         4.74959
| 54>    C        2.34676        -2.52618         8.41876
| 55>    C        3.07053        -3.18632         9.36302
| 56>    C        3.82414        -2.55959        10.37935
| 57>    C        4.18379        -1.14158        10.50506
| 58>    N        4.86207        -0.84783        11.57387
| 59>    C        5.00355        -2.02850        12.25384
| 60>    C        4.38237        -3.12701        11.51010
| 61>    C        4.48816        -4.35105        12.25423
| 62>    S        3.92641        -5.84099        11.83315
| 63>    C        5.17101        -3.97028        13.46614
| 64>    C        5.48606        -2.53589        13.43367
| 65>    N        6.10071        -2.15387        14.59356
| 66>    C        6.16237        -3.22827        15.32463
| 67>    C        5.58426        -4.42536        14.69875
| 68>    C        5.45824        -5.72906        15.25160
| 69>    C        5.82446        -6.08054        16.50343
| 70>    C        5.64981        -7.40373        17.02688
| 71>    C        5.98325        -7.75251        18.27083
| 72>    H        5.80354        -8.87537         2.45986
| 73>    H        6.43657        -7.84323         4.59011
| 74>    H        2.34376        -6.91292         5.44809
| 75>    H        0.91455        -9.86398         0.08597
| 76>    H       -0.47855        -6.83148         1.70187
| 77>    H       -3.82807        -9.19878        -1.30756
| 78>    H       -5.41588        -3.76640         1.30024
| 79>    H       -7.24634        -4.59101        -0.36824
| 80>    H       -2.88765        -3.92829         2.56672
| 81>    H       -1.48728        -6.50143         3.44911
| 82>    H        0.03914        -6.45336         5.12044
| 83>    H        1.98614        -5.31485         7.59795
| 84>    H        0.60608        -1.43234         6.65391
| 85>    H       -1.39366        -2.57647         4.27476
| 86>    H        2.32986        -1.44358         8.42356
| 87>    H        3.05106        -4.26648         9.39159
| 88>    H        3.95155        -0.37204         9.78923
| 89>    H        6.61574        -3.18932        16.29951
| 90>    H        5.01381        -6.47054        14.59917
| 91>    H        6.26437        -5.35006        17.16890
| 92>    H        5.21677        -8.13395        16.35543
| 93>    H        6.41355        -7.04292        18.95876
| 94>    H        5.83655        -8.75203        18.64134
| 95> *
| 96>
| 97>                          ****END OF INPUT****

CARTESIAN COORDINATES (ANGSTROEM)
---------------------------------
  C      1.398350   -8.058910    2.993370
  O      0.351840   -7.781930    3.566690
  C      2.743110   -7.917240    3.591630
  C      3.700820   -8.470650    2.726450
  C      5.038350   -8.451770    3.089000
  C      5.398130   -7.868510    4.297590
  C      4.435450   -7.316630    5.128880
  C      3.087660   -7.339980    4.794680
  Br     4.957270   -6.494510    6.764320
  C      3.010490   -8.953760    1.529110
  C      3.634200   -9.482670    0.424590
  C      5.020770   -9.720360    0.343050
  N      6.140310   -9.943800    0.216340
  C      3.003740   -9.831040   -0.787080
  N      2.577520  -10.111390   -1.816860
  C      1.600890   -8.677250    1.684180
  C      0.626560   -9.085520    0.782360
  C     -0.689050   -8.632360    0.640710
  C     -1.183130   -7.443130    1.162490
  C     -2.459370   -6.958800    0.970360
  C     -3.384640   -7.581630    0.015180
  C     -3.130750   -8.748520   -0.618660
  S     -1.696460   -9.661630   -0.395460
  C     -4.483920   -6.685410   -0.075990
  C     -4.281140   -5.589890    0.773890
  C     -5.358440   -4.675200    0.729430
  C     -6.323020   -5.083280   -0.133120
  S     -5.974480   -6.590160   -0.920240
  C     -3.046040   -5.762010    1.473860
  C     -2.534730   -4.948670    2.506740
  C     -1.665870   -5.435560    3.440580
  C     -0.950590   -4.737820    4.430870
  N     -0.119950   -5.463700    5.259810
  C      0.525050   -4.607000    6.085380
  C      1.445880   -4.523920    7.119330
  C      1.555340   -3.159580    7.435010
  N      0.721730   -2.430120    6.608260
  C      0.069390   -3.288380    5.780850
  C     -0.852250   -3.369500    4.749590
  C      2.346760   -2.526180    8.418760
  C      3.070530   -3.186320    9.363020
  C      3.824140   -2.559590   10.379350
  C      4.183790   -1.141580   10.505060
  N      4.862070   -0.847830   11.573870
  C      5.003550   -2.028500   12.253840
  C      4.382370   -3.127010   11.510100
  C      4.488160   -4.351050   12.254230
  S      3.926410   -5.840990   11.833150
  C      5.171010   -3.970280   13.466140
  C      5.486060   -2.535890   13.433670
  N      6.100710   -2.153870   14.593560
  C      6.162370   -3.228270   15.324630
  C      5.584260   -4.425360   14.698750
  C      5.458240   -5.729060   15.251600
  C      5.824460   -6.080540   16.503430
  C      5.649810   -7.403730   17.026880
  C      5.983250   -7.752510   18.270830
  H      5.803540   -8.875370    2.459860
  H      6.436570   -7.843230    4.590110
  H      2.343760   -6.912920    5.448090
  H      0.914550   -9.863980    0.085970
  H     -0.478550   -6.831480    1.701870
  H     -3.828070   -9.198780   -1.307560
  H     -5.415880   -3.766400    1.300240
  H     -7.246340   -4.591010   -0.368240
  H     -2.887650   -3.928290    2.566720
  H     -1.487280   -6.501430    3.449110
  H      0.039140   -6.453360    5.120440
  H      1.986140   -5.314850    7.597950
  H      0.606080   -1.432340    6.653910
  H     -1.393660   -2.576470    4.274760
  H      2.329860   -1.443580    8.423560
  H      3.051060   -4.266480    9.391590
  H      3.951550   -0.372040    9.789230
  H      6.615740   -3.189320   16.299510
  H      5.013810   -6.470540   14.599170
  H      6.264370   -5.350060   17.168900
  H      5.216770   -8.133950   16.355430
  H      6.413550   -7.042920   18.958760
  H      5.836550   -8.752030   18.641340

 Total Charge           Charge          ....    0
 Multiplicity           Mult            ....    1
 Number of Electrons    NEL             ....  432
 Basis Dimension        Dim             ....  943

ORBITAL ENERGIES
----------------

  NO   OCC          E(Eh)            E(eV)
   0   2.0000    -482.870646    -13139.5783
   1   2.0000     -88.970945     -2421.0225
   2   2.0000     -88.969515     -2420.9836
   3   2.0000     -88.888701     -2418.7845
   4   2.0000     -62.548115     -1702.0207
   5   2.0000     -56.381981     -1534.2317
   6   2.0000     -56.379466     -1534.1633
   7   2.0000     -56.379365     -1534.1605
   8   2.0000     -19.223520      -523.0986
   9   2.0000     -14.466140      -393.6437
  10   2.0000     -14.454267      -393.3206
  11   2.0000     -14.409934      -392.1142
  12   2.0000     -14.408450      -392.0739
  13   2.0000     -14.407082      -392.0366
  14   2.0000     -14.406990      -392.0341
  15   2.0000     -10.372345      -282.2459
  16   2.0000     -10.341474      -281.4058
  17   2.0000     -10.334959      -281.2285
  18   2.0000     -10.333701      -281.1943
  19   2.0000     -10.333079      -281.1774
  20   2.0000     -10.329650      -281.0841
  21   2.0000     -10.328009      -281.0394
  22   2.0000     -10.324209      -280.9360
  23   2.0000     -10.319586      -280.8102
  24   2.0000     -10.319462      -280.8068
  25   2.0000     -10.317522      -280.7540
  26   2.0000     -10.317219      -280.7458
  27   2.0000     -10.315571      -280.7010
  28   2.0000     -10.311890      -280.6008
  29   2.0000     -10.311013      -280.5769
  30   2.0000     -10.310745      -280.5696
  31   2.0000     -10.310365      -280.5593
  32   2.0000     -10.308250      -280.5018
  33   2.0000     -10.307118      -280.4709
  34   2.0000     -10.305427      -280.4249
  35   2.0000     -10.303744      -280.3791
  36   2.0000     -10.303221      -280.3649
  37   2.0000     -10.302871      -280.3554
  38   2.0000     -10.302233      -280.3380
  39   2.0000     -10.300918      -280.3022
  40   2.0000     -10.299739      -280.2702
  41   2.0000     -10.297938      -280.2212
  42   2.0000     -10.296363      -280.1783
  43   2.0000     -10.296169      -280.1730
  44   2.0000     -10.295947      -280.1670
  45   2.0000     -10.294421      -280.1254
  46   2.0000     -10.291676      -280.0508
  47   2.0000     -10.290266      -280.0124
  48   2.0000     -10.288766      -279.9716
  49   2.0000     -10.287779      -279.9447
  50   2.0000     -10.286295      -279.9043
  51   2.0000     -10.283553      -279.8297
  52   2.0000     -10.283074      -279.8167
  53   2.0000     -10.281942      -279.7859
  54   2.0000     -10.280400      -279.7439
  55   2.0000     -10.278377      -279.6889
  56   2.0000     -10.278083      -279.6808
  57   2.0000     -10.275457      -279.6094
  58   2.0000     -10.274467      -279.5825
  59   2.0000     -10.270679      -279.4794
  60   2.0000     -10.270465      -279.4736
  61   2.0000      -8.777312      -238.8428
  62   2.0000      -8.066452      -219.4993
  63   2.0000      -8.065040      -219.4609
  64   2.0000      -7.984128      -217.2592
  65   2.0000      -6.613116      -179.9520
  66   2.0000      -6.599350      -179.5774
  67   2.0000      -6.599095      -179.5705
  68   2.0000      -6.036102      -164.2507
  69   2.0000      -6.034492      -164.2069
  70   2.0000      -6.031649      -164.1295
  71   2.0000      -6.030173      -164.0893
  72   2.0000      -6.028013      -164.0306
  73   2.0000      -6.027054      -164.0045
  74   2.0000      -5.952947      -161.9879
  75   2.0000      -5.952432      -161.9739
  76   2.0000      -5.943769      -161.7382
  77   2.0000      -2.729056       -74.2614
  78   2.0000      -2.725250       -74.1578
  79   2.0000      -2.725049       -74.1524
  80   2.0000      -2.714121       -73.8550
  81   2.0000      -2.714100       -73.8544
  82   2.0000      -1.134859       -30.8811
  83   2.0000      -1.095842       -29.8194
  84   2.0000      -1.073470       -29.2106
  85   2.0000      -1.058587       -28.8056
  86   2.0000      -1.054772       -28.7018
  87   2.0000      -1.017320       -27.6827
  88   2.0000      -1.013883       -27.5892
  89   2.0000      -0.996612       -27.1192
  90   2.0000      -0.986562       -26.8457
  91   2.0000      -0.978953       -26.6387
  92   2.0000      -0.959541       -26.1104
  93   2.0000      -0.952033       -25.9061
  94   2.0000      -0.939701       -25.5706
  95   2.0000      -0.916550       -24.9406
  96   2.0000      -0.915023       -24.8991
  97   2.0000      -0.914420       -24.8826
  98   2.0000      -0.904571       -24.6146
  99   2.0000      -0.895469       -24.3669
 100   2.0000      -0.885273       -24.0895
 101   2.0000      -0.875885       -23.8340
 102   2.0000      -0.871639       -23.7185
 103   2.0000      -0.869534       -23.6612
 104   2.0000      -0.860429       -23.4135
 105   2.0000      -0.856039       -23.2940
 106   2.0000      -0.848336       -23.0844
 107   2.0000      -0.844611       -22.9830
 108   2.0000      -0.836360       -22.7585
 109   2.0000      -0.816259       -22.2115
 110   2.0000      -0.810674       -22.0596
 111   2.0000      -0.804623       -21.8949
 112   2.0000      -0.781461       -21.2646
 113   2.0000      -0.771196       -20.9853
 114   2.0000      -0.764539       -20.8042
 115   2.0000      -0.757548       -20.6139
 116   2.0000      -0.747835       -20.3496
 117   2.0000      -0.730507       -19.8781
 118   2.0000      -0.725989       -19.7552
 119   2.0000      -0.707863       -19.2619
 120   2.0000      -0.700910       -19.0727
 121   2.0000      -0.697035       -18.9673
 122   2.0000      -0.692934       -18.8557
 123   2.0000      -0.692324       -18.8391
 124   2.0000      -0.689502       -18.7623
 125   2.0000      -0.682899       -18.5826
 126   2.0000      -0.672412       -18.2973
 127   2.0000      -0.667431       -18.1617
 128   2.0000      -0.657121       -17.8812
 129   2.0000      -0.648203       -17.6385
 130   2.0000      -0.645188       -17.5564
 131   2.0000      -0.638108       -17.3638
 132   2.0000      -0.634701       -17.2711
 133   2.0000      -0.624275       -16.9874
 134   2.0000      -0.619096       -16.8465
 135   2.0000      -0.613667       -16.6987
 136   2.0000      -0.606428       -16.5017
 137   2.0000      -0.596418       -16.2294
 138   2.0000      -0.591106       -16.0848
 139   2.0000      -0.585281       -15.9263
 140   2.0000      -0.579531       -15.7698
 141   2.0000      -0.572777       -15.5861
 142   2.0000      -0.570107       -15.5134
 143   2.0000      -0.566547       -15.4165
 144   2.0000      -0.563412       -15.3312
 145   2.0000      -0.554854       -15.0983
 146   2.0000      -0.550312       -14.9748
 147   2.0000      -0.546421       -14.8689
 148   2.0000      -0.544180       -14.8079
 149   2.0000      -0.539101       -14.6697
 150   2.0000      -0.537697       -14.6315
 151   2.0000      -0.533792       -14.5252
 152   2.0000      -0.533324       -14.5125
 153   2.0000      -0.531145       -14.4532
 154   2.0000      -0.529104       -14.3976
 155   2.0000      -0.525805       -14.3079
 156   2.0000      -0.522948       -14.2301
 157   2.0000      -0.519891       -14.1470
 158   2.0000      -0.517469       -14.0810
 159   2.0000      -0.513598       -13.9757
 160   2.0000      -0.506383       -13.7794
 161   2.0000      -0.503940       -13.7129
 162   2.0000      -0.497238       -13.5305
 163   2.0000      -0.491669       -13.3790
 164   2.0000      -0.490071       -13.3355
 165   2.0000      -0.486012       -13.2251
 166   2.0000      -0.484461       -13.1828
 167   2.0000      -0.480818       -13.0837
 168   2.0000      -0.478231       -13.0133
 169   2.0000      -0.476863       -12.9761
 170   2.0000      -0.472524       -12.8580
 171   2.0000      -0.470113       -12.7924
 172   2.0000      -0.465290       -12.6612
 173   2.0000      -0.463732       -12.6188
 174   2.0000      -0.462455       -12.5840
 175   2.0000      -0.457304       -12.4439
 176   2.0000      -0.455918       -12.4062
 177   2.0000      -0.449381       -12.2283
 178   2.0000      -0.449188       -12.2230
 179   2.0000      -0.447202       -12.1690
 180   2.0000      -0.441810       -12.0223
 181   2.0000      -0.438564       -11.9339
 182   2.0000      -0.436664       -11.8822
 183   2.0000      -0.434287       -11.8175
 184   2.0000      -0.433754       -11.8030
 185   2.0000      -0.426183       -11.5970
 186   2.0000      -0.424061       -11.5393
 187   2.0000      -0.421655       -11.4738
 188   2.0000      -0.420770       -11.4497
 189   2.0000      -0.419367       -11.4116
 190   2.0000      -0.416708       -11.3392
 191   2.0000      -0.414554       -11.2806
 192   2.0000      -0.413215       -11.2442
 193   2.0000      -0.407070       -11.0769
 194   2.0000      -0.401944       -10.9374
 195   2.0000      -0.401037       -10.9128
 196   2.0000      -0.381497       -10.3811
 197   2.0000      -0.374166       -10.1816
 198   2.0000      -0.365992        -9.9592
 199   2.0000      -0.355372        -9.6702
 200   2.0000      -0.352523        -9.5926
 201   2.0000      -0.350399        -9.5348
 202   2.0000      -0.347878        -9.4662
 203   2.0000      -0.347282        -9.4500
 204   2.0000      -0.344076        -9.3628
 205   2.0000      -0.340864        -9.2754
 206   2.0000      -0.324550        -8.8314
 207   2.0000      -0.311498        -8.4763
 208   2.0000      -0.304458        -8.2847
 209   2.0000      -0.303120        -8.2483
 210   2.0000      -0.294314        -8.0087
 211   2.0000      -0.285314        -7.7638
 212   2.0000      -0.278205        -7.5703
 213   2.0000      -0.270098        -7.3497
 214   2.0000      -0.254562        -6.9270
 215   2.0000      -0.216471        -5.8905
 216   0.0000      -0.107983        -2.9384
 217   0.0000      -0.096164        -2.6167
 218   0.0000      -0.074693        -2.0325
 219   0.0000      -0.067542        -1.8379
 220   0.0000      -0.047318        -1.2876

MULLIKEN ATOMIC CHARGES
-----------------------
   0 C :    0.169823
   1 O :   -0.222150
   2 C :    0.000242
   3 C :    0.030127
   4 C :   -0.027579
   5 C :    0.039871
   6 C :   -0.003513
   7 C :   -0.011263
   8 Br:   -0.014373
   9 C :    0.305258
  10 C :   -0.354645
  11 C :   -0.186758
  12 N :    0.143526
  13 C :   -0.211051
  14 N :    0.157166
  15 C :   -0.121534
  16 C :    0.047341
  17 C :   -0.120790
  18 C :    0.020074
  19 C :   -0.004275
  20 C :    0.067259
  21 C :   -0.124519
  22 S :    0.138768
  23 C :   -0.094183
  24 C :    0.048990
  25 C :    0.021444
  26 C :   -0.068168
  27 S :    0.142845
  28 C :    0.103638
  29 C :   -0.042220
  30 C :   -0.019038
  31 C :    0.092326
  32 N :   -0.038148
  33 C :    0.124877
  34 C :   -0.162271
  35 C :    0.100461
  36 N :   -0.036063
  37 C :    0.117491
  38 C :   -0.160491
  39 C :    0.013796
  40 C :   -0.038235
  41 C :    0.011322
  42 C :    0.050701
  43 N :   -0.033939
  44 C :    0.006938
  45 C :   -0.005724
  46 C :   -0.004025
  47 S :   -0.154116
  48 C :    0.000857
  49 C :    0.007321
  50 N :   -0.031574
  51 C :    0.051380
  52 C :   -0.001178
  53 C :   -0.020059
  54 C :    0.019059
  55 C :    0.004418
  56 C :   -0.008185
  57 H :    0.008373
  58 H :    0.005002
  59 H :   -0.042769
  60 H :    0.027098
  61 H :    0.011044
  62 H :    0.039401
  63 H :   -0.013782
  64 H :    0.031316
  65 H :   -0.019426
  66 H :    0.024733
  67 H :    0.136764
  68 H :   -0.016521
  69 H :    0.122068
  70 H :   -0.035266
  71 H :   -0.029426
  72 H :   -0.002933
  73 H :    0.002376
  74 H :    0.003576
  75 H :   -0.004728
  76 H :   -0.011555
  77 H :    0.001260
  78 H :    0.018109
  79 H :    0.028031
Sum of atomic charges:    0.0000000

LOEWDIN ATOMIC CHARGES
----------------------
   0 C :    0.089012
   1 O :   -0.182553
   2 C :   -0.036467
   3 C :   -0.012854
   4 C :    0.007546
   5 C :   -0.015222
   6 C :   -0.098881
   7 C :   -0.010783
   8 Br:    0.120104
   9 C :    0.074337
  10 C :   -0.148703
  11 C :   -0.019107
  12 N :   -0.060249
  13 C :   -0.026498
  14 N :   -0.056121
  15 C :   -0.127532
  16 C :    0.044339
  17 C :   -0.196130
  18 C :    0.049790
  19 C :   -0.040943
  20 C :   -0.065203
  21 C :   -0.130655
  22 S :    0.443641
  23 C :   -0.174197
  24 C :   -0.051514
  25 C :   -0.055552
  26 C :   -0.160876
  27 S :    0.433424
  28 C :    0.007730
  29 C :   -0.040902
  30 C :   -0.003267
  31 C :   -0.000300
  32 N :    0.078533
  33 C :   -0.010270
  34 C :   -0.081239
  35 C :    0.003990
  36 N :    0.067635
  37 C :   -0.012663
  38 C :   -0.083956
  39 C :   -0.016549
  40 C :   -0.019130
  41 C :   -0.036397
  42 C :    0.079851
  43 N :   -0.078966
  44 C :    0.034993
  45 C :   -0.054268
  46 C :   -0.138516
  47 S :    0.020229
  48 C :   -0.042592
  49 C :    0.029082
  50 N :   -0.080635
  51 C :    0.080474
  52 C :   -0.034312
  53 C :   -0.021052
  54 C :   -0.002502
  55 C :   -0.025445
  56 C :   -0.029823
  57 H :    0.043033
  58 H :    0.040339
  59 H :    0.033792
  60 H :    0.040916
  61 H :    0.045236
  62 H :    0.037797
  63 H :    0.032919
  64 H :    0.025581
  65 H :    0.028211
  66 H :    0.037448
  67 H :    0.074847
  68 H :    0.024622
  69 H :    0.089553
  70 H :    0.024523
  71 H :    0.025761
  72 H :    0.030958
  73 H :    0.020418
  74 H :    0.021678
  75 H :    0.031418
  76 H :    0.025797
  77 H :    0.032927
  78 H :    0.023172
  79 H :    0.027167

  Mayer bond orders larger than 0.100000
B(  0-C ,  1-O ) :   2.0256 B(  0-C ,  2-C ) :   0.9400 B(  0-C , 15-C ) :   1.0430
B(  2-C ,  3-C ) :   1.3313 B(  2-C ,  7-C ) :   1.3785 B(  3-C ,  4-C ) :   1.3798
B(  3-C ,  9-C ) :   0.9728 B(  4-C ,  5-C ) :   1.3666 B(  4-C , 57-H ) :   0.9840
B(  5-C ,  6-C ) :   1.4005 B(  5-C , 58-H ) :   0.9856 B(  6-C ,  7-C ) :   1.3417
B(  6-C ,  8-Br) :   0.9990 B(  7-C , 59-H ) :   1.0064 B(  9-C , 10-C ) :   1.6042
B(  9-C , 15-C ) :   1.1293 B( 10-C , 11-C ) :   1.1483 B( 10-C , 13-C ) :   1.1426
B( 11-C , 12-N ) :   2.9703 B( 13-C , 14-N ) :   2.9900 B( 15-C , 16-C ) :   1.4206
B( 16-C , 17-C ) :   1.3149 B( 16-C , 60-H ) :   0.9282 B( 17-C , 18-C ) :   1.3756
B( 17-C , 22-S ) :   1.0201 B( 18-C , 19-C ) :   1.3930 B( 18-C , 61-H ) :   0.9579
B( 19-C , 20-C ) :   1.0376 B( 19-C , 28-C ) :   1.2637 B( 20-C , 21-C ) :   1.6009
B( 20-C , 23-C ) :   1.1890 B( 21-C , 22-S ) :   1.1533 B( 21-C , 62-H ) :   0.9435
B( 23-C , 24-C ) :   1.4050 B( 23-C , 27-S ) :   1.0986 B( 24-C , 25-C ) :   1.2075
B( 24-C , 28-C ) :   1.1330 B( 25-C , 26-C ) :   1.6053 B( 25-C , 63-H ) :   0.9993
B( 26-C , 27-S ) :   1.1369 B( 26-C , 64-H ) :   0.9663 B( 28-C , 29-C ) :   1.2221
B( 29-C , 30-C ) :   1.5546 B( 29-C , 65-H ) :   0.9653 B( 30-C , 31-C ) :   1.1591
B( 30-C , 66-H ) :   0.9537 B( 31-C , 32-N ) :   1.1882 B( 31-C , 38-C ) :   1.3519
B( 32-N , 33-C ) :   1.1882 B( 32-N , 67-H ) :   0.8993 B( 33-C , 34-C ) :   1.2687
B( 33-C , 37-C ) :   1.2683 B( 34-C , 35-C ) :   1.3865 B( 34-C , 68-H ) :   1.0251
B( 35-C , 36-N ) :   1.1635 B( 35-C , 39-C ) :   1.1336 B( 36-N , 37-C ) :   1.1634
B( 36-N , 69-H ) :   0.9364 B( 37-C , 38-C ) :   1.2970 B( 38-C , 70-H ) :   1.0331
B( 39-C , 40-C ) :   1.6011 B( 39-C , 71-H ) :   0.9651 B( 40-C , 41-C ) :   1.1464
B( 40-C , 72-H ) :   0.9723 B( 41-C , 42-C ) :   1.0066 B( 41-C , 45-C ) :   1.4683
B( 42-C , 43-N ) :   1.7492 B( 42-C , 73-H ) :   0.9875 B( 43-N , 44-C ) :   1.2452
B( 44-C , 45-C ) :   1.0796 B( 44-C , 49-C ) :   1.5215 B( 45-C , 46-C ) :   1.0540
B( 46-C , 47-S ) :   1.6654 B( 46-C , 48-C ) :   1.0320 B( 48-C , 49-C ) :   1.0782
B( 48-C , 52-C ) :   1.5164 B( 49-C , 50-N ) :   1.2539 B( 50-N , 51-C ) :   1.7413
B( 51-C , 52-C ) :   1.0103 B( 51-C , 74-H ) :   0.9885 B( 52-C , 53-C ) :   1.1037
B( 53-C , 54-C ) :   1.6702 B( 53-C , 75-H ) :   0.9738 B( 54-C , 55-C ) :   1.1157
B( 54-C , 76-H ) :   0.9725 B( 55-C , 56-C ) :   1.8919 B( 55-C , 77-H ) :   0.9771
B( 56-C , 78-H ) :   0.9583 B( 56-C , 79-H ) :   0.9519

-----------------------------------------------------------------------------
         ABSORPTION SPECTRUM VIA TRANSITION ELECTRIC DIPOLE MOMENTS
-----------------------------------------------------------------------------
State   Energy  Wavelength   fosc         T2         TX        TY        TZ
        (cm-1)    (nm)                  (au**2)     (au)      (au)      (au)
-----------------------------------------------------------------------------
   0    9466.9   1056.3   0.606155332  21.07910   0.29132   2.27655   3.97638
   1   12633.4    791.6   0.210209865   5.47783   1.75236  -0.77995   1.34117
   2   16456.8    607.7   0.027915530   0.55844   0.74045  -0.10078   0.00295
   3   16838.4    593.9   0.001348810   0.02637   0.09377  -0.07542   0.10905
   4   17370.2    575.7   0.555010838  10.51897  -2.01633  -0.00932  -2.54033
   5   17694.3    565.2   0.238252485   4.43282  -1.25141   0.78652  -1.49939
   6   18607.6    537.4   0.002475896   0.04380   0.20480  -0.04273   0.00592
   7   18813.1    531.5   0.608902764  10.65521   2.85011  -0.19741   1.57896
   8   20737.5    482.2   0.053406936   0.84785   0.05532  -0.85242  -0.34376
   9   21782.8    459.1   0.095242040   1.43943  -1.06675  -0.07129  -0.54442
  10   23496.0    425.6   0.051138466   0.71652   0.84615  -0.02142  -0.00915
  11   24465.1    408.7   0.008218169   0.11059  -0.13924  -0.24031  -0.18290
  12   24862.1    402.2   0.031308634   0.41457   0.40938  -0.04859  -0.49459
  13   25455.4    392.8   0.032956744   0.42623   0.05019   0.16083  -0.63075
  14   25650.1    389.9   0.472708940   6.06709   1.03880  -0.82838   2.07407
  15   26138.8    382.6   0.042190516   0.53138  -0.20142   0.09625  -0.69393
  16   26640.1    375.4   0.607137091   7.50286   2.03941   0.51212   1.75539
  17   26776.2    373.5   0.001551506   0.01908   0.04635  -0.12409  -0.03909
  18   27154.4    368.3   0.056582380   0.68599  -0.06085   0.53163  -0.63218
  19   27625.1    362.0   0.306511071   3.65273  -1.24172  -0.24943  -1.43131
  20   28499.2    350.9   0.013228123   0.15281   0.05303   0.33475  -0.19478
  21   28903.9    346.0   0.144349808   1.64413   0.03201   0.98543  -0.81977
  22   29210.9    342.3   0.003642479   0.04105   0.04417  -0.15480   0.12303
  23   29415.4    340.0   0.031503880   0.35259   0.14244  -0.38343   0.43044
  24   29599.9    337.8   0.022580927   0.25115   0.31520   0.09157  -0.37869
  25   29833.4    335.2   0.102414566   1.13015  -0.19972   0.62519  -0.83630
  26   31071.6    321.8   0.011689572   0.12385  -0.06402   0.29230   0.18524
  27   31340.8    319.1   0.129906737   1.36458  -0.10716   0.43525   1.07872
  28   31535.0    317.1   0.035143534   0.36688  -0.56714   0.03858  -0.20917
  29   32299.2    309.6   0.013901578   0.14169   0.34602  -0.14159   0.04375
  30   33120.9    301.9   0.076781235   0.76318  -0.08482  -0.47332  -0.72935
  31   33352.3    299.8   0.062055291   0.61253  -0.20063   0.22381   0.72263
  32   33605.5    297.6   0.149287110   1.46247   0.76215  -0.69665  -0.62950
  33   33612.1    297.5   0.035511552   0.34782   0.09205  -0.27894  -0.51141
  34   33986.6    294.2   0.409865367   3.97017  -0.97647  -0.18177  -1.72732
  35   34161.0    292.7   0.152177825   1.46655   0.54492   1.03313   0.31978
  36   34633.5    288.7   0.112859071   1.07279  -0.70853   0.59467  -0.46599
  37   34856.0    286.9   0.080566657   0.76094  -0.39522  -0.55994  -0.53964
  38   34982.9    285.9   0.003847425   0.03621   0.07128   0.11775   0.13138
  39   35393.3    282.5   0.080137875   0.74540   0.26723  -0.79263  -0.21383
  40   35474.9    281.9   0.001728521   0.01604  -0.07576   0.03434  -0.09551
  41   35727.9    279.9   0.010512119   0.09686   0.18249  -0.24977  -0.03427
  42   35824.7    279.1   0.001849428   0.01700  -0.11638   0.05847  -0.00570
  43   36202.6    276.2   0.110402465   1.00395   0.81384  -0.34545  -0.47146
  44   36336.7    275.2   0.019910602   0.18039  -0.02479  -0.41365  -0.09313
  45   36441.4    274.4   0.042736539   0.38608  -0.17567  -0.58551   0.11135
  46   36546.8    273.6   0.108478831   0.97717   0.08569   0.75962   0.62674
  47   37292.2    268.2   0.059801562   0.52792   0.04804  -0.28049  -0.66854
  48   37471.8    266.9   0.055200926   0.48497  -0.10120   0.00533  -0.68899
  49   37892.3    263.9   0.061976995   0.53846  -0.55499   0.36962  -0.30632
  50   38489.8    259.8   0.046035476   0.39375  -0.16931  -0.52610  -0.29715
  51   38598.9    259.1   0.082397003   0.70277  -0.45330  -0.52389  -0.47204
  52   38618.8    258.9   0.026349649   0.22462   0.30689  -0.13435   0.33525
  53   38708.7    258.3   0.006748303   0.05739  -0.07251   0.15729  -0.16552
  54   38913.6    257.0   0.049183468   0.41610   0.41247  -0.22805   0.44041
  55   38950.6    256.7   0.066585244   0.56278   0.44506   0.20790   0.56699
  56   39204.9    255.1   0.046437462   0.38995   0.43223  -0.39111  -0.22394
  57   39506.3    253.1   0.095560394   0.79632   0.12754  -0.28314   0.83659
  58   40027.1    249.8   0.097724237   0.80376  -0.60912   0.14982   0.64054
  59   40191.3    248.8   0.045934537   0.37626  -0.49187   0.33352  -0.15194

FINAL SINGLE POINT ENERGY     -5935.684396889720

DIPOLE MOMENT
-------------
                                X             Y             Z
Electronic contribution:     27.31021     -12.74892     -28.11620
Nuclear contribution   :    -30.49184      14.15763      28.68938
                        -----------------------------------------
Total Dipole Moment    :     -3.18163       1.40871       0.57317
                        -----------------------------------------
Magnitude (a.u.)       :      3.52644
Magnitude (Debye)      :      8.96350

Rotational constants in cm-1:     0.002007     0.000485     0.000424
Rotational constants in MHz :    60.175250    14.533245    12.710915

                             ****ORCA TERMINATED NORMALLY****
TOTAL RUN TIME: 0 days 0 hours 7 minutes 24 seconds 263 msec
