                         Program Version 4.2.0 -  RELEASE  -
|  1> # ORCA input file
|  2> # SCF done       -193.538222954121          0.000771155716
|  3> ! CAM-B3LYP def2-SVP def2/J RIJCOSX Grid4 TightSCF
|  4> %maxcore 5000
|  5> %tddft
|  6>     Mode sTDDFT
|  7>     Ethresh 5.0
|  8>     maxcore 5000
|  9> end
| 10>
| 11> %pal
| 12>   nprocs 6
| 13>   end
| 14> * xyz 0 1
| 15>    C       -9.24055         7.33909         2.66803
| 16>    C       -8.04634         7.01208         2.12112
| 17>    C       -7.62940         5.68648         1.89023
| 18>    C       -8.55443         4.57598         2.16106
| 19>    C       -9.77876         4.70720         2.72050
| 20>    S      -10.45100         6.21553         3.18198
| 21>    C       -7.88507         3.40341         1.71249
| 22>    C       -6.63749         3.74821         1.20043
| 23>    C       -5.92081         2.62365         0.73732
| 24>    C       -6.63234         1.47769         0.90458
| 25>    S       -8.18642         1.71273         1.62945
| 26>    C       -6.45034         5.17470         1.32875
| 27>    C       -5.24992         5.81267         0.92677
| 28>    C       -4.80846         7.04453         1.29248
| 29>    C       -3.60638         7.63233         0.82743
| 30>    C       -2.68325         7.15073        -0.09179
| 31>    C       -1.64362         8.04786        -0.31151
| 32>    C       -1.76205         9.22880         0.44157
| 33>    S       -3.15732         9.22440         1.42621
| 34>    C       -0.67985        10.08249         0.11523
| 35>    C        0.12457         9.43931        -0.84444
| 36>    C       -0.44584         8.14283        -1.14025
| 37>    C        0.02716         7.20365        -2.01049
| 38>    C       -0.62030         5.96579        -2.19929
| 39>    N       -1.14950         4.95935        -2.35136
| 40>    C        1.18793         7.41320        -2.78400
| 41>    N        2.12149         7.58101        -3.42840
| 42>    C        1.21989        10.21453        -1.23350
| 43>    C        1.23564        11.43468        -0.60100
| 44>    S       -0.10204        11.63042         0.51563
| 45>    C        2.20480        12.49310        -0.78571
| 46>    C        1.83125        13.80701        -1.11639
| 47>    C        0.45003        14.22487        -1.39143
| 48>    O       -0.53309        13.54628        -1.48192
| 49>    S        0.41685        16.00126        -1.65033
| 50>    C        2.19529        16.15994        -1.48435
| 51>    O        2.75268        17.22004        -1.50760
| 52>    C        2.77649        14.82522        -1.28044
| 53>    C        4.15622        14.57978        -1.20562
| 54>    C        4.53079        13.26066        -0.90202
| 55>    C        3.58598        12.26012        -0.66135
| 56>    C        4.16522        10.98179        -0.20988
| 57>    O        3.60401        10.01310         0.20982
| 58>    S        5.95519        11.08728        -0.31454
| 59>    C        5.92903        12.79335        -0.86668
| 60>    O        6.92083        13.38571        -1.17610
| 61>    C        5.13660        15.62210        -1.43738
| 62>    C        6.14857        16.01983        -0.59937
| 63>    C        6.89924        17.06447        -1.14954
| 64>    C        6.44891        17.43693        -2.42707
| 65>    S        5.10775        16.52611        -2.93796
| 66>    C        7.26782        18.49249        -2.90366
| 67>    C        8.23468        18.78534        -1.93093
| 68>    C        8.03387        17.89289        -0.79393
| 69>    C        8.76001        17.85574         0.36036
| 70>    C        8.45666        16.96263         1.40974
| 71>    N        8.20918        16.25029         2.27342
| 72>    C        9.85456        18.71597         0.58583
| 73>    N       10.74443        19.41523         0.77113
| 74>    C        9.07745        19.83301        -2.29953
| 75>    C        8.75589        20.34796        -3.54353
| 76>    S        7.39235        19.50572        -4.27146
| 77>    C        9.37656        21.43278        -4.22972
| 78>    C        8.91226        21.91144        -5.42910
| 79>    C        9.45950        22.98661        -6.13077
| 80>    C       10.57317        23.76425        -5.55936
| 81>    C       11.19874        23.45378        -4.40432
| 82>    S       10.77908        22.11847        -3.41350
| 83>    C       10.78600        24.83680        -6.46622
| 84>    C        9.87805        24.73755        -7.52473
| 85>    C       10.03864        25.78356        -8.46233
| 86>    C       11.03591        26.62981        -8.09882
| 87>    S       11.82371        26.19718        -6.61574
| 88>    C        9.06101        23.57422        -7.33847
| 89>    C        8.04710        23.16686        -8.27333
| 90>    C        7.58750        21.93072        -8.46594
| 91>    H       -9.53702         8.36191         2.82791
| 92>    H       -7.39961         7.82313         1.82221
| 93>    H      -10.41712         3.86016         2.91558
| 94>    H       -4.93808         2.65077         0.30290
| 95>    H       -6.33978         0.47943         0.64375
| 96>    H       -4.61438         5.21251         0.28915
| 97>    H       -5.36891         7.63409         2.00250
| 98>    H       -2.77747         6.19749        -0.57735
| 99>    H        1.95194         9.91992        -1.96330
|100>    H        6.31490        15.58748         0.37043
|101>    H        9.88221        20.21660        -1.69862
|102>    H        8.03086        21.43343        -5.83414
|103>    H       12.02422        24.03092        -4.01801
|104>    H        9.45190        25.90668        -9.35453
|105>    H       11.37549        27.50615        -8.61561
|106>    H        7.66983        23.96794        -8.89825
|107>    H        7.97244        21.07803        -7.93471
|108>    H        6.82726        21.72937        -9.20081
|109> *
|110>
|111>                          ****END OF INPUT****

CARTESIAN COORDINATES (ANGSTROEM)
---------------------------------
  C     -9.240550    7.339090    2.668030
  C     -8.046340    7.012080    2.121120
  C     -7.629400    5.686480    1.890230
  C     -8.554430    4.575980    2.161060
  C     -9.778760    4.707200    2.720500
  S    -10.451000    6.215530    3.181980
  C     -7.885070    3.403410    1.712490
  C     -6.637490    3.748210    1.200430
  C     -5.920810    2.623650    0.737320
  C     -6.632340    1.477690    0.904580
  S     -8.186420    1.712730    1.629450
  C     -6.450340    5.174700    1.328750
  C     -5.249920    5.812670    0.926770
  C     -4.808460    7.044530    1.292480
  C     -3.606380    7.632330    0.827430
  C     -2.683250    7.150730   -0.091790
  C     -1.643620    8.047860   -0.311510
  C     -1.762050    9.228800    0.441570
  S     -3.157320    9.224400    1.426210
  C     -0.679850   10.082490    0.115230
  C      0.124570    9.439310   -0.844440
  C     -0.445840    8.142830   -1.140250
  C      0.027160    7.203650   -2.010490
  C     -0.620300    5.965790   -2.199290
  N     -1.149500    4.959350   -2.351360
  C      1.187930    7.413200   -2.784000
  N      2.121490    7.581010   -3.428400
  C      1.219890   10.214530   -1.233500
  C      1.235640   11.434680   -0.601000
  S     -0.102040   11.630420    0.515630
  C      2.204800   12.493100   -0.785710
  C      1.831250   13.807010   -1.116390
  C      0.450030   14.224870   -1.391430
  O     -0.533090   13.546280   -1.481920
  S      0.416850   16.001260   -1.650330
  C      2.195290   16.159940   -1.484350
  O      2.752680   17.220040   -1.507600
  C      2.776490   14.825220   -1.280440
  C      4.156220   14.579780   -1.205620
  C      4.530790   13.260660   -0.902020
  C      3.585980   12.260120   -0.661350
  C      4.165220   10.981790   -0.209880
  O      3.604010   10.013100    0.209820
  S      5.955190   11.087280   -0.314540
  C      5.929030   12.793350   -0.866680
  O      6.920830   13.385710   -1.176100
  C      5.136600   15.622100   -1.437380
  C      6.148570   16.019830   -0.599370
  C      6.899240   17.064470   -1.149540
  C      6.448910   17.436930   -2.427070
  S      5.107750   16.526110   -2.937960
  C      7.267820   18.492490   -2.903660
  C      8.234680   18.785340   -1.930930
  C      8.033870   17.892890   -0.793930
  C      8.760010   17.855740    0.360360
  C      8.456660   16.962630    1.409740
  N      8.209180   16.250290    2.273420
  C      9.854560   18.715970    0.585830
  N     10.744430   19.415230    0.771130
  C      9.077450   19.833010   -2.299530
  C      8.755890   20.347960   -3.543530
  S      7.392350   19.505720   -4.271460
  C      9.376560   21.432780   -4.229720
  C      8.912260   21.911440   -5.429100
  C      9.459500   22.986610   -6.130770
  C     10.573170   23.764250   -5.559360
  C     11.198740   23.453780   -4.404320
  S     10.779080   22.118470   -3.413500
  C     10.786000   24.836800   -6.466220
  C      9.878050   24.737550   -7.524730
  C     10.038640   25.783560   -8.462330
  C     11.035910   26.629810   -8.098820
  S     11.823710   26.197180   -6.615740
  C      9.061010   23.574220   -7.338470
  C      8.047100   23.166860   -8.273330
  C      7.587500   21.930720   -8.465940
  H     -9.537020    8.361910    2.827910
  H     -7.399610    7.823130    1.822210
  H    -10.417120    3.860160    2.915580
  H     -4.938080    2.650770    0.302900
  H     -6.339780    0.479430    0.643750
  H     -4.614380    5.212510    0.289150
  H     -5.368910    7.634090    2.002500
  H     -2.777470    6.197490   -0.577350
  H      1.951940    9.919920   -1.963300
  H      6.314900   15.587480    0.370430
  H      9.882210   20.216600   -1.698620
  H      8.030860   21.433430   -5.834140
  H     12.024220   24.030920   -4.018010
  H      9.451900   25.906680   -9.354530
  H     11.375490   27.506150   -8.615610
  H      7.669830   23.967940   -8.898250
  H      7.972440   21.078030   -7.934710
  H      6.827260   21.729370   -9.200810

 Total Charge           Charge          ....    0
 Multiplicity           Mult            ....    1
 Number of Electrons    NEL             ....  586
 Basis Dimension        Dim             .... 1194

ORBITAL ENERGIES
----------------

  NO   OCC          E(Eh)            E(eV)
   0   2.0000     -88.988394     -2421.4973
   1   2.0000     -88.987156     -2421.4636
   2   2.0000     -88.985667     -2421.4231
   3   2.0000     -88.980003     -2421.2690
   4   2.0000     -88.976229     -2421.1663
   5   2.0000     -88.971510     -2421.0379
   6   2.0000     -88.961753     -2420.7724
   7   2.0000     -88.957803     -2420.6649
   8   2.0000     -88.952637     -2420.5243
   9   2.0000     -88.952274     -2420.5144
  10   2.0000     -19.253122      -523.9041
  11   2.0000     -19.253086      -523.9031
  12   2.0000     -19.249517      -523.8060
  13   2.0000     -19.249073      -523.7939
  14   2.0000     -14.426466      -392.5641
  15   2.0000     -14.426295      -392.5594
  16   2.0000     -14.423832      -392.4924
  17   2.0000     -14.423753      -392.4903
  18   2.0000     -10.416500      -283.4474
  19   2.0000     -10.416378      -283.4441
  20   2.0000     -10.413679      -283.3706
  21   2.0000     -10.413326      -283.3610
  22   2.0000     -10.360071      -281.9119
  23   2.0000     -10.356076      -281.8032
  24   2.0000     -10.350183      -281.6428
  25   2.0000     -10.349768      -281.6315
  26   2.0000     -10.348279      -281.5910
  27   2.0000     -10.344962      -281.5007
  28   2.0000     -10.340921      -281.3908
  29   2.0000     -10.340846      -281.3887
  30   2.0000     -10.340215      -281.3716
  31   2.0000     -10.340058      -281.3673
  32   2.0000     -10.332263      -281.1552
  33   2.0000     -10.330743      -281.1138
  34   2.0000     -10.326976      -281.0113
  35   2.0000     -10.326831      -281.0074
  36   2.0000     -10.326813      -281.0069
  37   2.0000     -10.326220      -280.9907
  38   2.0000     -10.326173      -280.9894
  39   2.0000     -10.324801      -280.9521
  40   2.0000     -10.324538      -280.9450
  41   2.0000     -10.324173      -280.9350
  42   2.0000     -10.323578      -280.9189
  43   2.0000     -10.321375      -280.8589
  44   2.0000     -10.318362      -280.7769
  45   2.0000     -10.317466      -280.7525
  46   2.0000     -10.316559      -280.7278
  47   2.0000     -10.313859      -280.6544
  48   2.0000     -10.302517      -280.3457
  49   2.0000     -10.301203      -280.3100
  50   2.0000     -10.300822      -280.2996
  51   2.0000     -10.297737      -280.2157
  52   2.0000     -10.297426      -280.2072
  53   2.0000     -10.297053      -280.1971
  54   2.0000     -10.296796      -280.1901
  55   2.0000     -10.295718      -280.1607
  56   2.0000     -10.293994      -280.1138
  57   2.0000     -10.292968      -280.0859
  58   2.0000     -10.292936      -280.0850
  59   2.0000     -10.292551      -280.0745
  60   2.0000     -10.292237      -280.0660
  61   2.0000     -10.288550      -279.9657
  62   2.0000     -10.285306      -279.8774
  63   2.0000     -10.283178      -279.8195
  64   2.0000     -10.281727      -279.7800
  65   2.0000     -10.281366      -279.7702
  66   2.0000     -10.281189      -279.7654
  67   2.0000     -10.279342      -279.7151
  68   2.0000     -10.272183      -279.5203
  69   2.0000     -10.272104      -279.5182
  70   2.0000     -10.270881      -279.4849
  71   2.0000     -10.270821      -279.4832
  72   2.0000     -10.269508      -279.4475
  73   2.0000     -10.268970      -279.4329
  74   2.0000     -10.267718      -279.3988
  75   2.0000     -10.260382      -279.1992
  76   2.0000      -8.082975      -219.9489
  77   2.0000      -8.081504      -219.9089
  78   2.0000      -8.080087      -219.8703
  79   2.0000      -8.074692      -219.7235
  80   2.0000      -8.072114      -219.6534
  81   2.0000      -8.066791      -219.5085
  82   2.0000      -8.060970      -219.3501
  83   2.0000      -8.057043      -219.2433
  84   2.0000      -8.048071      -218.9991
  85   2.0000      -8.047575      -218.9857
  86   2.0000      -6.052202      -164.6888
  87   2.0000      -6.050811      -164.6509
  88   2.0000      -6.049330      -164.6106
  89   2.0000      -6.047976      -164.5738
  90   2.0000      -6.046678      -164.5385
  91   2.0000      -6.045393      -164.5035
  92   2.0000      -6.045106      -164.4957
  93   2.0000      -6.043877      -164.4623
  94   2.0000      -6.043750      -164.4588
  95   2.0000      -6.042533      -164.4257
  96   2.0000      -6.041590      -164.4000
  97   2.0000      -6.039800      -164.3513
  98   2.0000      -6.037141      -164.2790
  99   2.0000      -6.036906      -164.2726
 100   2.0000      -6.036465      -164.2606
 101   2.0000      -6.034287      -164.2013
 102   2.0000      -6.031887      -164.1360
 103   2.0000      -6.029836      -164.0802
 104   2.0000      -6.028473      -164.0431
 105   2.0000      -6.026565      -163.9912
 106   2.0000      -6.025890      -163.9728
 107   2.0000      -6.022631      -163.8841
 108   2.0000      -6.022019      -163.8675
 109   2.0000      -6.018090      -163.7605
 110   2.0000      -6.017559      -163.7461
 111   2.0000      -6.017031      -163.7317
 112   2.0000      -6.013282      -163.6297
 113   2.0000      -6.012799      -163.6166
 114   2.0000      -6.010044      -163.5416
 115   2.0000      -6.009603      -163.5296
 116   2.0000      -1.177985       -32.0546
 117   2.0000      -1.174502       -31.9598
 118   2.0000      -1.173700       -31.9380
 119   2.0000      -1.170299       -31.8455
 120   2.0000      -1.042872       -28.3780
 121   2.0000      -1.038551       -28.2604
 122   2.0000      -1.032067       -28.0840
 123   2.0000      -1.018364       -27.7111
 124   2.0000      -1.015276       -27.6271
 125   2.0000      -1.004619       -27.3371
 126   2.0000      -1.003237       -27.2995
 127   2.0000      -1.002600       -27.2821
 128   2.0000      -1.001581       -27.2544
 129   2.0000      -0.995907       -27.1000
 130   2.0000      -0.990298       -26.9474
 131   2.0000      -0.978134       -26.6164
 132   2.0000      -0.969796       -26.3895
 133   2.0000      -0.966850       -26.3093
 134   2.0000      -0.955631       -26.0040
 135   2.0000      -0.952591       -25.9213
 136   2.0000      -0.930188       -25.3117
 137   2.0000      -0.926707       -25.2170
 138   2.0000      -0.924197       -25.1487
 139   2.0000      -0.921748       -25.0821
 140   2.0000      -0.906244       -24.6602
 141   2.0000      -0.901105       -24.5203
 142   2.0000      -0.884491       -24.0682
 143   2.0000      -0.881772       -23.9942
 144   2.0000      -0.872199       -23.7338
 145   2.0000      -0.866368       -23.5751
 146   2.0000      -0.863032       -23.4843
 147   2.0000      -0.861027       -23.4297
 148   2.0000      -0.856990       -23.3199
 149   2.0000      -0.851229       -23.1631
 150   2.0000      -0.846965       -23.0471
 151   2.0000      -0.840273       -22.8650
 152   2.0000      -0.831966       -22.6389
 153   2.0000      -0.820019       -22.3139
 154   2.0000      -0.810285       -22.0490
 155   2.0000      -0.805430       -21.9169
 156   2.0000      -0.802086       -21.8259
 157   2.0000      -0.791353       -21.5338
 158   2.0000      -0.782722       -21.2989
 159   2.0000      -0.774039       -21.0627
 160   2.0000      -0.768885       -20.9224
 161   2.0000      -0.763841       -20.7852
 162   2.0000      -0.756745       -20.5921
 163   2.0000      -0.740736       -20.1564
 164   2.0000      -0.737321       -20.0635
 165   2.0000      -0.721167       -19.6239
 166   2.0000      -0.720999       -19.6194
 167   2.0000      -0.711350       -19.3568
 168   2.0000      -0.708005       -19.2658
 169   2.0000      -0.696382       -18.9495
 170   2.0000      -0.690498       -18.7894
 171   2.0000      -0.682498       -18.5717
 172   2.0000      -0.678975       -18.4759
 173   2.0000      -0.674382       -18.3509
 174   2.0000      -0.665865       -18.1191
 175   2.0000      -0.664260       -18.0754
 176   2.0000      -0.659066       -17.9341
 177   2.0000      -0.649427       -17.6718
 178   2.0000      -0.643140       -17.5007
 179   2.0000      -0.640937       -17.4408
 180   2.0000      -0.633085       -17.2271
 181   2.0000      -0.631469       -17.1832
 182   2.0000      -0.629432       -17.1277
 183   2.0000      -0.624676       -16.9983
 184   2.0000      -0.623046       -16.9539
 185   2.0000      -0.617237       -16.7959
 186   2.0000      -0.615522       -16.7492
 187   2.0000      -0.614975       -16.7343
 188   2.0000      -0.609680       -16.5902
 189   2.0000      -0.608863       -16.5680
 190   2.0000      -0.606146       -16.4941
 191   2.0000      -0.592379       -16.1195
 192   2.0000      -0.590650       -16.0724
 193   2.0000      -0.583656       -15.8821
 194   2.0000      -0.578158       -15.7325
 195   2.0000      -0.573767       -15.6130
 196   2.0000      -0.570527       -15.5248
 197   2.0000      -0.565978       -15.4010
 198   2.0000      -0.564058       -15.3488
 199   2.0000      -0.556279       -15.1371
 200   2.0000      -0.554920       -15.1001
 201   2.0000      -0.553770       -15.0689
 202   2.0000      -0.550526       -14.9806
 203   2.0000      -0.550240       -14.9728
 204   2.0000      -0.546684       -14.8760
 205   2.0000      -0.543923       -14.8009
 206   2.0000      -0.542357       -14.7583
 207   2.0000      -0.541113       -14.7244
 208   2.0000      -0.537209       -14.6182
 209   2.0000      -0.536466       -14.5980
 210   2.0000      -0.530296       -14.4301
 211   2.0000      -0.525829       -14.3085
 212   2.0000      -0.521811       -14.1992
 213   2.0000      -0.520433       -14.1617
 214   2.0000      -0.515979       -14.0405
 215   2.0000      -0.515330       -14.0228
 216   2.0000      -0.509369       -13.8606
 217   2.0000      -0.508547       -13.8383
 218   2.0000      -0.508053       -13.8248
 219   2.0000      -0.506654       -13.7868
 220   2.0000      -0.505548       -13.7567
 221   2.0000      -0.502230       -13.6664
 222   2.0000      -0.499738       -13.5986
 223   2.0000      -0.497074       -13.5261
 224   2.0000      -0.495683       -13.4882
 225   2.0000      -0.494728       -13.4622
 226   2.0000      -0.493119       -13.4185
 227   2.0000      -0.488826       -13.3016
 228   2.0000      -0.486671       -13.2430
 229   2.0000      -0.483115       -13.1462
 230   2.0000      -0.480344       -13.0708
 231   2.0000      -0.477914       -13.0047
 232   2.0000      -0.473391       -12.8816
 233   2.0000      -0.471390       -12.8272
 234   2.0000      -0.468778       -12.7561
 235   2.0000      -0.466064       -12.6823
 236   2.0000      -0.463643       -12.6164
 237   2.0000      -0.458353       -12.4724
 238   2.0000      -0.457949       -12.4614
 239   2.0000      -0.455940       -12.4068
 240   2.0000      -0.455516       -12.3952
 241   2.0000      -0.454646       -12.3715
 242   2.0000      -0.453839       -12.3496
 243   2.0000      -0.452056       -12.3011
 244   2.0000      -0.451888       -12.2965
 245   2.0000      -0.448321       -12.1994
 246   2.0000      -0.444193       -12.0871
 247   2.0000      -0.442512       -12.0414
 248   2.0000      -0.440728       -11.9928
 249   2.0000      -0.436913       -11.8890
 250   2.0000      -0.436650       -11.8818
 251   2.0000      -0.434818       -11.8320
 252   2.0000      -0.434511       -11.8236
 253   2.0000      -0.434078       -11.8119
 254   2.0000      -0.431879       -11.7520
 255   2.0000      -0.431307       -11.7365
 256   2.0000      -0.426822       -11.6144
 257   2.0000      -0.424798       -11.5593
 258   2.0000      -0.422550       -11.4982
 259   2.0000      -0.420042       -11.4299
 260   2.0000      -0.419077       -11.4037
 261   2.0000      -0.416087       -11.3223
 262   2.0000      -0.412975       -11.2376
 263   2.0000      -0.409658       -11.1474
 264   2.0000      -0.406574       -11.0634
 265   2.0000      -0.405370       -11.0307
 266   2.0000      -0.402930       -10.9643
 267   2.0000      -0.393691       -10.7129
 268   2.0000      -0.389917       -10.6102
 269   2.0000      -0.386171       -10.5082
 270   2.0000      -0.383811       -10.4440
 271   2.0000      -0.382096       -10.3974
 272   2.0000      -0.377240       -10.2652
 273   2.0000      -0.371934       -10.1208
 274   2.0000      -0.366005        -9.9595
 275   2.0000      -0.363249        -9.8845
 276   2.0000      -0.359568        -9.7843
 277   2.0000      -0.353526        -9.6199
 278   2.0000      -0.352190        -9.5836
 279   2.0000      -0.341580        -9.2949
 280   2.0000      -0.340292        -9.2598
 281   2.0000      -0.337059        -9.1718
 282   2.0000      -0.335640        -9.1332
 283   2.0000      -0.323102        -8.7921
 284   2.0000      -0.321654        -8.7526
 285   2.0000      -0.315458        -8.5841
 286   2.0000      -0.311157        -8.4670
 287   2.0000      -0.287372        -7.8198
 288   2.0000      -0.281692        -7.6652
 289   2.0000      -0.271821        -7.3966
 290   2.0000      -0.266952        -7.2641
 291   2.0000      -0.229532        -6.2459
 292   2.0000      -0.226035        -6.1507
 293   0.0000      -0.110556        -3.0084
 294   0.0000      -0.102083        -2.7778
 295   0.0000      -0.097805        -2.6614
 296   0.0000      -0.076192        -2.0733
 297   0.0000      -0.055401        -1.5075

MULLIKEN ATOMIC CHARGES
-----------------------
   0 C :   -0.104423
   1 C :    0.030851
   2 C :    0.014267
   3 C :    0.067252
   4 C :   -0.148307
   5 S :    0.133597
   6 C :   -0.114251
   7 C :    0.049451
   8 C :    0.007131
   9 C :   -0.069032
  10 S :    0.123189
  11 C :    0.078170
  12 C :   -0.019881
  13 C :    0.019937
  14 C :   -0.069069
  15 C :   -0.043869
  16 C :    0.013139
  17 C :   -0.115783
  18 S :    0.177511
  19 C :   -0.082303
  20 C :   -0.026848
  21 C :    0.306237
  22 C :   -0.299489
  23 C :   -0.183170
  24 N :    0.160991
  25 C :   -0.190048
  26 N :    0.167128
  27 C :    0.065833
  28 C :   -0.198755
  29 S :    0.224935
  30 C :    0.055985
  31 C :    0.034142
  32 C :    0.028876
  33 O :   -0.118969
  34 S :    0.030774
  35 C :    0.032476
  36 O :   -0.119144
  37 C :    0.032770
  38 C :    0.040946
  39 C :    0.042238
  40 C :    0.031988
  41 C :    0.032331
  42 O :   -0.108467
  43 S :    0.035030
  44 C :    0.033916
  45 O :   -0.110505
  46 C :   -0.192158
  47 C :    0.074159
  48 C :   -0.022649
  49 C :   -0.084341
  50 S :    0.225670
  51 C :   -0.102550
  52 C :    0.019321
  53 C :    0.301909
  54 C :   -0.295507
  55 C :   -0.189457
  56 N :    0.169932
  57 C :   -0.188145
  58 N :    0.170595
  59 C :   -0.062630
  60 C :   -0.054398
  61 S :    0.171222
  62 C :   -0.025679
  63 C :   -0.093311
  64 C :    0.048526
  65 C :    0.063934
  66 C :   -0.124337
  67 S :    0.124535
  68 C :   -0.108741
  69 C :    0.047563
  70 C :    0.013868
  71 C :   -0.070068
  72 S :    0.125077
  73 C :    0.047110
  74 C :   -0.033501
  75 C :   -0.031720
  76 H :    0.044879
  77 H :   -0.013840
  78 H :    0.036081
  79 H :   -0.011920
  80 H :    0.026318
  81 H :   -0.014813
  82 H :   -0.025922
  83 H :    0.003710
  84 H :    0.003876
  85 H :    0.003569
  86 H :    0.020204
  87 H :   -0.009475
  88 H :    0.037023
  89 H :   -0.019106
  90 H :    0.024519
  91 H :   -0.012564
  92 H :    0.014157
  93 H :    0.020298
Sum of atomic charges:   -0.0000000

LOEWDIN ATOMIC CHARGES
----------------------
   0 C :   -0.184487
   1 C :   -0.029604
   2 C :   -0.019821
   3 C :   -0.042398
   4 C :   -0.145320
   5 S :    0.457277
   6 C :   -0.209836
   7 C :   -0.038535
   8 C :   -0.064414
   9 C :   -0.164337
  10 S :    0.417408
  11 C :   -0.060417
  12 C :    0.003403
  13 C :   -0.069942
  14 C :   -0.147583
  15 C :   -0.039276
  16 C :   -0.055940
  17 C :   -0.204182
  18 S :    0.467597
  19 C :   -0.156954
  20 C :   -0.084822
  21 C :    0.085905
  22 C :   -0.107885
  23 C :   -0.014570
  24 N :   -0.040746
  25 C :   -0.015484
  26 N :   -0.038513
  27 C :    0.005702
  28 C :   -0.196689
  29 S :    0.505899
  30 C :    0.012506
  31 C :   -0.056223
  32 C :   -0.052272
  33 O :   -0.114754
  34 S :    0.312207
  35 C :   -0.053262
  36 O :   -0.114234
  37 C :   -0.053719
  38 C :    0.006946
  39 C :   -0.044751
  40 C :   -0.047762
  41 C :   -0.045912
  42 O :   -0.099267
  43 S :    0.317785
  44 C :   -0.046623
  45 O :   -0.100929
  46 C :   -0.187460
  47 C :    0.003123
  48 C :   -0.077543
  49 C :   -0.164901
  50 S :    0.506423
  51 C :   -0.186819
  52 C :   -0.061487
  53 C :    0.084531
  54 C :   -0.103284
  55 C :   -0.015431
  56 N :   -0.035116
  57 C :   -0.016336
  58 N :   -0.034690
  59 C :   -0.044860
  60 C :   -0.170819
  61 S :    0.478227
  62 C :   -0.188892
  63 C :   -0.027447
  64 C :   -0.026303
  65 C :   -0.048997
  66 C :   -0.138140
  67 S :    0.453613
  68 C :   -0.204376
  69 C :   -0.041204
  70 C :   -0.064038
  71 C :   -0.165662
  72 S :    0.418539
  73 C :   -0.048775
  74 C :   -0.019656
  75 C :   -0.054733
  76 H :    0.031176
  77 H :    0.037237
  78 H :    0.035463
  79 H :    0.031650
  80 H :    0.023344
  81 H :    0.032048
  82 H :    0.022435
  83 H :    0.037267
  84 H :    0.038970
  85 H :    0.039549
  86 H :    0.034966
  87 H :    0.026678
  88 H :    0.037171
  89 H :    0.029836
  90 H :    0.022538
  91 H :    0.029695
  92 H :    0.017552
  93 H :    0.023767

  Mayer bond orders larger than 0.100000
B(  0-C ,  1-C ) :   1.6487 B(  0-C ,  5-S ) :   1.1066 B(  0-C , 76-H ) :   0.9409
B(  1-C ,  2-C ) :   1.2029 B(  1-C , 77-H ) :   0.9696 B(  2-C ,  3-C ) :   1.0601
B(  2-C , 11-C ) :   1.4247 B(  3-C ,  4-C ) :   1.5990 B(  3-C ,  6-C ) :   1.1831
B(  4-C ,  5-S ) :   1.1452 B(  4-C , 78-H ) :   0.9419 B(  6-C ,  7-C ) :   1.4521
B(  6-C , 10-S ) :   1.0694 B(  7-C ,  8-C ) :   1.2222 B(  7-C , 11-C ) :   1.0937
B(  8-C ,  9-C ) :   1.5852 B(  8-C , 79-H ) :   0.9973 B(  9-C , 10-S ) :   1.1581
B(  9-C , 80-H ) :   0.9662 B( 11-C , 12-C ) :   1.1576 B( 12-C , 13-C ) :   1.6505
B( 12-C , 81-H ) :   0.9604 B( 13-C , 14-C ) :   1.1250 B( 13-C , 82-H ) :   0.9589
B( 14-C , 15-C ) :   1.4407 B( 14-C , 18-S ) :   1.1171 B( 15-C , 16-C ) :   1.3110
B( 15-C , 83-H ) :   0.9885 B( 16-C , 17-C ) :   1.4406 B( 16-C , 21-C ) :   0.9919
B( 17-C , 18-S ) :   1.1010 B( 17-C , 19-C ) :   1.1943 B( 19-C , 20-C ) :   1.4161
B( 19-C , 29-S ) :   1.1744 B( 20-C , 21-C ) :   1.0013 B( 20-C , 27-C ) :   1.3146
B( 21-C , 22-C ) :   1.7041 B( 22-C , 23-C ) :   1.1354 B( 22-C , 25-C ) :   1.1340
B( 23-C , 24-N ) :   2.9830 B( 25-C , 26-N ) :   2.9919 B( 27-C , 28-C ) :   1.4942
B( 27-C , 84-H ) :   0.9855 B( 28-C , 29-S ) :   1.0963 B( 28-C , 30-C ) :   1.0228
B( 30-C , 31-C ) :   1.3789 B( 30-C , 40-C ) :   1.3926 B( 31-C , 32-C ) :   0.8466
B( 31-C , 37-C ) :   1.3036 B( 32-C , 33-O ) :   2.1725 B( 32-C , 34-S ) :   1.0266
B( 33-O , 34-S ) :   0.1070 B( 34-S , 35-C ) :   1.0278 B( 34-S , 36-O ) :   0.1081
B( 35-C , 36-O ) :   2.1731 B( 35-C , 37-C ) :   0.8461 B( 37-C , 38-C ) :   1.3894
B( 38-C , 39-C ) :   1.4009 B( 38-C , 46-C ) :   1.0094 B( 39-C , 40-C ) :   1.3155
B( 39-C , 44-C ) :   0.8360 B( 40-C , 41-C ) :   0.8375 B( 41-C , 42-O ) :   2.1922
B( 41-C , 43-S ) :   1.0273 B( 42-O , 43-S ) :   0.1086 B( 43-S , 44-C ) :   1.0316
B( 43-S , 45-O ) :   0.1095 B( 44-C , 45-O ) :   2.1899 B( 46-C , 47-C ) :   1.5045
B( 46-C , 50-S ) :   1.1055 B( 47-C , 48-C ) :   1.3073 B( 47-C , 85-H ) :   0.9864
B( 48-C , 49-C ) :   1.4292 B( 48-C , 53-C ) :   0.9976 B( 49-C , 50-S ) :   1.1658
B( 49-C , 51-C ) :   1.1784 B( 51-C , 52-C ) :   1.4606 B( 51-C , 61-S ) :   1.1151
B( 52-C , 53-C ) :   0.9930 B( 52-C , 59-C ) :   1.2973 B( 53-C , 54-C ) :   1.7094
B( 54-C , 55-C ) :   1.1357 B( 54-C , 57-C ) :   1.1325 B( 55-C , 56-N ) :   2.9916
B( 57-C , 58-N ) :   2.9906 B( 59-C , 60-C ) :   1.4606 B( 59-C , 86-H ) :   0.9811
B( 60-C , 61-S ) :   1.1115 B( 60-C , 62-C ) :   1.1618 B( 62-C , 63-C ) :   1.5329
B( 62-C , 67-S ) :   1.0475 B( 63-C , 64-C ) :   1.2319 B( 63-C , 87-H ) :   0.9581
B( 64-C , 65-C ) :   1.0445 B( 64-C , 73-C ) :   1.4384 B( 65-C , 66-C ) :   1.6138
B( 65-C , 68-C ) :   1.1804 B( 66-C , 67-S ) :   1.1350 B( 66-C , 88-H ) :   0.9415
B( 68-C , 69-C ) :   1.4353 B( 68-C , 72-S ) :   1.0742 B( 69-C , 70-C ) :   1.2153
B( 69-C , 73-C ) :   1.1239 B( 70-C , 71-C ) :   1.5865 B( 70-C , 89-H ) :   0.9972
B( 71-C , 72-S ) :   1.1518 B( 71-C , 90-H ) :   0.9666 B( 73-C , 74-C ) :   1.1008
B( 74-C , 75-C ) :   1.9210 B( 74-C , 91-H ) :   0.9549 B( 75-C , 92-H ) :   0.9573
B( 75-C , 93-H ) :   0.9475

-----------------------------------------------------------------------------
         ABSORPTION SPECTRUM VIA TRANSITION ELECTRIC DIPOLE MOMENTS
-----------------------------------------------------------------------------
State   Energy  Wavelength   fosc         T2         TX        TY        TZ
        (cm-1)    (nm)                  (au**2)     (au)      (au)      (au)
-----------------------------------------------------------------------------
   0   11130.7    898.4   0.264229454   7.81509  -2.14357  -1.60360   0.80539
   1   11635.4    859.4   0.120201976   3.40100   0.74276   1.41094  -0.92658
   2   12716.6    786.4   0.011022702   0.28536  -0.47297   0.23869  -0.06849
   3   14110.6    708.7   0.002939279   0.06858   0.19080  -0.16659   0.06647
   4   18603.6    537.5   0.827024780  14.63517  -2.90788  -2.31927   0.89465
   5   19089.4    523.8   0.150626798   2.59767  -0.87367  -1.12344   0.75648
   6   20341.2    491.6   0.292745874   4.73794  -0.98794  -1.71616   0.90371
   7   20496.2    487.9   0.119241186   1.91527   1.37490   0.03141  -0.15469
   8   20966.6    476.9   0.013173722   0.20685  -0.09184   0.41144  -0.17068
   9   21404.1    467.2   0.013397564   0.20607  -0.17753   0.14510  -0.39178
  10   21619.8    462.5   0.115530228   1.75922  -0.02412  -0.85769   1.01144
  11   21745.7    459.9   0.044171495   0.66872  -0.09003   0.77985  -0.22902
  12   22019.6    454.1   0.082482481   1.23318   0.71472  -0.48838  -0.69559
  13   22674.8    441.0   0.039209154   0.56927  -0.58196  -0.43773   0.19744
  14   25102.0    398.4   0.081440446   1.06809   0.41922   0.80409  -0.49577
  15   25409.0    393.6   0.192036690   2.48812  -0.21599  -1.03214   1.17310
  16   25994.1    384.7   0.123989409   1.57031  -0.22584   0.49339  -1.12954
  17   26296.9    380.3   0.567250750   7.10143  -2.30061  -0.97317   0.92821
  18   26655.9    375.2   0.003892049   0.04807   0.18921  -0.09307  -0.06004
  19   27001.8    370.3   0.043378911   0.52888  -0.55786  -0.44573   0.13783
  20   27127.4    368.6   0.051267831   0.62217  -0.59660  -0.47649   0.19801
  21   27453.9    364.2   0.035667834   0.42771  -0.55913   0.24034   0.23942
  22   27720.6    360.7   0.175657659   2.08612  -0.96692  -1.07261  -0.02645
  23   28257.5    353.9   0.060684538   0.70700  -0.73104  -0.40612   0.08747
  24   28659.4    348.9   0.005187523   0.05959  -0.23189  -0.01890  -0.07389
  25   28780.8    347.5   0.005562252   0.06362  -0.09463   0.15102  -0.17850
  26   29684.5    336.9   0.012756824   0.14148   0.24345   0.26667   0.10533
  27   29860.0    334.9   0.104739566   1.15477  -0.91848  -0.46945   0.30129
  28   30072.4    332.5   0.005050786   0.05529  -0.03817  -0.22911   0.03663
  29   30456.5    328.3   0.407691081   4.40683   1.17204   0.54680   1.65353
  30   30512.7    327.7   0.285392694   3.07920  -0.44848   1.59129   0.58810
  31   30677.8    326.0   0.290090389   3.11304   0.53715   1.25021   1.12316
  32   30829.5    324.4   0.110907660   1.18433   0.98378   0.41709  -0.20623
  33   31076.4    321.8   0.116316140   1.23221  -0.64912  -0.28387  -0.85456
  34   31155.7    321.0   0.074592792   0.78820  -0.23950   0.00217  -0.85489
  35   31342.8    319.1   0.050333723   0.52869  -0.53531   0.47372  -0.13313
  36   32077.2    311.7   0.059492813   0.61058   0.60551   0.49188  -0.04461
  37   32477.4    307.9   0.002915977   0.02956  -0.02653  -0.09193   0.14284
  38   32627.9    306.5   0.241491936   2.43662   1.22894   0.26762  -0.92450
  39   32943.2    303.6   0.090988409   0.90928   0.21125   0.65128  -0.66370
  40   33012.1    302.9   0.064142921   0.63966  -0.03034   0.24562  -0.76053
  41   33156.4    301.6   0.050395157   0.50038  -0.34152  -0.35520   0.50751
  42   33353.1    299.8   0.004118523   0.04065  -0.10447  -0.02934   0.16993
  43   33473.8    298.7   0.040259966   0.39595   0.35930  -0.45011  -0.25349
  44   33511.6    298.4   0.031161111   0.30612   0.32169   0.44795  -0.04443
  45   33657.9    297.1   0.010092900   0.09872   0.29701   0.02153  -0.10020
  46   33875.8    295.2   0.073013712   0.70956  -0.07601   0.83828  -0.03285
  47   33955.1    294.5   0.207642395   2.01320  -0.17552   0.74915  -1.19212
  48   34139.2    292.9   0.273446461   2.63691  -0.24968  -1.06491   1.20023
  49   34501.1    289.8   0.055423467   0.52885  -0.63964  -0.27717  -0.20709
  50   34652.2    288.6   0.042204352   0.40096  -0.21715  -0.31889  -0.50211
  51   35198.6    284.1   0.006835212   0.06393   0.08863   0.20112   0.12500
  52   35305.2    283.2   0.280005433   2.61098   0.63465   1.47218  -0.20223
  53   35506.7    281.6   0.102436401   0.94977   0.06316   0.52193  -0.82059
  54   36008.5    277.7   0.062581605   0.57216   0.04616   0.49854  -0.56700
  55   36158.4    276.6   0.147047914   1.33883   0.40815   0.93412  -0.54741
  56   36576.0    273.4   0.166565857   1.49922   0.49161   0.98281  -0.54002
  57   36662.7    272.8   0.030857508   0.27708   0.11753   0.47369  -0.19720
  58   36770.9    272.0   0.129147518   1.15627  -0.52035  -0.87415   0.34837
  59   36928.5    270.8   0.017848112   0.15911   0.09693   0.33839   0.18765
  60   37108.1    269.5   0.011254121   0.09984  -0.27210  -0.06437   0.14718
  61   37347.8    267.8   0.003745124   0.03301   0.08746   0.15003   0.05341
  62   37571.0    266.2   0.015581476   0.13653   0.18075  -0.29944  -0.11914
  63   38185.9    261.9   0.007085133   0.06108  -0.12521   0.20803   0.04613
  64   38488.2    259.8   0.006449716   0.05517  -0.09853  -0.19553  -0.08501
  65   38620.4    258.9   0.015116461   0.12886  -0.29853   0.18838  -0.06519
  66   38853.9    257.4   0.012706551   0.10766   0.13610   0.27041  -0.12656
  67   39009.5    256.3   0.009244694   0.07802   0.07397  -0.26796  -0.02732
  68   39067.3    256.0   0.001725351   0.01454  -0.00295   0.09048   0.07965
  69   39708.1    251.8   0.157516969   1.30594   0.67732   0.55842   0.73168
  70   39787.7    251.3   0.044576003   0.36883   0.49550   0.25543  -0.24097
  71   40071.7    249.6   0.051059792   0.41949   0.41836   0.46024   0.18068
  72   40115.0    249.3   0.214014375   1.75635   0.46750  -1.23784  -0.07453
  73   40230.2    248.6   0.016547758   0.13541   0.27749  -0.15678  -0.18394

FINAL SINGLE POINT ENERGY     -6717.983481029964

DIPOLE MOMENT
-------------
                                X             Y             Z
Electronic contribution:     10.90494      -5.12671      19.23381
Nuclear contribution   :    -13.87152       6.21143     -19.31830
                        -----------------------------------------
Total Dipole Moment    :     -2.96658       1.08471      -0.08449
                        -----------------------------------------
Magnitude (a.u.)       :      3.15980
Magnitude (Debye)      :      8.03159

Rotational constants in cm-1:     0.002027     0.000159     0.000156
Rotational constants in MHz :    60.763815     4.763491     4.664127

                             ****ORCA TERMINATED NORMALLY****
TOTAL RUN TIME: 0 days 0 hours 9 minutes 47 seconds 24 msec
