                         Program Version 4.2.0 -  RELEASE  -
|  1> # ORCA input file
|  2> # SCF done       -155.806589459565          0.000395818253
|  3> ! CAM-B3LYP def2-SVP def2/J RIJCOSX Grid4 TightSCF
|  4> %maxcore 5000
|  5> %tddft
|  6>     Mode sTDDFT
|  7>     Ethresh 5.0
|  8>     maxcore 5000
|  9> end
| 10>
| 11> %pal
| 12>   nprocs 6
| 13>   end
| 14> * xyz 0 1
| 15>    C       -8.13630         6.86428         5.11277
| 16>    C       -8.09377         6.12916         6.27259
| 17>    C       -7.90878         6.68197         7.55450
| 18>    N       -7.76030         7.07858         8.62207
| 19>    C       -8.23235         4.72853         6.32237
| 20>    N       -8.34230         3.58837         6.40681
| 21>    C       -8.00218         8.31416         5.01448
| 22>    C       -8.10602         8.69647         3.65101
| 23>    C       -8.01980        10.00416         3.23920
| 24>    C       -7.82048        10.98480         4.21707
| 25>    C       -7.71720        10.59501         5.57326
| 26>    C       -7.80525         9.27180         5.99068
| 27>    S       -7.47174        11.96340         6.61426
| 28>    C       -7.51034        13.02683         5.23257
| 29>    C       -7.69791        12.39127         4.05143
| 30>   Br       -7.30010        14.87446         5.47882
| 31>    C       -8.30869         7.49195         2.83846
| 32>    O       -8.44079         7.42698         1.61762
| 33>    C       -8.32232         6.36407         3.77176
| 34>    C       -8.49152         5.07153         3.33403
| 35>    N       -8.65207         4.82452         2.02786
| 36>    C       -8.83091         3.61988         1.43489
| 37>    S       -8.86910         2.14945         2.35964
| 38>    C       -9.12972         1.26372         0.89128
| 39>    N       -9.25573        -0.12688         0.97225
| 40>    O       -9.44616        -0.73669        -0.06619
| 41>    O       -9.16586        -0.62618         2.08107
| 42>    C       -9.18278         2.05276        -0.22652
| 43>    C       -9.01243         3.42092         0.05818
| 44>    C       -9.02019         4.48474        -0.91140
| 45>    C       -9.30042         4.32523        -2.21876
| 46>    C       -9.29935         5.41159        -3.15473
| 47>    C       -9.64910         5.31655        -4.44704
| 48>    C      -10.08933         4.03819        -5.09785
| 49>    C       -9.58660         6.51785        -5.35868
| 50>    N       -8.61018         6.32808        -6.40653
| 51>    C       -7.37851         6.87408        -6.41013
| 52>    C       -6.37687         6.47889        -7.24176
| 53>    C       -5.12729         7.11713        -7.31532
| 54>    C       -4.09692         6.71156        -8.12289
| 55>    C       -2.82820         7.32344        -8.26732
| 56>    C       -1.99726         6.69246        -9.14065
| 57>    C       -2.55339         5.53385        -9.73382
| 58>    S       -4.18374         5.28539        -9.15736
| 59>    C       -1.96146         4.66360       -10.62540
| 60>    C       -0.66126         4.75588       -11.17285
| 61>    C       -0.35188         3.73003       -12.00927
| 62>    C       -1.39067         2.77237       -12.16051
| 63>    S       -2.78898         3.22005       -11.21546
| 64>    C       -1.36661         1.63293       -12.91253
| 65>    C       -2.49224         0.76191       -12.94425
| 66>    N       -3.55519         1.13922       -12.21460
| 67>    C       -4.61052         0.35264       -12.21476
| 68>    C       -4.64170        -0.82833       -12.93661
| 69>    C       -3.49194        -1.15086       -13.67516
| 70>    N       -2.43145        -0.35464       -13.67328
| 71>    C       -3.43382        -2.37559       -14.46619
| 72>    C       -2.36936        -2.73055       -15.17432
| 73>    H       -8.10328        10.26505         2.19581
| 74>    H       -7.72043         9.02607         7.03589
| 75>    H       -7.74778        12.89266         3.10217
| 76>    H       -8.50276         4.22456         4.00705
| 77>    H       -8.63406         5.67817         1.44147
| 78>    H       -9.33163         1.63520        -1.20469
| 79>    H       -8.78881         5.47885        -0.55220
| 80>    H       -9.54288         3.34622        -2.60055
| 81>    H       -9.00292         6.37481        -2.75955
| 82>    H       -9.24460         3.36252        -5.23596
| 83>    H      -10.53679         4.23239        -6.07010
| 84>    H      -10.82751         3.52536        -4.48529
| 85>    H       -9.32165         7.41547        -4.79747
| 86>    H      -10.56849         6.67512        -5.82412
| 87>    H       -8.74267         5.51510        -6.99149
| 88>    H       -7.23426         7.70250        -5.72982
| 89>    H       -6.53807         5.63302        -7.89699
| 90>    H       -4.96170         7.98997        -6.69706
| 91>    H       -2.57296         8.21445        -7.72030
| 92>    H       -0.99956         7.02056        -9.37084
| 93>    H        0.00682         5.56710       -10.94120
| 94>    H        0.58647         3.61841       -12.52367
| 95>    H       -0.49637         1.36436       -13.48841
| 96>    H       -5.45102         0.68376       -11.61710
| 97>    H       -5.50628        -1.47215       -12.93357
| 98>    H       -4.32385        -2.99045       -14.44011
| 99>    H       -1.49306        -2.10541       -15.18351
|100>    H       -2.34166        -3.63953       -15.75024
|101> *
|102>
|103>                          ****END OF INPUT****

CARTESIAN COORDINATES (ANGSTROEM)
---------------------------------
  C     -8.136300    6.864280    5.112770
  C     -8.093770    6.129160    6.272590
  C     -7.908780    6.681970    7.554500
  N     -7.760300    7.078580    8.622070
  C     -8.232350    4.728530    6.322370
  N     -8.342300    3.588370    6.406810
  C     -8.002180    8.314160    5.014480
  C     -8.106020    8.696470    3.651010
  C     -8.019800   10.004160    3.239200
  C     -7.820480   10.984800    4.217070
  C     -7.717200   10.595010    5.573260
  C     -7.805250    9.271800    5.990680
  S     -7.471740   11.963400    6.614260
  C     -7.510340   13.026830    5.232570
  C     -7.697910   12.391270    4.051430
  Br    -7.300100   14.874460    5.478820
  C     -8.308690    7.491950    2.838460
  O     -8.440790    7.426980    1.617620
  C     -8.322320    6.364070    3.771760
  C     -8.491520    5.071530    3.334030
  N     -8.652070    4.824520    2.027860
  C     -8.830910    3.619880    1.434890
  S     -8.869100    2.149450    2.359640
  C     -9.129720    1.263720    0.891280
  N     -9.255730   -0.126880    0.972250
  O     -9.446160   -0.736690   -0.066190
  O     -9.165860   -0.626180    2.081070
  C     -9.182780    2.052760   -0.226520
  C     -9.012430    3.420920    0.058180
  C     -9.020190    4.484740   -0.911400
  C     -9.300420    4.325230   -2.218760
  C     -9.299350    5.411590   -3.154730
  C     -9.649100    5.316550   -4.447040
  C    -10.089330    4.038190   -5.097850
  C     -9.586600    6.517850   -5.358680
  N     -8.610180    6.328080   -6.406530
  C     -7.378510    6.874080   -6.410130
  C     -6.376870    6.478890   -7.241760
  C     -5.127290    7.117130   -7.315320
  C     -4.096920    6.711560   -8.122890
  C     -2.828200    7.323440   -8.267320
  C     -1.997260    6.692460   -9.140650
  C     -2.553390    5.533850   -9.733820
  S     -4.183740    5.285390   -9.157360
  C     -1.961460    4.663600  -10.625400
  C     -0.661260    4.755880  -11.172850
  C     -0.351880    3.730030  -12.009270
  C     -1.390670    2.772370  -12.160510
  S     -2.788980    3.220050  -11.215460
  C     -1.366610    1.632930  -12.912530
  C     -2.492240    0.761910  -12.944250
  N     -3.555190    1.139220  -12.214600
  C     -4.610520    0.352640  -12.214760
  C     -4.641700   -0.828330  -12.936610
  C     -3.491940   -1.150860  -13.675160
  N     -2.431450   -0.354640  -13.673280
  C     -3.433820   -2.375590  -14.466190
  C     -2.369360   -2.730550  -15.174320
  H     -8.103280   10.265050    2.195810
  H     -7.720430    9.026070    7.035890
  H     -7.747780   12.892660    3.102170
  H     -8.502760    4.224560    4.007050
  H     -8.634060    5.678170    1.441470
  H     -9.331630    1.635200   -1.204690
  H     -8.788810    5.478850   -0.552200
  H     -9.542880    3.346220   -2.600550
  H     -9.002920    6.374810   -2.759550
  H     -9.244600    3.362520   -5.235960
  H    -10.536790    4.232390   -6.070100
  H    -10.827510    3.525360   -4.485290
  H     -9.321650    7.415470   -4.797470
  H    -10.568490    6.675120   -5.824120
  H     -8.742670    5.515100   -6.991490
  H     -7.234260    7.702500   -5.729820
  H     -6.538070    5.633020   -7.896990
  H     -4.961700    7.989970   -6.697060
  H     -2.572960    8.214450   -7.720300
  H     -0.999560    7.020560   -9.370840
  H      0.006820    5.567100  -10.941200
  H      0.586470    3.618410  -12.523670
  H     -0.496370    1.364360  -13.488410
  H     -5.451020    0.683760  -11.617100
  H     -5.506280   -1.472150  -12.933570
  H     -4.323850   -2.990450  -14.440110
  H     -1.493060   -2.105410  -15.183510
  H     -2.341660   -3.639530  -15.750240

 Total Charge           Charge          ....    0
 Multiplicity           Mult            ....    1
 Number of Electrons    NEL             ....  458
 Basis Dimension        Dim             ....  986

ORBITAL ENERGIES
----------------

  NO   OCC          E(Eh)            E(eV)
   0   2.0000    -482.893429    -13140.1982
   1   2.0000     -88.995916     -2421.7020
   2   2.0000     -88.985335     -2421.4141
   3   2.0000     -88.924433     -2419.7569
   4   2.0000     -88.914364     -2419.4828
   5   2.0000     -62.571140     -1702.6473
   6   2.0000     -56.405103     -1534.8609
   7   2.0000     -56.402364     -1534.7864
   8   2.0000     -56.402335     -1534.7856
   9   2.0000     -19.244145      -523.6598
  10   2.0000     -19.242940      -523.6270
  11   2.0000     -19.241761      -523.5949
  12   2.0000     -14.655226      -398.7890
  13   2.0000     -14.503570      -394.6622
  14   2.0000     -14.444029      -393.0420
  15   2.0000     -14.426059      -392.5530
  16   2.0000     -14.421661      -392.4334
  17   2.0000     -14.385605      -391.4522
  18   2.0000     -14.380716      -391.3192
  19   2.0000     -10.388381      -282.6822
  20   2.0000     -10.378269      -282.4071
  21   2.0000     -10.378122      -282.4031
  22   2.0000     -10.368058      -282.1292
  23   2.0000     -10.353961      -281.7456
  24   2.0000     -10.353689      -281.7382
  25   2.0000     -10.349531      -281.6251
  26   2.0000     -10.335850      -281.2528
  27   2.0000     -10.328296      -281.0472
  28   2.0000     -10.325096      -280.9601
  29   2.0000     -10.324699      -280.9494
  30   2.0000     -10.321607      -280.8652
  31   2.0000     -10.319505      -280.8080
  32   2.0000     -10.317888      -280.7640
  33   2.0000     -10.317576      -280.7555
  34   2.0000     -10.316164      -280.7171
  35   2.0000     -10.315430      -280.6971
  36   2.0000     -10.314286      -280.6660
  37   2.0000     -10.313713      -280.6504
  38   2.0000     -10.307222      -280.4738
  39   2.0000     -10.306274      -280.4480
  40   2.0000     -10.306031      -280.4414
  41   2.0000     -10.304661      -280.4041
  42   2.0000     -10.302053      -280.3331
  43   2.0000     -10.299897      -280.2744
  44   2.0000     -10.296023      -280.1690
  45   2.0000     -10.293964      -280.1130
  46   2.0000     -10.293771      -280.1077
  47   2.0000     -10.286141      -279.9001
  48   2.0000     -10.283501      -279.8283
  49   2.0000     -10.283134      -279.8183
  50   2.0000     -10.282681      -279.8060
  51   2.0000     -10.275253      -279.6038
  52   2.0000     -10.271800      -279.5099
  53   2.0000     -10.266951      -279.3779
  54   2.0000     -10.266291      -279.3600
  55   2.0000     -10.264670      -279.3159
  56   2.0000     -10.259541      -279.1763
  57   2.0000     -10.259143      -279.1655
  58   2.0000     -10.256784      -279.1013
  59   2.0000     -10.256709      -279.0993
  60   2.0000     -10.255359      -279.0625
  61   2.0000     -10.237130      -278.5665
  62   2.0000      -8.800573      -239.4758
  63   2.0000      -8.091080      -220.1695
  64   2.0000      -8.081236      -219.9016
  65   2.0000      -8.020708      -218.2546
  66   2.0000      -8.007906      -217.9062
  67   2.0000      -6.636925      -180.5999
  68   2.0000      -6.622285      -180.2015
  69   2.0000      -6.622068      -180.1956
  70   2.0000      -6.060706      -164.9202
  71   2.0000      -6.056388      -164.8027
  72   2.0000      -6.052546      -164.6981
  73   2.0000      -6.050919      -164.6539
  74   2.0000      -6.046618      -164.5368
  75   2.0000      -6.042510      -164.4251
  76   2.0000      -5.990412      -163.0074
  77   2.0000      -5.986477      -162.9003
  78   2.0000      -5.981616      -162.7680
  79   2.0000      -5.978027      -162.6704
  80   2.0000      -5.973325      -162.5424
  81   2.0000      -5.968947      -162.4233
  82   2.0000      -2.752787       -74.9071
  83   2.0000      -2.748674       -74.7952
  84   2.0000      -2.748521       -74.7911
  85   2.0000      -2.736882       -74.4744
  86   2.0000      -2.736870       -74.4740
  87   2.0000      -1.323780       -36.0219
  88   2.0000      -1.155678       -31.4476
  89   2.0000      -1.142851       -31.0985
  90   2.0000      -1.111154       -30.2360
  91   2.0000      -1.058290       -28.7975
  92   2.0000      -1.046257       -28.4701
  93   2.0000      -1.033515       -28.1234
  94   2.0000      -1.022692       -27.8289
  95   2.0000      -1.016442       -27.6588
  96   2.0000      -1.003085       -27.2953
  97   2.0000      -0.999665       -27.2023
  98   2.0000      -0.971188       -26.4274
  99   2.0000      -0.960606       -26.1394
 100   2.0000      -0.952137       -25.9090
 101   2.0000      -0.945504       -25.7285
 102   2.0000      -0.939534       -25.5660
 103   2.0000      -0.922326       -25.0978
 104   2.0000      -0.918643       -24.9976
 105   2.0000      -0.905753       -24.6468
 106   2.0000      -0.896445       -24.3935
 107   2.0000      -0.891743       -24.2656
 108   2.0000      -0.887829       -24.1590
 109   2.0000      -0.882403       -24.0114
 110   2.0000      -0.860023       -23.4024
 111   2.0000      -0.858708       -23.3666
 112   2.0000      -0.849085       -23.1048
 113   2.0000      -0.840132       -22.8611
 114   2.0000      -0.834910       -22.7191
 115   2.0000      -0.822092       -22.3702
 116   2.0000      -0.815038       -22.1783
 117   2.0000      -0.806697       -21.9513
 118   2.0000      -0.797969       -21.7139
 119   2.0000      -0.794214       -21.6117
 120   2.0000      -0.784967       -21.3600
 121   2.0000      -0.773298       -21.0425
 122   2.0000      -0.762434       -20.7469
 123   2.0000      -0.753164       -20.4946
 124   2.0000      -0.740021       -20.1370
 125   2.0000      -0.727944       -19.8084
 126   2.0000      -0.725781       -19.7495
 127   2.0000      -0.718415       -19.5491
 128   2.0000      -0.700844       -19.0709
 129   2.0000      -0.699901       -19.0453
 130   2.0000      -0.695679       -18.9304
 131   2.0000      -0.678425       -18.4609
 132   2.0000      -0.672707       -18.3053
 133   2.0000      -0.667025       -18.1507
 134   2.0000      -0.661490       -18.0001
 135   2.0000      -0.656031       -17.8515
 136   2.0000      -0.646977       -17.6051
 137   2.0000      -0.644778       -17.5453
 138   2.0000      -0.639331       -17.3971
 139   2.0000      -0.636121       -17.3097
 140   2.0000      -0.629721       -17.1356
 141   2.0000      -0.621879       -16.9222
 142   2.0000      -0.618832       -16.8393
 143   2.0000      -0.613134       -16.6842
 144   2.0000      -0.609264       -16.5789
 145   2.0000      -0.602542       -16.3960
 146   2.0000      -0.601372       -16.3642
 147   2.0000      -0.592740       -16.1293
 148   2.0000      -0.587007       -15.9733
 149   2.0000      -0.585568       -15.9341
 150   2.0000      -0.578399       -15.7390
 151   2.0000      -0.575056       -15.6481
 152   2.0000      -0.572744       -15.5851
 153   2.0000      -0.568839       -15.4789
 154   2.0000      -0.566680       -15.4201
 155   2.0000      -0.565469       -15.3872
 156   2.0000      -0.557174       -15.1615
 157   2.0000      -0.556436       -15.1414
 158   2.0000      -0.548148       -14.9159
 159   2.0000      -0.547588       -14.9006
 160   2.0000      -0.543283       -14.7835
 161   2.0000      -0.535473       -14.5710
 162   2.0000      -0.534293       -14.5389
 163   2.0000      -0.529312       -14.4033
 164   2.0000      -0.528645       -14.3852
 165   2.0000      -0.522736       -14.2244
 166   2.0000      -0.521215       -14.1830
 167   2.0000      -0.518310       -14.1039
 168   2.0000      -0.508736       -13.8434
 169   2.0000      -0.507595       -13.8124
 170   2.0000      -0.507038       -13.7972
 171   2.0000      -0.504997       -13.7417
 172   2.0000      -0.502816       -13.6823
 173   2.0000      -0.500633       -13.6229
 174   2.0000      -0.491818       -13.3831
 175   2.0000      -0.486472       -13.2376
 176   2.0000      -0.483595       -13.1593
 177   2.0000      -0.481440       -13.1006
 178   2.0000      -0.477073       -12.9818
 179   2.0000      -0.474672       -12.9165
 180   2.0000      -0.472606       -12.8603
 181   2.0000      -0.470961       -12.8155
 182   2.0000      -0.469225       -12.7683
 183   2.0000      -0.468664       -12.7530
 184   2.0000      -0.464055       -12.6276
 185   2.0000      -0.459090       -12.4925
 186   2.0000      -0.458943       -12.4885
 187   2.0000      -0.458075       -12.4649
 188   2.0000      -0.456727       -12.4282
 189   2.0000      -0.456345       -12.4178
 190   2.0000      -0.451516       -12.2864
 191   2.0000      -0.448890       -12.2149
 192   2.0000      -0.446697       -12.1552
 193   2.0000      -0.440056       -11.9745
 194   2.0000      -0.437561       -11.9066
 195   2.0000      -0.435544       -11.8518
 196   2.0000      -0.435423       -11.8485
 197   2.0000      -0.426300       -11.6002
 198   2.0000      -0.424019       -11.5381
 199   2.0000      -0.421718       -11.4755
 200   2.0000      -0.420845       -11.4518
 201   2.0000      -0.418320       -11.3831
 202   2.0000      -0.412613       -11.2278
 203   2.0000      -0.403695       -10.9851
 204   2.0000      -0.399089       -10.8598
 205   2.0000      -0.398396       -10.8409
 206   2.0000      -0.391081       -10.6419
 207   2.0000      -0.388539       -10.5727
 208   2.0000      -0.383373       -10.4321
 209   2.0000      -0.382773       -10.4158
 210   2.0000      -0.380975       -10.3669
 211   2.0000      -0.376998       -10.2586
 212   2.0000      -0.372294       -10.1306
 213   2.0000      -0.366154        -9.9635
 214   2.0000      -0.364630        -9.9221
 215   2.0000      -0.355234        -9.6664
 216   2.0000      -0.348014        -9.4699
 217   2.0000      -0.336991        -9.1700
 218   2.0000      -0.327891        -8.9224
 219   2.0000      -0.322279        -8.7696
 220   2.0000      -0.316395        -8.6096
 221   2.0000      -0.312046        -8.4912
 222   2.0000      -0.302751        -8.2383
 223   2.0000      -0.299901        -8.1607
 224   2.0000      -0.293154        -7.9771
 225   2.0000      -0.288594        -7.8530
 226   2.0000      -0.271907        -7.3990
 227   2.0000      -0.257838        -7.0161
 228   2.0000      -0.191747        -5.2177
 229   0.0000      -0.096093        -2.6148
 230   0.0000      -0.077664        -2.1133
 231   0.0000      -0.053274        -1.4497
 232   0.0000      -0.049684        -1.3520
 233   0.0000      -0.030325        -0.8252

MULLIKEN ATOMIC CHARGES
-----------------------
   0 C :    0.325749
   1 C :   -0.339410
   2 C :   -0.184833
   3 N :    0.153021
   4 C :   -0.197499
   5 N :    0.146880
   6 C :    0.006263
   7 C :   -0.007428
   8 C :   -0.065113
   9 C :    0.113368
  10 C :   -0.092059
  11 C :   -0.015310
  12 S :    0.194131
  13 C :   -0.124699
  14 C :    0.040503
  15 Br:    0.029507
  16 C :    0.167804
  17 O :   -0.227719
  18 C :   -0.129248
  19 C :    0.028962
  20 N :   -0.004092
  21 C :   -0.121768
  22 S :    0.177975
  23 C :    0.002894
  24 N :    0.277098
  25 O :   -0.248070
  26 O :   -0.254471
  27 C :    0.005126
  28 C :    0.139589
  29 C :   -0.036533
  30 C :    0.003687
  31 C :    0.011830
  32 C :   -0.189942
  33 C :    0.070077
  34 C :    0.215449
  35 N :   -0.152639
  36 C :    0.062427
  37 C :   -0.032416
  38 C :   -0.005388
  39 C :   -0.042091
  40 C :    0.044746
  41 C :    0.011651
  42 C :   -0.043367
  43 S :    0.058752
  44 C :   -0.054350
  45 C :    0.032780
  46 C :    0.023112
  47 C :    0.025896
  48 S :    0.107329
  49 C :   -0.042571
  50 C :    0.010851
  51 N :   -0.160069
  52 C :    0.103754
  53 C :   -0.066000
  54 C :    0.031214
  55 N :   -0.060414
  56 C :   -0.019382
  57 C :    0.035396
  58 H :   -0.011075
  59 H :   -0.003247
  60 H :   -0.002822
  61 H :    0.047246
  62 H :    0.181788
  63 H :    0.010838
  64 H :   -0.008811
  65 H :   -0.015523
  66 H :   -0.025626
  67 H :    0.047590
  68 H :    0.011639
  69 H :    0.041099
  70 H :    0.008488
  71 H :    0.020795
  72 H :    0.119698
  73 H :   -0.001856
  74 H :   -0.013926
  75 H :   -0.025417
  76 H :   -0.022921
  77 H :   -0.022363
  78 H :   -0.025679
  79 H :   -0.024469
  80 H :   -0.034031
  81 H :   -0.006849
  82 H :   -0.017589
  83 H :   -0.021999
  84 H :    0.034652
  85 H :    0.019433
Sum of atomic charges:   -0.0000000

LOEWDIN ATOMIC CHARGES
----------------------
   0 C :    0.078715
   1 C :   -0.147295
   2 C :   -0.019991
   3 N :   -0.051938
   4 C :   -0.020851
   5 N :   -0.051327
   6 C :   -0.018245
   7 C :   -0.051846
   8 C :    0.024021
   9 C :   -0.033664
  10 C :   -0.143307
  11 C :   -0.006100
  12 S :    0.439442
  13 C :   -0.270307
  14 C :   -0.070280
  15 Br:    0.140974
  16 C :    0.097246
  17 O :   -0.181605
  18 C :   -0.146117
  19 C :    0.113291
  20 N :    0.080584
  21 C :   -0.114318
  22 S :    0.473061
  23 C :   -0.199100
  24 N :    0.274666
  25 O :   -0.215041
  26 O :   -0.221036
  27 C :    0.003627
  28 C :   -0.083713
  29 C :   -0.030604
  30 C :   -0.012219
  31 C :   -0.047816
  32 C :   -0.033376
  33 C :   -0.056388
  34 C :    0.046442
  35 N :    0.001704
  36 C :    0.049353
  37 C :   -0.124558
  38 C :   -0.032295
  39 C :   -0.178691
  40 C :   -0.025420
  41 C :   -0.053030
  42 C :   -0.156831
  43 S :    0.357233
  44 C :   -0.218072
  45 C :   -0.022181
  46 C :   -0.055787
  47 C :   -0.112126
  48 S :    0.407526
  49 C :   -0.109546
  50 C :    0.030615
  51 N :   -0.118066
  52 C :    0.054077
  53 C :   -0.091145
  54 C :    0.033902
  55 N :   -0.096089
  56 C :   -0.044755
  57 C :    0.000507
  58 H :    0.040978
  59 H :    0.042578
  60 H :    0.039041
  61 H :    0.036263
  62 H :    0.084714
  63 H :    0.044375
  64 H :    0.030207
  65 H :    0.025217
  66 H :    0.026567
  67 H :    0.043078
  68 H :    0.027384
  69 H :    0.040455
  70 H :    0.030055
  71 H :    0.027336
  72 H :    0.077711
  73 H :    0.026750
  74 H :    0.017715
  75 H :    0.028773
  76 H :    0.029443
  77 H :    0.028045
  78 H :    0.025277
  79 H :    0.028232
  80 H :    0.029508
  81 H :    0.022259
  82 H :    0.027127
  83 H :    0.025256
  84 H :    0.029265
  85 H :    0.024482

  Mayer bond orders larger than 0.100000
B(  0-C ,  1-C ) :   1.6253 B(  0-C ,  6-C ) :   1.0058 B(  0-C , 18-C ) :   1.0991
B(  1-C ,  2-C ) :   1.1442 B(  1-C ,  4-C ) :   1.1502 B(  2-C ,  3-N ) :   2.9670
B(  4-C ,  5-N ) :   2.9521 B(  6-C ,  7-C ) :   1.2727 B(  6-C , 11-C ) :   1.4234
B(  7-C ,  8-C ) :   1.4253 B(  7-C , 16-C ) :   0.9815 B(  8-C ,  9-C ) :   1.2413
B(  8-C , 58-H ) :   1.0179 B(  9-C , 10-C ) :   1.3106 B(  9-C , 14-C ) :   1.1627
B( 10-C , 11-C ) :   1.3206 B( 10-C , 12-S ) :   1.0902 B( 11-C , 59-H ) :   0.9799
B( 12-S , 13-C ) :   1.0895 B( 13-C , 14-C ) :   1.6163 B( 13-C , 15-Br) :   1.0222
B( 14-C , 60-H ) :   1.0008 B( 16-C , 17-O ) :   2.0299 B( 16-C , 18-C ) :   1.0068
B( 17-O , 62-H ) :   0.1415 B( 18-C , 19-C ) :   1.4520 B( 19-C , 20-N ) :   1.3415
B( 19-C , 61-H ) :   0.9304 B( 20-N , 21-C ) :   1.1928 B( 20-N , 62-H ) :   0.8256
B( 21-C , 22-S ) :   1.1349 B( 21-C , 28-C ) :   1.3783 B( 22-S , 23-C ) :   1.0832
B( 23-C , 24-N ) :   0.9669 B( 23-C , 27-C ) :   1.5051 B( 24-N , 25-O ) :   1.5296
B( 24-N , 26-O ) :   1.5151 B( 25-O , 26-O ) :   0.2639 B( 27-C , 28-C ) :   1.2201
B( 27-C , 63-H ) :   0.9993 B( 28-C , 29-C ) :   1.0445 B( 29-C , 30-C ) :   1.7407
B( 29-C , 64-H ) :   0.9802 B( 30-C , 31-C ) :   1.0969 B( 30-C , 65-H ) :   0.9694
B( 31-C , 32-C ) :   1.7885 B( 31-C , 66-H ) :   0.9792 B( 32-C , 33-C ) :   1.0629
B( 32-C , 34-C ) :   1.0456 B( 33-C , 67-H ) :   0.9495 B( 33-C , 68-H ) :   0.9526
B( 33-C , 69-H ) :   0.9437 B( 34-C , 35-N ) :   1.0115 B( 34-C , 70-H ) :   0.9396
B( 34-C , 71-H ) :   0.9283 B( 35-N , 36-C ) :   1.2268 B( 35-N , 72-H ) :   0.9378
B( 36-C , 37-C ) :   1.5962 B( 36-C , 73-H ) :   0.9670 B( 37-C , 38-C ) :   1.1748
B( 37-C , 74-H ) :   0.9646 B( 38-C , 39-C ) :   1.5880 B( 38-C , 75-H ) :   0.9776
B( 39-C , 40-C ) :   1.1445 B( 39-C , 43-S ) :   1.0072 B( 40-C , 41-C ) :   1.5894
B( 40-C , 76-H ) :   0.9980 B( 41-C , 42-C ) :   1.1838 B( 41-C , 77-H ) :   0.9929
B( 42-C , 43-S ) :   1.0585 B( 42-C , 44-C ) :   1.5256 B( 44-C , 45-C ) :   1.1902
B( 44-C , 48-S ) :   0.9630 B( 45-C , 46-C ) :   1.5874 B( 45-C , 78-H ) :   0.9932
B( 46-C , 47-C ) :   1.1386 B( 46-C , 79-H ) :   1.0001 B( 47-C , 48-S ) :   1.0785
B( 47-C , 49-C ) :   1.5287 B( 48-S , 51-N ) :   0.1082 B( 49-C , 50-C ) :   1.1263
B( 49-C , 80-H ) :   0.9810 B( 50-C , 51-N ) :   1.3959 B( 50-C , 55-N ) :   1.4864
B( 51-N , 52-C ) :   1.5318 B( 52-C , 53-C ) :   1.3823 B( 52-C , 81-H ) :   0.9779
B( 53-C , 54-C ) :   1.3158 B( 53-C , 82-H ) :   0.9730 B( 54-C , 55-N ) :   1.5506
B( 54-C , 56-C ) :   1.0592 B( 56-C , 57-C ) :   1.9642 B( 56-C , 83-H ) :   0.9657
B( 57-C , 84-H ) :   0.9363 B( 57-C , 85-H ) :   0.9468

-----------------------------------------------------------------------------
         ABSORPTION SPECTRUM VIA TRANSITION ELECTRIC DIPOLE MOMENTS
-----------------------------------------------------------------------------
State   Energy  Wavelength   fosc         T2         TX        TY        TZ
        (cm-1)    (nm)                  (au**2)     (au)      (au)      (au)
-----------------------------------------------------------------------------
   0   12984.1    770.2   0.026271741   0.66612   0.29689  -0.27917  -0.70714
   1   16729.0    597.8   1.241683080  24.43522  -2.11301   2.88458   3.41315
   2   17072.6    585.7   0.137957916   2.66025   0.69931  -0.99449  -1.08730
   3   20869.9    479.2   0.024802887   0.39125  -0.05505   0.62054  -0.05612
   4   21836.3    458.0   0.838809542  12.64622   0.54489   2.25599   2.69441
   5   24627.9    406.0   0.020483157   0.27381   0.44895  -0.04116  -0.26562
   6   24909.4    401.5   0.100531804   1.32866  -0.13537  -1.12831  -0.19303
   7   25227.7    396.4   0.016331897   0.21313  -0.25309  -0.36714   0.11950
   8   27043.2    369.8   0.032488159   0.39550  -0.10313  -0.56768  -0.25020
   9   27467.4    364.1   0.006507657   0.07800   0.12366   0.19781   0.15355
  10   28987.5    345.0   0.332611652   3.77748   0.17444   1.80813  -0.69118
  11   29800.5    335.6   0.247582075   2.73509  -0.27458   1.18679   1.11858
  12   30275.9    330.3   0.146495371   1.59295  -0.68849  -0.69946   0.79353
  13   30543.6    327.4   0.002122101   0.02287  -0.10814  -0.07476  -0.07476
  14   30733.1    325.4   0.807063252   8.64523  -1.95145  -2.19027   0.19939
  15   31259.1    319.9   0.056398019   0.59397   0.46958  -0.48489   0.37195
  16   31523.9    317.2   0.178181275   1.86079   0.52313  -1.15683   0.49886
  17   32834.2    304.6   0.001250376   0.01254  -0.06484  -0.07121   0.05710
  18   33223.4    301.0   0.201871288   2.00035  -1.18695  -0.75723   0.13455
  19   33521.5    298.3   0.000056421   0.00055  -0.01808  -0.01144  -0.00983
  20   33702.4    296.7   0.089127455   0.87061  -0.14329  -0.55513   0.73614
  21   33868.8    295.3   0.001470335   0.01429  -0.01734  -0.08926   0.07762
  22   34137.7    292.9   0.504526468   4.86547   0.02681   2.04530  -0.82552
  23   34281.4    291.7   0.007438955   0.07144   0.10330  -0.11494   0.21807
  24   35071.1    285.1   0.021272139   0.19968  -0.28701  -0.34250  -0.00084
  25   35702.9    280.1   0.000007330   0.00007   0.00687   0.00131   0.00432
  26   36062.5    277.3   0.003000449   0.02739   0.10843   0.09163   0.08508
  27   36117.9    276.9   0.066976448   0.61049  -0.46466  -0.43151  -0.45648
  28   36230.4    276.0   0.000044036   0.00040  -0.00538   0.01750  -0.00807
  29   36537.0    273.7   0.005724963   0.05158   0.04418  -0.10487   0.19656
  30   36693.9    272.5   0.475501717   4.26613   0.35666  -1.02831   1.75542
  31   37143.2    269.2   0.004983902   0.04417   0.11882   0.05979   0.16273
  32   37780.1    264.7   0.172492286   1.50308   0.02742  -0.48826   1.12425
  33   37984.5    263.3   0.184940425   1.60288  -0.18201  -0.84734  -0.92291
  34   38533.3    259.5   0.034672459   0.29623  -0.20718   0.45552   0.21402
  35   39188.1    255.2   0.021207418   0.17816   0.07045  -0.00790   0.41609
  36   39609.8    252.5   0.036803629   0.30589  -0.08439   0.05262  -0.54406
  37   39760.5    251.5   0.099701950   0.82552  -0.18309   0.14452  -0.87813
  38   39822.3    251.1   0.021618157   0.17872   0.02467  -0.24287  -0.34514
  39   39835.7    251.0   0.000074394   0.00061  -0.00431  -0.00501  -0.02390

FINAL SINGLE POINT ENERGY     -6427.547065619220

DIPOLE MOMENT
-------------
                                X             Y             Z
Electronic contribution:    -13.43067     120.37900     170.02615
Nuclear contribution   :     11.57306    -116.50449    -170.31192
                        -----------------------------------------
Total Dipole Moment    :     -1.85761       3.87450      -0.28576
                        -----------------------------------------
Magnitude (a.u.)       :      4.30629
Magnitude (Debye)      :     10.94572

Rotational constants in cm-1:     0.001283     0.000270     0.000235
Rotational constants in MHz :    38.466692     8.084345     7.030221

                             ****ORCA TERMINATED NORMALLY****
TOTAL RUN TIME: 0 days 0 hours 7 minutes 2 seconds 550 msec
