                         Program Version 4.2.0 -  RELEASE  -
|  1> # ORCA input file
|  2> # SCF done       -198.916073135711          0.000779637222
|  3> ! CAM-B3LYP def2-SVP def2/J RIJCOSX Grid4 TightSCF
|  4> %maxcore 5000
|  5> %tddft
|  6>     Mode sTDDFT
|  7>     Ethresh 5.0
|  8>     maxcore 5000
|  9> end
| 10>
| 11> %pal
| 12>   nprocs 6
| 13>   end
| 14> * xyz 0 1
| 15>    C       -9.06469        -0.89704         3.21360
| 16>    C       -8.86254        -2.00313         2.42473
| 17>    C       -9.29360        -3.30177         2.75991
| 18>    N       -9.62646        -4.37886         2.97950
| 19>    C       -8.16558        -1.99350         1.19944
| 20>    N       -7.58440        -2.06378         0.21088
| 21>    C       -9.67657        -0.89311         4.53774
| 22>    C       -9.58365         0.41491         5.07224
| 23>    C      -10.07272         0.74257         6.31247
| 24>    C      -10.67926        -0.27070         7.06374
| 25>    C      -10.76896        -1.57336         6.52003
| 26>    C      -10.27598        -1.90444         5.26331
| 27>    S      -11.56221        -2.66891         7.61128
| 28>    C      -11.75721        -1.37971         8.76855
| 29>    C      -11.25595        -0.18971         8.36092
| 30>   Br      -12.60444        -1.72604        10.40612
| 31>    C       -8.92135         1.30334         4.09208
| 32>    O       -8.75462         2.50121         4.20668
| 33>    C       -8.62578         0.44757         2.92468
| 34>    C       -8.24223         0.91128         1.68718
| 35>    C       -7.64910         2.14501         1.39443
| 36>    S       -7.92882         2.83546        -0.17994
| 37>    C       -7.03825         4.26960         0.18792
| 38>    C       -6.47205         4.18633         1.47360
| 39>    C       -6.79599         2.97431         2.14558
| 40>    C       -6.18268         2.68668         3.37688
| 41>    C       -5.36166         3.60194         3.97412
| 42>    C       -4.69894         3.33292         5.28421
| 43>    C       -5.11196         4.85607         3.33616
| 44>    O       -4.30113         5.69014         4.03530
| 45>    C       -3.98610         6.94638         3.48821
| 46>    C       -5.63860         5.13230         2.09862
| 47>    C       -6.94209         5.34403        -0.73217
| 48>    C       -7.42050         5.29313        -1.99707
| 49>    C       -7.37090         6.32215        -2.99488
| 50>    C       -7.34279         7.65647        -2.83648
| 51>    C       -7.45148         8.38063        -1.53385
| 52>    C       -7.32331         8.54663        -4.05800
| 53>    N       -8.64399         9.07405        -4.31188
| 54>    C       -9.02420        10.34240        -4.09213
| 55>    C      -10.32238        10.76052        -4.10754
| 56>    C      -10.71111        12.10031        -3.97415
| 57>    C      -12.01673        12.52725        -3.98101
| 58>    C      -12.49481        13.85381        -3.89602
| 59>    C      -13.85386        13.96410        -3.94020
| 60>    C      -14.52377        12.72687        -4.05025
| 61>    S      -13.37855        11.41673        -4.10989
| 62>    C      -15.89060        12.49495        -4.09878
| 63>    C      -16.93637        13.43485        -4.08997
| 64>    C      -18.18168        12.87102        -4.13864
| 65>    C      -18.17548        11.46257        -4.17499
| 66>    S      -16.53624        10.86830        -4.17581
| 67>    C      -19.28286        10.62783        -4.20285
| 68>    C      -19.19485         9.24762        -4.15381
| 69>    C      -20.22297         8.31978        -4.15646
| 70>    C      -19.96995         6.97387        -3.61168
| 71>    O      -18.89496         6.48367        -3.32896
| 72>    C      -21.30724         6.36425        -3.43121
| 73>    C      -21.63907         5.17030        -2.86315
| 74>    C      -23.00421         4.81835        -2.75113
| 75>    C      -23.99743         5.71651        -3.23549
| 76>    C      -25.35604         5.36590        -3.11101
| 77>    C      -25.71197         4.17931        -2.53327
| 78>    C      -24.72934         3.29216        -2.05577
| 79>    C      -23.40257         3.60312        -2.16264
| 80>    F      -25.10633         2.13348        -1.49029
| 81>    F      -27.00808         3.84919        -2.41463
| 82>    C      -23.61988         6.94339        -3.83201
| 83>    C      -22.29335         7.26117        -3.93010
| 84>    C      -21.61032         8.42919        -4.49389
| 85>    C      -22.19473         9.33718        -5.35104
| 86>    C      -21.48321        10.27960        -6.11629
| 87>    N      -20.95517        11.03412        -6.80396
| 88>    C      -23.56813         9.35865        -5.65345
| 89>    N      -24.68415         9.44075        -5.91697
| 90>    H       -9.98972         1.74849         6.69317
| 91>    H      -10.37407        -2.90950         4.88830
| 92>    H      -11.29216         0.70937         8.94857
| 93>    H       -8.47984         0.29655         0.82631
| 94>    H       -6.34286         1.72722         3.84111
| 95>    H       -4.94935         2.34090         5.64859
| 96>    H       -5.01517         4.07389         6.01662
| 97>    H       -3.61814         3.41999         5.18295
| 98>    H       -3.35193         7.43768         4.22432
| 99>    H       -4.88483         7.54971         3.32469
|100>    H       -3.43592         6.84784         2.54658
|101>    H       -5.41344         6.05352         1.58706
|102>    H       -6.41250         6.21779        -0.38567
|103>    H       -7.85348         4.35663        -2.32892
|104>    H       -7.38796         5.94508        -4.01144
|105>    H       -7.97206         7.77905        -0.79280
|106>    H       -7.99456         9.31541        -1.67043
|107>    H       -6.46159         8.62745        -1.14769
|108>    H       -6.99365         7.98039        -4.93535
|109>    H       -6.64101         9.38666        -3.90708
|110>    H       -9.37654         8.38619        -4.42099
|111>    H       -8.22163        11.05256        -3.93986
|112>    H      -11.10575        10.02672        -4.24381
|113>    H       -9.94092        12.85330        -3.86817
|114>    H      -11.82099        14.68829        -3.81005
|115>    H      -14.38757        14.89589        -3.89110
|116>    H      -16.75447        14.49394        -4.05071
|117>    H      -19.10189        13.42723        -4.14884
|118>    H      -20.24792        11.11228        -4.22035
|119>    H      -18.20983         8.82011        -3.98686
|120>    H      -20.87266         4.50324        -2.49862
|121>    H      -26.12180         6.03347        -3.47418
|122>    H      -22.66122         2.91284        -1.79142
|123>    H      -24.39458         7.60460        -4.18582
|124> *
|125>
|126>                          ****END OF INPUT****

CARTESIAN COORDINATES (ANGSTROEM)
---------------------------------
  C     -9.064690   -0.897040    3.213600
  C     -8.862540   -2.003130    2.424730
  C     -9.293600   -3.301770    2.759910
  N     -9.626460   -4.378860    2.979500
  C     -8.165580   -1.993500    1.199440
  N     -7.584400   -2.063780    0.210880
  C     -9.676570   -0.893110    4.537740
  C     -9.583650    0.414910    5.072240
  C    -10.072720    0.742570    6.312470
  C    -10.679260   -0.270700    7.063740
  C    -10.768960   -1.573360    6.520030
  C    -10.275980   -1.904440    5.263310
  S    -11.562210   -2.668910    7.611280
  C    -11.757210   -1.379710    8.768550
  C    -11.255950   -0.189710    8.360920
  Br   -12.604440   -1.726040   10.406120
  C     -8.921350    1.303340    4.092080
  O     -8.754620    2.501210    4.206680
  C     -8.625780    0.447570    2.924680
  C     -8.242230    0.911280    1.687180
  C     -7.649100    2.145010    1.394430
  S     -7.928820    2.835460   -0.179940
  C     -7.038250    4.269600    0.187920
  C     -6.472050    4.186330    1.473600
  C     -6.795990    2.974310    2.145580
  C     -6.182680    2.686680    3.376880
  C     -5.361660    3.601940    3.974120
  C     -4.698940    3.332920    5.284210
  C     -5.111960    4.856070    3.336160
  O     -4.301130    5.690140    4.035300
  C     -3.986100    6.946380    3.488210
  C     -5.638600    5.132300    2.098620
  C     -6.942090    5.344030   -0.732170
  C     -7.420500    5.293130   -1.997070
  C     -7.370900    6.322150   -2.994880
  C     -7.342790    7.656470   -2.836480
  C     -7.451480    8.380630   -1.533850
  C     -7.323310    8.546630   -4.058000
  N     -8.643990    9.074050   -4.311880
  C     -9.024200   10.342400   -4.092130
  C    -10.322380   10.760520   -4.107540
  C    -10.711110   12.100310   -3.974150
  C    -12.016730   12.527250   -3.981010
  C    -12.494810   13.853810   -3.896020
  C    -13.853860   13.964100   -3.940200
  C    -14.523770   12.726870   -4.050250
  S    -13.378550   11.416730   -4.109890
  C    -15.890600   12.494950   -4.098780
  C    -16.936370   13.434850   -4.089970
  C    -18.181680   12.871020   -4.138640
  C    -18.175480   11.462570   -4.174990
  S    -16.536240   10.868300   -4.175810
  C    -19.282860   10.627830   -4.202850
  C    -19.194850    9.247620   -4.153810
  C    -20.222970    8.319780   -4.156460
  C    -19.969950    6.973870   -3.611680
  O    -18.894960    6.483670   -3.328960
  C    -21.307240    6.364250   -3.431210
  C    -21.639070    5.170300   -2.863150
  C    -23.004210    4.818350   -2.751130
  C    -23.997430    5.716510   -3.235490
  C    -25.356040    5.365900   -3.111010
  C    -25.711970    4.179310   -2.533270
  C    -24.729340    3.292160   -2.055770
  C    -23.402570    3.603120   -2.162640
  F    -25.106330    2.133480   -1.490290
  F    -27.008080    3.849190   -2.414630
  C    -23.619880    6.943390   -3.832010
  C    -22.293350    7.261170   -3.930100
  C    -21.610320    8.429190   -4.493890
  C    -22.194730    9.337180   -5.351040
  C    -21.483210   10.279600   -6.116290
  N    -20.955170   11.034120   -6.803960
  C    -23.568130    9.358650   -5.653450
  N    -24.684150    9.440750   -5.916970
  H     -9.989720    1.748490    6.693170
  H    -10.374070   -2.909500    4.888300
  H    -11.292160    0.709370    8.948570
  H     -8.479840    0.296550    0.826310
  H     -6.342860    1.727220    3.841110
  H     -4.949350    2.340900    5.648590
  H     -5.015170    4.073890    6.016620
  H     -3.618140    3.419990    5.182950
  H     -3.351930    7.437680    4.224320
  H     -4.884830    7.549710    3.324690
  H     -3.435920    6.847840    2.546580
  H     -5.413440    6.053520    1.587060
  H     -6.412500    6.217790   -0.385670
  H     -7.853480    4.356630   -2.328920
  H     -7.387960    5.945080   -4.011440
  H     -7.972060    7.779050   -0.792800
  H     -7.994560    9.315410   -1.670430
  H     -6.461590    8.627450   -1.147690
  H     -6.993650    7.980390   -4.935350
  H     -6.641010    9.386660   -3.907080
  H     -9.376540    8.386190   -4.420990
  H     -8.221630   11.052560   -3.939860
  H    -11.105750   10.026720   -4.243810
  H     -9.940920   12.853300   -3.868170
  H    -11.820990   14.688290   -3.810050
  H    -14.387570   14.895890   -3.891100
  H    -16.754470   14.493940   -4.050710
  H    -19.101890   13.427230   -4.148840
  H    -20.247920   11.112280   -4.220350
  H    -18.209830    8.820110   -3.986860
  H    -20.872660    4.503240   -2.498620
  H    -26.121800    6.033470   -3.474180
  H    -22.661220    2.912840   -1.791420
  H    -24.394580    7.604600   -4.185820

 Total Charge           Charge          ....    0
 Multiplicity           Mult            ....    1
 Number of Electrons    NEL             ....  570
 Basis Dimension        Dim             .... 1254

ORBITAL ENERGIES
----------------

  NO   OCC          E(Eh)            E(eV)
   0   2.0000    -482.883447    -13139.9266
   1   2.0000     -88.978107     -2421.2174
   2   2.0000     -88.972741     -2421.0714
   3   2.0000     -88.960794     -2420.7463
   4   2.0000     -88.950992     -2420.4796
   5   2.0000     -62.561177     -1702.3762
   6   2.0000     -56.395123     -1534.5893
   7   2.0000     -56.392414     -1534.5156
   8   2.0000     -56.392378     -1534.5146
   9   2.0000     -24.778648      -674.2613
  10   2.0000     -24.777697      -674.2354
  11   2.0000     -19.263611      -524.1895
  12   2.0000     -19.209523      -522.7177
  13   2.0000     -19.182115      -521.9719
  14   2.0000     -14.476061      -393.9137
  15   2.0000     -14.409804      -392.1107
  16   2.0000     -14.409635      -392.1061
  17   2.0000     -14.386100      -391.4657
  18   2.0000     -14.383466      -391.3940
  19   2.0000     -10.360830      -281.9325
  20   2.0000     -10.359566      -281.8981
  21   2.0000     -10.358957      -281.8816
  22   2.0000     -10.356707      -281.8203
  23   2.0000     -10.356140      -281.8049
  24   2.0000     -10.347281      -281.5638
  25   2.0000     -10.343992      -281.4743
  26   2.0000     -10.339116      -281.3416
  27   2.0000     -10.335477      -281.2426
  28   2.0000     -10.334927      -281.2277
  29   2.0000     -10.333793      -281.1968
  30   2.0000     -10.333043      -281.1764
  31   2.0000     -10.329667      -281.0845
  32   2.0000     -10.321817      -280.8709
  33   2.0000     -10.319046      -280.7955
  34   2.0000     -10.316891      -280.7369
  35   2.0000     -10.316444      -280.7247
  36   2.0000     -10.314402      -280.6691
  37   2.0000     -10.313267      -280.6383
  38   2.0000     -10.313185      -280.6360
  39   2.0000     -10.312903      -280.6283
  40   2.0000     -10.311087      -280.5789
  41   2.0000     -10.309573      -280.5377
  42   2.0000     -10.308651      -280.5126
  43   2.0000     -10.307532      -280.4822
  44   2.0000     -10.307243      -280.4743
  45   2.0000     -10.304650      -280.4038
  46   2.0000     -10.304173      -280.3908
  47   2.0000     -10.303800      -280.3806
  48   2.0000     -10.303410      -280.3700
  49   2.0000     -10.301656      -280.3223
  50   2.0000     -10.299240      -280.2566
  51   2.0000     -10.298921      -280.2479
  52   2.0000     -10.297121      -280.1989
  53   2.0000     -10.296494      -280.1818
  54   2.0000     -10.295498      -280.1547
  55   2.0000     -10.294228      -280.1202
  56   2.0000     -10.294197      -280.1194
  57   2.0000     -10.294194      -280.1192
  58   2.0000     -10.292041      -280.0607
  59   2.0000     -10.291793      -280.0539
  60   2.0000     -10.290841      -280.0280
  61   2.0000     -10.288275      -279.9582
  62   2.0000     -10.287579      -279.9393
  63   2.0000     -10.287342      -279.9328
  64   2.0000     -10.286296      -279.9044
  65   2.0000     -10.286028      -279.8970
  66   2.0000     -10.284382      -279.8523
  67   2.0000     -10.284246      -279.8486
  68   2.0000     -10.281904      -279.7848
  69   2.0000     -10.280313      -279.7415
  70   2.0000     -10.279912      -279.7306
  71   2.0000     -10.278827      -279.7011
  72   2.0000     -10.278612      -279.6953
  73   2.0000     -10.276218      -279.6301
  74   2.0000     -10.274942      -279.5954
  75   2.0000     -10.267965      -279.4055
  76   2.0000     -10.266234      -279.3584
  77   2.0000     -10.264475      -279.3106
  78   2.0000     -10.258227      -279.1405
  79   2.0000      -8.790612      -239.2047
  80   2.0000      -8.073556      -219.6926
  81   2.0000      -8.068667      -219.5596
  82   2.0000      -8.056933      -219.2403
  83   2.0000      -8.047267      -218.9773
  84   2.0000      -6.626902      -180.3272
  85   2.0000      -6.612339      -179.9309
  86   2.0000      -6.612171      -179.9263
  87   2.0000      -6.042526      -164.4255
  88   2.0000      -6.038591      -164.3184
  89   2.0000      -6.038367      -164.3123
  90   2.0000      -6.036106      -164.2508
  91   2.0000      -6.034083      -164.1957
  92   2.0000      -6.029908      -164.0821
  93   2.0000      -6.026529      -163.9902
  94   2.0000      -6.022552      -163.8820
  95   2.0000      -6.018109      -163.7611
  96   2.0000      -6.016806      -163.7256
  97   2.0000      -6.012818      -163.6171
  98   2.0000      -6.008509      -163.4998
  99   2.0000      -2.742771       -74.6346
 100   2.0000      -2.738702       -74.5239
 101   2.0000      -2.738534       -74.5193
 102   2.0000      -2.726983       -74.2050
 103   2.0000      -2.726970       -74.2046
 104   2.0000      -1.299949       -35.3734
 105   2.0000      -1.285255       -34.9736
 106   2.0000      -1.168090       -31.7854
 107   2.0000      -1.124245       -30.5923
 108   2.0000      -1.096127       -29.8271
 109   2.0000      -1.075650       -29.2699
 110   2.0000      -1.018957       -27.7272
 111   2.0000      -1.012374       -27.5481
 112   2.0000      -1.008265       -27.4363
 113   2.0000      -1.005841       -27.3703
 114   2.0000      -0.989904       -26.9367
 115   2.0000      -0.988542       -26.8996
 116   2.0000      -0.984903       -26.8006
 117   2.0000      -0.981427       -26.7060
 118   2.0000      -0.977400       -26.5964
 119   2.0000      -0.963956       -26.2306
 120   2.0000      -0.953787       -25.9539
 121   2.0000      -0.952510       -25.9191
 122   2.0000      -0.945570       -25.7303
 123   2.0000      -0.939317       -25.5601
 124   2.0000      -0.924652       -25.1610
 125   2.0000      -0.914057       -24.8728
 126   2.0000      -0.906705       -24.6727
 127   2.0000      -0.904336       -24.6082
 128   2.0000      -0.893181       -24.3047
 129   2.0000      -0.887499       -24.1501
 130   2.0000      -0.882187       -24.0055
 131   2.0000      -0.877246       -23.8711
 132   2.0000      -0.872600       -23.7447
 133   2.0000      -0.867310       -23.6007
 134   2.0000      -0.861875       -23.4528
 135   2.0000      -0.858544       -23.3622
 136   2.0000      -0.851488       -23.1702
 137   2.0000      -0.850698       -23.1487
 138   2.0000      -0.833096       -22.6697
 139   2.0000      -0.828943       -22.5567
 140   2.0000      -0.826688       -22.4953
 141   2.0000      -0.825026       -22.4501
 142   2.0000      -0.815705       -22.1965
 143   2.0000      -0.810244       -22.0479
 144   2.0000      -0.803951       -21.8766
 145   2.0000      -0.795178       -21.6379
 146   2.0000      -0.785960       -21.3871
 147   2.0000      -0.781369       -21.2621
 148   2.0000      -0.762174       -20.7398
 149   2.0000      -0.755142       -20.5485
 150   2.0000      -0.749633       -20.3986
 151   2.0000      -0.739866       -20.1328
 152   2.0000      -0.736406       -20.0386
 153   2.0000      -0.724168       -19.7056
 154   2.0000      -0.717624       -19.5275
 155   2.0000      -0.704571       -19.1724
 156   2.0000      -0.701526       -19.0895
 157   2.0000      -0.698904       -19.0181
 158   2.0000      -0.692095       -18.8329
 159   2.0000      -0.687797       -18.7159
 160   2.0000      -0.686189       -18.6721
 161   2.0000      -0.681230       -18.5372
 162   2.0000      -0.666973       -18.1493
 163   2.0000      -0.662907       -18.0386
 164   2.0000      -0.657141       -17.8817
 165   2.0000      -0.653861       -17.7925
 166   2.0000      -0.650490       -17.7007
 167   2.0000      -0.647231       -17.6120
 168   2.0000      -0.640312       -17.4238
 169   2.0000      -0.633527       -17.2392
 170   2.0000      -0.629995       -17.1430
 171   2.0000      -0.626360       -17.0441
 172   2.0000      -0.624174       -16.9846
 173   2.0000      -0.618744       -16.8369
 174   2.0000      -0.618179       -16.8215
 175   2.0000      -0.613828       -16.7031
 176   2.0000      -0.611581       -16.6420
 177   2.0000      -0.605864       -16.4864
 178   2.0000      -0.603446       -16.4206
 179   2.0000      -0.600100       -16.3296
 180   2.0000      -0.596363       -16.2279
 181   2.0000      -0.590724       -16.0744
 182   2.0000      -0.586827       -15.9684
 183   2.0000      -0.583240       -15.8708
 184   2.0000      -0.573077       -15.5942
 185   2.0000      -0.571674       -15.5560
 186   2.0000      -0.569729       -15.5031
 187   2.0000      -0.566390       -15.4123
 188   2.0000      -0.565003       -15.3745
 189   2.0000      -0.560467       -15.2511
 190   2.0000      -0.551982       -15.0202
 191   2.0000      -0.549687       -14.9577
 192   2.0000      -0.547448       -14.8968
 193   2.0000      -0.545039       -14.8313
 194   2.0000      -0.539571       -14.6825
 195   2.0000      -0.535755       -14.5786
 196   2.0000      -0.535370       -14.5682
 197   2.0000      -0.532636       -14.4938
 198   2.0000      -0.531187       -14.4543
 199   2.0000      -0.527232       -14.3467
 200   2.0000      -0.526556       -14.3283
 201   2.0000      -0.523193       -14.2368
 202   2.0000      -0.521945       -14.2028
 203   2.0000      -0.517101       -14.0710
 204   2.0000      -0.516088       -14.0435
 205   2.0000      -0.514653       -14.0044
 206   2.0000      -0.511058       -13.9066
 207   2.0000      -0.510916       -13.9027
 208   2.0000      -0.508209       -13.8291
 209   2.0000      -0.507002       -13.7962
 210   2.0000      -0.506019       -13.7695
 211   2.0000      -0.505263       -13.7489
 212   2.0000      -0.504210       -13.7203
 213   2.0000      -0.502826       -13.6826
 214   2.0000      -0.497485       -13.5373
 215   2.0000      -0.497115       -13.5272
 216   2.0000      -0.495365       -13.4796
 217   2.0000      -0.492126       -13.3914
 218   2.0000      -0.491200       -13.3662
 219   2.0000      -0.490532       -13.3481
 220   2.0000      -0.488197       -13.2845
 221   2.0000      -0.485580       -13.2133
 222   2.0000      -0.482903       -13.1405
 223   2.0000      -0.480116       -13.0646
 224   2.0000      -0.475695       -12.9443
 225   2.0000      -0.475019       -12.9259
 226   2.0000      -0.473121       -12.8743
 227   2.0000      -0.470264       -12.7965
 228   2.0000      -0.469363       -12.7720
 229   2.0000      -0.467479       -12.7207
 230   2.0000      -0.466109       -12.6835
 231   2.0000      -0.460098       -12.5199
 232   2.0000      -0.457742       -12.4558
 233   2.0000      -0.455298       -12.3893
 234   2.0000      -0.455118       -12.3844
 235   2.0000      -0.448273       -12.1981
 236   2.0000      -0.446120       -12.1395
 237   2.0000      -0.444338       -12.0911
 238   2.0000      -0.443950       -12.0805
 239   2.0000      -0.443717       -12.0742
 240   2.0000      -0.441278       -12.0078
 241   2.0000      -0.440151       -11.9771
 242   2.0000      -0.439495       -11.9593
 243   2.0000      -0.438953       -11.9445
 244   2.0000      -0.435282       -11.8446
 245   2.0000      -0.431128       -11.7316
 246   2.0000      -0.429079       -11.6758
 247   2.0000      -0.427475       -11.6322
 248   2.0000      -0.424586       -11.5536
 249   2.0000      -0.421791       -11.4775
 250   2.0000      -0.420222       -11.4348
 251   2.0000      -0.418606       -11.3908
 252   2.0000      -0.416475       -11.3329
 253   2.0000      -0.415752       -11.3132
 254   2.0000      -0.412338       -11.2203
 255   2.0000      -0.409204       -11.1350
 256   2.0000      -0.404585       -11.0093
 257   2.0000      -0.403734       -10.9862
 258   2.0000      -0.400427       -10.8962
 259   2.0000      -0.397145       -10.8069
 260   2.0000      -0.394170       -10.7259
 261   2.0000      -0.393132       -10.6977
 262   2.0000      -0.386307       -10.5119
 263   2.0000      -0.384267       -10.4564
 264   2.0000      -0.382878       -10.4186
 265   2.0000      -0.375675       -10.2226
 266   2.0000      -0.372924       -10.1478
 267   2.0000      -0.364043        -9.9061
 268   2.0000      -0.361327        -9.8322
 269   2.0000      -0.351702        -9.5703
 270   2.0000      -0.345135        -9.3916
 271   2.0000      -0.338541        -9.2122
 272   2.0000      -0.329093        -8.9551
 273   2.0000      -0.326359        -8.8807
 274   2.0000      -0.320822        -8.7300
 275   2.0000      -0.318204        -8.6588
 276   2.0000      -0.311150        -8.4668
 277   2.0000      -0.307168        -8.3585
 278   2.0000      -0.301711        -8.2100
 279   2.0000      -0.292824        -7.9681
 280   2.0000      -0.290381        -7.9017
 281   2.0000      -0.280313        -7.6277
 282   2.0000      -0.270113        -7.3501
 283   2.0000      -0.251972        -6.8565
 284   2.0000      -0.213577        -5.8117
 285   0.0000      -0.102817        -2.7978
 286   0.0000      -0.096114        -2.6154
 287   0.0000      -0.064399        -1.7524
 288   0.0000      -0.045100        -1.2272
 289   0.0000      -0.032716        -0.8902

MULLIKEN ATOMIC CHARGES
-----------------------
   0 C :    0.297488
   1 C :   -0.348065
   2 C :   -0.182837
   3 N :    0.144431
   4 C :   -0.210331
   5 N :    0.156996
   6 C :    0.020800
   7 C :   -0.015828
   8 C :   -0.080493
   9 C :    0.121389
  10 C :   -0.089817
  11 C :   -0.028078
  12 S :    0.184892
  13 C :   -0.122732
  14 C :    0.035296
  15 Br:    0.020840
  16 C :    0.125840
  17 O :   -0.148775
  18 C :   -0.116292
  19 C :    0.013745
  20 C :   -0.134370
  21 S :    0.160503
  22 C :   -0.096583
  23 C :    0.117676
  24 C :    0.168538
  25 C :   -0.041938
  26 C :   -0.109740
  27 C :    0.135348
  28 C :    0.226933
  29 O :   -0.304656
  30 C :    0.179303
  31 C :   -0.175312
  32 C :    0.005102
  33 C :    0.008453
  34 C :    0.011674
  35 C :   -0.205959
  36 C :    0.082864
  37 C :    0.197760
  38 N :   -0.129275
  39 C :    0.069803
  40 C :   -0.039141
  41 C :    0.022198
  42 C :   -0.055758
  43 C :    0.056431
  44 C :    0.010574
  45 C :   -0.022016
  46 S :    0.089639
  47 C :   -0.068607
  48 C :    0.039715
  49 C :    0.024076
  50 C :   -0.013302
  51 S :    0.102708
  52 C :   -0.004637
  53 C :    0.022883
  54 C :   -0.143373
  55 C :    0.137270
  56 O :   -0.168159
  57 C :    0.010830
  58 C :   -0.092924
  59 C :    0.113643
  60 C :    0.112231
  61 C :   -0.111268
  62 C :    0.239124
  63 C :    0.234488
  64 C :   -0.107813
  65 F :   -0.180701
  66 F :   -0.180008
  67 C :   -0.088772
  68 C :    0.035958
  69 C :    0.299654
  70 C :   -0.360767
  71 C :   -0.221043
  72 N :    0.148128
  73 C :   -0.177885
  74 N :    0.123536
  75 H :   -0.015284
  76 H :   -0.007086
  77 H :   -0.005135
  78 H :    0.027708
  79 H :   -0.031978
  80 H :    0.006119
  81 H :    0.031123
  82 H :    0.028482
  83 H :    0.042431
  84 H :    0.023880
  85 H :    0.023692
  86 H :   -0.052126
  87 H :   -0.013770
  88 H :    0.008205
  89 H :   -0.009585
  90 H :    0.039485
  91 H :    0.016874
  92 H :    0.035295
  93 H :    0.024078
  94 H :    0.020745
  95 H :    0.130050
  96 H :    0.013179
  97 H :   -0.001346
  98 H :   -0.009815
  99 H :   -0.008113
 100 H :   -0.011282
 101 H :   -0.008058
 102 H :   -0.003534
 103 H :    0.003372
 104 H :    0.008427
 105 H :   -0.019615
 106 H :    0.000933
 107 H :   -0.007370
 108 H :   -0.011488
Sum of atomic charges:   -0.0000000

LOEWDIN ATOMIC CHARGES
----------------------
   0 C :    0.074299
   1 C :   -0.148164
   2 C :   -0.019100
   3 N :   -0.058774
   4 C :   -0.025583
   5 N :   -0.058265
   6 C :   -0.021459
   7 C :   -0.048842
   8 C :    0.017209
   9 C :   -0.033966
  10 C :   -0.145687
  11 C :   -0.010895
  12 S :    0.431282
  13 C :   -0.272786
  14 C :   -0.071317
  15 Br:    0.134318
  16 C :    0.072290
  17 O :   -0.144860
  18 C :   -0.113132
  19 C :    0.041431
  20 C :   -0.179272
  21 S :    0.484484
  22 C :   -0.150324
  23 C :   -0.035998
  24 C :   -0.015530
  25 C :    0.000432
  26 C :   -0.016990
  27 C :   -0.038826
  28 C :    0.063428
  29 O :   -0.091946
  30 C :    0.076748
  31 C :   -0.085949
  32 C :   -0.036187
  33 C :   -0.020394
  34 C :   -0.049812
  35 C :   -0.033642
  36 C :   -0.053701
  37 C :    0.050023
  38 N :    0.025653
  39 C :    0.065961
  40 C :   -0.127076
  41 C :    0.000899
  42 C :   -0.187051
  43 C :   -0.005940
  44 C :   -0.056700
  45 C :   -0.136455
  46 S :    0.390183
  47 C :   -0.211543
  48 C :   -0.006220
  49 C :   -0.051814
  50 C :   -0.096958
  51 S :    0.403196
  52 C :   -0.080053
  53 C :    0.049604
  54 C :   -0.122437
  55 C :    0.074732
  56 O :   -0.170450
  57 C :   -0.047901
  58 C :    0.018748
  59 C :   -0.012469
  60 C :   -0.008689
  61 C :   -0.032331
  62 C :    0.061579
  63 C :    0.061525
  64 C :   -0.036444
  65 F :   -0.057794
  66 F :   -0.056916
  67 C :    0.005364
  68 C :   -0.015194
  69 C :    0.067076
  70 C :   -0.165313
  71 C :   -0.024049
  72 N :   -0.072135
  73 C :   -0.019454
  74 N :   -0.077860
  75 H :    0.039065
  76 H :    0.040801
  77 H :    0.038001
  78 H :    0.044217
  79 H :    0.030069
  80 H :    0.029377
  81 H :    0.040221
  82 H :    0.038037
  83 H :    0.031257
  84 H :    0.016047
  85 H :    0.015636
  86 H :    0.022794
  87 H :    0.032246
  88 H :    0.026257
  89 H :    0.030035
  90 H :    0.038772
  91 H :    0.031054
  92 H :    0.038115
  93 H :    0.030111
  94 H :    0.032428
  95 H :    0.087237
  96 H :    0.031915
  97 H :    0.022021
  98 H :    0.035647
  99 H :    0.035569
 100 H :    0.032760
 101 H :    0.034050
 102 H :    0.037714
 103 H :    0.036527
 104 H :    0.030996
 105 H :    0.036394
 106 H :    0.045299
 107 H :    0.041965
 108 H :    0.037549

  Mayer bond orders larger than 0.100000
B(  0-C ,  1-C ) :   1.6238 B(  0-C ,  6-C ) :   1.0008 B(  0-C , 18-C ) :   1.0919
B(  1-C ,  2-C ) :   1.1407 B(  1-C ,  4-C ) :   1.1452 B(  2-C ,  3-N ) :   2.9697
B(  4-C ,  5-N ) :   2.9961 B(  6-C ,  7-C ) :   1.2761 B(  6-C , 11-C ) :   1.4110
B(  7-C ,  8-C ) :   1.4297 B(  7-C , 16-C ) :   0.9308 B(  8-C ,  9-C ) :   1.2372
B(  8-C , 75-H ) :   1.0180 B(  9-C , 10-C ) :   1.3137 B(  9-C , 14-C ) :   1.1618
B( 10-C , 11-C ) :   1.3219 B( 10-C , 12-S ) :   1.0847 B( 11-C , 76-H ) :   0.9817
B( 12-S , 13-C ) :   1.0870 B( 13-C , 14-C ) :   1.6186 B( 13-C , 15-Br) :   1.0171
B( 14-C , 77-H ) :   1.0005 B( 16-C , 17-O ) :   2.2125 B( 16-C , 18-C ) :   0.9650
B( 18-C , 19-C ) :   1.5153 B( 19-C , 20-C ) :   1.2575 B( 19-C , 78-H ) :   0.9320
B( 20-C , 21-S ) :   1.1054 B( 20-C , 24-C ) :   1.2969 B( 21-S , 22-C ) :   1.1701
B( 22-C , 23-C ) :   1.3037 B( 22-C , 32-C ) :   1.1777 B( 23-C , 24-C ) :   1.2388
B( 23-C , 31-C ) :   1.1664 B( 24-C , 25-C ) :   1.1914 B( 25-C , 26-C ) :   1.5756
B( 25-C , 79-H ) :   0.9856 B( 26-C , 27-C ) :   1.0727 B( 26-C , 28-C ) :   1.2141
B( 27-C , 80-H ) :   0.9512 B( 27-C , 81-H ) :   0.9441 B( 27-C , 82-H ) :   0.9458
B( 28-C , 29-O ) :   1.1907 B( 28-C , 31-C ) :   1.4501 B( 29-O , 30-C ) :   0.9643
B( 30-C , 83-H ) :   0.9779 B( 30-C , 84-H ) :   0.9675 B( 30-C , 85-H ) :   0.9676
B( 31-C , 86-H ) :   0.9908 B( 32-C , 33-C ) :   1.6874 B( 32-C , 87-H ) :   0.9632
B( 33-C , 34-C ) :   1.1106 B( 33-C , 88-H ) :   0.9557 B( 34-C , 35-C ) :   1.8060
B( 34-C , 89-H ) :   0.9526 B( 35-C , 36-C ) :   1.0770 B( 35-C , 37-C ) :   1.0413
B( 36-C , 90-H ) :   0.9463 B( 36-C , 91-H ) :   0.9470 B( 36-C , 92-H ) :   0.9388
B( 37-C , 38-N ) :   0.9945 B( 37-C , 93-H ) :   0.9398 B( 37-C , 94-H ) :   0.9327
B( 38-N , 39-C ) :   1.2798 B( 38-N , 95-H ) :   0.9327 B( 39-C , 40-C ) :   1.5329
B( 39-C , 96-H ) :   0.9667 B( 40-C , 41-C ) :   1.2203 B( 40-C , 97-H ) :   0.9628
B( 41-C , 42-C ) :   1.5346 B( 41-C , 98-H ) :   0.9789 B( 42-C , 43-C ) :   1.1772
B( 42-C , 46-S ) :   1.0133 B( 43-C , 44-C ) :   1.5485 B( 43-C , 99-H ) :   0.9983
B( 44-C , 45-C ) :   1.2232 B( 44-C ,100-H ) :   0.9954 B( 45-C , 46-S ) :   1.1010
B( 45-C , 47-C ) :   1.4236 B( 47-C , 48-C ) :   1.2525 B( 47-C , 51-S ) :   1.0383
B( 48-C , 49-C ) :   1.5028 B( 48-C ,101-H ) :   0.9948 B( 49-C , 50-C ) :   1.2179
B( 49-C ,102-H ) :   1.0016 B( 50-C , 51-S ) :   1.1027 B( 50-C , 52-C ) :   1.4331
B( 52-C , 53-C ) :   1.2903 B( 52-C ,103-H ) :   0.9650 B( 53-C , 54-C ) :   1.4530
B( 53-C ,104-H ) :   0.9391 B( 54-C , 55-C ) :   0.9843 B( 54-C , 69-C ) :   1.1208
B( 55-C , 56-O ) :   2.2353 B( 55-C , 57-C ) :   0.9126 B( 57-C , 58-C ) :   1.4876
B( 57-C , 68-C ) :   1.2211 B( 58-C , 59-C ) :   1.1792 B( 58-C ,105-H ) :   1.0155
B( 59-C , 60-C ) :   1.2663 B( 59-C , 64-C ) :   1.1953 B( 60-C , 61-C ) :   1.1950
B( 60-C , 67-C ) :   1.1987 B( 61-C , 62-C ) :   1.4335 B( 61-C , 64-C ) :   0.1103
B( 61-C ,106-H ) :   1.0072 B( 62-C , 63-C ) :   1.2014 B( 62-C , 66-F ) :   1.1249
B( 63-C , 64-C ) :   1.4373 B( 63-C , 65-F ) :   1.1238 B( 64-C ,107-H ) :   1.0068
B( 67-C , 68-C ) :   1.4719 B( 67-C ,108-H ) :   0.9916 B( 68-C , 69-C ) :   0.9814
B( 69-C , 70-C ) :   1.5735 B( 70-C , 71-C ) :   1.1717 B( 70-C , 73-C ) :   1.1414
B( 71-C , 72-N ) :   3.0072 B( 73-C , 74-N ) :   2.9644

-----------------------------------------------------------------------------
         ABSORPTION SPECTRUM VIA TRANSITION ELECTRIC DIPOLE MOMENTS
-----------------------------------------------------------------------------
State   Energy  Wavelength   fosc         T2         TX        TY        TZ
        (cm-1)    (nm)                  (au**2)     (au)      (au)      (au)
-----------------------------------------------------------------------------
   0   11760.5    850.3   1.319058160  36.92427   5.96035   0.96425   0.68461
   1   15658.6    638.6   0.269937617   5.67526   0.84558   1.97457  -1.03021
   2   17061.0    586.1   0.962786611  18.57814   1.55691   3.43988  -2.07880
   3   22034.2    453.8   0.009048838   0.13520   0.22354  -0.13765  -0.25745
   4   23500.8    425.5   0.055707274   0.78038   0.59640  -0.64479  -0.09451
   5   23747.6    421.1   0.040576283   0.56251  -0.37159   0.10723   0.64260
   6   24415.4    409.6   0.065271193   0.88010  -0.37178  -0.16635  -0.84511
   7   24920.9    401.3   0.080644731   1.06534   0.48507  -0.91096  -0.01393
   8   25100.5    398.4   0.090979132   1.19326  -0.68529   0.82171   0.22008
   9   25574.5    391.0   0.013445423   0.17308  -0.36341   0.10305   0.17434
  10   26493.9    377.4   0.219950081   2.73309  -0.79484  -0.10801   1.44556
  11   26952.2    371.0   0.412615344   5.03996   0.48305  -2.15363   0.41050
  12   27615.7    362.1   0.005268119   0.06280  -0.24901  -0.02327   0.01600
  13   27807.3    359.6   0.085478295   1.01198  -0.59626  -0.41190  -0.69771
  14   28064.9    356.3   0.010292245   0.12073  -0.29790  -0.10040  -0.14800
  15   29018.7    344.6   0.013785915   0.15640  -0.18061  -0.26727   0.22879
  16   29043.9    344.3   0.025780287   0.29222  -0.07528  -0.42856   0.32076
  17   30318.9    329.8   0.058784349   0.63830  -0.65608   0.16718  -0.42416
  18   30713.3    325.6   0.107680407   1.15421  -0.30482  -1.01739  -0.16192
  19   31072.0    321.8   0.060340726   0.63932  -0.59553   0.28953  -0.44815
  20   31381.5    318.7   0.007100213   0.07449   0.21042   0.17223  -0.02341
  21   31728.0    315.2   0.171841396   1.78304  -0.34259   0.65251  -1.11351
  22   31860.6    313.9   0.120623497   1.24639  -0.08002  -1.10867   0.10405
  23   32064.1    311.9   0.088222935   0.90581   0.19849  -0.37175   0.85335
  24   32285.0    309.7   0.585660741   5.97201   1.12943  -0.39925  -2.13002
  25   32340.3    309.2   0.120331789   1.22493   0.17014  -1.09289   0.03969
  26   32904.8    303.9   0.024751881   0.24764  -0.22853  -0.31067   0.31448
  27   33438.5    299.1   0.015454929   0.15216   0.02395   0.38561  -0.05377
  28   33522.7    298.3   0.095118763   0.93412   0.88238   0.27510  -0.28257
  29   34030.0    293.9   0.486945691   4.71080  -0.74876  -1.78774   0.97680
  30   34795.8    287.4   0.104918546   0.99266   0.13019  -0.90951   0.38537
  31   35021.9    285.5   0.055229432   0.51917   0.33591  -0.61308   0.17452
  32   35674.1    280.3   0.094034030   0.86778   0.31318   0.86561  -0.14289
  33   35760.6    279.6   0.011310126   0.10412  -0.09750  -0.30753   0.00642
  34   36314.2    275.4   0.069134013   0.62675  -0.33773  -0.10910  -0.70766
  35   36538.7    273.7   0.052447170   0.47255  -0.04436   0.68405  -0.05149
  36   36633.0    273.0   0.043324616   0.38935   0.11419   0.61236  -0.03635
  37   36714.8    272.4   0.024247889   0.21742  -0.14255   0.44381   0.01168
  38   36908.0    270.9   0.035406446   0.31582   0.20064   0.49905   0.16282
  39   37068.0    269.8   0.048539690   0.43110   0.08661   0.36216   0.54077
  40   37430.1    267.2   0.145437902   1.27918   0.48605   0.49194  -0.89495
  41   37836.9    264.3   0.031552937   0.27454  -0.06064   0.29618  -0.42795
  42   37982.2    263.3   0.083848479   0.72676   0.24559   0.21560   0.78737
  43   38135.8    262.2   0.090218272   0.77882   0.46860  -0.70194   0.25791
  44   38459.5    260.0   0.085324220   0.73037   0.06075  -0.64921   0.55245
  45   38623.3    258.9   0.057675454   0.49161  -0.03925   0.19425   0.67256
  46   38721.8    258.3   0.011858777   0.10082  -0.01383   0.03002  -0.31580
  47   39556.5    252.8   0.019519699   0.16245   0.19335  -0.35325   0.01685
  48   39699.0    251.9   0.081413357   0.67514   0.11082   0.55035   0.59997
  49   39817.9    251.1   0.068825025   0.56904  -0.60315   0.42305  -0.16210
  50   39865.9    250.8   0.136275853   1.12536   0.83005  -0.59733   0.28210
  51   40126.5    249.2   0.144437531   1.18502   0.43213   0.85066   0.52409
  52   40316.8    248.0   0.010186515   0.08318  -0.19073   0.10261  -0.19045

FINAL SINGLE POINT ENERGY     -7168.290307205046

DIPOLE MOMENT
-------------
                                X             Y             Z
Electronic contribution:    -91.64133    -128.75950     116.75908
Nuclear contribution   :    100.19929     133.36631    -114.36054
                        -----------------------------------------
Total Dipole Moment    :      8.55796       4.60682       2.39854
                        -----------------------------------------
Magnitude (a.u.)       :     10.01072
Magnitude (Debye)      :     25.44522

Rotational constants in cm-1:     0.000509     0.000233     0.000173
Rotational constants in MHz :    15.260974     6.989877     5.190365

                             ****ORCA TERMINATED NORMALLY****
TOTAL RUN TIME: 0 days 0 hours 12 minutes 6 seconds 25 msec
