                         Program Version 4.2.0 -  RELEASE  -
|  1> # ORCA input file
|  2> # SCF done       -154.155579340621          0.000942334812
|  3> ! CAM-B3LYP def2-SVP def2/J RIJCOSX Grid4 TightSCF
|  4> %maxcore 5000
|  5> %tddft
|  6>     Mode sTDDFT
|  7>     Ethresh 5.0
|  8>     maxcore 5000
|  9> end
| 10>
| 11> %pal
| 12>   nprocs 6
| 13>   end
| 14> * xyz 0 1
| 15>    C       -3.64510        -1.31399         1.29196
| 16>    C       -2.53189        -1.74390         0.61149
| 17>    C       -1.55149        -2.59781         1.15554
| 18>    N       -0.71526        -3.28118         1.54581
| 19>    C       -2.20383        -1.39016        -0.71230
| 20>    N       -1.87117        -1.14718        -1.78484
| 21>    C       -4.00381        -1.68528         2.65516
| 22>    C       -5.20055        -1.01739         3.01577
| 23>    C       -5.79778        -1.17429         4.24197
| 24>    C       -5.19309        -2.04436         5.15538
| 25>    C       -3.99762        -2.70716         4.78804
| 26>    C       -3.38788        -2.54043         3.55098
| 27>    S       -3.41810        -3.73318         6.06481
| 28>    C       -4.77255        -3.26713         7.05930
| 29>    C       -5.61532        -2.38723         6.46875
| 30>   Br       -4.94381        -3.98439         8.78300
| 31>    C       -5.64686        -0.17328         1.89405
| 32>    O       -6.50370         0.67968         1.92214
| 33>    C       -4.69865        -0.46361         0.77797
| 34>    C       -4.79419         0.07675        -0.46918
| 35>    C       -5.98876         0.63241        -0.99328
| 36>    O       -5.91990         1.50858        -2.03556
| 37>    C       -7.32217         0.36546        -0.74040
| 38>    C       -8.24266        -0.48538         0.02607
| 39>    O       -8.03892        -1.36432         0.82162
| 40>    N       -9.49995        -0.09858        -0.43294
| 41>    C       -9.49998         0.85634        -1.44731
| 42>    O      -10.48060         1.29352        -1.99086
| 43>    C       -8.07581         1.13435        -1.65526
| 44>    C       -7.17478         1.83334        -2.43868
| 45>    C       -7.40258         2.72477        -3.52111
| 46>    C       -6.41786         3.31409        -4.23529
| 47>    C       -6.68701         4.15899        -5.35482
| 48>    C       -5.78195         4.79029        -6.12405
| 49>    C       -4.30558         4.77946        -5.90338
| 50>    C       -6.22965         5.58205        -7.33081
| 51>    N       -7.42562         5.04357        -7.92566
| 52>    C       -8.55470         5.71417        -8.22823
| 53>    C       -8.75472         7.06067        -8.19268
| 54>    C       -9.99139         7.63516        -8.53305
| 55>    C      -10.25595         8.97963        -8.56066
| 56>    C      -11.48639         9.59854        -8.88395
| 57>    C      -11.45967        10.95915        -8.84282
| 58>    C      -10.20186        11.49825        -8.48976
| 59>    S       -9.05275        10.21567        -8.19687
| 60>    C       -9.85886        12.83343        -8.38553
| 61>    C      -10.68854        13.95729        -8.58257
| 62>    C      -10.05196        15.14922        -8.41821
| 63>    C       -8.67625        15.04416        -8.08534
| 64>    S       -8.23365        13.34932        -7.97948
| 65>    C       -7.84108        16.11441        -7.88941
| 66>    C       -6.46909        16.12639        -7.57759
| 67>    C       -5.53113        14.97449        -7.36279
| 68>    N       -4.31112        15.29428        -7.09727
| 69>    C       -4.31313        16.67924        -7.10758
| 70>    C       -3.64231        17.85431        -6.98040
| 71>    S       -5.06260        18.89734        -7.29310
| 72>    C       -5.62917        17.18509        -7.39641
| 73>    H       -6.70948        -0.65161         4.48313
| 74>    H       -2.47703        -3.06713         3.32082
| 75>    H       -6.49919        -1.99553         6.93783
| 76>    H       -3.94872         0.07409        -1.14348
| 77>    H      -10.35201        -0.50585        -0.07421
| 78>    H       -8.44399         2.89667        -3.75306
| 79>    H       -5.39203         3.11259        -3.96485
| 80>    H       -7.73679         4.27720        -5.59506
| 81>    H       -4.04662         4.47844        -4.89442
| 82>    H       -3.89572         5.77131        -6.08679
| 83>    H       -3.82705         4.09161        -6.60156
| 84>    H       -5.41964         5.59032        -8.07234
| 85>    H       -6.41564         6.61764        -7.03511
| 86>    H       -7.43712         4.04038        -8.02221
| 87>    H       -9.36952         5.08055        -8.55479
| 88>    H       -7.96302         7.73736        -7.90721
| 89>    H      -10.80411         6.97071        -8.79763
| 90>    H      -12.35440         9.01523        -9.13675
| 91>    H      -12.30410        11.58752        -9.06088
| 92>    H      -11.72835        13.85935        -8.83797
| 93>    H      -10.52372        16.10973        -8.52842
| 94>    H       -8.29750        17.09174        -7.99624
| 95>    H       -5.82260        13.94188        -7.41880
| 96>    H       -2.63667        18.16182        -6.77504
| 97> *
| 98>
| 99>                          ****END OF INPUT****

CARTESIAN COORDINATES (ANGSTROEM)
---------------------------------
  C     -3.645100   -1.313990    1.291960
  C     -2.531890   -1.743900    0.611490
  C     -1.551490   -2.597810    1.155540
  N     -0.715260   -3.281180    1.545810
  C     -2.203830   -1.390160   -0.712300
  N     -1.871170   -1.147180   -1.784840
  C     -4.003810   -1.685280    2.655160
  C     -5.200550   -1.017390    3.015770
  C     -5.797780   -1.174290    4.241970
  C     -5.193090   -2.044360    5.155380
  C     -3.997620   -2.707160    4.788040
  C     -3.387880   -2.540430    3.550980
  S     -3.418100   -3.733180    6.064810
  C     -4.772550   -3.267130    7.059300
  C     -5.615320   -2.387230    6.468750
  Br    -4.943810   -3.984390    8.783000
  C     -5.646860   -0.173280    1.894050
  O     -6.503700    0.679680    1.922140
  C     -4.698650   -0.463610    0.777970
  C     -4.794190    0.076750   -0.469180
  C     -5.988760    0.632410   -0.993280
  O     -5.919900    1.508580   -2.035560
  C     -7.322170    0.365460   -0.740400
  C     -8.242660   -0.485380    0.026070
  O     -8.038920   -1.364320    0.821620
  N     -9.499950   -0.098580   -0.432940
  C     -9.499980    0.856340   -1.447310
  O    -10.480600    1.293520   -1.990860
  C     -8.075810    1.134350   -1.655260
  C     -7.174780    1.833340   -2.438680
  C     -7.402580    2.724770   -3.521110
  C     -6.417860    3.314090   -4.235290
  C     -6.687010    4.158990   -5.354820
  C     -5.781950    4.790290   -6.124050
  C     -4.305580    4.779460   -5.903380
  C     -6.229650    5.582050   -7.330810
  N     -7.425620    5.043570   -7.925660
  C     -8.554700    5.714170   -8.228230
  C     -8.754720    7.060670   -8.192680
  C     -9.991390    7.635160   -8.533050
  C    -10.255950    8.979630   -8.560660
  C    -11.486390    9.598540   -8.883950
  C    -11.459670   10.959150   -8.842820
  C    -10.201860   11.498250   -8.489760
  S     -9.052750   10.215670   -8.196870
  C     -9.858860   12.833430   -8.385530
  C    -10.688540   13.957290   -8.582570
  C    -10.051960   15.149220   -8.418210
  C     -8.676250   15.044160   -8.085340
  S     -8.233650   13.349320   -7.979480
  C     -7.841080   16.114410   -7.889410
  C     -6.469090   16.126390   -7.577590
  C     -5.531130   14.974490   -7.362790
  N     -4.311120   15.294280   -7.097270
  C     -4.313130   16.679240   -7.107580
  C     -3.642310   17.854310   -6.980400
  S     -5.062600   18.897340   -7.293100
  C     -5.629170   17.185090   -7.396410
  H     -6.709480   -0.651610    4.483130
  H     -2.477030   -3.067130    3.320820
  H     -6.499190   -1.995530    6.937830
  H     -3.948720    0.074090   -1.143480
  H    -10.352010   -0.505850   -0.074210
  H     -8.443990    2.896670   -3.753060
  H     -5.392030    3.112590   -3.964850
  H     -7.736790    4.277200   -5.595060
  H     -4.046620    4.478440   -4.894420
  H     -3.895720    5.771310   -6.086790
  H     -3.827050    4.091610   -6.601560
  H     -5.419640    5.590320   -8.072340
  H     -6.415640    6.617640   -7.035110
  H     -7.437120    4.040380   -8.022210
  H     -9.369520    5.080550   -8.554790
  H     -7.963020    7.737360   -7.907210
  H    -10.804110    6.970710   -8.797630
  H    -12.354400    9.015230   -9.136750
  H    -12.304100   11.587520   -9.060880
  H    -11.728350   13.859350   -8.837970
  H    -10.523720   16.109730   -8.528420
  H     -8.297500   17.091740   -7.996240
  H     -5.822600   13.941880   -7.418800
  H     -2.636670   18.161820   -6.775040

 Total Charge           Charge          ....    0
 Multiplicity           Mult            ....    1
 Number of Electrons    NEL             ....  454
 Basis Dimension        Dim             ....  966

ORBITAL ENERGIES
----------------

  NO   OCC          E(Eh)            E(eV)
   0   2.0000    -482.887955    -13140.0493
   1   2.0000     -88.978113     -2421.2175
   2   2.0000     -88.933075     -2419.9920
   3   2.0000     -88.931912     -2419.9604
   4   2.0000     -88.926995     -2419.8266
   5   2.0000     -62.565681     -1702.4987
   6   2.0000     -56.399637     -1534.7122
   7   2.0000     -56.396908     -1534.6379
   8   2.0000     -56.396882     -1534.6372
   9   2.0000     -19.322842      -525.8013
  10   2.0000     -19.220538      -523.0174
  11   2.0000     -19.219559      -522.9908
  12   2.0000     -19.217503      -522.9348
  13   2.0000     -14.461586      -393.5197
  14   2.0000     -14.452359      -393.2687
  15   2.0000     -14.423221      -392.4758
  16   2.0000     -14.420560      -392.4034
  17   2.0000     -14.385588      -391.4517
  18   2.0000     -10.408369      -283.2261
  19   2.0000     -10.407084      -283.1911
  20   2.0000     -10.375849      -282.3412
  21   2.0000     -10.372507      -282.2503
  22   2.0000     -10.369684      -282.1734
  23   2.0000     -10.361831      -281.9597
  24   2.0000     -10.349180      -281.6155
  25   2.0000     -10.348389      -281.5940
  26   2.0000     -10.329424      -281.0779
  27   2.0000     -10.329300      -281.0745
  28   2.0000     -10.328918      -281.0641
  29   2.0000     -10.328660      -281.0571
  30   2.0000     -10.325644      -280.9751
  31   2.0000     -10.323083      -280.9054
  32   2.0000     -10.312596      -280.6200
  33   2.0000     -10.311978      -280.6032
  34   2.0000     -10.310912      -280.5742
  35   2.0000     -10.309171      -280.5268
  36   2.0000     -10.308283      -280.5026
  37   2.0000     -10.307940      -280.4933
  38   2.0000     -10.307466      -280.4804
  39   2.0000     -10.305119      -280.4166
  40   2.0000     -10.303607      -280.3754
  41   2.0000     -10.302409      -280.3428
  42   2.0000     -10.300298      -280.2854
  43   2.0000     -10.299189      -280.2552
  44   2.0000     -10.299128      -280.2535
  45   2.0000     -10.298648      -280.2405
  46   2.0000     -10.297245      -280.2023
  47   2.0000     -10.295583      -280.1571
  48   2.0000     -10.290997      -280.0323
  49   2.0000     -10.288449      -279.9629
  50   2.0000     -10.286977      -279.9229
  51   2.0000     -10.286675      -279.9147
  52   2.0000     -10.280970      -279.7594
  53   2.0000     -10.279358      -279.7156
  54   2.0000     -10.277314      -279.6599
  55   2.0000     -10.277297      -279.6595
  56   2.0000     -10.275766      -279.6178
  57   2.0000     -10.272336      -279.5245
  58   2.0000     -10.271905      -279.5127
  59   2.0000     -10.267320      -279.3880
  60   2.0000     -10.262985      -279.2700
  61   2.0000     -10.262080      -279.2454
  62   2.0000      -8.795113      -239.3272
  63   2.0000      -8.074197      -219.7101
  64   2.0000      -8.029386      -218.4907
  65   2.0000      -8.027926      -218.4510
  66   2.0000      -8.021665      -218.2806
  67   2.0000      -6.631445      -180.4508
  68   2.0000      -6.616854      -180.0537
  69   2.0000      -6.616610      -180.0471
  70   2.0000      -6.043883      -164.4624
  71   2.0000      -6.039606      -164.3460
  72   2.0000      -6.035392      -164.2314
  73   2.0000      -5.999111      -163.2441
  74   2.0000      -5.997732      -163.2066
  75   2.0000      -5.995209      -163.1379
  76   2.0000      -5.993711      -163.0972
  77   2.0000      -5.992378      -163.0609
  78   2.0000      -5.990226      -163.0023
  79   2.0000      -5.988757      -162.9624
  80   2.0000      -5.988685      -162.9604
  81   2.0000      -5.980466      -162.7368
  82   2.0000      -2.747289       -74.7575
  83   2.0000      -2.743218       -74.6468
  84   2.0000      -2.743068       -74.6427
  85   2.0000      -2.731458       -74.3268
  86   2.0000      -2.731439       -74.3262
  87   2.0000      -1.238354       -33.6973
  88   2.0000      -1.163556       -31.6620
  89   2.0000      -1.143691       -31.1214
  90   2.0000      -1.134782       -30.8790
  91   2.0000      -1.051677       -28.6176
  92   2.0000      -1.050550       -28.5869
  93   2.0000      -1.041053       -28.3285
  94   2.0000      -1.027553       -27.9611
  95   2.0000      -1.018239       -27.7077
  96   2.0000      -1.000121       -27.2147
  97   2.0000      -0.994980       -27.0748
  98   2.0000      -0.981808       -26.7163
  99   2.0000      -0.960033       -26.1238
 100   2.0000      -0.952501       -25.9189
 101   2.0000      -0.944490       -25.7009
 102   2.0000      -0.941073       -25.6079
 103   2.0000      -0.934081       -25.4176
 104   2.0000      -0.927882       -25.2489
 105   2.0000      -0.912675       -24.8351
 106   2.0000      -0.903770       -24.5928
 107   2.0000      -0.894006       -24.3271
 108   2.0000      -0.889272       -24.1983
 109   2.0000      -0.879472       -23.9316
 110   2.0000      -0.874555       -23.7978
 111   2.0000      -0.847941       -23.0736
 112   2.0000      -0.841836       -22.9075
 113   2.0000      -0.832652       -22.6576
 114   2.0000      -0.829121       -22.5615
 115   2.0000      -0.817778       -22.2529
 116   2.0000      -0.808765       -22.0076
 117   2.0000      -0.801967       -21.8226
 118   2.0000      -0.794666       -21.6239
 119   2.0000      -0.784083       -21.3360
 120   2.0000      -0.773581       -21.0502
 121   2.0000      -0.767044       -20.8723
 122   2.0000      -0.759563       -20.6687
 123   2.0000      -0.758217       -20.6321
 124   2.0000      -0.749259       -20.3884
 125   2.0000      -0.725630       -19.7454
 126   2.0000      -0.720596       -19.6084
 127   2.0000      -0.708997       -19.2928
 128   2.0000      -0.703726       -19.1494
 129   2.0000      -0.700501       -19.0616
 130   2.0000      -0.693769       -18.8784
 131   2.0000      -0.678658       -18.4672
 132   2.0000      -0.677162       -18.4265
 133   2.0000      -0.661299       -17.9949
 134   2.0000      -0.655340       -17.8327
 135   2.0000      -0.654448       -17.8084
 136   2.0000      -0.640502       -17.4289
 137   2.0000      -0.639096       -17.3907
 138   2.0000      -0.628534       -17.1033
 139   2.0000      -0.622559       -16.9407
 140   2.0000      -0.617734       -16.8094
 141   2.0000      -0.614197       -16.7131
 142   2.0000      -0.610752       -16.6194
 143   2.0000      -0.604141       -16.4395
 144   2.0000      -0.602911       -16.4060
 145   2.0000      -0.599553       -16.3147
 146   2.0000      -0.597207       -16.2508
 147   2.0000      -0.594101       -16.1663
 148   2.0000      -0.590376       -16.0649
 149   2.0000      -0.579099       -15.7581
 150   2.0000      -0.574262       -15.6265
 151   2.0000      -0.570933       -15.5359
 152   2.0000      -0.565727       -15.3942
 153   2.0000      -0.560465       -15.2510
 154   2.0000      -0.555993       -15.1293
 155   2.0000      -0.552826       -15.0432
 156   2.0000      -0.551384       -15.0039
 157   2.0000      -0.545956       -14.8562
 158   2.0000      -0.541361       -14.7312
 159   2.0000      -0.538016       -14.6401
 160   2.0000      -0.530552       -14.4371
 161   2.0000      -0.527428       -14.3520
 162   2.0000      -0.525148       -14.2900
 163   2.0000      -0.523100       -14.2343
 164   2.0000      -0.521070       -14.1790
 165   2.0000      -0.516740       -14.0612
 166   2.0000      -0.513632       -13.9766
 167   2.0000      -0.512533       -13.9467
 168   2.0000      -0.510460       -13.8903
 169   2.0000      -0.509258       -13.8576
 170   2.0000      -0.499452       -13.5908
 171   2.0000      -0.498950       -13.5771
 172   2.0000      -0.497632       -13.5412
 173   2.0000      -0.494748       -13.4628
 174   2.0000      -0.492067       -13.3898
 175   2.0000      -0.486780       -13.2460
 176   2.0000      -0.485009       -13.1978
 177   2.0000      -0.483375       -13.1533
 178   2.0000      -0.481592       -13.1048
 179   2.0000      -0.480617       -13.0782
 180   2.0000      -0.476156       -12.9569
 181   2.0000      -0.472721       -12.8634
 182   2.0000      -0.470612       -12.8060
 183   2.0000      -0.461533       -12.5590
 184   2.0000      -0.460447       -12.5294
 185   2.0000      -0.455181       -12.3861
 186   2.0000      -0.455098       -12.3838
 187   2.0000      -0.454351       -12.3635
 188   2.0000      -0.449800       -12.2397
 189   2.0000      -0.449494       -12.2314
 190   2.0000      -0.446240       -12.1428
 191   2.0000      -0.442876       -12.0513
 192   2.0000      -0.440937       -11.9985
 193   2.0000      -0.437664       -11.9094
 194   2.0000      -0.436979       -11.8908
 195   2.0000      -0.433073       -11.7845
 196   2.0000      -0.432162       -11.7597
 197   2.0000      -0.429941       -11.6993
 198   2.0000      -0.422105       -11.4861
 199   2.0000      -0.420221       -11.4348
 200   2.0000      -0.414327       -11.2744
 201   2.0000      -0.410719       -11.1762
 202   2.0000      -0.395353       -10.7581
 203   2.0000      -0.393058       -10.6957
 204   2.0000      -0.389204       -10.5908
 205   2.0000      -0.388037       -10.5590
 206   2.0000      -0.385740       -10.4965
 207   2.0000      -0.384632       -10.4664
 208   2.0000      -0.381026       -10.3682
 209   2.0000      -0.378386       -10.2964
 210   2.0000      -0.377269       -10.2660
 211   2.0000      -0.367762       -10.0073
 212   2.0000      -0.363148        -9.8818
 213   2.0000      -0.355494        -9.6735
 214   2.0000      -0.352971        -9.6048
 215   2.0000      -0.342582        -9.3221
 216   2.0000      -0.328241        -8.9319
 217   2.0000      -0.326693        -8.8898
 218   2.0000      -0.318684        -8.6718
 219   2.0000      -0.317943        -8.6517
 220   2.0000      -0.313828        -8.5397
 221   2.0000      -0.307905        -8.3785
 222   2.0000      -0.297142        -8.0856
 223   2.0000      -0.274962        -7.4821
 224   2.0000      -0.263235        -7.1630
 225   2.0000      -0.252813        -6.8794
 226   2.0000      -0.193711        -5.2712
 227   0.0000      -0.106655        -2.9022
 228   0.0000      -0.066817        -1.8182
 229   0.0000      -0.065541        -1.7835
 230   0.0000      -0.057747        -1.5714
 231   0.0000      -0.029666        -0.8073

MULLIKEN ATOMIC CHARGES
-----------------------
   0 C :    0.309431
   1 C :   -0.347630
   2 C :   -0.182575
   3 N :    0.149583
   4 C :   -0.186912
   5 N :    0.154166
   6 C :    0.020302
   7 C :   -0.004628
   8 C :   -0.060702
   9 C :    0.115637
  10 C :   -0.087768
  11 C :   -0.021735
  12 S :    0.187994
  13 C :   -0.123952
  14 C :    0.041516
  15 Br:    0.026981
  16 C :    0.151612
  17 O :   -0.145613
  18 C :   -0.073442
  19 C :   -0.036292
  20 C :    0.121379
  21 O :   -0.201303
  22 C :   -0.017578
  23 C :    0.183918
  24 O :   -0.144125
  25 N :   -0.160800
  26 C :    0.167047
  27 O :   -0.139384
  28 C :   -0.050886
  29 C :    0.105747
  30 C :   -0.046541
  31 C :    0.045311
  32 C :    0.003391
  33 C :   -0.232983
  34 C :    0.091369
  35 C :    0.239740
  36 N :   -0.156308
  37 C :    0.064378
  38 C :   -0.059355
  39 C :   -0.001753
  40 C :   -0.044788
  41 C :    0.046877
  42 C :    0.010386
  43 C :   -0.031710
  44 S :    0.056544
  45 C :   -0.056553
  46 C :    0.036230
  47 C :    0.018314
  48 C :   -0.011896
  49 S :    0.045516
  50 C :   -0.023287
  51 C :   -0.125655
  52 C :    0.025666
  53 N :   -0.067297
  54 C :    0.174776
  55 C :   -0.162023
  56 S :    0.039460
  57 C :   -0.007068
  58 H :   -0.008810
  59 H :   -0.007104
  60 H :   -0.002349
  61 H :    0.031621
  62 H :    0.140735
  63 H :    0.014256
  64 H :    0.008015
  65 H :   -0.016028
  66 H :    0.026930
  67 H :    0.032140
  68 H :    0.041115
  69 H :    0.022957
  70 H :    0.054968
  71 H :    0.127445
  72 H :    0.005835
  73 H :   -0.004736
  74 H :   -0.021738
  75 H :   -0.019381
  76 H :   -0.021061
  77 H :   -0.017274
  78 H :   -0.018551
  79 H :   -0.021182
  80 H :    0.010876
  81 H :    0.020594
Sum of atomic charges:    0.0000000

LOEWDIN ATOMIC CHARGES
----------------------
   0 C :    0.074978
   1 C :   -0.136103
   2 C :   -0.017976
   3 N :   -0.049240
   4 C :   -0.019594
   5 N :   -0.050409
   6 C :   -0.019919
   7 C :   -0.043976
   8 C :    0.027798
   9 C :   -0.029962
  10 C :   -0.142313
  11 C :   -0.009025
  12 S :    0.433913
  13 C :   -0.269916
  14 C :   -0.069388
  15 Br:    0.139534
  16 C :    0.088167
  17 O :   -0.133234
  18 C :   -0.066958
  19 C :    0.044426
  20 C :    0.048374
  21 O :    0.020470
  22 C :   -0.053199
  23 C :    0.091027
  24 O :   -0.148104
  25 N :   -0.000350
  26 C :    0.085888
  27 O :   -0.157116
  28 C :   -0.100760
  29 C :    0.085146
  30 C :   -0.050178
  31 C :    0.019007
  32 C :   -0.058810
  33 C :   -0.013971
  34 C :   -0.045243
  35 C :    0.048373
  36 N :    0.006740
  37 C :    0.047336
  38 C :   -0.131859
  39 C :   -0.026381
  40 C :   -0.180233
  41 C :   -0.023207
  42 C :   -0.054236
  43 C :   -0.163051
  44 S :    0.355730
  45 C :   -0.202500
  46 C :   -0.026246
  47 C :   -0.049735
  48 C :   -0.134279
  49 S :    0.365891
  50 C :   -0.081032
  51 C :   -0.070498
  52 C :    0.052405
  53 N :   -0.094296
  54 C :   -0.071778
  55 C :   -0.073687
  56 S :    0.265742
  57 C :   -0.144123
  58 H :    0.042469
  59 H :    0.041002
  60 H :    0.039480
  61 H :    0.051266
  62 H :    0.096388
  63 H :    0.045715
  64 H :    0.031780
  65 H :    0.027566
  66 H :    0.033560
  67 H :    0.039863
  68 H :    0.044287
  69 H :    0.029097
  70 H :    0.047746
  71 H :    0.079967
  72 H :    0.030406
  73 H :    0.017566
  74 H :    0.030415
  75 H :    0.031074
  76 H :    0.028658
  77 H :    0.030532
  78 H :    0.030567
  79 H :    0.035698
  80 H :    0.006325
  81 H :    0.020517

  Mayer bond orders larger than 0.100000
B(  0-C ,  1-C ) :   1.6301 B(  0-C ,  6-C ) :   1.0117 B(  0-C , 18-C ) :   1.0803
B(  1-C ,  2-C ) :   1.1426 B(  1-C ,  4-C ) :   1.1462 B(  2-C ,  3-N ) :   2.9665
B(  4-C ,  5-N ) :   2.9680 B(  6-C ,  7-C ) :   1.2729 B(  6-C , 11-C ) :   1.3995
B(  7-C ,  8-C ) :   1.4252 B(  7-C , 16-C ) :   0.9358 B(  8-C ,  9-C ) :   1.2479
B(  8-C , 58-H ) :   1.0164 B(  9-C , 10-C ) :   1.3020 B(  9-C , 14-C ) :   1.1626
B( 10-C , 11-C ) :   1.3372 B( 10-C , 12-S ) :   1.0860 B( 11-C , 59-H ) :   0.9802
B( 12-S , 13-C ) :   1.0868 B( 13-C , 14-C ) :   1.6166 B( 13-C , 15-Br) :   1.0207
B( 14-C , 60-H ) :   1.0012 B( 16-C , 17-O ) :   2.2333 B( 16-C , 18-C ) :   0.9213
B( 18-C , 19-C ) :   1.6149 B( 19-C , 20-C ) :   1.1549 B( 19-C , 61-H ) :   0.9324
B( 20-C , 21-O ) :   1.1221 B( 20-C , 22-C ) :   1.4412 B( 21-O , 29-C ) :   1.1738
B( 22-C , 23-C ) :   0.8679 B( 22-C , 28-C ) :   1.3117 B( 23-C , 24-O ) :   2.2306
B( 23-C , 25-N ) :   1.0907 B( 25-N , 26-C ) :   1.0770 B( 25-N , 62-H ) :   0.9144
B( 26-C , 27-O ) :   2.2700 B( 26-C , 28-C ) :   0.8806 B( 28-C , 29-C ) :   1.3717
B( 29-C , 30-C ) :   1.1517 B( 30-C , 31-C ) :   1.6492 B( 30-C , 63-H ) :   0.9696
B( 31-C , 32-C ) :   1.0954 B( 31-C , 64-H ) :   0.9814 B( 32-C , 33-C ) :   1.7550
B( 32-C , 65-H ) :   0.9745 B( 33-C , 34-C ) :   1.0843 B( 33-C , 35-C ) :   1.0067
B( 34-C , 66-H ) :   0.9536 B( 34-C , 67-H ) :   0.9496 B( 34-C , 68-H ) :   0.9422
B( 35-C , 36-N ) :   0.9979 B( 35-C , 69-H ) :   0.9407 B( 35-C , 70-H ) :   0.9169
B( 36-N , 37-C ) :   1.2277 B( 36-N , 71-H ) :   0.9382 B( 37-C , 38-C ) :   1.6105
B( 37-C , 72-H ) :   0.9645 B( 38-C , 39-C ) :   1.1741 B( 38-C , 73-H ) :   0.9604
B( 39-C , 40-C ) :   1.5829 B( 39-C , 74-H ) :   0.9786 B( 40-C , 41-C ) :   1.1491
B( 40-C , 44-S ) :   1.0052 B( 41-C , 42-C ) :   1.5865 B( 41-C , 75-H ) :   0.9971
B( 42-C , 43-C ) :   1.1902 B( 42-C , 76-H ) :   0.9931 B( 43-C , 44-S ) :   1.0582
B( 43-C , 45-C ) :   1.5014 B( 45-C , 46-C ) :   1.1978 B( 45-C , 49-S ) :   1.0221
B( 46-C , 47-C ) :   1.5832 B( 46-C , 77-H ) :   0.9921 B( 47-C , 48-C ) :   1.1404
B( 47-C , 78-H ) :   1.0005 B( 48-C , 49-S ) :   1.0417 B( 48-C , 50-C ) :   1.5743
B( 50-C , 51-C ) :   1.1411 B( 50-C , 79-H ) :   0.9681 B( 51-C , 52-C ) :   0.9792
B( 51-C , 57-C ) :   1.7073 B( 52-C , 53-N ) :   1.8706 B( 52-C , 55-C ) :   0.1072
B( 52-C , 80-H ) :   0.9762 B( 53-N , 54-C ) :   1.1733 B( 54-C , 55-C ) :   1.5527
B( 54-C , 57-C ) :   1.0944 B( 55-C , 56-S ) :   0.9912 B( 55-C , 81-H ) :   1.0140
B( 56-S , 57-C ) :   0.9062

-----------------------------------------------------------------------------
         ABSORPTION SPECTRUM VIA TRANSITION ELECTRIC DIPOLE MOMENTS
-----------------------------------------------------------------------------
State   Energy  Wavelength   fosc         T2         TX        TY        TZ
        (cm-1)    (nm)                  (au**2)     (au)      (au)      (au)
-----------------------------------------------------------------------------
   0   11180.8    894.4   0.018644268   0.54897  -0.09388   0.63879  -0.36347
   1   14501.8    689.6   0.992569301  22.53283   1.50190   4.50078   0.14177
   2   18763.0    533.0   0.050952378   0.89400  -0.25437   0.74351  -0.52583
   3   19619.0    509.7   0.905398334  15.19283   1.61906  -2.84119   2.12111
   4   20170.9    495.8   0.335440556   5.47476  -0.91599  -1.91071  -0.99243
   5   21242.3    470.8   0.001494077   0.02316  -0.09653  -0.06857  -0.09558
   6   21764.0    459.5   0.090996875   1.37646   0.14293  -1.16385  -0.03847
   7   24944.3    400.9   0.031034409   0.40959   0.17112   0.16395  -0.59450
   8   25058.9    399.1   0.136785840   1.79703   0.47747   0.29066  -1.21843
   9   26006.6    384.5   0.085174969   1.07821  -0.43565   0.57740  -0.74500
  10   27202.8    367.6   0.027412480   0.33175  -0.51237   0.12337  -0.23240
  11   27386.0    365.1   0.081076593   0.97464  -0.92250   0.25096  -0.24627
  12   27865.3    358.9   0.020290940   0.23973  -0.37730   0.03889   0.30961
  13   28141.7    355.3   0.115328949   1.34916   0.22276   0.05133  -1.13882
  14   29874.5    334.7   0.002275558   0.02508   0.02624   0.00119  -0.15616
  15   30522.0    327.6   0.804532549   8.67772   0.40128   1.70833  -2.36608
  16   31054.4    322.0   0.000478296   0.00507   0.06711   0.02177   0.00960
  17   31494.8    317.5   0.018475982   0.19313  -0.12305  -0.24348   0.34453
  18   31822.1    314.2   0.215814440   2.23269   1.48445   0.11529  -0.12568
  19   32020.3    312.3   0.095018152   0.97692  -0.95315  -0.20784   0.15879
  20   32227.3    310.3   0.507838867   5.18773  -0.67083  -0.25797   2.16129
  21   32440.3    308.3   0.003810615   0.03867  -0.19212   0.01895  -0.03744
  22   32663.3    306.2   0.022545995   0.22724   0.06173   0.28510  -0.37703
  23   33239.0    300.9   0.023781466   0.23554   0.37953   0.01031  -0.30232
  24   33538.6    298.2   0.170585351   1.67445  -1.27208  -0.18412   0.14956
  25   34851.7    286.9   0.041980843   0.39655   0.62231  -0.05630   0.07823
  26   34913.6    286.4   0.085021305   0.80169   0.88953  -0.08418   0.05776
  27   35629.9    280.7   0.059759513   0.55216  -0.29595   0.68158  -0.00563
  28   35797.0    279.4   0.001228775   0.01130   0.05964  -0.08368   0.02722
  29   35924.3    278.4   0.003264361   0.02991  -0.04335   0.14823  -0.07786
  30   36215.0    276.1   0.098035866   0.89119  -0.91572   0.14533  -0.17754
  31   36372.2    274.9   0.012582726   0.11389  -0.30877   0.12355  -0.05732
  32   36762.8    272.0   0.045239104   0.40512   0.49396   0.38593   0.11036
  33   37111.1    269.5   0.000589322   0.00523   0.01437   0.00594  -0.07061
  34   37568.7    266.2   0.239422193   2.09804   1.23131  -0.68412   0.33748
  35   38117.9    262.3   0.030142403   0.26033  -0.44696   0.10760   0.22131
  36   38347.3    260.8   0.017907381   0.15373   0.38594  -0.02063  -0.06604
  37   38611.1    259.0   0.001055726   0.00900   0.02172  -0.05471  -0.07441
  38   38993.6    256.5   0.002151312   0.01816   0.01417   0.13380  -0.00767
  39   39296.9    254.5   0.016887292   0.14147   0.35852  -0.07084   0.08899
  40   39356.5    254.1   0.098887873   0.82718  -0.59330   0.68595   0.06821
  41   39578.8    252.7   0.078434238   0.65241  -0.48887  -0.63485  -0.10192
  42   40060.8    249.6   0.000018017   0.00015   0.00027   0.01026   0.00653
  43   40120.3    249.3   0.044370201   0.36409   0.35389   0.38164  -0.30529
  44   40234.2    248.5   0.036303980   0.29705  -0.39404   0.36791  -0.08018

FINAL SINGLE POINT ENERGY     -6428.977011648903

DIPOLE MOMENT
-------------
                                X             Y             Z
Electronic contribution:     31.50968    -123.54874     169.74741
Nuclear contribution   :    -33.41205     121.60689    -169.71317
                        -----------------------------------------
Total Dipole Moment    :     -1.90237      -1.94186       0.03423
                        -----------------------------------------
Magnitude (a.u.)       :      2.71864
Magnitude (Debye)      :      6.91023

Rotational constants in cm-1:     0.001732     0.000215     0.000207
Rotational constants in MHz :    51.915869     6.460012     6.206922

                             ****ORCA TERMINATED NORMALLY****
TOTAL RUN TIME: 0 days 0 hours 7 minutes 0 seconds 788 msec
