                         Program Version 4.2.0 -  RELEASE  -
|  1> # ORCA input file
|  2> # SCF done       -190.569115968230          0.002121045845
|  3> ! CAM-B3LYP def2-SVP def2/J RIJCOSX Grid4 TightSCF
|  4> %maxcore 5000
|  5> %tddft
|  6>     Mode sTDDFT
|  7>     Ethresh 5.0
|  8>     maxcore 5000
|  9> end
| 10>
| 11> %pal
| 12>   nprocs 6
| 13>   end
| 14> * xyz 0 1
| 15>    C       -4.15520        11.24188        -6.37750
| 16>    C       -4.32162        12.59075        -6.55966
| 17>    C       -3.71030        13.32901        -7.59248
| 18>    N       -3.24089        13.96621        -8.42450
| 19>    C       -5.08922        13.41299        -5.70877
| 20>    N       -5.67706        14.13620        -5.03808
| 21>    C       -3.26410        10.37296        -7.13409
| 22>    C       -3.25152         9.09470        -6.52332
| 23>    C       -2.49635         8.05408        -7.00573
| 24>    C       -1.71309         8.28606        -8.14162
| 25>    C       -1.73463         9.56538        -8.74548
| 26>    C       -2.50020        10.61805        -8.25960
| 27>    S       -0.70259         9.63061       -10.14219
| 28>    C       -0.26067         7.96174        -9.89800
| 29>    C       -0.85356         7.38353        -8.82683
| 30>   Br        0.93937         7.13942       -11.08307
| 31>    C       -4.15800         9.09358        -5.35547
| 32>    O       -4.43249         8.14204        -4.65762
| 33>    C       -4.74545        10.45427        -5.31873
| 34>    C       -5.82423        10.79597        -4.55897
| 35>    C       -6.27924        10.09587        -3.41445
| 36>    S       -8.01738         9.92492        -3.22745
| 37>    C       -7.82629         9.04883        -1.74143
| 38>    C       -6.50159         8.94723        -1.40068
| 39>    C       -5.62112         9.54081        -2.33574
| 40>    C       -4.18636         9.59245        -1.89662
| 41>    C       -3.21665        10.29743        -2.79836
| 42>    C       -3.12648        11.61066        -2.90196
| 43>    C       -3.72150         8.15620        -1.57824
| 44>    C       -4.76653         7.33529        -0.80273
| 45>    C       -5.90984         8.19777        -0.25754
| 46>    C       -8.99501         8.52045        -1.06592
| 47>    C       -9.29768         8.71092         0.22129
| 48>    C       -8.51851         9.58547         1.14559
| 49>    C      -10.51703         8.03396         0.81115
| 50>    N      -11.46224         8.96989         1.37727
| 51>    C      -11.54226         9.32298         2.66990
| 52>    C      -10.81200         8.79320         3.69594
| 53>    C      -10.94127         9.17671         5.03565
| 54>    C      -10.15300         8.65022         6.03263
| 55>    C      -10.11028         8.98509         7.40266
| 56>    C       -9.14764         8.32494         8.11281
| 57>    C       -8.38654         7.42680         7.33688
| 58>    S       -8.93983         7.42024         5.68976
| 59>    C       -7.28264         6.66525         7.69459
| 60>    C       -6.51842         6.66336         8.87293
| 61>    C       -5.37434         5.91917         8.77577
| 62>    C       -5.17403         5.31003         7.51738
| 63>    S       -6.53490         5.63975         6.49070
| 64>    C       -4.08723         4.50885         7.17607
| 65>    C       -3.77292         3.88691         5.98073
| 66>    C       -4.28218         4.00824         4.68762
| 67>    C       -4.15664         2.84980         3.77764
| 68>    O       -3.52380         1.83126         3.96281
| 69>    C       -5.00585         3.17249         2.60337
| 70>    C       -5.32206         2.40740         1.52118
| 71>    C       -6.21362         2.92449         0.54943
| 72>    C       -6.76969         4.22224         0.73303
| 73>    C       -7.67824         4.71848        -0.22152
| 74>    C       -8.01063         3.96793        -1.31452
| 75>    C       -7.45383         2.69047        -1.50133
| 76>    C       -6.57452         2.17756        -0.58729
| 77>    F       -7.79715         1.97266        -2.58348
| 78>    F       -8.88373         4.45259        -2.21562
| 79>    C       -6.40699         4.99706         1.86031
| 80>    C       -5.52678         4.48516         2.77104
| 81>    C       -4.96012         5.04811         3.99684
| 82>    C       -4.95139         6.40044         4.30408
| 83>    C       -4.13583         6.95125         5.30776
| 84>    N       -3.46586         7.43912         6.10370
| 85>    C       -5.67626         7.36274         3.59193
| 86>    N       -6.28025         8.18274         3.05466
| 87>    H       -2.50677         7.08971        -6.52207
| 88>    H       -2.49008        11.57304        -8.75733
| 89>    H       -0.69348         6.36239        -8.53158
| 90>    H       -6.44209        11.62949        -4.87479
| 91>    H       -4.20838        10.15325        -0.95048
| 92>    H       -2.54071         9.66344        -3.35616
| 93>    H       -3.77912        12.27225        -2.35746
| 94>    H       -2.40493        12.08402        -3.54651
| 95>    H       -2.79207         8.22422        -1.01023
| 96>    H       -3.50496         7.65741        -2.52281
| 97>    H       -5.20125         6.58479        -1.46599
| 98>    H       -4.29225         6.80600         0.02517
| 99>    H       -5.52800         8.88852         0.49877
|100>    H       -6.65958         7.56889         0.21806
|101>    H       -9.66293         7.94678        -1.69804
|102>    H       -7.86750        10.24826         0.58455
|103>    H       -7.90189         8.99887         1.82600
|104>    H       -9.18962        10.18718         1.75639
|105>    H      -10.20413         7.34196         1.59614
|106>    H      -11.03223         7.45961         0.03569
|107>    H      -11.97695         9.51943         0.70645
|108>    H      -12.28016        10.08540         2.88656
|109>    H      -10.05620         8.04972         3.49059
|110>    H      -11.66674         9.93282         5.30489
|111>    H      -10.77888         9.71536         7.82405
|112>    H       -8.96347         8.46355         9.16272
|113>    H       -6.80256         7.22892         9.74203
|114>    H       -4.64807         5.82282         9.56293
|115>    H       -3.42821         4.29037         8.00798
|116>    H       -3.04258         3.08612         6.06044
|117>    H       -4.90626         1.41817         1.40463
|118>    H       -8.11744         5.69703        -0.09982
|119>    H       -6.15970         1.19388        -0.74264
|120>    H       -6.84657         5.97316         1.98324
|121> *
|122>
|123>                          ****END OF INPUT****

CARTESIAN COORDINATES (ANGSTROEM)
---------------------------------
  C     -4.155200   11.241880   -6.377500
  C     -4.321620   12.590750   -6.559660
  C     -3.710300   13.329010   -7.592480
  N     -3.240890   13.966210   -8.424500
  C     -5.089220   13.412990   -5.708770
  N     -5.677060   14.136200   -5.038080
  C     -3.264100   10.372960   -7.134090
  C     -3.251520    9.094700   -6.523320
  C     -2.496350    8.054080   -7.005730
  C     -1.713090    8.286060   -8.141620
  C     -1.734630    9.565380   -8.745480
  C     -2.500200   10.618050   -8.259600
  S     -0.702590    9.630610  -10.142190
  C     -0.260670    7.961740   -9.898000
  C     -0.853560    7.383530   -8.826830
  Br     0.939370    7.139420  -11.083070
  C     -4.158000    9.093580   -5.355470
  O     -4.432490    8.142040   -4.657620
  C     -4.745450   10.454270   -5.318730
  C     -5.824230   10.795970   -4.558970
  C     -6.279240   10.095870   -3.414450
  S     -8.017380    9.924920   -3.227450
  C     -7.826290    9.048830   -1.741430
  C     -6.501590    8.947230   -1.400680
  C     -5.621120    9.540810   -2.335740
  C     -4.186360    9.592450   -1.896620
  C     -3.216650   10.297430   -2.798360
  C     -3.126480   11.610660   -2.901960
  C     -3.721500    8.156200   -1.578240
  C     -4.766530    7.335290   -0.802730
  C     -5.909840    8.197770   -0.257540
  C     -8.995010    8.520450   -1.065920
  C     -9.297680    8.710920    0.221290
  C     -8.518510    9.585470    1.145590
  C    -10.517030    8.033960    0.811150
  N    -11.462240    8.969890    1.377270
  C    -11.542260    9.322980    2.669900
  C    -10.812000    8.793200    3.695940
  C    -10.941270    9.176710    5.035650
  C    -10.153000    8.650220    6.032630
  C    -10.110280    8.985090    7.402660
  C     -9.147640    8.324940    8.112810
  C     -8.386540    7.426800    7.336880
  S     -8.939830    7.420240    5.689760
  C     -7.282640    6.665250    7.694590
  C     -6.518420    6.663360    8.872930
  C     -5.374340    5.919170    8.775770
  C     -5.174030    5.310030    7.517380
  S     -6.534900    5.639750    6.490700
  C     -4.087230    4.508850    7.176070
  C     -3.772920    3.886910    5.980730
  C     -4.282180    4.008240    4.687620
  C     -4.156640    2.849800    3.777640
  O     -3.523800    1.831260    3.962810
  C     -5.005850    3.172490    2.603370
  C     -5.322060    2.407400    1.521180
  C     -6.213620    2.924490    0.549430
  C     -6.769690    4.222240    0.733030
  C     -7.678240    4.718480   -0.221520
  C     -8.010630    3.967930   -1.314520
  C     -7.453830    2.690470   -1.501330
  C     -6.574520    2.177560   -0.587290
  F     -7.797150    1.972660   -2.583480
  F     -8.883730    4.452590   -2.215620
  C     -6.406990    4.997060    1.860310
  C     -5.526780    4.485160    2.771040
  C     -4.960120    5.048110    3.996840
  C     -4.951390    6.400440    4.304080
  C     -4.135830    6.951250    5.307760
  N     -3.465860    7.439120    6.103700
  C     -5.676260    7.362740    3.591930
  N     -6.280250    8.182740    3.054660
  H     -2.506770    7.089710   -6.522070
  H     -2.490080   11.573040   -8.757330
  H     -0.693480    6.362390   -8.531580
  H     -6.442090   11.629490   -4.874790
  H     -4.208380   10.153250   -0.950480
  H     -2.540710    9.663440   -3.356160
  H     -3.779120   12.272250   -2.357460
  H     -2.404930   12.084020   -3.546510
  H     -2.792070    8.224220   -1.010230
  H     -3.504960    7.657410   -2.522810
  H     -5.201250    6.584790   -1.465990
  H     -4.292250    6.806000    0.025170
  H     -5.528000    8.888520    0.498770
  H     -6.659580    7.568890    0.218060
  H     -9.662930    7.946780   -1.698040
  H     -7.867500   10.248260    0.584550
  H     -7.901890    8.998870    1.826000
  H     -9.189620   10.187180    1.756390
  H    -10.204130    7.341960    1.596140
  H    -11.032230    7.459610    0.035690
  H    -11.976950    9.519430    0.706450
  H    -12.280160   10.085400    2.886560
  H    -10.056200    8.049720    3.490590
  H    -11.666740    9.932820    5.304890
  H    -10.778880    9.715360    7.824050
  H     -8.963470    8.463550    9.162720
  H     -6.802560    7.228920    9.742030
  H     -4.648070    5.822820    9.562930
  H     -3.428210    4.290370    8.007980
  H     -3.042580    3.086120    6.060440
  H     -4.906260    1.418170    1.404630
  H     -8.117440    5.697030   -0.099820
  H     -6.159700    1.193880   -0.742640
  H     -6.846570    5.973160    1.983240

 Total Charge           Charge          ....    0
 Multiplicity           Mult            ....    1
 Number of Electrons    NEL             ....  550
 Basis Dimension        Dim             .... 1212

ORBITAL ENERGIES
----------------

  NO   OCC          E(Eh)            E(eV)
   0   2.0000    -482.883483    -13139.9276
   1   2.0000     -88.973252     -2421.0853
   2   2.0000     -88.962887     -2420.8032
   3   2.0000     -88.958396     -2420.6810
   4   2.0000     -88.950997     -2420.4797
   5   2.0000     -62.561207     -1702.3770
   6   2.0000     -56.395158     -1534.5903
   7   2.0000     -56.392440     -1534.5163
   8   2.0000     -56.392410     -1534.5155
   9   2.0000     -24.789001      -674.5430
  10   2.0000     -24.786151      -674.4655
  11   2.0000     -19.211644      -522.7754
  12   2.0000     -19.189726      -522.1790
  13   2.0000     -14.478875      -393.9902
  14   2.0000     -14.410879      -392.1399
  15   2.0000     -14.409181      -392.0938
  16   2.0000     -14.401101      -391.8739
  17   2.0000     -14.386581      -391.4788
  18   2.0000     -10.368561      -282.1429
  19   2.0000     -10.367189      -282.1056
  20   2.0000     -10.363191      -281.9968
  21   2.0000     -10.360051      -281.9113
  22   2.0000     -10.356643      -281.8186
  23   2.0000     -10.340519      -281.3798
  24   2.0000     -10.337569      -281.2995
  25   2.0000     -10.336378      -281.2671
  26   2.0000     -10.334778      -281.2236
  27   2.0000     -10.334162      -281.2068
  28   2.0000     -10.323139      -280.9069
  29   2.0000     -10.320389      -280.8320
  30   2.0000     -10.316229      -280.7189
  31   2.0000     -10.314288      -280.6660
  32   2.0000     -10.313928      -280.6562
  33   2.0000     -10.313424      -280.6425
  34   2.0000     -10.312505      -280.6175
  35   2.0000     -10.311320      -280.5853
  36   2.0000     -10.309640      -280.5396
  37   2.0000     -10.309035      -280.5231
  38   2.0000     -10.308853      -280.5182
  39   2.0000     -10.305621      -280.4302
  40   2.0000     -10.305028      -280.4141
  41   2.0000     -10.304721      -280.4057
  42   2.0000     -10.303868      -280.3825
  43   2.0000     -10.302613      -280.3484
  44   2.0000     -10.300579      -280.2930
  45   2.0000     -10.298406      -280.2339
  46   2.0000     -10.295887      -280.1653
  47   2.0000     -10.295187      -280.1463
  48   2.0000     -10.294810      -280.1360
  49   2.0000     -10.294500      -280.1276
  50   2.0000     -10.293411      -280.0979
  51   2.0000     -10.290581      -280.0210
  52   2.0000     -10.290138      -280.0089
  53   2.0000     -10.289421      -279.9894
  54   2.0000     -10.289299      -279.9861
  55   2.0000     -10.288505      -279.9645
  56   2.0000     -10.288278      -279.9583
  57   2.0000     -10.287292      -279.9314
  58   2.0000     -10.287169      -279.9281
  59   2.0000     -10.285663      -279.8871
  60   2.0000     -10.284260      -279.8489
  61   2.0000     -10.283830      -279.8372
  62   2.0000     -10.282183      -279.7924
  63   2.0000     -10.281753      -279.7807
  64   2.0000     -10.275960      -279.6231
  65   2.0000     -10.275314      -279.6055
  66   2.0000     -10.272698      -279.5343
  67   2.0000     -10.271844      -279.5111
  68   2.0000     -10.270927      -279.4861
  69   2.0000     -10.264844      -279.3206
  70   2.0000     -10.262223      -279.2493
  71   2.0000     -10.259933      -279.1870
  72   2.0000     -10.256063      -279.0817
  73   2.0000     -10.252638      -278.9885
  74   2.0000     -10.252420      -278.9825
  75   2.0000     -10.252082      -278.9733
  76   2.0000      -8.790639      -239.2054
  77   2.0000      -8.069212      -219.5744
  78   2.0000      -8.058882      -219.2933
  79   2.0000      -8.053143      -219.1372
  80   2.0000      -8.047000      -218.9700
  81   2.0000      -6.626938      -180.3281
  82   2.0000      -6.612381      -179.9320
  83   2.0000      -6.612173      -179.9264
  84   2.0000      -6.038910      -164.3271
  85   2.0000      -6.034626      -164.2105
  86   2.0000      -6.030437      -164.0965
  87   2.0000      -6.028459      -164.0427
  88   2.0000      -6.024408      -163.9325
  89   2.0000      -6.022460      -163.8795
  90   2.0000      -6.020132      -163.8161
  91   2.0000      -6.018259      -163.7651
  92   2.0000      -6.016395      -163.7144
  93   2.0000      -6.015219      -163.6824
  94   2.0000      -6.012261      -163.6019
  95   2.0000      -6.008829      -163.5086
  96   2.0000      -2.742811       -74.6357
  97   2.0000      -2.738708       -74.5240
  98   2.0000      -2.738581       -74.5206
  99   2.0000      -2.727000       -74.2055
 100   2.0000      -2.726981       -74.2049
 101   2.0000      -1.308799       -35.6142
 102   2.0000      -1.294240       -35.2181
 103   2.0000      -1.127170       -30.6719
 104   2.0000      -1.103529       -30.0285
 105   2.0000      -1.073515       -29.2118
 106   2.0000      -1.019498       -27.7420
 107   2.0000      -1.009072       -27.4582
 108   2.0000      -1.008995       -27.4562
 109   2.0000      -0.999495       -27.1977
 110   2.0000      -0.992196       -26.9990
 111   2.0000      -0.988745       -26.9051
 112   2.0000      -0.987181       -26.8626
 113   2.0000      -0.984585       -26.7919
 114   2.0000      -0.982946       -26.7473
 115   2.0000      -0.971172       -26.4269
 116   2.0000      -0.960328       -26.1319
 117   2.0000      -0.939905       -25.5761
 118   2.0000      -0.931129       -25.3373
 119   2.0000      -0.920886       -25.0586
 120   2.0000      -0.914908       -24.8959
 121   2.0000      -0.912003       -24.8169
 122   2.0000      -0.904920       -24.6241
 123   2.0000      -0.897081       -24.4108
 124   2.0000      -0.890487       -24.2314
 125   2.0000      -0.882951       -24.0263
 126   2.0000      -0.879628       -23.9359
 127   2.0000      -0.873446       -23.7677
 128   2.0000      -0.871103       -23.7039
 129   2.0000      -0.862900       -23.4807
 130   2.0000      -0.856865       -23.3165
 131   2.0000      -0.851354       -23.1665
 132   2.0000      -0.834907       -22.7190
 133   2.0000      -0.829933       -22.5836
 134   2.0000      -0.826319       -22.4853
 135   2.0000      -0.824298       -22.4303
 136   2.0000      -0.822629       -22.3849
 137   2.0000      -0.817076       -22.2338
 138   2.0000      -0.807904       -21.9842
 139   2.0000      -0.797501       -21.7011
 140   2.0000      -0.792259       -21.5585
 141   2.0000      -0.779749       -21.2180
 142   2.0000      -0.765961       -20.8429
 143   2.0000      -0.755091       -20.5471
 144   2.0000      -0.744070       -20.2472
 145   2.0000      -0.743660       -20.2360
 146   2.0000      -0.737642       -20.0722
 147   2.0000      -0.719189       -19.5701
 148   2.0000      -0.717746       -19.5309
 149   2.0000      -0.706085       -19.2135
 150   2.0000      -0.700664       -19.0660
 151   2.0000      -0.697710       -18.9856
 152   2.0000      -0.688199       -18.7269
 153   2.0000      -0.680791       -18.5253
 154   2.0000      -0.678750       -18.4697
 155   2.0000      -0.677062       -18.4238
 156   2.0000      -0.670316       -18.2402
 157   2.0000      -0.662244       -18.0206
 158   2.0000      -0.657139       -17.8817
 159   2.0000      -0.656700       -17.8697
 160   2.0000      -0.652280       -17.7494
 161   2.0000      -0.643976       -17.5235
 162   2.0000      -0.640646       -17.4329
 163   2.0000      -0.638119       -17.3641
 164   2.0000      -0.632165       -17.2021
 165   2.0000      -0.624486       -16.9931
 166   2.0000      -0.623729       -16.9725
 167   2.0000      -0.621698       -16.9173
 168   2.0000      -0.612622       -16.6703
 169   2.0000      -0.610538       -16.6136
 170   2.0000      -0.604256       -16.4426
 171   2.0000      -0.599814       -16.3218
 172   2.0000      -0.593817       -16.1586
 173   2.0000      -0.591823       -16.1043
 174   2.0000      -0.589327       -16.0364
 175   2.0000      -0.585009       -15.9189
 176   2.0000      -0.578041       -15.7293
 177   2.0000      -0.573978       -15.6187
 178   2.0000      -0.571504       -15.5514
 179   2.0000      -0.569559       -15.4985
 180   2.0000      -0.563068       -15.3219
 181   2.0000      -0.561618       -15.2824
 182   2.0000      -0.557595       -15.1729
 183   2.0000      -0.547069       -14.8865
 184   2.0000      -0.543366       -14.7857
 185   2.0000      -0.541420       -14.7328
 186   2.0000      -0.539525       -14.6812
 187   2.0000      -0.537232       -14.6188
 188   2.0000      -0.536400       -14.5962
 189   2.0000      -0.532307       -14.4848
 190   2.0000      -0.531641       -14.4667
 191   2.0000      -0.526804       -14.3351
 192   2.0000      -0.526143       -14.3171
 193   2.0000      -0.522100       -14.2071
 194   2.0000      -0.520714       -14.1693
 195   2.0000      -0.518411       -14.1067
 196   2.0000      -0.517462       -14.0808
 197   2.0000      -0.513296       -13.9675
 198   2.0000      -0.509442       -13.8626
 199   2.0000      -0.508384       -13.8338
 200   2.0000      -0.506403       -13.7799
 201   2.0000      -0.503767       -13.7082
 202   2.0000      -0.502891       -13.6844
 203   2.0000      -0.501200       -13.6383
 204   2.0000      -0.497631       -13.5412
 205   2.0000      -0.494815       -13.4646
 206   2.0000      -0.494302       -13.4506
 207   2.0000      -0.490459       -13.3461
 208   2.0000      -0.489216       -13.3122
 209   2.0000      -0.488346       -13.2886
 210   2.0000      -0.486241       -13.2313
 211   2.0000      -0.485490       -13.2108
 212   2.0000      -0.484395       -13.1811
 213   2.0000      -0.481071       -13.0906
 214   2.0000      -0.476614       -12.9693
 215   2.0000      -0.475791       -12.9469
 216   2.0000      -0.474148       -12.9022
 217   2.0000      -0.469884       -12.7862
 218   2.0000      -0.466922       -12.7056
 219   2.0000      -0.465146       -12.6573
 220   2.0000      -0.463515       -12.6129
 221   2.0000      -0.460793       -12.5388
 222   2.0000      -0.459944       -12.5157
 223   2.0000      -0.456012       -12.4087
 224   2.0000      -0.454283       -12.3617
 225   2.0000      -0.450999       -12.2723
 226   2.0000      -0.444792       -12.1034
 227   2.0000      -0.444131       -12.0854
 228   2.0000      -0.443167       -12.0592
 229   2.0000      -0.439484       -11.9590
 230   2.0000      -0.439430       -11.9575
 231   2.0000      -0.436649       -11.8818
 232   2.0000      -0.435852       -11.8601
 233   2.0000      -0.432802       -11.7771
 234   2.0000      -0.432361       -11.7651
 235   2.0000      -0.429900       -11.6982
 236   2.0000      -0.426702       -11.6112
 237   2.0000      -0.422435       -11.4950
 238   2.0000      -0.420979       -11.4554
 239   2.0000      -0.419537       -11.4162
 240   2.0000      -0.418970       -11.4007
 241   2.0000      -0.416564       -11.3353
 242   2.0000      -0.415084       -11.2950
 243   2.0000      -0.411452       -11.1962
 244   2.0000      -0.408966       -11.1285
 245   2.0000      -0.406522       -11.0620
 246   2.0000      -0.404749       -11.0138
 247   2.0000      -0.402668       -10.9571
 248   2.0000      -0.400763       -10.9053
 249   2.0000      -0.399293       -10.8653
 250   2.0000      -0.389923       -10.6103
 251   2.0000      -0.386462       -10.5162
 252   2.0000      -0.385529       -10.4908
 253   2.0000      -0.381278       -10.3751
 254   2.0000      -0.378699       -10.3049
 255   2.0000      -0.374600       -10.1934
 256   2.0000      -0.372844       -10.1456
 257   2.0000      -0.369415       -10.0523
 258   2.0000      -0.353078        -9.6077
 259   2.0000      -0.351173        -9.5559
 260   2.0000      -0.345816        -9.4101
 261   2.0000      -0.336996        -9.1701
 262   2.0000      -0.334171        -9.0932
 263   2.0000      -0.328387        -8.9359
 264   2.0000      -0.320877        -8.7315
 265   2.0000      -0.313433        -8.5289
 266   2.0000      -0.312950        -8.5158
 267   2.0000      -0.311300        -8.4709
 268   2.0000      -0.303647        -8.2627
 269   2.0000      -0.297746        -8.1021
 270   2.0000      -0.291386        -7.9290
 271   2.0000      -0.283330        -7.7098
 272   2.0000      -0.273616        -7.4455
 273   2.0000      -0.268478        -7.3056
 274   2.0000      -0.223230        -6.0744
 275   0.0000      -0.096668        -2.6305
 276   0.0000      -0.083381        -2.2689
 277   0.0000      -0.054806        -1.4914
 278   0.0000      -0.045596        -1.2407
 279   0.0000      -0.036190        -0.9848

MULLIKEN ATOMIC CHARGES
-----------------------
   0 C :    0.295212
   1 C :   -0.345730
   2 C :   -0.183750
   3 N :    0.145676
   4 C :   -0.207998
   5 N :    0.162448
   6 C :    0.022178
   7 C :   -0.019081
   8 C :   -0.073624
   9 C :    0.115223
  10 C :   -0.089299
  11 C :   -0.025746
  12 S :    0.185464
  13 C :   -0.123966
  14 C :    0.039878
  15 Br:    0.022823
  16 C :    0.130673
  17 O :   -0.148244
  18 C :   -0.071780
  19 C :    0.002767
  20 C :   -0.172570
  21 S :    0.121678
  22 C :   -0.154294
  23 C :   -0.102121
  24 C :    0.055807
  25 C :    0.060267
  26 C :   -0.053798
  27 C :    0.005789
  28 C :    0.031289
  29 C :    0.046440
  30 C :    0.185052
  31 C :   -0.036548
  32 C :   -0.208123
  33 C :    0.122604
  34 C :    0.199318
  35 N :   -0.129440
  36 C :    0.080385
  37 C :   -0.072187
  38 C :    0.046278
  39 C :   -0.065904
  40 C :    0.067484
  41 C :    0.006451
  42 C :    0.002525
  43 S :    0.092481
  44 C :   -0.074636
  45 C :    0.047235
  46 C :    0.038351
  47 C :   -0.034828
  48 S :    0.119016
  49 C :    0.006272
  50 C :    0.022133
  51 C :   -0.159150
  52 C :    0.132121
  53 O :   -0.157650
  54 C :    0.024440
  55 C :   -0.097721
  56 C :    0.106892
  57 C :    0.139071
  58 C :   -0.117237
  59 C :    0.236205
  60 C :    0.231665
  61 C :   -0.105571
  62 F :   -0.180298
  63 F :   -0.183025
  64 C :   -0.110252
  65 C :    0.046341
  66 C :    0.284857
  67 C :   -0.395947
  68 C :   -0.212481
  69 N :    0.155862
  70 C :   -0.155146
  71 N :    0.134788
  72 H :   -0.012223
  73 H :   -0.007156
  74 H :   -0.002906
  75 H :    0.035528
  76 H :    0.018562
  77 H :    0.004910
  78 H :    0.019674
  79 H :    0.018441
  80 H :   -0.000719
  81 H :    0.015807
  82 H :    0.004877
  83 H :    0.003977
  84 H :    0.015796
  85 H :   -0.028519
  86 H :    0.003702
  87 H :    0.026445
  88 H :    0.037717
  89 H :    0.009425
  90 H :    0.041653
  91 H :    0.018748
  92 H :    0.138757
  93 H :    0.019979
  94 H :    0.021300
  95 H :   -0.003897
  96 H :   -0.003944
  97 H :   -0.006821
  98 H :   -0.013998
  99 H :   -0.010751
 100 H :   -0.009150
 101 H :    0.018623
 102 H :   -0.017664
 103 H :   -0.023278
 104 H :   -0.006328
 105 H :   -0.029859
Sum of atomic charges:   -0.0000000

LOEWDIN ATOMIC CHARGES
----------------------
   0 C :    0.076151
   1 C :   -0.143876
   2 C :   -0.018766
   3 N :   -0.057070
   4 C :   -0.024072
   5 N :   -0.055830
   6 C :   -0.019755
   7 C :   -0.050506
   8 C :    0.020576
   9 C :   -0.033308
  10 C :   -0.143994
  11 C :   -0.010618
  12 S :    0.431849
  13 C :   -0.271837
  14 C :   -0.070320
  15 Br:    0.135688
  16 C :    0.084422
  17 O :   -0.140181
  18 C :   -0.090908
  19 C :    0.058548
  20 C :   -0.182999
  21 S :    0.421773
  22 C :   -0.163513
  23 C :   -0.052559
  24 C :   -0.000097
  25 C :   -0.025261
  26 C :   -0.017808
  27 C :   -0.045206
  28 C :   -0.020927
  29 C :   -0.024699
  30 C :   -0.023688
  31 C :   -0.071926
  32 C :   -0.025180
  33 C :   -0.060314
  34 C :    0.047004
  35 N :    0.035265
  36 C :    0.078700
  37 C :   -0.131385
  38 C :    0.022079
  39 C :   -0.189576
  40 C :    0.004688
  41 C :   -0.061102
  42 C :   -0.122175
  43 S :    0.410206
  44 C :   -0.221566
  45 C :   -0.016280
  46 C :   -0.050002
  47 C :   -0.113319
  48 S :    0.483139
  49 C :   -0.076166
  50 C :    0.031318
  51 C :   -0.126209
  52 C :    0.079628
  53 O :   -0.159140
  54 C :   -0.047575
  55 C :    0.021228
  56 C :   -0.014676
  57 C :   -0.007118
  58 C :   -0.042093
  59 C :    0.061869
  60 C :    0.058903
  61 C :   -0.032839
  62 F :   -0.057815
  63 F :   -0.060893
  64 C :   -0.012032
  65 C :   -0.008734
  66 C :    0.032126
  67 C :   -0.195834
  68 C :   -0.032931
  69 N :   -0.071614
  70 C :    0.002517
  71 N :   -0.092415
  72 H :    0.040363
  73 H :    0.040809
  74 H :    0.038941
  75 H :    0.043933
  76 H :    0.046030
  77 H :    0.023451
  78 H :    0.023339
  79 H :    0.023433
  80 H :    0.023456
  81 H :    0.025904
  82 H :    0.025509
  83 H :    0.025888
  84 H :    0.034564
  85 H :    0.023223
  86 H :    0.028825
  87 H :    0.036405
  88 H :    0.036586
  89 H :    0.028124
  90 H :    0.037624
  91 H :    0.033955
  92 H :    0.090371
  93 H :    0.036484
  94 H :    0.020103
  95 H :    0.037865
  96 H :    0.037406
  97 H :    0.034292
  98 H :    0.032825
  99 H :    0.034363
 100 H :    0.038488
 101 H :    0.043667
 102 H :    0.037232
 103 H :    0.035779
 104 H :    0.042726
 105 H :    0.029067

  Mayer bond orders larger than 0.100000
B(  0-C ,  1-C ) :   1.6419 B(  0-C ,  6-C ) :   1.0094 B(  0-C , 18-C ) :   1.0716
B(  1-C ,  2-C ) :   1.1343 B(  1-C ,  4-C ) :   1.1478 B(  2-C ,  3-N ) :   2.9739
B(  4-C ,  5-N ) :   2.9965 B(  6-C ,  7-C ) :   1.2701 B(  6-C , 11-C ) :   1.4073
B(  7-C ,  8-C ) :   1.4260 B(  7-C , 16-C ) :   0.9392 B(  8-C ,  9-C ) :   1.2430
B(  8-C , 72-H ) :   1.0172 B(  9-C , 10-C ) :   1.3077 B(  9-C , 14-C ) :   1.1624
B( 10-C , 11-C ) :   1.3267 B( 10-C , 12-S ) :   1.0850 B( 11-C , 73-H ) :   0.9818
B( 12-S , 13-C ) :   1.0862 B( 13-C , 14-C ) :   1.6197 B( 13-C , 15-Br) :   1.0182
B( 14-C , 74-H ) :   0.9997 B( 16-C , 17-O ) :   2.1882 B( 16-C , 18-C ) :   0.9463
B( 18-C , 19-C ) :   1.6121 B( 19-C , 20-C ) :   1.1382 B( 19-C , 75-H ) :   0.9381
B( 20-C , 21-S ) :   1.0784 B( 20-C , 24-C ) :   1.5044 B( 21-S , 22-C ) :   1.1293
B( 22-C , 23-C ) :   1.5738 B( 22-C , 31-C ) :   0.9941 B( 23-C , 24-C ) :   1.2718
B( 23-C , 30-C ) :   1.0665 B( 24-C , 25-C ) :   1.0440 B( 25-C , 26-C ) :   0.9968
B( 25-C , 28-C ) :   1.0601 B( 25-C , 76-H ) :   0.8776 B( 26-C , 27-C ) :   2.0033
B( 26-C , 77-H ) :   0.9571 B( 27-C , 78-H ) :   0.9537 B( 27-C , 79-H ) :   0.9520
B( 28-C , 29-C ) :   1.0965 B( 28-C , 80-H ) :   0.9337 B( 28-C , 81-H ) :   0.9221
B( 29-C , 30-C ) :   1.1297 B( 29-C , 82-H ) :   0.9210 B( 29-C , 83-H ) :   0.9281
B( 30-C , 84-H ) :   0.8734 B( 30-C , 85-H ) :   0.9063 B( 31-C , 32-C ) :   1.8555
B( 31-C , 86-H ) :   0.9521 B( 32-C , 33-C ) :   1.0918 B( 32-C , 34-C ) :   1.0437
B( 33-C , 87-H ) :   0.9319 B( 33-C , 88-H ) :   0.9079 B( 33-C , 89-H ) :   0.9328
B( 34-C , 35-N ) :   0.9758 B( 34-C , 90-H ) :   0.9207 B( 34-C , 91-H ) :   0.9369
B( 35-N , 36-C ) :   1.3058 B( 35-N , 92-H ) :   0.9351 B( 36-C , 37-C ) :   1.5136
B( 36-C , 93-H ) :   0.9684 B( 37-C , 38-C ) :   1.2383 B( 37-C , 94-H ) :   0.9552
B( 38-C , 39-C ) :   1.5029 B( 38-C , 95-H ) :   0.9847 B( 39-C , 40-C ) :   1.1938
B( 39-C , 43-S ) :   1.0243 B( 40-C , 41-C ) :   1.5248 B( 40-C , 96-H ) :   0.9980
B( 41-C , 42-C ) :   1.2412 B( 41-C , 97-H ) :   0.9962 B( 42-C , 43-S ) :   1.1290
B( 42-C , 44-C ) :   1.3804 B( 44-C , 45-C ) :   1.2595 B( 44-C , 48-S ) :   1.0477
B( 45-C , 46-C ) :   1.5046 B( 45-C , 98-H ) :   0.9914 B( 46-C , 47-C ) :   1.2325
B( 46-C , 99-H ) :   0.9968 B( 47-C , 48-S ) :   1.1419 B( 47-C , 49-C ) :   1.3436
B( 49-C , 50-C ) :   1.4492 B( 49-C ,100-H ) :   0.9543 B( 50-C , 51-C ) :   1.3452
B( 50-C ,101-H ) :   0.9341 B( 51-C , 52-C ) :   0.9825 B( 51-C , 66-C ) :   1.2076
B( 52-C , 53-O ) :   2.2509 B( 52-C , 54-C ) :   0.9031 B( 54-C , 55-C ) :   1.4926
B( 54-C , 65-C ) :   1.2247 B( 55-C , 56-C ) :   1.1720 B( 55-C ,102-H ) :   1.0151
B( 56-C , 57-C ) :   1.2718 B( 56-C , 61-C ) :   1.1998 B( 57-C , 58-C ) :   1.1945
B( 57-C , 64-C ) :   1.1847 B( 58-C , 59-C ) :   1.4330 B( 58-C , 61-C ) :   0.1107
B( 58-C ,103-H ) :   0.9999 B( 59-C , 60-C ) :   1.2061 B( 59-C , 63-F ) :   1.1239
B( 60-C , 61-C ) :   1.4329 B( 60-C , 62-F ) :   1.1244 B( 61-C ,104-H ) :   1.0065
B( 64-C , 65-C ) :   1.4871 B( 64-C ,105-H ) :   0.9906 B( 65-C , 66-C ) :   0.9826
B( 66-C , 67-C ) :   1.4785 B( 67-C , 68-C ) :   1.1612 B( 67-C , 70-C ) :   1.1806
B( 68-C , 69-N ) :   3.0151 B( 70-C , 71-N ) :   2.8952 B( 71-N , 88-H ) :   0.1116

-----------------------------------------------------------------------------
         ABSORPTION SPECTRUM VIA TRANSITION ELECTRIC DIPOLE MOMENTS
-----------------------------------------------------------------------------
State   Energy  Wavelength   fosc         T2         TX        TY        TZ
        (cm-1)    (nm)                  (au**2)     (au)      (au)      (au)
-----------------------------------------------------------------------------
   0   12127.3    824.6   0.490840874  13.32458  -3.05252   2.00018   0.07732
   1   21341.4    468.6   0.026419514   0.40755   0.08581  -0.44864   0.44599
   2   21559.5    463.8   0.082722046   1.26316   0.54839   0.27320  -0.94223
   3   22265.6    449.1   0.788955522  11.66525   1.31439   1.27470  -2.88319
   4   23217.7    430.7   0.171005419   2.42475  -0.94327   1.00530  -0.72414
   5   24447.9    409.0   0.004557452   0.06137   0.01486  -0.24398   0.04026
   6   25751.0    388.3   0.767211914   9.80837  -0.83772   0.26950  -3.00566
   7   26072.3    383.5   0.029300038   0.36997  -0.39279   0.24808  -0.39261
   8   26342.6    379.6   0.213633766   2.66985  -0.73647   0.27827  -1.43179
   9   28001.2    357.1   0.003748797   0.04407   0.14215  -0.04308  -0.14837
  10   28659.0    348.9   0.014653136   0.16832  -0.06308   0.10201  -0.39235
  11   28764.9    347.6   0.302538594   3.46253   0.92248  -1.30975  -0.94663
  12   29104.5    343.6   0.197213501   2.23075   1.26840  -0.58623  -0.52748
  13   29656.9    337.2   0.108767545   1.20739   0.07259   0.44147  -1.00361
  14   29895.7    334.5   0.014804427   0.16303   0.03568  -0.03112  -0.40098
  15   30454.9    328.4   0.062891499   0.67985  -0.59849  -0.13940   0.54975
  16   30701.2    325.7   0.080819463   0.86663   0.65991  -0.33704  -0.56353
  17   31309.9    319.4   0.089993509   0.94625   0.08736  -0.43421  -0.86607
  18   31760.0    314.9   0.048795272   0.50579   0.20549  -0.16715  -0.66002
  19   31808.4    314.4   0.013191861   0.13653  -0.26153  -0.22707  -0.12875
  20   32271.6    309.9   0.139485032   1.42293  -0.68248   0.13242   0.96934
  21   32547.6    307.2   0.581455313   5.88129  -0.58896  -1.28693  -1.96932
  22   32873.4    304.2   0.015663339   0.15686   0.13740  -0.20634   0.30888
  23   33322.2    300.1   0.069779793   0.68940   0.04592   0.20451   0.80341
  24   33489.3    298.6   0.002523275   0.02480  -0.15158  -0.02159  -0.03689
  25   33619.9    297.4   0.042437573   0.41556   0.41124   0.15297   0.47227
  26   33677.0    296.9   0.015988173   0.15629   0.33904  -0.00939  -0.20312
  27   33861.8    295.3   0.535904505   5.21018   1.04204  -1.91912  -0.66432
  28   34100.3    293.3   0.074444968   0.71871  -0.45488   0.47817   0.53212
  29   34894.4    286.6   0.155455734   1.46665  -0.58731  -0.32266  -1.00877
  30   35049.5    285.3   0.004687623   0.04403  -0.16869   0.12151  -0.02843
  31   35602.3    280.9   0.016541140   0.15295   0.09635  -0.01846   0.37859
  32   36014.3    277.7   0.012201346   0.11153   0.33119   0.02480   0.03509
  33   36159.8    276.6   0.029556054   0.26909  -0.13050  -0.43867  -0.24418
  34   36189.6    276.3   0.027372824   0.24901   0.15261   0.37953   0.28579
  35   36321.0    275.3   0.007550455   0.06844  -0.02526   0.22573   0.12979
  36   36403.6    274.7   0.015900400   0.14379   0.22872   0.22181   0.20562
  37   36591.9    273.3   0.184121424   1.65651   0.36173  -0.96601  -0.76974
  38   37196.6    268.8   0.003186921   0.02821   0.15704   0.04727  -0.03618
  39   37838.9    264.3   0.102820659   0.89458  -0.56546   0.60375   0.45861
  40   37945.3    263.5   0.003451944   0.02995   0.15152  -0.03228  -0.07712
  41   38088.9    262.5   0.000562922   0.00487   0.00742   0.04109  -0.05587
  42   38285.5    261.2   0.123939228   1.06574   0.70566  -0.73638  -0.15977
  43   38834.5    257.5   0.014983839   0.12702   0.20238  -0.27620   0.09888
  44   39536.1    252.9   0.222920937   1.85623   0.64219   0.43513  -1.12004
  45   39733.4    251.7   0.027308299   0.22626   0.01340   0.47206  -0.05691
  46   39966.9    250.2   0.004102082   0.03379  -0.09625  -0.14918  -0.04765
  47   40018.4    249.9   0.009696939   0.07977   0.09639   0.21925  -0.14970
  48   40113.2    249.3   0.030790487   0.25270   0.29212   0.32937  -0.24266

FINAL SINGLE POINT ENERGY     -7017.014474420641

DIPOLE MOMENT
-------------
                                X             Y             Z
Electronic contribution:     82.90575     -22.52502    -151.63101
Nuclear contribution   :    -86.90014      22.21811     153.24026
                        -----------------------------------------
Total Dipole Moment    :     -3.99440      -0.30690       1.60924
                        -----------------------------------------
Magnitude (a.u.)       :      4.31730
Magnitude (Debye)      :     10.97370

Rotational constants in cm-1:     0.001326     0.000351     0.000319
Rotational constants in MHz :    39.753840    10.514389     9.571063

                             ****ORCA TERMINATED NORMALLY****
TOTAL RUN TIME: 0 days 0 hours 13 minutes 1 seconds 183 msec
