                         Program Version 4.2.0 -  RELEASE  -
|  1> # ORCA input file
|  2> # SCF done       -180.591352067010          0.000686081253
|  3> ! CAM-B3LYP def2-SVP def2/J RIJCOSX Grid4 TightSCF
|  4> %maxcore 5000
|  5> %tddft
|  6>     Mode sTDDFT
|  7>     Ethresh 5.0
|  8>     maxcore 5000
|  9> end
| 10>
| 11> %pal
| 12>   nprocs 6
| 13>   end
| 14> * xyz 0 1
| 15>    C      -13.59222         7.53099         0.40307
| 16>    C      -14.31178         7.09075         1.48282
| 17>    C      -15.48489         7.71037         1.96108
| 18>    N      -16.44153         8.17383         2.39305
| 19>    C      -13.96330         5.95937         2.24834
| 20>    N      -13.71186         5.04095         2.88935
| 21>    C      -13.90415         8.69430        -0.42260
| 22>    C      -12.90514         8.83031        -1.42353
| 23>    C      -12.89864         9.86154        -2.33134
| 24>    C      -13.94403        10.78694        -2.26913
| 25>    C      -14.95828        10.62567        -1.29438
| 26>    C      -14.94915         9.59648        -0.35858
| 27>    S      -16.16677        11.86450        -1.42634
| 28>    C      -15.29889        12.57654        -2.76269
| 29>    C      -14.16134        11.92161        -3.09574
| 30>   Br      -15.99946        14.08962        -3.61847
| 31>    C      -11.95344         7.72738        -1.29862
| 32>    O      -10.98498         7.48510        -2.01291
| 33>    C      -12.38780         6.93745        -0.13670
| 34>    C      -11.67911         5.83959         0.27921
| 35>    N      -10.60797         5.44367        -0.42490
| 36>    C       -9.76911         4.42058        -0.15582
| 37>    S       -9.82500         3.54778         1.34091
| 38>    C       -8.48799         2.58216         0.79735
| 39>    N       -8.01067         1.58112         1.66020
| 40>    O       -7.07422         0.90913         1.27555
| 41>    O       -8.57644         1.46934         2.73132
| 42>    C       -8.03804         2.90704        -0.45078
| 43>    C       -8.76483         3.96766        -1.03415
| 44>    C       -8.59185         4.49591        -2.34949
| 45>    C       -7.64399         4.08940        -3.23267
| 46>    C       -7.51108         4.52898        -4.57242
| 47>    C       -6.47549         4.16685        -5.41955
| 48>    C       -6.65009         4.74724        -6.69069
| 49>    C       -7.81373         5.50204        -6.69944
| 50>    C       -8.40401         5.38647        -5.35519
| 51>    S       -9.81257         6.08771        -4.91489
| 52>    C       -8.37268         6.23800        -7.75429
| 53>    S       -9.91191         7.05022        -7.63094
| 54>    C       -9.86432         7.67645        -9.27135
| 55>    C       -8.69213         7.22895        -9.89812
| 56>    C       -7.86193         6.45395        -9.03962
| 57>    N       -6.74605         6.11532        -9.72839
| 58>    C       -6.84530         6.65602       -10.98554
| 59>    N       -5.79936         6.43995       -11.90709
| 60>    O       -4.85870         5.77611       -11.50200
| 61>    O       -5.90479         6.91436       -13.01595
| 62>    C       -8.02800         7.35097       -11.13488
| 63>    C      -10.90448         8.42024        -9.83284
| 64>    C      -11.91303         9.08153        -9.17954
| 65>    C      -12.02579         9.54314        -7.81987
| 66>    C      -10.99918         9.99765        -7.02683
| 67>    C      -11.21161        10.62588        -5.78903
| 68>    N      -11.35560        11.15690        -4.78041
| 69>    C       -9.64769         9.99663        -7.42435
| 70>    N       -8.54198        10.03952        -7.73115
| 71>    C      -13.44308         9.76697        -7.55509
| 72>    C      -14.14275         9.72785        -8.78749
| 73>    C      -13.19690         9.37332        -9.86924
| 74>    O      -13.41966         9.28522       -11.05429
| 75>    C      -15.49283         9.96679        -8.87069
| 76>    C      -16.18426        10.23001        -7.68190
| 77>    C      -15.48110        10.21744        -6.45395
| 78>    C      -14.11219         9.99452        -6.36982
| 79>    S      -16.53934        10.51879        -5.11104
| 80>    C      -17.89063        10.68509        -6.20114
| 81>    C      -17.56780        10.50840        -7.50416
| 82>   Br      -19.58669        11.07526        -5.50563
| 83>    H      -12.11060         9.96601        -3.06165
| 84>    H      -15.73355         9.52459         0.37633
| 85>    H      -13.49029        12.21984        -3.88100
| 86>    H      -11.94571         5.26162         1.15482
| 87>    H      -10.42374         6.04598        -1.25456
| 88>    H       -7.22112         2.38595        -0.91459
| 89>    H       -9.28750         5.25761        -2.66530
| 90>    H       -6.90308         3.36301        -2.92482
| 91>    H       -5.65070         3.53244        -5.15069
| 92>    H       -5.97875         4.59693        -7.51469
| 93>    H       -5.93286         5.60136        -9.42501
| 94>    H       -8.34917         7.86658       -12.01636
| 95>    H      -10.97519         8.40797       -10.91601
| 96>    H      -16.00328         9.94979        -9.82066
| 97>    H      -13.61771         9.98213        -5.41271
| 98>    H      -18.27573        10.57383        -8.30998
| 99> *
|100>
|101>                          ****END OF INPUT****

CARTESIAN COORDINATES (ANGSTROEM)
---------------------------------
  C    -13.592220    7.530990    0.403070
  C    -14.311780    7.090750    1.482820
  C    -15.484890    7.710370    1.961080
  N    -16.441530    8.173830    2.393050
  C    -13.963300    5.959370    2.248340
  N    -13.711860    5.040950    2.889350
  C    -13.904150    8.694300   -0.422600
  C    -12.905140    8.830310   -1.423530
  C    -12.898640    9.861540   -2.331340
  C    -13.944030   10.786940   -2.269130
  C    -14.958280   10.625670   -1.294380
  C    -14.949150    9.596480   -0.358580
  S    -16.166770   11.864500   -1.426340
  C    -15.298890   12.576540   -2.762690
  C    -14.161340   11.921610   -3.095740
  Br   -15.999460   14.089620   -3.618470
  C    -11.953440    7.727380   -1.298620
  O    -10.984980    7.485100   -2.012910
  C    -12.387800    6.937450   -0.136700
  C    -11.679110    5.839590    0.279210
  N    -10.607970    5.443670   -0.424900
  C     -9.769110    4.420580   -0.155820
  S     -9.825000    3.547780    1.340910
  C     -8.487990    2.582160    0.797350
  N     -8.010670    1.581120    1.660200
  O     -7.074220    0.909130    1.275550
  O     -8.576440    1.469340    2.731320
  C     -8.038040    2.907040   -0.450780
  C     -8.764830    3.967660   -1.034150
  C     -8.591850    4.495910   -2.349490
  C     -7.643990    4.089400   -3.232670
  C     -7.511080    4.528980   -4.572420
  C     -6.475490    4.166850   -5.419550
  C     -6.650090    4.747240   -6.690690
  C     -7.813730    5.502040   -6.699440
  C     -8.404010    5.386470   -5.355190
  S     -9.812570    6.087710   -4.914890
  C     -8.372680    6.238000   -7.754290
  S     -9.911910    7.050220   -7.630940
  C     -9.864320    7.676450   -9.271350
  C     -8.692130    7.228950   -9.898120
  C     -7.861930    6.453950   -9.039620
  N     -6.746050    6.115320   -9.728390
  C     -6.845300    6.656020  -10.985540
  N     -5.799360    6.439950  -11.907090
  O     -4.858700    5.776110  -11.502000
  O     -5.904790    6.914360  -13.015950
  C     -8.028000    7.350970  -11.134880
  C    -10.904480    8.420240   -9.832840
  C    -11.913030    9.081530   -9.179540
  C    -12.025790    9.543140   -7.819870
  C    -10.999180    9.997650   -7.026830
  C    -11.211610   10.625880   -5.789030
  N    -11.355600   11.156900   -4.780410
  C     -9.647690    9.996630   -7.424350
  N     -8.541980   10.039520   -7.731150
  C    -13.443080    9.766970   -7.555090
  C    -14.142750    9.727850   -8.787490
  C    -13.196900    9.373320   -9.869240
  O    -13.419660    9.285220  -11.054290
  C    -15.492830    9.966790   -8.870690
  C    -16.184260   10.230010   -7.681900
  C    -15.481100   10.217440   -6.453950
  C    -14.112190    9.994520   -6.369820
  S    -16.539340   10.518790   -5.111040
  C    -17.890630   10.685090   -6.201140
  C    -17.567800   10.508400   -7.504160
  Br   -19.586690   11.075260   -5.505630
  H    -12.110600    9.966010   -3.061650
  H    -15.733550    9.524590    0.376330
  H    -13.490290   12.219840   -3.881000
  H    -11.945710    5.261620    1.154820
  H    -10.423740    6.045980   -1.254560
  H     -7.221120    2.385950   -0.914590
  H     -9.287500    5.257610   -2.665300
  H     -6.903080    3.363010   -2.924820
  H     -5.650700    3.532440   -5.150690
  H     -5.978750    4.596930   -7.514690
  H     -5.932860    5.601360   -9.425010
  H     -8.349170    7.866580  -12.016360
  H    -10.975190    8.407970  -10.916010
  H    -16.003280    9.949790   -9.820660
  H    -13.617710    9.982130   -5.412710
  H    -18.275730   10.573830   -8.309980

 Total Charge           Charge          ....    0
 Multiplicity           Mult            ....    1
 Number of Electrons    NEL             ....  552
 Basis Dimension        Dim             .... 1088

ORBITAL ENERGIES
----------------

  NO   OCC          E(Eh)            E(eV)
   0   2.0000    -482.889192    -13140.0829
   1   2.0000    -482.886904    -13140.0207
   2   2.0000     -88.998242     -2421.7653
   3   2.0000     -88.985606     -2421.4214
   4   2.0000     -88.980337     -2421.2781
   5   2.0000     -88.980146     -2421.2729
   6   2.0000     -88.955835     -2420.6113
   7   2.0000     -62.566883     -1702.5314
   8   2.0000     -62.564555     -1702.4681
   9   2.0000     -56.400824     -1534.7444
  10   2.0000     -56.398500     -1534.6812
  11   2.0000     -56.398112     -1534.6706
  12   2.0000     -56.398094     -1534.6702
  13   2.0000     -56.395804     -1534.6078
  14   2.0000     -56.395764     -1534.6068
  15   2.0000     -19.261900      -524.1429
  16   2.0000     -19.261347      -524.1279
  17   2.0000     -19.247100      -523.7402
  18   2.0000     -19.246247      -523.7170
  19   2.0000     -19.240135      -523.5507
  20   2.0000     -19.217785      -522.9425
  21   2.0000     -14.671836      -399.2409
  22   2.0000     -14.658470      -398.8772
  23   2.0000     -14.501733      -394.6122
  24   2.0000     -14.500710      -394.5844
  25   2.0000     -14.429046      -392.6343
  26   2.0000     -14.424997      -392.5241
  27   2.0000     -14.420010      -392.3884
  28   2.0000     -14.418434      -392.3455
  29   2.0000     -10.385688      -282.6089
  30   2.0000     -10.381831      -282.5040
  31   2.0000     -10.380373      -282.4643
  32   2.0000     -10.375716      -282.3376
  33   2.0000     -10.369943      -282.1805
  34   2.0000     -10.369079      -282.1570
  35   2.0000     -10.362303      -281.9726
  36   2.0000     -10.360686      -281.9286
  37   2.0000     -10.356002      -281.8011
  38   2.0000     -10.351945      -281.6907
  39   2.0000     -10.348585      -281.5993
  40   2.0000     -10.348179      -281.5883
  41   2.0000     -10.347377      -281.5664
  42   2.0000     -10.345984      -281.5285
  43   2.0000     -10.345400      -281.5127
  44   2.0000     -10.335454      -281.2420
  45   2.0000     -10.330732      -281.1135
  46   2.0000     -10.330662      -281.1116
  47   2.0000     -10.327288      -281.0198
  48   2.0000     -10.326482      -280.9979
  49   2.0000     -10.325901      -280.9821
  50   2.0000     -10.322978      -280.9025
  51   2.0000     -10.321313      -280.8572
  52   2.0000     -10.321286      -280.8565
  53   2.0000     -10.320802      -280.8433
  54   2.0000     -10.320589      -280.8375
  55   2.0000     -10.315519      -280.6995
  56   2.0000     -10.315325      -280.6943
  57   2.0000     -10.314322      -280.6670
  58   2.0000     -10.313643      -280.6485
  59   2.0000     -10.313033      -280.6319
  60   2.0000     -10.312599      -280.6201
  61   2.0000     -10.312235      -280.6102
  62   2.0000     -10.312064      -280.6055
  63   2.0000     -10.311704      -280.5957
  64   2.0000     -10.311147      -280.5806
  65   2.0000     -10.310373      -280.5595
  66   2.0000     -10.306537      -280.4551
  67   2.0000     -10.306233      -280.4469
  68   2.0000     -10.304009      -280.3863
  69   2.0000     -10.303374      -280.3691
  70   2.0000     -10.302091      -280.3341
  71   2.0000     -10.300449      -280.2895
  72   2.0000     -10.300411      -280.2884
  73   2.0000     -10.299697      -280.2690
  74   2.0000     -10.298029      -280.2236
  75   2.0000     -10.295363      -280.1511
  76   2.0000      -8.796319      -239.3600
  77   2.0000      -8.793949      -239.2955
  78   2.0000      -8.093569      -220.2372
  79   2.0000      -8.078519      -219.8277
  80   2.0000      -8.075984      -219.7587
  81   2.0000      -8.075719      -219.7515
  82   2.0000      -8.051483      -219.0920
  83   2.0000      -6.632624      -180.4829
  84   2.0000      -6.630240      -180.4180
  85   2.0000      -6.618054      -180.0864
  86   2.0000      -6.617847      -180.0808
  87   2.0000      -6.615695      -180.0222
  88   2.0000      -6.615473      -180.0162
  89   2.0000      -6.063186      -164.9877
  90   2.0000      -6.058843      -164.8695
  91   2.0000      -6.055029      -164.7657
  92   2.0000      -6.048019      -164.5750
  93   2.0000      -6.045610      -164.5094
  94   2.0000      -6.045447      -164.5050
  95   2.0000      -6.043565      -164.4538
  96   2.0000      -6.041390      -164.3946
  97   2.0000      -6.041086      -164.3863
  98   2.0000      -6.040645      -164.3743
  99   2.0000      -6.037312      -164.2836
 100   2.0000      -6.037046      -164.2764
 101   2.0000      -6.021459      -163.8522
 102   2.0000      -6.019112      -163.7884
 103   2.0000      -6.010293      -163.5484
 104   2.0000      -2.748509       -74.7907
 105   2.0000      -2.746115       -74.7256
 106   2.0000      -2.744394       -74.6787
 107   2.0000      -2.744251       -74.6749
 108   2.0000      -2.742069       -74.6155
 109   2.0000      -2.741842       -74.6093
 110   2.0000      -2.732656       -74.3594
 111   2.0000      -2.732653       -74.3593
 112   2.0000      -2.730314       -74.2956
 113   2.0000      -2.730295       -74.2951
 114   2.0000      -1.343134       -36.5485
 115   2.0000      -1.329006       -36.1641
 116   2.0000      -1.163674       -31.6652
 117   2.0000      -1.155917       -31.4541
 118   2.0000      -1.148567       -31.2541
 119   2.0000      -1.133317       -30.8391
 120   2.0000      -1.125131       -30.6164
 121   2.0000      -1.109965       -30.2037
 122   2.0000      -1.030821       -28.0501
 123   2.0000      -1.029401       -28.0114
 124   2.0000      -1.024485       -27.8777
 125   2.0000      -1.020650       -27.7733
 126   2.0000      -1.019541       -27.7431
 127   2.0000      -1.017528       -27.6884
 128   2.0000      -1.006083       -27.3769
 129   2.0000      -1.001776       -27.2597
 130   2.0000      -0.996311       -27.1110
 131   2.0000      -0.996090       -27.1050
 132   2.0000      -0.993804       -27.0428
 133   2.0000      -0.948625       -25.8134
 134   2.0000      -0.947468       -25.7819
 135   2.0000      -0.937487       -25.5103
 136   2.0000      -0.931111       -25.3368
 137   2.0000      -0.915890       -24.9226
 138   2.0000      -0.914149       -24.8753
 139   2.0000      -0.913053       -24.8454
 140   2.0000      -0.909339       -24.7444
 141   2.0000      -0.906245       -24.6602
 142   2.0000      -0.898578       -24.4515
 143   2.0000      -0.891700       -24.2644
 144   2.0000      -0.889662       -24.2089
 145   2.0000      -0.888229       -24.1699
 146   2.0000      -0.879812       -23.9409
 147   2.0000      -0.868917       -23.6444
 148   2.0000      -0.857100       -23.3229
 149   2.0000      -0.840642       -22.8750
 150   2.0000      -0.834131       -22.6979
 151   2.0000      -0.833233       -22.6734
 152   2.0000      -0.812329       -22.1046
 153   2.0000      -0.801682       -21.8149
 154   2.0000      -0.799866       -21.7654
 155   2.0000      -0.783630       -21.3237
 156   2.0000      -0.769667       -20.9437
 157   2.0000      -0.769182       -20.9305
 158   2.0000      -0.760585       -20.6966
 159   2.0000      -0.756457       -20.5843
 160   2.0000      -0.742200       -20.1963
 161   2.0000      -0.733242       -19.9525
 162   2.0000      -0.719068       -19.5668
 163   2.0000      -0.713793       -19.4233
 164   2.0000      -0.703212       -19.1354
 165   2.0000      -0.701696       -19.0941
 166   2.0000      -0.696977       -18.9657
 167   2.0000      -0.695457       -18.9243
 168   2.0000      -0.688119       -18.7247
 169   2.0000      -0.679500       -18.4901
 170   2.0000      -0.676891       -18.4192
 171   2.0000      -0.666260       -18.1299
 172   2.0000      -0.664531       -18.0828
 173   2.0000      -0.659610       -17.9489
 174   2.0000      -0.654514       -17.8102
 175   2.0000      -0.647600       -17.6221
 176   2.0000      -0.640000       -17.4153
 177   2.0000      -0.639530       -17.4025
 178   2.0000      -0.638814       -17.3830
 179   2.0000      -0.636692       -17.3253
 180   2.0000      -0.629675       -17.1343
 181   2.0000      -0.625562       -17.0224
 182   2.0000      -0.617781       -16.8107
 183   2.0000      -0.614028       -16.7086
 184   2.0000      -0.609264       -16.5789
 185   2.0000      -0.607085       -16.5196
 186   2.0000      -0.606387       -16.5006
 187   2.0000      -0.599800       -16.3214
 188   2.0000      -0.599549       -16.3145
 189   2.0000      -0.589062       -16.0292
 190   2.0000      -0.584119       -15.8947
 191   2.0000      -0.579236       -15.7618
 192   2.0000      -0.571437       -15.5496
 193   2.0000      -0.565779       -15.3956
 194   2.0000      -0.565340       -15.3837
 195   2.0000      -0.560218       -15.2443
 196   2.0000      -0.559244       -15.2178
 197   2.0000      -0.556964       -15.1558
 198   2.0000      -0.552337       -15.0298
 199   2.0000      -0.548891       -14.9361
 200   2.0000      -0.547192       -14.8899
 201   2.0000      -0.544082       -14.8052
 202   2.0000      -0.541469       -14.7341
 203   2.0000      -0.541108       -14.7243
 204   2.0000      -0.537201       -14.6180
 205   2.0000      -0.531791       -14.4708
 206   2.0000      -0.527463       -14.3530
 207   2.0000      -0.524236       -14.2652
 208   2.0000      -0.523127       -14.2350
 209   2.0000      -0.518735       -14.1155
 210   2.0000      -0.517177       -14.0731
 211   2.0000      -0.516067       -14.0429
 212   2.0000      -0.512739       -13.9523
 213   2.0000      -0.510180       -13.8827
 214   2.0000      -0.505903       -13.7663
 215   2.0000      -0.504747       -13.7349
 216   2.0000      -0.501126       -13.6363
 217   2.0000      -0.498453       -13.5636
 218   2.0000      -0.495197       -13.4750
 219   2.0000      -0.491751       -13.3812
 220   2.0000      -0.486440       -13.2367
 221   2.0000      -0.483806       -13.1650
 222   2.0000      -0.478973       -13.0335
 223   2.0000      -0.478303       -13.0153
 224   2.0000      -0.475709       -12.9447
 225   2.0000      -0.475259       -12.9324
 226   2.0000      -0.474196       -12.9035
 227   2.0000      -0.468845       -12.7579
 228   2.0000      -0.464378       -12.6364
 229   2.0000      -0.461018       -12.5449
 230   2.0000      -0.457661       -12.4536
 231   2.0000      -0.456360       -12.4182
 232   2.0000      -0.453941       -12.3524
 233   2.0000      -0.450903       -12.2697
 234   2.0000      -0.450280       -12.2528
 235   2.0000      -0.448851       -12.2138
 236   2.0000      -0.446530       -12.1507
 237   2.0000      -0.443674       -12.0730
 238   2.0000      -0.440222       -11.9790
 239   2.0000      -0.436746       -11.8845
 240   2.0000      -0.434810       -11.8318
 241   2.0000      -0.434518       -11.8238
 242   2.0000      -0.431895       -11.7525
 243   2.0000      -0.428756       -11.6671
 244   2.0000      -0.418426       -11.3860
 245   2.0000      -0.417720       -11.3667
 246   2.0000      -0.416307       -11.3283
 247   2.0000      -0.411195       -11.1892
 248   2.0000      -0.407804       -11.0969
 249   2.0000      -0.403356       -10.9759
 250   2.0000      -0.398936       -10.8556
 251   2.0000      -0.394659       -10.7392
 252   2.0000      -0.393573       -10.7097
 253   2.0000      -0.391593       -10.6558
 254   2.0000      -0.389288       -10.5931
 255   2.0000      -0.388632       -10.5752
 256   2.0000      -0.386082       -10.5058
 257   2.0000      -0.378477       -10.2989
 258   2.0000      -0.376910       -10.2562
 259   2.0000      -0.376128       -10.2350
 260   2.0000      -0.375589       -10.2203
 261   2.0000      -0.373229       -10.1561
 262   2.0000      -0.362210        -9.8562
 263   2.0000      -0.360047        -9.7974
 264   2.0000      -0.352306        -9.5867
 265   2.0000      -0.347114        -9.4454
 266   2.0000      -0.336016        -9.1435
 267   2.0000      -0.329000        -8.9526
 268   2.0000      -0.323339        -8.7985
 269   2.0000      -0.320138        -8.7114
 270   2.0000      -0.317804        -8.6479
 271   2.0000      -0.313221        -8.5232
 272   2.0000      -0.299679        -8.1547
 273   2.0000      -0.297183        -8.0867
 274   2.0000      -0.284645        -7.7456
 275   2.0000      -0.247469        -6.7340
 276   0.0000      -0.143905        -3.9159
 277   0.0000      -0.101672        -2.7666
 278   0.0000      -0.093434        -2.5425
 279   0.0000      -0.074993        -2.0407
 280   0.0000      -0.071298        -1.9401

MULLIKEN ATOMIC CHARGES
-----------------------
   0 C :    0.323005
   1 C :   -0.343408
   2 C :   -0.183619
   3 N :    0.157947
   4 C :   -0.197458
   5 N :    0.144119
   6 C :    0.010745
   7 C :   -0.000587
   8 C :   -0.048228
   9 C :    0.088586
  10 C :   -0.088432
  11 C :   -0.023428
  12 S :    0.188145
  13 C :   -0.115096
  14 C :    0.024322
  15 Br:    0.026985
  16 C :    0.168976
  17 O :   -0.224977
  18 C :   -0.128043
  19 C :    0.027867
  20 N :   -0.015578
  21 C :   -0.115856
  22 S :    0.187117
  23 C :    0.004691
  24 N :    0.274178
  25 O :   -0.245447
  26 O :   -0.252063
  27 C :    0.004146
  28 C :    0.135339
  29 C :   -0.025862
  30 C :   -0.016472
  31 C :    0.111181
  32 C :   -0.014903
  33 C :   -0.028918
  34 C :    0.080471
  35 C :   -0.068460
  36 S :    0.018358
  37 C :   -0.112870
  38 S :    0.174101
  39 C :   -0.129811
  40 C :    0.145316
  41 C :    0.111541
  42 N :   -0.031462
  43 C :    0.146690
  44 N :    0.284759
  45 O :   -0.262423
  46 O :   -0.223936
  47 C :   -0.079333
  48 C :    0.031207
  49 C :   -0.146884
  50 C :    0.242034
  51 C :   -0.327536
  52 C :   -0.115320
  53 N :    0.106704
  54 C :   -0.200758
  55 N :    0.165881
  56 C :    0.004669
  57 C :    0.006335
  58 C :    0.139039
  59 O :   -0.142637
  60 C :   -0.073833
  61 C :    0.107351
  62 C :   -0.075564
  63 C :   -0.014877
  64 S :    0.176729
  65 C :   -0.121401
  66 C :    0.042100
  67 Br:    0.027493
  68 H :   -0.015985
  69 H :   -0.003698
  70 H :    0.006117
  71 H :    0.044493
  72 H :    0.193794
  73 H :    0.014188
  74 H :   -0.005819
  75 H :   -0.025226
  76 H :   -0.003016
  77 H :   -0.028466
  78 H :    0.144182
  79 H :    0.005518
  80 H :    0.023677
  81 H :   -0.007873
  82 H :   -0.032521
  83 H :   -0.002015
Sum of atomic charges:   -0.0000000

LOEWDIN ATOMIC CHARGES
----------------------
   0 C :    0.078755
   1 C :   -0.146198
   2 C :   -0.020261
   3 N :   -0.050736
   4 C :   -0.019592
   5 N :   -0.053105
   6 C :   -0.019365
   7 C :   -0.056733
   8 C :    0.027667
   9 C :   -0.034736
  10 C :   -0.144086
  11 C :   -0.008927
  12 S :    0.434592
  13 C :   -0.276226
  14 C :   -0.075456
  15 Br:    0.138939
  16 C :    0.098851
  17 O :   -0.173213
  18 C :   -0.140155
  19 C :    0.109355
  20 N :    0.076284
  21 C :   -0.107357
  22 S :    0.475372
  23 C :   -0.198076
  24 N :    0.272670
  25 O :   -0.211207
  26 O :   -0.218890
  27 C :    0.003591
  28 C :   -0.087640
  29 C :   -0.017837
  30 C :   -0.020398
  31 C :   -0.048757
  32 C :    0.002354
  33 C :    0.004849
  34 C :   -0.079124
  35 C :   -0.109563
  36 S :    0.224662
  37 C :   -0.162044
  38 S :    0.497864
  39 C :   -0.183824
  40 C :   -0.038675
  41 C :   -0.000068
  42 N :    0.080672
  43 C :    0.005754
  44 N :    0.279763
  45 O :   -0.222328
  46 O :   -0.185593
  47 C :   -0.020507
  48 C :    0.045854
  49 C :   -0.104741
  50 C :    0.065166
  51 C :   -0.158382
  52 C :    0.006414
  53 N :   -0.073155
  54 C :   -0.034679
  55 N :   -0.053231
  56 C :   -0.017339
  57 C :   -0.051017
  58 C :    0.081411
  59 O :   -0.144481
  60 C :    0.023317
  61 C :   -0.033435
  62 C :   -0.143611
  63 C :   -0.018397
  64 S :    0.443636
  65 C :   -0.272290
  66 C :   -0.070317
  67 Br:    0.139658
  68 H :    0.037029
  69 H :    0.041877
  70 H :    0.039108
  71 H :    0.036548
  72 H :    0.084484
  73 H :    0.045029
  74 H :    0.011737
  75 H :    0.030939
  76 H :    0.032967
  77 H :    0.024160
  78 H :    0.091027
  79 H :    0.045288
  80 H :    0.051326
  81 H :    0.042007
  82 H :    0.035551
  83 H :    0.039226

  Mayer bond orders larger than 0.100000
B(  0-C ,  1-C ) :   1.6327 B(  0-C ,  6-C ) :   1.0080 B(  0-C , 18-C ) :   1.0871
B(  1-C ,  2-C ) :   1.1413 B(  1-C ,  4-C ) :   1.1484 B(  2-C ,  3-N ) :   2.9722
B(  4-C ,  5-N ) :   2.9549 B(  6-C ,  7-C ) :   1.2606 B(  6-C , 11-C ) :   1.4232
B(  7-C ,  8-C ) :   1.4097 B(  7-C , 16-C ) :   0.9941 B(  8-C ,  9-C ) :   1.2550
B(  8-C , 68-H ) :   0.9978 B(  9-C , 10-C ) :   1.3009 B(  9-C , 14-C ) :   1.1708
B( 10-C , 11-C ) :   1.3194 B( 10-C , 12-S ) :   1.0915 B( 11-C , 69-H ) :   0.9809
B( 12-S , 13-C ) :   1.0841 B( 13-C , 14-C ) :   1.5876 B( 13-C , 15-Br) :   1.0247
B( 14-C , 70-H ) :   0.9987 B( 16-C , 17-O ) :   2.0012 B( 16-C , 18-C ) :   1.0015
B( 17-O , 72-H ) :   0.1561 B( 18-C , 19-C ) :   1.4735 B( 19-C , 20-N ) :   1.3216
B( 19-C , 71-H ) :   0.9316 B( 20-N , 21-C ) :   1.2095 B( 20-N , 72-H ) :   0.8121
B( 21-C , 22-S ) :   1.1415 B( 21-C , 28-C ) :   1.3475 B( 22-S , 23-C ) :   1.0779
B( 23-C , 24-N ) :   0.9591 B( 23-C , 27-C ) :   1.5169 B( 24-N , 25-O ) :   1.5375
B( 24-N , 26-O ) :   1.5203 B( 25-O , 26-O ) :   0.2637 B( 27-C , 28-C ) :   1.2033
B( 27-C , 73-H ) :   0.9993 B( 28-C , 29-C ) :   1.1059 B( 29-C , 30-C ) :   1.6410
B( 29-C , 74-H ) :   0.9557 B( 30-C , 31-C ) :   1.1652 B( 30-C , 75-H ) :   0.9732
B( 31-C , 32-C ) :   1.5327 B( 31-C , 35-C ) :   1.0119 B( 32-C , 33-C ) :   1.1046
B( 32-C , 76-H ) :   1.0106 B( 33-C , 34-C ) :   1.5192 B( 33-C , 77-H ) :   1.0072
B( 34-C , 35-C ) :   1.0140 B( 34-C , 37-C ) :   1.1818 B( 35-C , 36-S ) :   1.8072
B( 37-C , 38-S ) :   1.1576 B( 37-C , 41-C ) :   1.3390 B( 38-S , 39-C ) :   1.0735
B( 39-C , 40-C ) :   1.2554 B( 39-C , 48-C ) :   1.2376 B( 40-C , 41-C ) :   1.2574
B( 40-C , 47-C ) :   1.1702 B( 41-C , 42-N ) :   1.2034 B( 42-N , 43-C ) :   1.1798
B( 42-N , 78-H ) :   0.9011 B( 43-C , 44-N ) :   0.9180 B( 43-C , 47-C ) :   1.5065
B( 44-N , 45-O ) :   1.4803 B( 44-N , 46-O ) :   1.5555 B( 45-O , 46-O ) :   0.2731
B( 47-C , 79-H ) :   1.0220 B( 48-C , 49-C ) :   1.5521 B( 48-C , 80-H ) :   0.9480
B( 49-C , 50-C ) :   1.0820 B( 49-C , 58-C ) :   0.9509 B( 50-C , 51-C ) :   1.6138
B( 50-C , 56-C ) :   1.0040 B( 51-C , 52-C ) :   1.1692 B( 51-C , 54-C ) :   1.1490
B( 52-C , 53-N ) :   2.8568 B( 54-C , 55-N ) :   3.0195 B( 56-C , 57-C ) :   1.2779
B( 56-C , 63-C ) :   1.4158 B( 57-C , 58-C ) :   0.9166 B( 57-C , 60-C ) :   1.4261
B( 58-C , 59-O ) :   2.2712 B( 60-C , 61-C ) :   1.2479 B( 60-C , 81-H ) :   1.0179
B( 61-C , 62-C ) :   1.3105 B( 61-C , 66-C ) :   1.1644 B( 62-C , 63-C ) :   1.3234
B( 62-C , 64-S ) :   1.0842 B( 63-C , 82-H ) :   0.9877 B( 64-S , 65-C ) :   1.0896
B( 65-C , 66-C ) :   1.6173 B( 65-C , 67-Br) :   1.0216 B( 66-C , 83-H ) :   1.0007

-----------------------------------------------------------------------------
         ABSORPTION SPECTRUM VIA TRANSITION ELECTRIC DIPOLE MOMENTS
-----------------------------------------------------------------------------
State   Energy  Wavelength   fosc         T2         TX        TY        TZ
        (cm-1)    (nm)                  (au**2)     (au)      (au)      (au)
-----------------------------------------------------------------------------
   0    4204.9   2378.2   0.059913599   4.69078  -0.39400   1.01466  -1.87243
   1   13136.1    761.3   0.002354880   0.05902  -0.11100  -0.02130   0.21504
   2   14128.2    707.8   0.065514136   1.52660  -0.25792   0.60970  -1.04323
   3   14990.6    667.1   0.306920256   6.74033   1.94566  -1.71422  -0.12714
   4   19619.6    509.7   0.243954866   4.09350  -1.61380   0.91630   0.80594
   5   20019.0    499.5   0.267843815   4.40468   1.38376  -1.47704  -0.55520
   6   20646.4    484.3   0.098016240   1.56290  -1.07596   0.50385   0.38902
   7   21112.9    473.6   0.019948160   0.31105  -0.05350  -0.09801   0.54643
   8   21849.9    457.7   0.005264426   0.07932   0.18452   0.09417  -0.19079
   9   22543.6    443.6   0.064891458   0.94763  -0.58958   0.07130  -0.77133
  10   23325.4    428.7   0.027859340   0.39320  -0.23066   0.56320  -0.15100
  11   24642.5    405.8   0.016043971   0.21434  -0.17834   0.04788  -0.42455
  12   25261.1    395.9   0.262110848   3.41592  -0.58497   0.12802   1.74852
  13   25744.3    388.4   0.056150908   0.71805   0.65035  -0.53403   0.09952
  14   26043.7    384.0   0.180434088   2.28082  -0.85465   0.99528  -0.74821
  15   26405.7    378.7   0.010169408   0.12679   0.23531  -0.11166  -0.24279
  16   26558.0    376.5   0.379291133   4.70168  -1.43686   1.52828  -0.54906
  17   26719.1    374.3   0.024025375   0.29602   0.49569   0.04465  -0.21981
  18   27951.1    357.8   0.160627148   1.89189  -1.11492   0.39137  -0.70405
  19   28282.0    353.6   0.292549445   3.40537  -1.14461  -0.26923   1.42224
  20   28408.5    352.0   0.068113329   0.78933   0.30122  -0.79475   0.25879
  21   28924.9    345.7   0.205651890   2.34065  -1.38792  -0.02519   0.64318
  22   29261.4    341.7   0.547216484   6.15658  -0.92837   1.97678  -1.17772
  23   29443.6    339.6   0.136836925   1.52999  -0.15863   0.68030  -1.02079
  24   29808.0    335.5   0.010611521   0.11720  -0.19115   0.05016   0.27954
  25   30104.9    332.2   0.009602593   0.10501   0.14315   0.16178   0.24154
  26   30327.1    329.7   0.319668500   3.47012  -1.20427   0.21075   1.40550
  27   30570.0    327.1   0.133853914   1.44149   0.36779  -0.90168   0.70227
  28   31057.6    322.0   0.005305259   0.05624  -0.17689   0.08475  -0.13327
  29   31305.9    319.4   0.037202326   0.39122  -0.58122   0.21898   0.07383
  30   31833.8    314.1   0.160143990   1.65614  -0.50396  -0.09529   1.18029
  31   32475.5    307.9   0.050510578   0.51204   0.68236   0.20482  -0.06682
  32   32556.8    307.2   0.004293538   0.04342  -0.20267   0.04116  -0.02541
  33   32964.7    303.4   0.093985739   0.93862  -0.18710   0.23844  -0.92019
  34   33327.4    300.1   0.349995513   3.45730   0.50720  -1.14404   1.37522
  35   33435.9    299.1   0.190323638   1.87394   0.94552   0.04467   0.98891
  36   33698.0    296.8   0.168629535   1.64742   1.14687   0.01483  -0.57610
  37   33941.3    294.6   0.413408486   4.00984   1.14277   0.72057  -1.47807
  38   34011.0    294.0   0.040305300   0.39014   0.33137   0.34236  -0.40388
  39   34028.9    293.9   0.055959231   0.54138   0.37760   0.13720  -0.61642
  40   34233.9    292.1   0.121011861   1.16372  -0.38433  -0.50407   0.87288
  41   34610.6    288.9   0.000196882   0.00187   0.00524   0.01048  -0.04166
  42   35038.5    285.4   0.127087265   1.19408   0.99881  -0.38080   0.22682
  43   35298.2    283.3   0.003364711   0.03138   0.16764  -0.05008  -0.02776
  44   35439.2    282.2   0.054029246   0.50190  -0.07474   0.45106  -0.54117
  45   35516.5    281.6   0.004927410   0.04567  -0.18442   0.10376  -0.02995
  46   35855.5    278.9   0.043429821   0.39876   0.37275  -0.25002  -0.44419
  47   36058.1    277.3   0.015893044   0.14510   0.10849  -0.08339   0.35550
  48   36255.0    275.8   0.012262316   0.11135  -0.14420   0.20396  -0.22125
  49   36385.9    274.8   0.029482959   0.26676   0.31733  -0.01664   0.40716
  50   36625.8    273.0   0.000899301   0.00808  -0.06432   0.01977   0.05963
  51   36671.9    272.7   0.156477511   1.40473  -0.31868   0.93908  -0.64908
  52   36876.0    271.2   0.013684364   0.12217   0.06395  -0.06567   0.33729
  53   36974.1    270.5   0.055781292   0.49667  -0.42743   0.22281   0.51412
  54   37402.5    267.4   0.062525026   0.55034  -0.59410   0.28393   0.34172
  55   37778.2    264.7   0.030687037   0.26742   0.41716   0.03954  -0.30304
  56   37863.1    264.1   0.117663193   1.02306  -0.52067   0.01055   0.86709
  57   37944.0    263.5   0.054395627   0.47195  -0.56127   0.34310  -0.19800
  58   38237.2    261.5   0.075362728   0.64885  -0.58805   0.38738   0.39115
  59   38288.4    261.2   0.131486795   1.13055  -0.63216   0.52562   0.67428
  60   38587.3    259.2   0.091716113   0.78249   0.82155   0.15672   0.28805
  61   38678.5    258.5   0.004429720   0.03770   0.15038   0.07399  -0.09805
  62   39123.8    255.6   0.115413188   0.97116  -0.67176   0.25795   0.67332
  63   39274.5    254.6   0.026171589   0.21938   0.39971  -0.14951  -0.19303
  64   39878.3    250.8   0.031724603   0.26190   0.05796   0.03940   0.50694
  65   39967.2    250.2   0.129721989   1.06853  -0.22511   0.22622   0.98320
  66   40126.5    249.2   0.029645499   0.24322  -0.16869   0.15095   0.43816

FINAL SINGLE POINT ENERGY     -9824.617171068510

DIPOLE MOMENT
-------------
                                X             Y             Z
Electronic contribution:   -126.28438      97.46329       5.93885
Nuclear contribution   :    126.10766     -97.36154      -7.98107
                        -----------------------------------------
Total Dipole Moment    :     -0.17671       0.10175      -2.04222
                        -----------------------------------------
Magnitude (a.u.)       :      2.05238
Magnitude (Debye)      :      5.21673

Rotational constants in cm-1:     0.000777     0.000620     0.000375
Rotational constants in MHz :    23.294084    18.579244    11.255118

                             ****ORCA TERMINATED NORMALLY****
TOTAL RUN TIME: 0 days 0 hours 10 minutes 35 seconds 546 msec
