                         Program Version 4.2.0 -  RELEASE  -
|  1> # ORCA input file
|  2> # SCF done       -162.125014414983          0.000794858749
|  3> ! CAM-B3LYP def2-SVP def2/J RIJCOSX Grid4 TightSCF
|  4> %maxcore 5000
|  5> %tddft
|  6>     Mode sTDDFT
|  7>     Ethresh 5.0
|  8>     maxcore 5000
|  9> end
| 10>
| 11> %pal
| 12>   nprocs 6
| 13>   end
| 14> * xyz 0 1
| 15>    C       -3.61425       -14.93858        -5.39821
| 16>    C       -4.33743       -15.69535        -4.51913
| 17>    F       -4.51632       -17.00333        -4.74573
| 18>    C       -4.90342       -15.11258        -3.36788
| 19>    F       -5.60897       -15.87784        -2.52423
| 20>    C       -4.73869       -13.77980        -3.11161
| 21>    C       -4.00091       -12.97349        -3.99921
| 22>    C       -3.42649       -13.56183        -5.16310
| 23>    C       -2.67964       -12.77241        -6.06752
| 24>    C       -2.51346       -11.43601        -5.81537
| 25>    C       -3.09507       -10.85638        -4.65288
| 26>    C       -3.82109       -11.59204        -3.76201
| 27>    C       -2.78358        -9.41731        -4.61664
| 28>    O       -3.19071        -8.59954        -3.81313
| 29>    C       -1.97181        -9.15423        -5.82034
| 30>    C       -1.80050       -10.39512        -6.54731
| 31>    C       -1.04084       -10.58498        -7.67412
| 32>    C       -0.89698       -11.82448        -8.33046
| 33>    N       -0.74867       -12.80219        -8.91349
| 34>    C       -0.29083        -9.57624        -8.31104
| 35>    N        0.34624        -8.79376        -8.86036
| 36>    C       -1.62556        -7.90886        -6.27222
| 37>    N       -1.60418        -6.76470        -5.55633
| 38>    C       -1.39210        -6.58414        -4.21666
| 39>    S       -0.58633        -7.76064        -3.23846
| 40>    C       -0.52897        -6.62054        -1.93865
| 41>    N        0.04352        -7.04091        -0.73260
| 42>    O        0.08492        -6.24312         0.18535
| 43>    O        0.46586        -8.18431        -0.69794
| 44>    C       -1.08421        -5.40669        -2.24865
| 45>    C       -1.59638        -5.36909        -3.55704
| 46>    C       -2.24396        -4.20516        -4.11786
| 47>    C       -3.20955        -4.22219        -5.05172
| 48>    C       -3.86811        -3.05420        -5.59056
| 49>    C       -3.32126        -1.86578        -5.87369
| 50>    C       -1.86485        -1.54125        -5.77865
| 51>    C       -4.17662        -0.72902        -6.38900
| 52>    N       -5.53265        -0.78590        -5.91153
| 53>    C       -6.65804        -0.85643        -6.65475
| 54>    C       -6.76258        -0.83318        -8.01003
| 55>    C       -8.00773        -0.87820        -8.66544
| 56>    C       -8.17718        -0.84161       -10.02264
| 57>    C       -9.40215        -0.86517       -10.73398
| 58>    C       -9.26948        -0.80554       -12.08581
| 59>    C       -7.92702        -0.73355       -12.53150
| 60>    S       -6.83604        -0.74396       -11.16627
| 61>    C       -7.47681        -0.66366       -13.83262
| 62>    C       -8.25126        -0.64153       -15.01713
| 63>    C       -7.52268        -0.56937       -16.16193
| 64>    C       -6.11865        -0.53101       -15.95077
| 65>    S       -5.76839        -0.58771       -14.23389
| 66>    C       -5.12033        -0.46204       -16.88154
| 67>    C       -5.33707        -0.41462       -18.27936
| 68>    N       -6.46508        -0.42280       -18.94234
| 69>    C       -6.11621        -0.36126       -20.26402
| 70>    C       -4.74375        -0.31748       -20.34479
| 71>    O       -4.24692        -0.35008       -19.10508
| 72>    C       -7.10174        -0.34798       -21.33172
| 73>    O       -6.84679        -0.29453       -22.50887
| 74>    H       -3.18633       -15.40117        -6.27383
| 75>    H       -5.17750       -13.34881        -2.22540
| 76>    H       -2.25978       -13.24602        -6.94014
| 77>    H       -4.24849       -11.12824        -2.88614
| 78>    H       -1.37036        -7.77528        -7.31588
| 79>    H       -1.64790        -5.89604        -6.08155
| 80>    H       -1.13555        -4.59364        -1.54743
| 81>    H       -1.95245        -3.26626        -3.66970
| 82>    H       -3.62163        -5.17008        -5.37592
| 83>    H       -4.92041        -3.19451        -5.80901
| 84>    H       -1.25801        -2.44239        -5.76686
| 85>    H       -1.65411        -0.97271        -4.87277
| 86>    H       -1.56959        -0.92606        -6.62756
| 87>    H       -4.18275        -0.74042        -7.48106
| 88>    H       -3.72268         0.21953        -6.07255
| 89>    H       -5.63053        -0.84507        -4.91061
| 90>    H       -7.56567        -0.92080        -6.06810
| 91>    H       -5.88767        -0.77107        -8.64008
| 92>    H       -8.90133        -0.93709        -8.05719
| 93>    H      -10.34448        -0.92336       -10.21757
| 94>    H      -10.09369        -0.81126       -12.77583
| 95>    H       -9.32569        -0.67878       -14.98785
| 96>    H       -7.91502        -0.54141       -17.16139
| 97>    H       -4.08858        -0.44163       -16.56649
| 98>    H       -4.07071        -0.26567       -21.17552
| 99>    H       -8.14029        -0.39737       -20.95745
|100> *
|101>
|102>                          ****END OF INPUT****

CARTESIAN COORDINATES (ANGSTROEM)
---------------------------------
  C     -3.614250  -14.938580   -5.398210
  C     -4.337430  -15.695350   -4.519130
  F     -4.516320  -17.003330   -4.745730
  C     -4.903420  -15.112580   -3.367880
  F     -5.608970  -15.877840   -2.524230
  C     -4.738690  -13.779800   -3.111610
  C     -4.000910  -12.973490   -3.999210
  C     -3.426490  -13.561830   -5.163100
  C     -2.679640  -12.772410   -6.067520
  C     -2.513460  -11.436010   -5.815370
  C     -3.095070  -10.856380   -4.652880
  C     -3.821090  -11.592040   -3.762010
  C     -2.783580   -9.417310   -4.616640
  O     -3.190710   -8.599540   -3.813130
  C     -1.971810   -9.154230   -5.820340
  C     -1.800500  -10.395120   -6.547310
  C     -1.040840  -10.584980   -7.674120
  C     -0.896980  -11.824480   -8.330460
  N     -0.748670  -12.802190   -8.913490
  C     -0.290830   -9.576240   -8.311040
  N      0.346240   -8.793760   -8.860360
  C     -1.625560   -7.908860   -6.272220
  N     -1.604180   -6.764700   -5.556330
  C     -1.392100   -6.584140   -4.216660
  S     -0.586330   -7.760640   -3.238460
  C     -0.528970   -6.620540   -1.938650
  N      0.043520   -7.040910   -0.732600
  O      0.084920   -6.243120    0.185350
  O      0.465860   -8.184310   -0.697940
  C     -1.084210   -5.406690   -2.248650
  C     -1.596380   -5.369090   -3.557040
  C     -2.243960   -4.205160   -4.117860
  C     -3.209550   -4.222190   -5.051720
  C     -3.868110   -3.054200   -5.590560
  C     -3.321260   -1.865780   -5.873690
  C     -1.864850   -1.541250   -5.778650
  C     -4.176620   -0.729020   -6.389000
  N     -5.532650   -0.785900   -5.911530
  C     -6.658040   -0.856430   -6.654750
  C     -6.762580   -0.833180   -8.010030
  C     -8.007730   -0.878200   -8.665440
  C     -8.177180   -0.841610  -10.022640
  C     -9.402150   -0.865170  -10.733980
  C     -9.269480   -0.805540  -12.085810
  C     -7.927020   -0.733550  -12.531500
  S     -6.836040   -0.743960  -11.166270
  C     -7.476810   -0.663660  -13.832620
  C     -8.251260   -0.641530  -15.017130
  C     -7.522680   -0.569370  -16.161930
  C     -6.118650   -0.531010  -15.950770
  S     -5.768390   -0.587710  -14.233890
  C     -5.120330   -0.462040  -16.881540
  C     -5.337070   -0.414620  -18.279360
  N     -6.465080   -0.422800  -18.942340
  C     -6.116210   -0.361260  -20.264020
  C     -4.743750   -0.317480  -20.344790
  O     -4.246920   -0.350080  -19.105080
  C     -7.101740   -0.347980  -21.331720
  O     -6.846790   -0.294530  -22.508870
  H     -3.186330  -15.401170   -6.273830
  H     -5.177500  -13.348810   -2.225400
  H     -2.259780  -13.246020   -6.940140
  H     -4.248490  -11.128240   -2.886140
  H     -1.370360   -7.775280   -7.315880
  H     -1.647900   -5.896040   -6.081550
  H     -1.135550   -4.593640   -1.547430
  H     -1.952450   -3.266260   -3.669700
  H     -3.621630   -5.170080   -5.375920
  H     -4.920410   -3.194510   -5.809010
  H     -1.258010   -2.442390   -5.766860
  H     -1.654110   -0.972710   -4.872770
  H     -1.569590   -0.926060   -6.627560
  H     -4.182750   -0.740420   -7.481060
  H     -3.722680    0.219530   -6.072550
  H     -5.630530   -0.845070   -4.910610
  H     -7.565670   -0.920800   -6.068100
  H     -5.887670   -0.771070   -8.640080
  H     -8.901330   -0.937090   -8.057190
  H    -10.344480   -0.923360  -10.217570
  H    -10.093690   -0.811260  -12.775830
  H     -9.325690   -0.678780  -14.987850
  H     -7.915020   -0.541410  -17.161390
  H     -4.088580   -0.441630  -16.566490
  H     -4.070710   -0.265670  -21.175520
  H     -8.140290   -0.397370  -20.957450

 Total Charge           Charge          ....    0
 Multiplicity           Mult            ....    1
 Number of Electrons    NEL             ....  432
 Basis Dimension        Dim             ....  968

ORBITAL ENERGIES
----------------

  NO   OCC          E(Eh)            E(eV)
   0   2.0000     -88.992309     -2421.6038
   1   2.0000     -88.938419     -2420.1374
   2   2.0000     -88.932419     -2419.9741
   3   2.0000     -24.801929      -674.8948
   4   2.0000     -24.800821      -674.8646
   5   2.0000     -19.293010      -524.9895
   6   2.0000     -19.243235      -523.6350
   7   2.0000     -19.243171      -523.6333
   8   2.0000     -19.225915      -523.1637
   9   2.0000     -19.196368      -522.3597
  10   2.0000     -14.654910      -398.7804
  11   2.0000     -14.514881      -394.9700
  12   2.0000     -14.456823      -393.3902
  13   2.0000     -14.425824      -392.5466
  14   2.0000     -14.421078      -392.4175
  15   2.0000     -14.392222      -391.6323
  16   2.0000     -10.385678      -282.6087
  17   2.0000     -10.384725      -282.5827
  18   2.0000     -10.378126      -282.4032
  19   2.0000     -10.377932      -282.3979
  20   2.0000     -10.377042      -282.3737
  21   2.0000     -10.352341      -281.7015
  22   2.0000     -10.351716      -281.6845
  23   2.0000     -10.350205      -281.6434
  24   2.0000     -10.349255      -281.6175
  25   2.0000     -10.341503      -281.4066
  26   2.0000     -10.334187      -281.2075
  27   2.0000     -10.332502      -281.1617
  28   2.0000     -10.328729      -281.0590
  29   2.0000     -10.328266      -281.0464
  30   2.0000     -10.324063      -280.9320
  31   2.0000     -10.315317      -280.6940
  32   2.0000     -10.314957      -280.6843
  33   2.0000     -10.314908      -280.6829
  34   2.0000     -10.313262      -280.6381
  35   2.0000     -10.311622      -280.5935
  36   2.0000     -10.309111      -280.5252
  37   2.0000     -10.308490      -280.5083
  38   2.0000     -10.308454      -280.5073
  39   2.0000     -10.307920      -280.4928
  40   2.0000     -10.307036      -280.4687
  41   2.0000     -10.305325      -280.4222
  42   2.0000     -10.305323      -280.4221
  43   2.0000     -10.304627      -280.4031
  44   2.0000     -10.303163      -280.3633
  45   2.0000     -10.302734      -280.3516
  46   2.0000     -10.299601      -280.2664
  47   2.0000     -10.293740      -280.1069
  48   2.0000     -10.293687      -280.1055
  49   2.0000     -10.288628      -279.9678
  50   2.0000     -10.288485      -279.9639
  51   2.0000     -10.286851      -279.9194
  52   2.0000     -10.286598      -279.9126
  53   2.0000     -10.282842      -279.8104
  54   2.0000     -10.278249      -279.6854
  55   2.0000     -10.277103      -279.6542
  56   2.0000     -10.267130      -279.3828
  57   2.0000     -10.263911      -279.2952
  58   2.0000     -10.259634      -279.1788
  59   2.0000      -8.087261      -220.0656
  60   2.0000      -8.034542      -218.6310
  61   2.0000      -8.028988      -218.4799
  62   2.0000      -6.056844      -164.8151
  63   2.0000      -6.052400      -164.6942
  64   2.0000      -6.048939      -164.6000
  65   2.0000      -6.004246      -163.3838
  66   2.0000      -6.000404      -163.2793
  67   2.0000      -5.998794      -163.2355
  68   2.0000      -5.995420      -163.1437
  69   2.0000      -5.994812      -163.1271
  70   2.0000      -5.989689      -162.9877
  71   2.0000      -1.324328       -36.0368
  72   2.0000      -1.324264       -36.0350
  73   2.0000      -1.309429       -35.6314
  74   2.0000      -1.220317       -33.2065
  75   2.0000      -1.143629       -31.1197
  76   2.0000      -1.143151       -31.1067
  77   2.0000      -1.111689       -30.2506
  78   2.0000      -1.109308       -30.1858
  79   2.0000      -1.055127       -28.7115
  80   2.0000      -1.027936       -27.9716
  81   2.0000      -1.015157       -27.6238
  82   2.0000      -1.010824       -27.5059
  83   2.0000      -1.002278       -27.2734
  84   2.0000      -1.001763       -27.2593
  85   2.0000      -0.987292       -26.8656
  86   2.0000      -0.984917       -26.8010
  87   2.0000      -0.962181       -26.1823
  88   2.0000      -0.946358       -25.7517
  89   2.0000      -0.937731       -25.5169
  90   2.0000      -0.922363       -25.0988
  91   2.0000      -0.907573       -24.6963
  92   2.0000      -0.901453       -24.5298
  93   2.0000      -0.897228       -24.4148
  94   2.0000      -0.892227       -24.2787
  95   2.0000      -0.886341       -24.1186
  96   2.0000      -0.871561       -23.7164
  97   2.0000      -0.863339       -23.4926
  98   2.0000      -0.850478       -23.1427
  99   2.0000      -0.845954       -23.0196
 100   2.0000      -0.834026       -22.6950
 101   2.0000      -0.827267       -22.5111
 102   2.0000      -0.822152       -22.3719
 103   2.0000      -0.809693       -22.0329
 104   2.0000      -0.803961       -21.8769
 105   2.0000      -0.799023       -21.7425
 106   2.0000      -0.776295       -21.1241
 107   2.0000      -0.774610       -21.0782
 108   2.0000      -0.770823       -20.9752
 109   2.0000      -0.751028       -20.4365
 110   2.0000      -0.741020       -20.1642
 111   2.0000      -0.729362       -19.8470
 112   2.0000      -0.726689       -19.7742
 113   2.0000      -0.721742       -19.6396
 114   2.0000      -0.708958       -19.2917
 115   2.0000      -0.703754       -19.1501
 116   2.0000      -0.691280       -18.8107
 117   2.0000      -0.688538       -18.7361
 118   2.0000      -0.673674       -18.3316
 119   2.0000      -0.668294       -18.1852
 120   2.0000      -0.663089       -18.0436
 121   2.0000      -0.662056       -18.0155
 122   2.0000      -0.658326       -17.9140
 123   2.0000      -0.648111       -17.6360
 124   2.0000      -0.646732       -17.5985
 125   2.0000      -0.643794       -17.5185
 126   2.0000      -0.638505       -17.3746
 127   2.0000      -0.636225       -17.3126
 128   2.0000      -0.634717       -17.2715
 129   2.0000      -0.622718       -16.9450
 130   2.0000      -0.616769       -16.7831
 131   2.0000      -0.616217       -16.7681
 132   2.0000      -0.608408       -16.5556
 133   2.0000      -0.606246       -16.4968
 134   2.0000      -0.597881       -16.2692
 135   2.0000      -0.594537       -16.1782
 136   2.0000      -0.592931       -16.1345
 137   2.0000      -0.590306       -16.0630
 138   2.0000      -0.588969       -16.0267
 139   2.0000      -0.581260       -15.8169
 140   2.0000      -0.576959       -15.6999
 141   2.0000      -0.571550       -15.5527
 142   2.0000      -0.569652       -15.5010
 143   2.0000      -0.562813       -15.3149
 144   2.0000      -0.561583       -15.2814
 145   2.0000      -0.557596       -15.1730
 146   2.0000      -0.555445       -15.1144
 147   2.0000      -0.554411       -15.0863
 148   2.0000      -0.550416       -14.9776
 149   2.0000      -0.550381       -14.9766
 150   2.0000      -0.545287       -14.8380
 151   2.0000      -0.537067       -14.6143
 152   2.0000      -0.536199       -14.5907
 153   2.0000      -0.534777       -14.5520
 154   2.0000      -0.529789       -14.4163
 155   2.0000      -0.525316       -14.2946
 156   2.0000      -0.524986       -14.2856
 157   2.0000      -0.520690       -14.1687
 158   2.0000      -0.518327       -14.1044
 159   2.0000      -0.514948       -14.0124
 160   2.0000      -0.510166       -13.8823
 161   2.0000      -0.506433       -13.7808
 162   2.0000      -0.505286       -13.7495
 163   2.0000      -0.504562       -13.7298
 164   2.0000      -0.496785       -13.5182
 165   2.0000      -0.495638       -13.4870
 166   2.0000      -0.492228       -13.3942
 167   2.0000      -0.487960       -13.2781
 168   2.0000      -0.483225       -13.1492
 169   2.0000      -0.479989       -13.0612
 170   2.0000      -0.476319       -12.9613
 171   2.0000      -0.471684       -12.8352
 172   2.0000      -0.469950       -12.7880
 173   2.0000      -0.468740       -12.7551
 174   2.0000      -0.466977       -12.7071
 175   2.0000      -0.466370       -12.6906
 176   2.0000      -0.464494       -12.6395
 177   2.0000      -0.462107       -12.5746
 178   2.0000      -0.458612       -12.4795
 179   2.0000      -0.457951       -12.4615
 180   2.0000      -0.453188       -12.3319
 181   2.0000      -0.452158       -12.3038
 182   2.0000      -0.450312       -12.2536
 183   2.0000      -0.449849       -12.2410
 184   2.0000      -0.447672       -12.1818
 185   2.0000      -0.438853       -11.9418
 186   2.0000      -0.434771       -11.8307
 187   2.0000      -0.432729       -11.7752
 188   2.0000      -0.432228       -11.7615
 189   2.0000      -0.423382       -11.5208
 190   2.0000      -0.417838       -11.3700
 191   2.0000      -0.415871       -11.3164
 192   2.0000      -0.413960       -11.2644
 193   2.0000      -0.401220       -10.9178
 194   2.0000      -0.400020       -10.8851
 195   2.0000      -0.392034       -10.6678
 196   2.0000      -0.390336       -10.6216
 197   2.0000      -0.388343       -10.5674
 198   2.0000      -0.383223       -10.4280
 199   2.0000      -0.382471       -10.4076
 200   2.0000      -0.371637       -10.1128
 201   2.0000      -0.362846        -9.8736
 202   2.0000      -0.359461        -9.7814
 203   2.0000      -0.355932        -9.6854
 204   2.0000      -0.351902        -9.5757
 205   2.0000      -0.336358        -9.1528
 206   2.0000      -0.329735        -8.9725
 207   2.0000      -0.323763        -8.8100
 208   2.0000      -0.319893        -8.7047
 209   2.0000      -0.318009        -8.6535
 210   2.0000      -0.316398        -8.6096
 211   2.0000      -0.308396        -8.3919
 212   2.0000      -0.304676        -8.2907
 213   2.0000      -0.281410        -7.6575
 214   2.0000      -0.265390        -7.2216
 215   2.0000      -0.202325        -5.5055
 216   0.0000      -0.096281        -2.6199
 217   0.0000      -0.068757        -1.8710
 218   0.0000      -0.062493        -1.7005
 219   0.0000      -0.053848        -1.4653
 220   0.0000      -0.034694        -0.9441

MULLIKEN ATOMIC CHARGES
-----------------------
   0 C :   -0.107176
   1 C :    0.241532
   2 F :   -0.170111
   3 C :    0.239687
   4 F :   -0.170617
   5 C :   -0.104796
   6 C :    0.117113
   7 C :    0.114713
   8 C :   -0.085232
   9 C :    0.049057
  10 C :    0.006788
  11 C :   -0.081083
  12 C :    0.144606
  13 O :   -0.156128
  14 C :   -0.162302
  15 C :    0.309626
  16 C :   -0.337235
  17 C :   -0.179277
  18 N :    0.148261
  19 C :   -0.216032
  20 N :    0.153403
  21 C :    0.033121
  22 N :   -0.001044
  23 C :   -0.071117
  24 S :    0.207880
  25 C :   -0.005875
  26 N :    0.276024
  27 O :   -0.247035
  28 O :   -0.261025
  29 C :    0.006585
  30 C :    0.104939
  31 C :   -0.030935
  32 C :   -0.027118
  33 C :    0.000635
  34 C :   -0.239825
  35 C :    0.084900
  36 C :    0.231625
  37 N :   -0.154462
  38 C :    0.068253
  39 C :   -0.064396
  40 C :   -0.000347
  41 C :   -0.046764
  42 C :    0.050083
  43 C :    0.010804
  44 C :   -0.030276
  45 S :    0.052912
  46 C :   -0.063942
  47 C :    0.032556
  48 C :    0.028275
  49 C :   -0.046254
  50 S :    0.074996
  51 C :   -0.007717
  52 C :    0.095628
  53 N :   -0.111637
  54 C :   -0.046871
  55 C :    0.120296
  56 O :   -0.180096
  57 C :    0.163824
  58 O :   -0.186078
  59 H :    0.008352
  60 H :    0.000303
  61 H :   -0.004288
  62 H :   -0.009689
  63 H :    0.051935
  64 H :    0.157705
  65 H :    0.007912
  66 H :   -0.001158
  67 H :    0.011993
  68 H :   -0.005781
  69 H :    0.023614
  70 H :    0.035945
  71 H :    0.025464
  72 H :    0.051547
  73 H :    0.019555
  74 H :    0.126496
  75 H :    0.006468
  76 H :   -0.005167
  77 H :   -0.020590
  78 H :   -0.018002
  79 H :   -0.016541
  80 H :   -0.015003
  81 H :   -0.000371
  82 H :   -0.014684
  83 H :    0.027798
  84 H :   -0.019136
Sum of atomic charges:    0.0000000

LOEWDIN ATOMIC CHARGES
----------------------
   0 C :   -0.028140
   1 C :    0.067358
   2 F :   -0.048065
   3 C :    0.069072
   4 F :   -0.048344
   5 C :   -0.032622
   6 C :   -0.008021
   7 C :   -0.007218
   8 C :    0.020677
   9 C :   -0.024556
  10 C :   -0.051159
  11 C :    0.030586
  12 C :    0.065990
  13 O :   -0.161437
  14 C :   -0.150168
  15 C :    0.080621
  16 C :   -0.146440
  17 C :   -0.018764
  18 N :   -0.051523
  19 C :   -0.024484
  20 N :   -0.055654
  21 C :    0.100719
  22 N :    0.079050
  23 C :   -0.102770
  24 S :    0.507831
  25 C :   -0.201754
  26 N :    0.274284
  27 O :   -0.213507
  28 O :   -0.227033
  29 C :   -0.005425
  30 C :   -0.087317
  31 C :   -0.023121
  32 C :   -0.035008
  33 C :   -0.061360
  34 C :   -0.029297
  35 C :   -0.050259
  36 C :    0.047515
  37 N :    0.007054
  38 C :    0.048647
  39 C :   -0.133752
  40 C :   -0.024510
  41 C :   -0.180218
  42 C :   -0.020553
  43 C :   -0.053228
  44 C :   -0.157200
  45 S :    0.354761
  46 C :   -0.202833
  47 C :   -0.015074
  48 C :   -0.050084
  49 C :   -0.109844
  50 S :    0.359939
  51 C :   -0.123470
  52 C :    0.056516
  53 N :   -0.120978
  54 C :   -0.110980
  55 C :    0.061295
  56 O :    0.016232
  57 C :    0.101072
  58 O :   -0.142398
  59 H :    0.048147
  60 H :    0.045180
  61 H :    0.040646
  62 H :    0.040697
  63 H :    0.046308
  64 H :    0.104272
  65 H :    0.045234
  66 H :    0.033367
  67 H :    0.029434
  68 H :    0.029811
  69 H :    0.031419
  70 H :    0.038513
  71 H :    0.034840
  72 H :    0.045480
  73 H :    0.028957
  74 H :    0.080783
  75 H :    0.030639
  76 H :    0.016869
  77 H :    0.030707
  78 H :    0.031761
  79 H :    0.030000
  80 H :    0.031438
  81 H :    0.031709
  82 H :    0.033494
  83 H :    0.031740
  84 H :   -0.002091

  Mayer bond orders larger than 0.100000
B(  0-C ,  1-C ) :   1.4395 B(  0-C ,  5-C ) :   0.1081 B(  0-C ,  7-C ) :   1.1893
B(  0-C , 59-H ) :   1.0070 B(  1-C ,  2-F ) :   1.1353 B(  1-C ,  3-C ) :   1.1939
B(  3-C ,  4-F ) :   1.1340 B(  3-C ,  5-C ) :   1.4410 B(  5-C ,  6-C ) :   1.1937
B(  5-C , 60-H ) :   1.0071 B(  6-C ,  7-C ) :   1.2560 B(  6-C , 11-C ) :   1.1856
B(  7-C ,  8-C ) :   1.2140 B(  8-C ,  9-C ) :   1.4524 B(  8-C , 61-H ) :   0.9899
B(  9-C , 10-C ) :   1.2193 B(  9-C , 15-C ) :   0.9966 B( 10-C , 11-C ) :   1.4760
B( 10-C , 12-C ) :   0.9433 B( 11-C , 62-H ) :   1.0174 B( 12-C , 13-O ) :   2.2106
B( 12-C , 14-C ) :   0.9525 B( 14-C , 15-C ) :   1.1047 B( 14-C , 21-C ) :   1.5080
B( 15-C , 16-C ) :   1.6338 B( 16-C , 17-C ) :   1.1471 B( 16-C , 19-C ) :   1.1398
B( 17-C , 18-N ) :   2.9615 B( 19-C , 20-N ) :   2.9870 B( 21-C , 22-N ) :   1.3015
B( 21-C , 63-H ) :   0.9375 B( 22-N , 23-C ) :   1.1284 B( 22-N , 64-H ) :   0.8961
B( 23-C , 24-S ) :   1.1505 B( 23-C , 30-C ) :   1.4223 B( 24-S , 25-C ) :   1.1186
B( 25-C , 26-N ) :   0.9645 B( 25-C , 29-C ) :   1.4800 B( 26-N , 27-O ) :   1.5377
B( 26-N , 28-O ) :   1.5161 B( 27-O , 28-O ) :   0.2618 B( 29-C , 30-C ) :   1.2320
B( 29-C , 65-H ) :   1.0063 B( 30-C , 31-C ) :   1.0688 B( 31-C , 32-C ) :   1.7417
B( 31-C , 66-H ) :   0.9684 B( 32-C , 33-C ) :   1.0790 B( 32-C , 67-H ) :   0.9597
B( 33-C , 34-C ) :   1.8579 B( 33-C , 68-H ) :   0.9451 B( 34-C , 35-C ) :   1.0829
B( 34-C , 36-C ) :   1.0058 B( 35-C , 69-H ) :   0.9493 B( 35-C , 70-H ) :   0.9423
B( 35-C , 71-H ) :   0.9507 B( 36-C , 37-N ) :   1.0016 B( 36-C , 72-H ) :   0.9205
B( 36-C , 73-H ) :   0.9397 B( 37-N , 38-C ) :   1.2250 B( 37-N , 74-H ) :   0.9384
B( 38-C , 39-C ) :   1.6131 B( 38-C , 75-H ) :   0.9649 B( 39-C , 40-C ) :   1.1702
B( 39-C , 76-H ) :   0.9605 B( 40-C , 41-C ) :   1.5878 B( 40-C , 77-H ) :   0.9805
B( 41-C , 42-C ) :   1.1430 B( 41-C , 45-S ) :   1.0040 B( 42-C , 43-C ) :   1.5933
B( 42-C , 78-H ) :   0.9980 B( 43-C , 44-C ) :   1.1844 B( 43-C , 79-H ) :   0.9936
B( 44-C , 45-S ) :   1.0589 B( 44-C , 46-C ) :   1.5111 B( 46-C , 47-C ) :   1.1903
B( 46-C , 50-S ) :   1.0242 B( 47-C , 48-C ) :   1.5744 B( 47-C , 80-H ) :   0.9937
B( 48-C , 49-C ) :   1.1778 B( 48-C , 81-H ) :   0.9754 B( 49-C , 50-S ) :   1.0544
B( 49-C , 51-C ) :   1.5501 B( 51-C , 52-C ) :   1.1672 B( 51-C , 82-H ) :   0.9460
B( 52-C , 53-N ) :   1.6658 B( 52-C , 56-O ) :   1.1388 B( 53-N , 54-C ) :   1.2985
B( 54-C , 55-C ) :   1.5131 B( 54-C , 57-C ) :   0.9765 B( 55-C , 56-O ) :   1.1669
B( 55-C , 83-H ) :   0.9908 B( 57-C , 58-O ) :   2.1960 B( 57-C , 84-H ) :   0.9504

-----------------------------------------------------------------------------
         ABSORPTION SPECTRUM VIA TRANSITION ELECTRIC DIPOLE MOMENTS
-----------------------------------------------------------------------------
State   Energy  Wavelength   fosc         T2         TX        TY        TZ
        (cm-1)    (nm)                  (au**2)     (au)      (au)      (au)
-----------------------------------------------------------------------------
   0   14479.5    690.6   0.010557206   0.24003  -0.07465   0.30472  -0.37631
   1   17192.1    581.7   1.614475966  30.91566  -0.60215  -0.50626   5.50425
   2   20854.5    479.5   0.003303218   0.05215  -0.05321   0.19121   0.11293
   3   22855.2    437.5   0.678953212   9.77982   0.19091   2.57759   1.76051
   4   24338.5    410.9   0.003317095   0.04487   0.14853  -0.14509   0.04190
   5   25267.5    395.8   0.008717652   0.11358  -0.29389   0.12903  -0.10279
   6   27127.9    368.6   0.015566073   0.18890  -0.43124   0.02403  -0.04852
   7   27631.8    361.9   0.029703738   0.35390   0.46620   0.36061  -0.08071
   8   28215.3    354.4   0.022235311   0.25944  -0.08984  -0.30577   0.39733
   9   28752.8    347.8   0.073982865   0.84708   0.35059   0.84995  -0.04195
  10   28930.1    345.7   0.072142341   0.82095  -0.62273  -0.57179   0.32590
  11   29467.2    339.4   0.024364254   0.27220  -0.51604   0.00143  -0.07681
  12   30537.9    327.5   0.059943041   0.64621  -0.54362  -0.45585   0.37800
  13   30933.1    323.3   0.239732458   2.55140  -1.49346   0.21485  -0.52423
  14   31652.0    315.9   0.252498857   2.62624   0.24619   1.35360  -0.85638
  15   31921.7    313.3   0.158328011   1.63285   1.01619   0.14548   0.76096
  16   32640.5    306.4   0.103421440   1.04311  -0.59214  -0.19710   0.80847
  17   32691.8    305.9   0.013856900   0.13954   0.08290   0.13016  -0.34019
  18   32764.9    305.2   0.000399896   0.00402  -0.02455   0.00153  -0.05842
  19   34301.6    291.5   0.611424468   5.86818  -1.09476  -1.33511   1.69916
  20   34516.5    289.7   0.071605530   0.68296   0.75893  -0.28362   0.16295
  21   34642.5    288.7   0.095754472   0.90997   0.52700   0.37525  -0.70102
  22   34684.7    288.3   0.000014597   0.00014  -0.00897  -0.00087   0.00757
  23   35240.5    283.8   0.005403650   0.05048  -0.05720   0.02700  -0.21559
  24   36024.0    277.6   0.323073283   2.95247   0.88743  -1.42917   0.34987
  25   36851.4    271.4   0.080125120   0.71580   0.42533   0.18861   0.70662
  26   37008.3    270.2   0.032148946   0.28598   0.29278  -0.17868  -0.41029
  27   37549.5    266.3   0.009282634   0.08138  -0.00301  -0.28153  -0.04601
  28   37849.1    264.2   0.006706628   0.05833   0.00168  -0.17520   0.16625
  29   37971.1    263.4   0.018046154   0.15646  -0.12558   0.23023  -0.29612
  30   38758.7    258.0   0.117323921   0.99654   0.45827  -0.35354  -0.81334
  31   38982.1    256.5   0.006890037   0.05819  -0.05111   0.00473  -0.23570
  32   39260.9    254.7   0.129660452   1.08723  -0.48578  -0.08021   0.91914
  33   39608.3    252.5   0.189224605   1.57278  -0.14322  -1.13327   0.51765
  34   39850.0    250.9   0.111958587   0.92492   0.07389   0.48157  -0.82919
  35   40300.2    248.1   0.001195121   0.00976   0.05393  -0.08178   0.01292

FINAL SINGLE POINT ENERGY     -3749.369490606577

DIPOLE MOMENT
-------------
                                X             Y             Z
Electronic contribution:     14.69184     -71.02489      14.22290
Nuclear contribution   :    -16.17776      72.71526     -10.21558
                        -----------------------------------------
Total Dipole Moment    :     -1.48592       1.69037       4.00732
                        -----------------------------------------
Magnitude (a.u.)       :      4.59608
Magnitude (Debye)      :     11.68230

Rotational constants in cm-1:     0.001303     0.000344     0.000306
Rotational constants in MHz :    39.062369    10.311414     9.167400

                             ****ORCA TERMINATED NORMALLY****
TOTAL RUN TIME: 0 days 0 hours 6 minutes 27 seconds 871 msec
