                         Program Version 4.2.0 -  RELEASE  -
|  1> # ORCA input file
|  2> # SCF done       -216.196456170754          0.000529816167
|  3> ! CAM-B3LYP def2-SVP def2/J RIJCOSX Grid4 TightSCF
|  4> %maxcore 5000
|  5> %tddft
|  6>     Mode sTDDFT
|  7>     Ethresh 5.0
|  8>     maxcore 5000
|  9> end
| 10>
| 11> %pal
| 12>   nprocs 6
| 13>   end
| 14> * xyz 0 1
| 15>    C        7.40394         1.45902         2.34301
| 16>    C        8.23183         0.23921         1.95537
| 17>    C        7.91770        -0.55473         0.86160
| 18>    C        8.73279        -1.62442         0.52981
| 19>    C        9.86604        -1.89595         1.27538
| 20>    C       10.19077        -1.09101         2.35513
| 21>    C        9.37797        -0.02597         2.69520
| 22>    C        7.06584         1.45132         3.82497
| 23>    C        7.08576         2.62401         4.56513
| 24>    C        6.71612         2.60609         5.89899
| 25>    C        6.31045         1.42423         6.49456
| 26>    C        6.28862         0.25216         5.75718
| 27>    C        6.66702         0.26171         4.42603
| 28>    C        6.12767         1.59649         1.54115
| 29>    C        6.22348         2.71351         0.75496
| 30>    C        7.50483         3.32116         1.03629
| 31>    C        8.04463         4.45442         0.49976
| 32>    C        7.39699         5.21396        -0.49324
| 33>    N        6.91206         5.86550        -1.30245
| 34>    C        9.30231         4.92319         0.93337
| 35>    N       10.32055         5.30794         1.29315
| 36>    O        8.15704         2.61787         1.98344
| 37>    C        5.21973         3.25979        -0.05814
| 38>    N        4.34735         3.68298        -0.67046
| 39>    N        5.11266         0.72472         1.71820
| 40>    C        4.09305         0.45287         0.83511
| 41>    S        4.37467         0.41247        -0.87406
| 42>    C        2.74748        -0.13003        -1.10175
| 43>    N        2.32136        -0.36750        -2.42133
| 44>    O        1.17227        -0.72317        -2.58466
| 45>    O        3.15080        -0.21065        -3.29642
| 46>    C        2.04552        -0.28341         0.05892
| 47>    C        2.80862         0.04376         1.20382
| 48>    C        2.35212         0.01594         2.55922
| 49>    C        1.12580        -0.41790         2.95220
| 50>    C        0.67907        -0.40588         4.28606
| 51>    C       -0.55979        -0.84274         4.67918
| 52>    C       -1.09228        -0.84113         5.99410
| 53>    C       -2.35767        -1.33105         6.08662
| 54>    C       -2.89952        -1.75550         4.85017
| 55>    S       -1.74426        -1.50311         3.56223
| 56>    C       -4.14347        -2.30556         4.61648
| 57>    C       -5.16976        -2.55677         5.55809
| 58>    C       -6.28833        -3.12184         5.03137
| 59>    C       -6.20528        -3.35231         3.62952
| 60>    S       -4.65044        -2.80896         3.01785
| 61>    C       -7.12417        -3.91154         2.78652
| 62>    N       -8.33233        -4.35924         3.22013
| 63>    C       -9.30075        -4.93082         2.48409
| 64>    S       -9.14148        -5.15847         0.77181
| 65>    C      -10.73262        -5.87151         0.73678
| 66>    N      -11.21061        -6.30441        -0.50332
| 67>    O      -12.32052        -6.80409        -0.54026
| 68>    O      -10.46797        -6.14600        -1.45823
| 69>    C      -11.34091        -5.92853         1.95817
| 70>    C      -10.54060        -5.39776         2.98906
| 71>    C      -10.86191        -5.31460         4.36656
| 72>    C      -12.01189        -5.68595         4.99036
| 73>    C      -12.19349        -5.52815         6.38259
| 74>    C      -11.38002        -4.93456         7.33043
| 75>    C      -12.06441        -4.99108         8.59802
| 76>    C      -11.62988        -4.52349         9.81094
| 77>    C      -10.37776        -3.90689         9.97414
| 78>    N       -9.36277        -3.39892        10.14478
| 79>    C      -12.43412        -4.63921        10.96181
| 80>    N      -13.08873        -4.72432        11.89960
| 81>    O      -13.25926        -5.57677         8.45583
| 82>    C      -13.44433        -5.99099         7.09266
| 83>    C      -13.63848        -7.50038         7.11911
| 84>    C      -14.75233        -7.99038         7.79104
| 85>    C      -14.96257        -9.35316         7.88370
| 86>    C      -14.06364       -10.23557         7.30680
| 87>    C      -12.94917        -9.74937         6.64731
| 88>    C      -12.72944        -8.38453         6.55807
| 89>    C      -14.65150        -5.28929         6.48446
| 90>    C      -15.03268        -4.03476         6.93783
| 91>    C      -16.10725        -3.38437         6.35696
| 92>    C      -16.79609        -3.97470         5.31202
| 93>    C      -16.41301        -5.22393         4.85379
| 94>    C      -15.34553        -5.88215         5.43730
| 95>    C      -10.12354        -4.35880         7.12702
| 96>    N       -9.09322        -3.91105         6.87578
| 97>    H        7.04822        -0.34734         0.25393
| 98>    H        8.48024        -2.23917        -0.32057
| 99>    H       10.50035        -2.72796         1.01035
|100>    H       11.08083        -1.28937         2.93222
|101>    H        9.62910         0.61121         3.52959
|102>    H        7.40743         3.54539         4.10430
|103>    H        6.74490         3.52033         6.47147
|104>    H        6.01990         1.41352         7.53390
|105>    H        5.98423        -0.67528         6.21857
|106>    H        6.68979        -0.66498         3.86720
|107>    H        5.14453         0.17245         2.56981
|108>    H        1.02114        -0.60630         0.06885
|109>    H        3.03336         0.39088         3.31267
|110>    H        0.43099        -0.79705         2.21592
|111>    H        1.34154        -0.02181         5.05058
|112>    H       -0.51944        -0.47319         6.82685
|113>    H       -2.91425        -1.40163         7.00347
|114>    H       -5.05814        -2.31356         6.59892
|115>    H       -7.15302        -3.36771         5.62316
|116>    H       -6.91539        -4.02347         1.73368
|117>    H       -8.51208        -4.24085         4.21278
|118>    H      -12.32309        -6.34255         2.09280
|119>    H      -10.08859        -4.91004         4.99832
|120>    H      -12.83353        -6.11282         4.43532
|121>    H      -15.44500        -7.29616         8.24228
|122>    H      -15.82909        -9.72631         8.40785
|123>    H      -14.22892       -11.30002         7.37614
|124>    H      -12.24025       -10.43144         6.20243
|125>    H      -11.84936        -8.01956         6.04811
|126>    H      -14.50402        -3.56947         7.75659
|127>    H      -16.40311        -2.41310         6.72334
|128>    H      -17.63174        -3.46468         4.85755
|129>    H      -16.94823        -5.69201         4.04155
|130>    H      -15.06377        -6.86544         5.08896
|131> *
|132>
|133>                          ****END OF INPUT****

CARTESIAN COORDINATES (ANGSTROEM)
---------------------------------
  C      7.403940    1.459020    2.343010
  C      8.231830    0.239210    1.955370
  C      7.917700   -0.554730    0.861600
  C      8.732790   -1.624420    0.529810
  C      9.866040   -1.895950    1.275380
  C     10.190770   -1.091010    2.355130
  C      9.377970   -0.025970    2.695200
  C      7.065840    1.451320    3.824970
  C      7.085760    2.624010    4.565130
  C      6.716120    2.606090    5.898990
  C      6.310450    1.424230    6.494560
  C      6.288620    0.252160    5.757180
  C      6.667020    0.261710    4.426030
  C      6.127670    1.596490    1.541150
  C      6.223480    2.713510    0.754960
  C      7.504830    3.321160    1.036290
  C      8.044630    4.454420    0.499760
  C      7.396990    5.213960   -0.493240
  N      6.912060    5.865500   -1.302450
  C      9.302310    4.923190    0.933370
  N     10.320550    5.307940    1.293150
  O      8.157040    2.617870    1.983440
  C      5.219730    3.259790   -0.058140
  N      4.347350    3.682980   -0.670460
  N      5.112660    0.724720    1.718200
  C      4.093050    0.452870    0.835110
  S      4.374670    0.412470   -0.874060
  C      2.747480   -0.130030   -1.101750
  N      2.321360   -0.367500   -2.421330
  O      1.172270   -0.723170   -2.584660
  O      3.150800   -0.210650   -3.296420
  C      2.045520   -0.283410    0.058920
  C      2.808620    0.043760    1.203820
  C      2.352120    0.015940    2.559220
  C      1.125800   -0.417900    2.952200
  C      0.679070   -0.405880    4.286060
  C     -0.559790   -0.842740    4.679180
  C     -1.092280   -0.841130    5.994100
  C     -2.357670   -1.331050    6.086620
  C     -2.899520   -1.755500    4.850170
  S     -1.744260   -1.503110    3.562230
  C     -4.143470   -2.305560    4.616480
  C     -5.169760   -2.556770    5.558090
  C     -6.288330   -3.121840    5.031370
  C     -6.205280   -3.352310    3.629520
  S     -4.650440   -2.808960    3.017850
  C     -7.124170   -3.911540    2.786520
  N     -8.332330   -4.359240    3.220130
  C     -9.300750   -4.930820    2.484090
  S     -9.141480   -5.158470    0.771810
  C    -10.732620   -5.871510    0.736780
  N    -11.210610   -6.304410   -0.503320
  O    -12.320520   -6.804090   -0.540260
  O    -10.467970   -6.146000   -1.458230
  C    -11.340910   -5.928530    1.958170
  C    -10.540600   -5.397760    2.989060
  C    -10.861910   -5.314600    4.366560
  C    -12.011890   -5.685950    4.990360
  C    -12.193490   -5.528150    6.382590
  C    -11.380020   -4.934560    7.330430
  C    -12.064410   -4.991080    8.598020
  C    -11.629880   -4.523490    9.810940
  C    -10.377760   -3.906890    9.974140
  N     -9.362770   -3.398920   10.144780
  C    -12.434120   -4.639210   10.961810
  N    -13.088730   -4.724320   11.899600
  O    -13.259260   -5.576770    8.455830
  C    -13.444330   -5.990990    7.092660
  C    -13.638480   -7.500380    7.119110
  C    -14.752330   -7.990380    7.791040
  C    -14.962570   -9.353160    7.883700
  C    -14.063640  -10.235570    7.306800
  C    -12.949170   -9.749370    6.647310
  C    -12.729440   -8.384530    6.558070
  C    -14.651500   -5.289290    6.484460
  C    -15.032680   -4.034760    6.937830
  C    -16.107250   -3.384370    6.356960
  C    -16.796090   -3.974700    5.312020
  C    -16.413010   -5.223930    4.853790
  C    -15.345530   -5.882150    5.437300
  C    -10.123540   -4.358800    7.127020
  N     -9.093220   -3.911050    6.875780
  H      7.048220   -0.347340    0.253930
  H      8.480240   -2.239170   -0.320570
  H     10.500350   -2.727960    1.010350
  H     11.080830   -1.289370    2.932220
  H      9.629100    0.611210    3.529590
  H      7.407430    3.545390    4.104300
  H      6.744900    3.520330    6.471470
  H      6.019900    1.413520    7.533900
  H      5.984230   -0.675280    6.218570
  H      6.689790   -0.664980    3.867200
  H      5.144530    0.172450    2.569810
  H      1.021140   -0.606300    0.068850
  H      3.033360    0.390880    3.312670
  H      0.430990   -0.797050    2.215920
  H      1.341540   -0.021810    5.050580
  H     -0.519440   -0.473190    6.826850
  H     -2.914250   -1.401630    7.003470
  H     -5.058140   -2.313560    6.598920
  H     -7.153020   -3.367710    5.623160
  H     -6.915390   -4.023470    1.733680
  H     -8.512080   -4.240850    4.212780
  H    -12.323090   -6.342550    2.092800
  H    -10.088590   -4.910040    4.998320
  H    -12.833530   -6.112820    4.435320
  H    -15.445000   -7.296160    8.242280
  H    -15.829090   -9.726310    8.407850
  H    -14.228920  -11.300020    7.376140
  H    -12.240250  -10.431440    6.202430
  H    -11.849360   -8.019560    6.048110
  H    -14.504020   -3.569470    7.756590
  H    -16.403110   -2.413100    6.723340
  H    -17.631740   -3.464680    4.857550
  H    -16.948230   -5.692010    4.041550
  H    -15.063770   -6.865440    5.088960

 Total Charge           Charge          ....    0
 Multiplicity           Mult            ....    1
 Number of Electrons    NEL             ....  588
 Basis Dimension        Dim             .... 1334

ORBITAL ENERGIES
----------------

  NO   OCC          E(Eh)            E(eV)
   0   2.0000     -89.004183     -2421.9269
   1   2.0000     -88.996142     -2421.7082
   2   2.0000     -88.962370     -2420.7892
   3   2.0000     -88.959008     -2420.6977
   4   2.0000     -19.302607      -525.2506
   5   2.0000     -19.300688      -525.1984
   6   2.0000     -19.250181      -523.8241
   7   2.0000     -19.248837      -523.7875
   8   2.0000     -19.246404      -523.7213
   9   2.0000     -19.245986      -523.7099
  10   2.0000     -14.661446      -398.9582
  11   2.0000     -14.657586      -398.8532
  12   2.0000     -14.513513      -394.9328
  13   2.0000     -14.513257      -394.9258
  14   2.0000     -14.445107      -393.0714
  15   2.0000     -14.417984      -392.3333
  16   2.0000     -14.405123      -391.9833
  17   2.0000     -14.399916      -391.8416
  18   2.0000     -14.397722      -391.7819
  19   2.0000     -14.397267      -391.7696
  20   2.0000     -10.401771      -283.0466
  21   2.0000     -10.399942      -282.9968
  22   2.0000     -10.397941      -282.9423
  23   2.0000     -10.393734      -282.8279
  24   2.0000     -10.391211      -282.7592
  25   2.0000     -10.384475      -282.5759
  26   2.0000     -10.374490      -282.3042
  27   2.0000     -10.359807      -281.9047
  28   2.0000     -10.355911      -281.7987
  29   2.0000     -10.355399      -281.7847
  30   2.0000     -10.349486      -281.6238
  31   2.0000     -10.349480      -281.6237
  32   2.0000     -10.342252      -281.4270
  33   2.0000     -10.339649      -281.3562
  34   2.0000     -10.336347      -281.2663
  35   2.0000     -10.331615      -281.1375
  36   2.0000     -10.331362      -281.1307
  37   2.0000     -10.330372      -281.1037
  38   2.0000     -10.329429      -281.0781
  39   2.0000     -10.327873      -281.0357
  40   2.0000     -10.325274      -280.9650
  41   2.0000     -10.324041      -280.9314
  42   2.0000     -10.321831      -280.8713
  43   2.0000     -10.318963      -280.7933
  44   2.0000     -10.316715      -280.7321
  45   2.0000     -10.316426      -280.7242
  46   2.0000     -10.315210      -280.6911
  47   2.0000     -10.314861      -280.6816
  48   2.0000     -10.309666      -280.5403
  49   2.0000     -10.307047      -280.4690
  50   2.0000     -10.305985      -280.4401
  51   2.0000     -10.304828      -280.4086
  52   2.0000     -10.304608      -280.4026
  53   2.0000     -10.304497      -280.3996
  54   2.0000     -10.303417      -280.3702
  55   2.0000     -10.302510      -280.3455
  56   2.0000     -10.302452      -280.3440
  57   2.0000     -10.302100      -280.3344
  58   2.0000     -10.301216      -280.3103
  59   2.0000     -10.300503      -280.2909
  60   2.0000     -10.299804      -280.2719
  61   2.0000     -10.299673      -280.2684
  62   2.0000     -10.299056      -280.2516
  63   2.0000     -10.298496      -280.2363
  64   2.0000     -10.298448      -280.2350
  65   2.0000     -10.298065      -280.2246
  66   2.0000     -10.297067      -280.1974
  67   2.0000     -10.293153      -280.0909
  68   2.0000     -10.292590      -280.0756
  69   2.0000     -10.292589      -280.0756
  70   2.0000     -10.292220      -280.0655
  71   2.0000     -10.290834      -280.0278
  72   2.0000     -10.290392      -280.0158
  73   2.0000     -10.290390      -280.0157
  74   2.0000     -10.290018      -280.0056
  75   2.0000     -10.288914      -279.9756
  76   2.0000     -10.288134      -279.9543
  77   2.0000     -10.287879      -279.9474
  78   2.0000     -10.287770      -279.9445
  79   2.0000     -10.287194      -279.9288
  80   2.0000     -10.287143      -279.9274
  81   2.0000     -10.286558      -279.9115
  82   2.0000      -8.099641      -220.4024
  83   2.0000      -8.090848      -220.1632
  84   2.0000      -8.058674      -219.2877
  85   2.0000      -8.055418      -219.1991
  86   2.0000      -6.069443      -165.1579
  87   2.0000      -6.064976      -165.0364
  88   2.0000      -6.060801      -164.9228
  89   2.0000      -6.060447      -164.9132
  90   2.0000      -6.056011      -164.7924
  91   2.0000      -6.052517      -164.6974
  92   2.0000      -6.028635      -164.0475
  93   2.0000      -6.025142      -163.9524
  94   2.0000      -6.024503      -163.9351
  95   2.0000      -6.021213      -163.8455
  96   2.0000      -6.019246      -163.7920
  97   2.0000      -6.016231      -163.7100
  98   2.0000      -1.330307       -36.1995
  99   2.0000      -1.328699       -36.1557
 100   2.0000      -1.225418       -33.3453
 101   2.0000      -1.223402       -33.2905
 102   2.0000      -1.149792       -31.2874
 103   2.0000      -1.148258       -31.2457
 104   2.0000      -1.118971       -30.4487
 105   2.0000      -1.117698       -30.4141
 106   2.0000      -1.032886       -28.1063
 107   2.0000      -1.025434       -27.9035
 108   2.0000      -1.020042       -27.7567
 109   2.0000      -1.009934       -27.4817
 110   2.0000      -1.006647       -27.3922
 111   2.0000      -1.001836       -27.2613
 112   2.0000      -0.996246       -27.1092
 113   2.0000      -0.991056       -26.9680
 114   2.0000      -0.988780       -26.9061
 115   2.0000      -0.988363       -26.8947
 116   2.0000      -0.980618       -26.6840
 117   2.0000      -0.976103       -26.5611
 118   2.0000      -0.973169       -26.4813
 119   2.0000      -0.971913       -26.4471
 120   2.0000      -0.966253       -26.2931
 121   2.0000      -0.948816       -25.8186
 122   2.0000      -0.941224       -25.6120
 123   2.0000      -0.938341       -25.5336
 124   2.0000      -0.934475       -25.4283
 125   2.0000      -0.931484       -25.3470
 126   2.0000      -0.911817       -24.8118
 127   2.0000      -0.901339       -24.5267
 128   2.0000      -0.892765       -24.2934
 129   2.0000      -0.889508       -24.2047
 130   2.0000      -0.887684       -24.1551
 131   2.0000      -0.876366       -23.8471
 132   2.0000      -0.869849       -23.6698
 133   2.0000      -0.865362       -23.5477
 134   2.0000      -0.863606       -23.4999
 135   2.0000      -0.860310       -23.4102
 136   2.0000      -0.855829       -23.2883
 137   2.0000      -0.854762       -23.2593
 138   2.0000      -0.853045       -23.2125
 139   2.0000      -0.848926       -23.1005
 140   2.0000      -0.845673       -23.0119
 141   2.0000      -0.839355       -22.8400
 142   2.0000      -0.827809       -22.5258
 143   2.0000      -0.821636       -22.3579
 144   2.0000      -0.813253       -22.1297
 145   2.0000      -0.800932       -21.7945
 146   2.0000      -0.790703       -21.5161
 147   2.0000      -0.773080       -21.0366
 148   2.0000      -0.763850       -20.7854
 149   2.0000      -0.756265       -20.5790
 150   2.0000      -0.749223       -20.3874
 151   2.0000      -0.747322       -20.3357
 152   2.0000      -0.736883       -20.0516
 153   2.0000      -0.726847       -19.7785
 154   2.0000      -0.724468       -19.7138
 155   2.0000      -0.720210       -19.5979
 156   2.0000      -0.716101       -19.4861
 157   2.0000      -0.712164       -19.3790
 158   2.0000      -0.709378       -19.3031
 159   2.0000      -0.707317       -19.2471
 160   2.0000      -0.705960       -19.2102
 161   2.0000      -0.699832       -19.0434
 162   2.0000      -0.696709       -18.9584
 163   2.0000      -0.691470       -18.8159
 164   2.0000      -0.686497       -18.6805
 165   2.0000      -0.680127       -18.5072
 166   2.0000      -0.668608       -18.1937
 167   2.0000      -0.664847       -18.0914
 168   2.0000      -0.663719       -18.0607
 169   2.0000      -0.662276       -18.0215
 170   2.0000      -0.655987       -17.8503
 171   2.0000      -0.647591       -17.6218
 172   2.0000      -0.645285       -17.5591
 173   2.0000      -0.644046       -17.5254
 174   2.0000      -0.642810       -17.4918
 175   2.0000      -0.640145       -17.4192
 176   2.0000      -0.639058       -17.3897
 177   2.0000      -0.638881       -17.3848
 178   2.0000      -0.634928       -17.2773
 179   2.0000      -0.630819       -17.1655
 180   2.0000      -0.624120       -16.9832
 181   2.0000      -0.620340       -16.8803
 182   2.0000      -0.618467       -16.8293
 183   2.0000      -0.613544       -16.6954
 184   2.0000      -0.612265       -16.6606
 185   2.0000      -0.606665       -16.5082
 186   2.0000      -0.595447       -16.2029
 187   2.0000      -0.590666       -16.0728
 188   2.0000      -0.589156       -16.0317
 189   2.0000      -0.587641       -15.9905
 190   2.0000      -0.584553       -15.9065
 191   2.0000      -0.581400       -15.8207
 192   2.0000      -0.581032       -15.8107
 193   2.0000      -0.573928       -15.6174
 194   2.0000      -0.572899       -15.5894
 195   2.0000      -0.567719       -15.4484
 196   2.0000      -0.563703       -15.3391
 197   2.0000      -0.562532       -15.3073
 198   2.0000      -0.562026       -15.2935
 199   2.0000      -0.557511       -15.1706
 200   2.0000      -0.554483       -15.0883
 201   2.0000      -0.551518       -15.0076
 202   2.0000      -0.549758       -14.9597
 203   2.0000      -0.548435       -14.9237
 204   2.0000      -0.545610       -14.8468
 205   2.0000      -0.538557       -14.6549
 206   2.0000      -0.538250       -14.6465
 207   2.0000      -0.534287       -14.5387
 208   2.0000      -0.531747       -14.4696
 209   2.0000      -0.527364       -14.3503
 210   2.0000      -0.525214       -14.2918
 211   2.0000      -0.523839       -14.2544
 212   2.0000      -0.521834       -14.1998
 213   2.0000      -0.521159       -14.1814
 214   2.0000      -0.519784       -14.1441
 215   2.0000      -0.516404       -14.0521
 216   2.0000      -0.514915       -14.0115
 217   2.0000      -0.513478       -13.9725
 218   2.0000      -0.512744       -13.9525
 219   2.0000      -0.511356       -13.9147
 220   2.0000      -0.507010       -13.7964
 221   2.0000      -0.504324       -13.7233
 222   2.0000      -0.496991       -13.5238
 223   2.0000      -0.496138       -13.5006
 224   2.0000      -0.493730       -13.4351
 225   2.0000      -0.490994       -13.3606
 226   2.0000      -0.488620       -13.2960
 227   2.0000      -0.487518       -13.2660
 228   2.0000      -0.485842       -13.2204
 229   2.0000      -0.479028       -13.0350
 230   2.0000      -0.475846       -12.9484
 231   2.0000      -0.474226       -12.9043
 232   2.0000      -0.473026       -12.8717
 233   2.0000      -0.472107       -12.8467
 234   2.0000      -0.468880       -12.7589
 235   2.0000      -0.467497       -12.7212
 236   2.0000      -0.466360       -12.6903
 237   2.0000      -0.464701       -12.6452
 238   2.0000      -0.464278       -12.6336
 239   2.0000      -0.463671       -12.6171
 240   2.0000      -0.456737       -12.4285
 241   2.0000      -0.453027       -12.3275
 242   2.0000      -0.449730       -12.2378
 243   2.0000      -0.449366       -12.2279
 244   2.0000      -0.446177       -12.1411
 245   2.0000      -0.445551       -12.1241
 246   2.0000      -0.444385       -12.0923
 247   2.0000      -0.443529       -12.0690
 248   2.0000      -0.441109       -12.0032
 249   2.0000      -0.440226       -11.9792
 250   2.0000      -0.439980       -11.9725
 251   2.0000      -0.437615       -11.9081
 252   2.0000      -0.434664       -11.8278
 253   2.0000      -0.432005       -11.7554
 254   2.0000      -0.431312       -11.7366
 255   2.0000      -0.431053       -11.7296
 256   2.0000      -0.429762       -11.6944
 257   2.0000      -0.426681       -11.6106
 258   2.0000      -0.426028       -11.5928
 259   2.0000      -0.424954       -11.5636
 260   2.0000      -0.416038       -11.3210
 261   2.0000      -0.415701       -11.3118
 262   2.0000      -0.412037       -11.2121
 263   2.0000      -0.411119       -11.1871
 264   2.0000      -0.408201       -11.1077
 265   2.0000      -0.400740       -10.9047
 266   2.0000      -0.397624       -10.8199
 267   2.0000      -0.397084       -10.8052
 268   2.0000      -0.396059       -10.7773
 269   2.0000      -0.392797       -10.6885
 270   2.0000      -0.391662       -10.6577
 271   2.0000      -0.387756       -10.5514
 272   2.0000      -0.384748       -10.4695
 273   2.0000      -0.378417       -10.2972
 274   2.0000      -0.376123       -10.2348
 275   2.0000      -0.374190       -10.1822
 276   2.0000      -0.360732        -9.8160
 277   2.0000      -0.357180        -9.7194
 278   2.0000      -0.353733        -9.6256
 279   2.0000      -0.349987        -9.5236
 280   2.0000      -0.349220        -9.5027
 281   2.0000      -0.346292        -9.4231
 282   2.0000      -0.346202        -9.4206
 283   2.0000      -0.342309        -9.3147
 284   2.0000      -0.339796        -9.2463
 285   2.0000      -0.338698        -9.2164
 286   2.0000      -0.338129        -9.2010
 287   2.0000      -0.334311        -9.0971
 288   2.0000      -0.330996        -9.0069
 289   2.0000      -0.321352        -8.7444
 290   2.0000      -0.303404        -8.2560
 291   2.0000      -0.292534        -7.9603
 292   2.0000      -0.278110        -7.5678
 293   2.0000      -0.225033        -6.1235
 294   0.0000      -0.106013        -2.8848
 295   0.0000      -0.091219        -2.4822
 296   0.0000      -0.073821        -2.0088
 297   0.0000      -0.059947        -1.6312
 298   0.0000      -0.044692        -1.2161

MULLIKEN ATOMIC CHARGES
-----------------------
   0 C :    0.128814
   1 C :    0.043963
   2 C :    0.004244
   3 C :    0.026726
   4 C :    0.038548
   5 C :    0.023419
   6 C :    0.007204
   7 C :    0.031320
   8 C :   -0.021050
   9 C :    0.033527
  10 C :    0.031656
  11 C :    0.029309
  12 C :   -0.055694
  13 C :   -0.000185
  14 C :   -0.124714
  15 C :    0.327693
  16 C :   -0.406376
  17 C :   -0.204639
  18 N :    0.188614
  19 C :   -0.170116
  20 N :    0.163092
  21 O :   -0.244638
  22 C :   -0.308599
  23 N :    0.258826
  24 N :    0.019953
  25 C :   -0.115626
  26 S :    0.210976
  27 C :    0.002029
  28 N :    0.274817
  29 O :   -0.238716
  30 O :   -0.248675
  31 C :    0.003408
  32 C :    0.154318
  33 C :   -0.056320
  34 C :    0.024747
  35 C :   -0.018817
  36 C :   -0.012857
  37 C :    0.038429
  38 C :    0.031869
  39 C :   -0.044495
  40 S :    0.069529
  41 C :   -0.047573
  42 C :    0.017285
  43 C :    0.023510
  44 C :   -0.050981
  45 S :    0.099553
  46 C :    0.039603
  47 N :   -0.010084
  48 C :   -0.096240
  49 S :    0.169432
  50 C :   -0.007186
  51 N :    0.278490
  52 O :   -0.249651
  53 O :   -0.260564
  54 C :    0.018203
  55 C :    0.122234
  56 C :    0.018461
  57 C :   -0.037686
  58 C :    0.106750
  59 C :   -0.182671
  60 C :    0.364062
  61 C :   -0.427405
  62 C :   -0.201611
  63 N :    0.172020
  64 C :   -0.166258
  65 N :    0.161887
  66 O :   -0.237336
  67 C :    0.127703
  68 C :    0.023664
  69 C :    0.010807
  70 C :    0.022283
  71 C :    0.034555
  72 C :    0.027567
  73 C :   -0.006895
  74 C :    0.048959
  75 C :   -0.032471
  76 C :    0.031433
  77 C :    0.032125
  78 C :    0.023705
  79 C :   -0.010136
  80 C :   -0.190611
  81 N :    0.181976
  82 H :   -0.028266
  83 H :   -0.004830
  84 H :   -0.002568
  85 H :   -0.003187
  86 H :    0.000369
  87 H :    0.008068
  88 H :    0.002355
  89 H :   -0.000865
  90 H :   -0.005384
  91 H :    0.011686
  92 H :    0.152777
  93 H :    0.014668
  94 H :   -0.026626
  95 H :    0.003294
  96 H :   -0.017455
  97 H :   -0.009972
  98 H :   -0.003853
  99 H :    0.001794
 100 H :   -0.019161
 101 H :    0.024717
 102 H :    0.164389
 103 H :    0.015904
 104 H :   -0.056461
 105 H :   -0.016876
 106 H :    0.000878
 107 H :   -0.003872
 108 H :   -0.004074
 109 H :   -0.010175
 110 H :   -0.010004
 111 H :   -0.001416
 112 H :   -0.004823
 113 H :   -0.003971
 114 H :   -0.006927
 115 H :    0.003443
Sum of atomic charges:   -0.0000000

LOEWDIN ATOMIC CHARGES
----------------------
   0 C :    0.070896
   1 C :   -0.038838
   2 C :   -0.028522
   3 C :   -0.014536
   4 C :   -0.009365
   5 C :   -0.011980
   6 C :   -0.001603
   7 C :   -0.034877
   8 C :   -0.009820
   9 C :   -0.005198
  10 C :   -0.013641
  11 C :   -0.015469
  12 C :   -0.042221
  13 C :    0.078811
  14 C :   -0.144297
  15 C :    0.140262
  16 C :   -0.184773
  17 C :   -0.034957
  18 N :   -0.038877
  19 C :   -0.025064
  20 N :   -0.053482
  21 O :   -0.038018
  22 C :   -0.057800
  23 N :   -0.018119
  24 N :    0.053990
  25 C :   -0.130531
  26 S :    0.501699
  27 C :   -0.189866
  28 N :    0.273657
  29 O :   -0.204743
  30 O :   -0.214818
  31 C :   -0.000623
  32 C :   -0.072574
  33 C :   -0.044027
  34 C :   -0.012964
  35 C :   -0.064386
  36 C :   -0.133955
  37 C :   -0.034698
  38 C :   -0.021815
  39 C :   -0.179026
  40 S :    0.370010
  41 C :   -0.173405
  42 C :   -0.013126
  43 C :   -0.044465
  44 C :   -0.170362
  45 S :    0.375688
  46 C :   -0.026018
  47 N :    0.072925
  48 C :   -0.078505
  49 S :    0.461100
  50 C :   -0.205368
  51 N :    0.273371
  52 O :   -0.215898
  53 O :   -0.227004
  54 C :    0.015178
  55 C :   -0.123784
  56 C :    0.044935
  57 C :   -0.063223
  58 C :    0.071409
  59 C :   -0.130385
  60 C :    0.136824
  61 C :   -0.192593
  62 C :   -0.033917
  63 N :   -0.053053
  64 C :   -0.025847
  65 N :   -0.053951
  66 O :   -0.033701
  67 C :    0.078600
  68 C :   -0.034533
  69 C :    0.000216
  70 C :   -0.012999
  71 C :   -0.012125
  72 C :   -0.018372
  73 C :   -0.028494
  74 C :   -0.031002
  75 C :   -0.014151
  76 C :   -0.011960
  77 C :   -0.013455
  78 C :   -0.016374
  79 C :   -0.023736
  80 C :    0.000144
  81 N :   -0.061323
  82 H :    0.019337
  83 H :    0.033875
  84 H :    0.033265
  85 H :    0.033782
  86 H :    0.036153
  87 H :    0.036835
  88 H :    0.036254
  89 H :    0.033589
  90 H :    0.033141
  91 H :    0.030932
  92 H :    0.095986
  93 H :    0.045786
  94 H :    0.023575
  95 H :    0.023024
  96 H :    0.032515
  97 H :    0.034959
  98 H :    0.035714
  99 H :    0.039407
 100 H :    0.028160
 101 H :    0.028118
 102 H :    0.101552
 103 H :    0.047722
 104 H :    0.028829
 105 H :    0.032936
 106 H :    0.036588
 107 H :    0.033429
 108 H :    0.032287
 109 H :    0.031320
 110 H :    0.028193
 111 H :    0.032516
 112 H :    0.033424
 113 H :    0.032321
 114 H :    0.032453
 115 H :    0.030918

  Mayer bond orders larger than 0.100000
B(  0-C ,  1-C ) :   0.9228 B(  0-C ,  7-C ) :   0.9253 B(  0-C , 13-C ) :   0.9667
B(  0-C , 21-O ) :   1.0180 B(  1-C ,  2-C ) :   1.4196 B(  1-C ,  6-C ) :   1.3966
B(  2-C ,  3-C ) :   1.3675 B(  2-C , 82-H ) :   0.9757 B(  3-C ,  4-C ) :   1.4013
B(  3-C , 83-H ) :   0.9871 B(  4-C ,  5-C ) :   1.3739 B(  4-C , 84-H ) :   0.9940
B(  5-C ,  6-C ) :   1.3913 B(  5-C , 85-H ) :   0.9912 B(  6-C , 86-H ) :   1.0005
B(  7-C ,  8-C ) :   1.4061 B(  7-C , 12-C ) :   1.3712 B(  8-C ,  9-C ) :   1.3756
B(  8-C , 87-H ) :   0.9975 B(  9-C , 10-C ) :   1.3879 B(  9-C , 88-H ) :   0.9916
B( 10-C , 11-C ) :   1.3900 B( 10-C , 89-H ) :   0.9939 B( 11-C , 12-C ) :   1.3872
B( 11-C , 90-H ) :   0.9917 B( 12-C , 91-H ) :   0.9748 B( 13-C , 14-C ) :   1.5992
B( 13-C , 24-N ) :   1.2942 B( 14-C , 15-C ) :   1.0432 B( 14-C , 22-C ) :   1.1515
B( 15-C , 16-C ) :   1.6465 B( 15-C , 21-O ) :   1.1853 B( 16-C , 17-C ) :   1.1763
B( 16-C , 19-C ) :   1.1116 B( 17-C , 18-N ) :   3.0241 B( 19-C , 20-N ) :   3.0574
B( 22-C , 23-N ) :   3.0174 B( 24-N , 25-C ) :   1.0878 B( 24-N , 92-H ) :   0.8707
B( 25-C , 26-S ) :   1.1427 B( 25-C , 32-C ) :   1.4151 B( 26-S , 27-C ) :   1.1195
B( 27-C , 28-N ) :   0.9484 B( 27-C , 31-C ) :   1.5197 B( 28-N , 29-O ) :   1.5420
B( 28-N , 30-O ) :   1.5269 B( 29-O , 30-O ) :   0.2686 B( 31-C , 32-C ) :   1.2035
B( 31-C , 93-H ) :   0.9946 B( 32-C , 33-C ) :   1.0768 B( 33-C , 34-C ) :   1.6606
B( 33-C , 94-H ) :   0.9777 B( 34-C , 35-C ) :   1.1511 B( 34-C , 95-H ) :   0.9669
B( 35-C , 36-C ) :   1.5637 B( 35-C , 96-H ) :   0.9852 B( 36-C , 37-C ) :   1.1372
B( 36-C , 40-S ) :   1.0366 B( 37-C , 38-C ) :   1.5942 B( 37-C , 97-H ) :   0.9993
B( 38-C , 39-C ) :   1.1878 B( 38-C , 98-H ) :   0.9939 B( 39-C , 40-S ) :   1.0423
B( 39-C , 41-C ) :   1.5129 B( 41-C , 42-C ) :   1.1784 B( 41-C , 45-S ) :   1.0497
B( 42-C , 43-C ) :   1.6452 B( 42-C , 99-H ) :   0.9942 B( 43-C , 44-C ) :   1.1147
B( 43-C ,100-H ) :   0.9639 B( 44-C , 45-S ) :   1.0315 B( 44-C , 46-C ) :   1.6067
B( 46-C , 47-N ) :   1.1306 B( 46-C ,101-H ) :   0.9476 B( 47-N , 48-C ) :   1.3275
B( 47-N ,102-H ) :   0.8952 B( 48-C , 49-S ) :   1.1394 B( 48-C , 55-C ) :   1.2438
B( 49-S , 50-C ) :   1.0446 B( 50-C , 51-N ) :   0.9745 B( 50-C , 54-C ) :   1.5274
B( 51-N , 52-O ) :   1.5292 B( 51-N , 53-O ) :   1.5080 B( 52-O , 53-O ) :   0.2590
B( 54-C , 55-C ) :   1.2046 B( 54-C ,103-H ) :   1.0001 B( 55-C , 56-C ) :   1.1632
B( 56-C , 57-C ) :   1.5865 B( 56-C ,104-H ) :   0.9416 B( 57-C , 58-C ) :   1.2188
B( 57-C ,105-H ) :   0.9584 B( 58-C , 59-C ) :   1.5530 B( 58-C , 67-C ) :   0.9440
B( 59-C , 60-C ) :   1.0717 B( 59-C , 80-C ) :   1.1463 B( 60-C , 61-C ) :   1.6083
B( 60-C , 66-O ) :   1.2187 B( 61-C , 62-C ) :   1.1801 B( 61-C , 64-C ) :   1.1169
B( 62-C , 63-N ) :   3.0144 B( 64-C , 65-N ) :   3.0543 B( 66-O , 67-C ) :   0.9837
B( 67-C , 68-C ) :   0.9339 B( 67-C , 74-C ) :   0.9153 B( 68-C , 69-C ) :   1.3909
B( 68-C , 73-C ) :   1.4317 B( 69-C , 70-C ) :   1.3928 B( 69-C ,106-H ) :   1.0022
B( 70-C , 71-C ) :   1.3721 B( 70-C ,107-H ) :   0.9910 B( 71-C , 72-C ) :   1.4060
B( 71-C ,108-H ) :   0.9936 B( 72-C , 73-C ) :   1.3657 B( 72-C ,109-H ) :   0.9859
B( 73-C ,110-H ) :   0.9727 B( 74-C , 75-C ) :   1.3851 B( 74-C , 79-C ) :   1.3966
B( 75-C , 76-C ) :   1.3884 B( 75-C ,111-H ) :   0.9967 B( 76-C , 77-C ) :   1.3875
B( 76-C ,112-H ) :   0.9900 B( 77-C , 78-C ) :   1.3874 B( 77-C ,113-H ) :   0.9940
B( 78-C , 79-C ) :   1.3860 B( 78-C ,114-H ) :   0.9906 B( 79-C ,115-H ) :   0.9784
B( 80-C , 81-N ) :   2.9200 B( 81-N ,100-H ) :   0.1014

-----------------------------------------------------------------------------
         ABSORPTION SPECTRUM VIA TRANSITION ELECTRIC DIPOLE MOMENTS
-----------------------------------------------------------------------------
State   Energy  Wavelength   fosc         T2         TX        TY        TZ
        (cm-1)    (nm)                  (au**2)     (au)      (au)      (au)
-----------------------------------------------------------------------------
   0   12605.9    793.3   1.276833801  33.34553   5.20410   2.03795  -1.45244
   1   16471.9    607.1   0.804920355  16.08738  -3.47791  -1.81661  -0.83154
   2   20021.5    499.5   0.015353296   0.25245   0.07725   0.16850  -0.46701
   3   22387.9    446.7   0.163375540   2.40243   0.09435  -0.25027  -1.52673
   4   23281.2    429.5   0.142365528   2.01315  -0.55868  -0.66874  -1.11974
   5   26291.3    380.4   0.734982883   9.20326   0.58123   0.10907  -2.97549
   6   26633.5    375.5   0.038209364   0.47230   0.21059  -0.08195   0.64903
   7   28297.4    353.4   0.009055188   0.10535   0.30053   0.04492   0.11408
   8   29094.3    343.7   0.580775863   6.57168  -1.33469  -1.68371  -1.39835
   9   29711.2    336.6   0.076703151   0.84990   0.20476   0.25561  -0.86177
  10   31043.2    322.1   0.184176606   1.95318   0.14170   0.44810   1.31617
  11   31822.8    314.2   0.028647503   0.29636   0.49749  -0.05292  -0.21464
  12   32527.8    307.4   0.082346572   0.83343  -0.35567   0.04050   0.83981
  13   32887.0    304.1   0.063921860   0.63988  -0.21444  -0.13943  -0.75793
  14   32969.6    303.3   0.000583823   0.00583   0.02513   0.02589   0.06729
  15   33538.6    298.2   0.032982551   0.32375  -0.50747   0.22604  -0.12301
  16   33952.2    294.5   0.103329638   1.00192   0.47287  -0.38634  -0.79313
  17   34169.3    292.7   0.007527633   0.07253  -0.25418  -0.04421  -0.07722
  18   34344.6    291.2   0.004361544   0.04181  -0.14529  -0.11674  -0.08408
  19   34773.3    287.6   0.083690872   0.79233  -0.17944   0.03431   0.87118
  20   35121.3    284.7   0.187057070   1.75339  -0.13797  -0.12024   1.31145
  21   35360.3    282.8   0.030606787   0.28496  -0.41708  -0.24014  -0.23094
  22   35421.7    282.3   0.101447435   0.94286  -0.73821  -0.57835   0.25183
  23   35541.3    281.4   0.087637315   0.81177  -0.13909   0.22030   0.86249
  24   36249.6    275.9   0.009485433   0.08614  -0.03496  -0.28991  -0.02963
  25   36262.2    275.8   0.025349982   0.23014   0.06174   0.09398   0.46637
  26   36535.3    273.7   0.026352900   0.23746  -0.38196  -0.04885   0.29863
  27   36828.9    271.5   0.023435253   0.20949  -0.14426  -0.34012  -0.27017
  28   37071.0    269.8   0.096453033   0.85656  -0.45325  -0.76909   0.24418
  29   37450.3    267.0   0.145075313   1.27530   0.30910  -0.18200   1.07081
  30   38121.2    262.3   0.006216177   0.05368   0.13369   0.18852   0.01644
  31   38304.3    261.1   0.006525649   0.05609   0.09016   0.17493  -0.13175
  32   38569.6    259.3   0.009704192   0.08283   0.19590   0.15136  -0.14678
  33   38684.6    258.5   0.006298221   0.05360  -0.14173  -0.17610   0.04998
  34   38944.5    256.8   0.010618134   0.08976  -0.14234  -0.01578   0.26315
  35   39001.2    256.4   0.006714042   0.05667   0.20253  -0.11943   0.03730
  36   39154.9    255.4   0.032772323   0.27555  -0.09382   0.08936  -0.50868
  37   39495.6    253.2   0.011271733   0.09395   0.25253  -0.01875  -0.17272
  38   39802.9    251.2   0.007865573   0.06506   0.07281   0.16993   0.17573
  39   40122.7    249.2   0.001621689   0.01331   0.04114   0.10718   0.01123

FINAL SINGLE POINT ENERGY     -4969.575235926010

DIPOLE MOMENT
-------------
                                X             Y             Z
Electronic contribution:     15.39827      21.34302     -32.35148
Nuclear contribution   :    -17.07843     -25.98619      35.40690
                        -----------------------------------------
Total Dipole Moment    :     -1.68017      -4.64316       3.05542
                        -----------------------------------------
Magnitude (a.u.)       :      5.80668
Magnitude (Debye)      :     14.75940

Rotational constants in cm-1:     0.001466     0.000161     0.000152
Rotational constants in MHz :    43.950966     4.820762     4.561498

                             ****ORCA TERMINATED NORMALLY****
TOTAL RUN TIME: 0 days 0 hours 13 minutes 54 seconds 170 msec
