                         Program Version 4.2.0 -  RELEASE  -
|  1> # ORCA input file
|  2> # SCF done       -173.169640072562          0.000892286289
|  3> ! CAM-B3LYP def2-SVP def2/J RIJCOSX Grid4 TightSCF
|  4> %maxcore 5000
|  5> %tddft
|  6>     Mode sTDDFT
|  7>     Ethresh 5.0
|  8>     maxcore 5000
|  9> end
| 10>
| 11> %pal
| 12>   nprocs 6
| 13>   end
| 14> * xyz 0 1
| 15>    C       -8.53941        -6.50203         4.58635
| 16>    C       -7.52550        -6.14621         5.38840
| 17>    C       -7.46316        -5.02584         6.28052
| 18>    C       -6.30228        -4.92065         6.96684
| 19>    C       -5.35270        -5.93719         6.67993
| 20>    S       -6.00568        -7.05008         5.48779
| 21>    C       -4.09699        -6.08460         7.22041
| 22>    C       -3.46883        -5.25813         8.18390
| 23>    C       -2.21506        -5.66056         8.52438
| 24>    C       -1.77005        -6.82749         7.85746
| 25>    S       -3.02850        -7.39997         6.76841
| 26>    C       -0.55378        -7.44642         8.00609
| 27>    C       -0.14957        -8.59947         7.32267
| 28>    C        1.07620        -9.18086         7.48931
| 29>    C        1.51209       -10.33383         6.81298
| 30>    O        0.72247       -10.98971         5.91820
| 31>    C        1.41441       -12.05161         5.42925
| 32>    C        2.67586       -12.08064         6.02095
| 33>    C        2.74119       -10.99215         6.90149
| 34>    O        3.78267       -10.63582         7.68887
| 35>    O        3.69821       -12.96816         5.83143
| 36>    C        0.84034       -12.92890         4.47948
| 37>    C       -0.42982       -12.81781         4.00394
| 38>    C       -1.00305       -13.70806         3.07131
| 39>    C       -2.29154       -13.61877         2.64227
| 40>    C       -2.91392       -14.50046         1.73324
| 41>    N       -4.24761       -14.38203         1.39005
| 42>    C       -4.64638       -15.34451         0.52257
| 43>    C       -3.54689       -16.14320         0.25832
| 44>    C       -2.46187       -15.61215         1.01661
| 45>    N       -1.36369       -16.37233         0.78598
| 46>    C       -1.71249       -17.37765        -0.09663
| 47>    C       -3.03068       -17.27709        -0.44461
| 48>    N       -3.76622       -18.15865        -1.22972
| 49>    C       -4.84702       -17.65039        -2.06147
| 50>    C       -6.16213       -18.30241        -1.64072
| 51>    C       -7.29351       -17.98048        -2.61304
| 52>    N       -8.47712       -18.71279        -2.19507
| 53>    S       -8.44194       -20.19676        -3.06178
| 54>    N       -7.83550       -19.47090        -4.49758
| 55>    C       -6.92221       -18.41779        -4.08092
| 56>    C       -5.49357       -18.95001        -4.15688
| 57>    C       -4.49990       -17.96122        -3.54640
| 58>    N       -3.13417       -18.46353        -3.53244
| 59>    S       -2.98312       -19.39480        -2.07605
| 60>    C       -2.56490       -18.90241        -4.72144
| 61>    C       -1.73005       -19.93872        -4.79562
| 62>    N       -1.08088       -20.38787        -5.94051
| 63>    C       -0.73367       -19.49309        -7.03294
| 64>    C       -1.52580       -19.87213        -8.28258
| 65>    C       -1.02348       -19.14154        -9.52551
| 66>    N       -1.76996       -19.63465       -10.67076
| 67>    S       -0.84526       -20.93728       -11.30528
| 68>    N        0.65890       -20.15990       -11.00893
| 69>    C        0.51002       -19.41323        -9.76896
| 70>    C        1.11587       -20.22734        -8.62857
| 71>    C        0.80553       -19.59234        -7.27325
| 72>    N        1.31527       -20.36814        -6.16709
| 73>    S        0.13430       -21.56059        -5.80905
| 74>    C        2.62548       -20.43910        -5.78237
| 75>    C        3.64236       -19.73882        -6.27604
| 76>    H       -9.44524        -5.92270         4.55828
| 77>    H       -8.48257        -7.36736         3.95221
| 78>    H       -8.29332        -4.34729         6.36766
| 79>    H       -6.08855        -4.14086         7.67665
| 80>    H       -3.95889        -4.39350         8.59468
| 81>    H       -1.58766        -5.15501         9.23797
| 82>    H        0.14164        -7.00058         8.70617
| 83>    H       -0.84696        -9.04584         6.62653
| 84>    H        1.79444        -8.75650         8.17597
| 85>    H        4.49235       -11.27454         7.54367
| 86>    H        3.42231       -13.63293         5.19237
| 87>    H        1.47116       -13.73835         4.13230
| 88>    H       -1.04209       -12.00667         4.37207
| 89>    H       -0.37777       -14.50882         2.70005
| 90>    H       -2.90928       -12.81921         3.03238
| 91>    H       -4.84763       -13.66660         1.76675
| 92>    H       -5.66027       -15.39582         0.17825
| 93>    H       -0.45312       -16.26020         1.19336
| 94>    H       -0.99301       -18.10760        -0.40904
| 95>    H       -4.90987       -16.56748        -1.91652
| 96>    H       -6.43524       -17.95269        -0.64487
| 97>    H       -6.03648       -19.38349        -1.58133
| 98>    H       -7.50563       -16.90624        -2.58264
| 99>    H       -9.33795       -18.20692        -2.38213
|100>    H       -8.59587       -19.12513        -5.07476
|101>    H       -7.02506       -17.56442        -4.76079
|102>    H       -5.23780       -19.13268        -5.20200
|103>    H       -5.43386       -19.90636        -3.63599
|104>    H       -4.50214       -17.03430        -4.13465
|105>    H       -2.82285       -18.28837        -5.57237
|106>    H       -1.55018       -20.54850        -3.92183
|107>    H       -0.98361       -18.47070        -6.73010
|108>    H       -2.57949       -19.63481        -8.13198
|109>    H       -1.45737       -20.94709        -8.45016
|110>    H       -1.20348       -18.06695        -9.41454
|111>    H       -1.92004       -18.92117       -11.37821
|112>    H        0.92061       -19.57045       -11.79302
|113>    H        1.04659       -18.46190        -9.85691
|114>    H        2.19586       -20.28842        -8.76682
|115>    H        0.72389       -21.24427        -8.66151
|116>    H        1.25569       -18.59457        -7.22177
|117>    H        2.77241       -21.13005        -4.96342
|118>    H        3.53996       -19.04843        -7.09361
|119>    H        4.62098       -19.83431        -5.84563
|120> *
|121>
|122>                          ****END OF INPUT****

CARTESIAN COORDINATES (ANGSTROEM)
---------------------------------
  C     -8.539410   -6.502030    4.586350
  C     -7.525500   -6.146210    5.388400
  C     -7.463160   -5.025840    6.280520
  C     -6.302280   -4.920650    6.966840
  C     -5.352700   -5.937190    6.679930
  S     -6.005680   -7.050080    5.487790
  C     -4.096990   -6.084600    7.220410
  C     -3.468830   -5.258130    8.183900
  C     -2.215060   -5.660560    8.524380
  C     -1.770050   -6.827490    7.857460
  S     -3.028500   -7.399970    6.768410
  C     -0.553780   -7.446420    8.006090
  C     -0.149570   -8.599470    7.322670
  C      1.076200   -9.180860    7.489310
  C      1.512090  -10.333830    6.812980
  O      0.722470  -10.989710    5.918200
  C      1.414410  -12.051610    5.429250
  C      2.675860  -12.080640    6.020950
  C      2.741190  -10.992150    6.901490
  O      3.782670  -10.635820    7.688870
  O      3.698210  -12.968160    5.831430
  C      0.840340  -12.928900    4.479480
  C     -0.429820  -12.817810    4.003940
  C     -1.003050  -13.708060    3.071310
  C     -2.291540  -13.618770    2.642270
  C     -2.913920  -14.500460    1.733240
  N     -4.247610  -14.382030    1.390050
  C     -4.646380  -15.344510    0.522570
  C     -3.546890  -16.143200    0.258320
  C     -2.461870  -15.612150    1.016610
  N     -1.363690  -16.372330    0.785980
  C     -1.712490  -17.377650   -0.096630
  C     -3.030680  -17.277090   -0.444610
  N     -3.766220  -18.158650   -1.229720
  C     -4.847020  -17.650390   -2.061470
  C     -6.162130  -18.302410   -1.640720
  C     -7.293510  -17.980480   -2.613040
  N     -8.477120  -18.712790   -2.195070
  S     -8.441940  -20.196760   -3.061780
  N     -7.835500  -19.470900   -4.497580
  C     -6.922210  -18.417790   -4.080920
  C     -5.493570  -18.950010   -4.156880
  C     -4.499900  -17.961220   -3.546400
  N     -3.134170  -18.463530   -3.532440
  S     -2.983120  -19.394800   -2.076050
  C     -2.564900  -18.902410   -4.721440
  C     -1.730050  -19.938720   -4.795620
  N     -1.080880  -20.387870   -5.940510
  C     -0.733670  -19.493090   -7.032940
  C     -1.525800  -19.872130   -8.282580
  C     -1.023480  -19.141540   -9.525510
  N     -1.769960  -19.634650  -10.670760
  S     -0.845260  -20.937280  -11.305280
  N      0.658900  -20.159900  -11.008930
  C      0.510020  -19.413230   -9.768960
  C      1.115870  -20.227340   -8.628570
  C      0.805530  -19.592340   -7.273250
  N      1.315270  -20.368140   -6.167090
  S      0.134300  -21.560590   -5.809050
  C      2.625480  -20.439100   -5.782370
  C      3.642360  -19.738820   -6.276040
  H     -9.445240   -5.922700    4.558280
  H     -8.482570   -7.367360    3.952210
  H     -8.293320   -4.347290    6.367660
  H     -6.088550   -4.140860    7.676650
  H     -3.958890   -4.393500    8.594680
  H     -1.587660   -5.155010    9.237970
  H      0.141640   -7.000580    8.706170
  H     -0.846960   -9.045840    6.626530
  H      1.794440   -8.756500    8.175970
  H      4.492350  -11.274540    7.543670
  H      3.422310  -13.632930    5.192370
  H      1.471160  -13.738350    4.132300
  H     -1.042090  -12.006670    4.372070
  H     -0.377770  -14.508820    2.700050
  H     -2.909280  -12.819210    3.032380
  H     -4.847630  -13.666600    1.766750
  H     -5.660270  -15.395820    0.178250
  H     -0.453120  -16.260200    1.193360
  H     -0.993010  -18.107600   -0.409040
  H     -4.909870  -16.567480   -1.916520
  H     -6.435240  -17.952690   -0.644870
  H     -6.036480  -19.383490   -1.581330
  H     -7.505630  -16.906240   -2.582640
  H     -9.337950  -18.206920   -2.382130
  H     -8.595870  -19.125130   -5.074760
  H     -7.025060  -17.564420   -4.760790
  H     -5.237800  -19.132680   -5.202000
  H     -5.433860  -19.906360   -3.635990
  H     -4.502140  -17.034300   -4.134650
  H     -2.822850  -18.288370   -5.572370
  H     -1.550180  -20.548500   -3.921830
  H     -0.983610  -18.470700   -6.730100
  H     -2.579490  -19.634810   -8.131980
  H     -1.457370  -20.947090   -8.450160
  H     -1.203480  -18.066950   -9.414540
  H     -1.920040  -18.921170  -11.378210
  H      0.920610  -19.570450  -11.793020
  H      1.046590  -18.461900   -9.856910
  H      2.195860  -20.288420   -8.766820
  H      0.723890  -21.244270   -8.661510
  H      1.255690  -18.594570   -7.221770
  H      2.772410  -21.130050   -4.963420
  H      3.539960  -19.048430   -7.093610
  H      4.620980  -19.834310   -5.845630

 Total Charge           Charge          ....    0
 Multiplicity           Mult            ....    1
 Number of Electrons    NEL             ....  486
 Basis Dimension        Dim             .... 1098

ORBITAL ENERGIES
----------------

  NO   OCC          E(Eh)            E(eV)
   0   2.0000     -88.965295     -2420.8688
   1   2.0000     -88.958565     -2420.6856
   2   2.0000     -88.947718     -2420.3905
   3   2.0000     -88.946906     -2420.3684
   4   2.0000     -88.925738     -2419.7923
   5   2.0000     -88.922444     -2419.7027
   6   2.0000     -19.270501      -524.3770
   7   2.0000     -19.254429      -523.9397
   8   2.0000     -19.246521      -523.7245
   9   2.0000     -14.455506      -393.3543
  10   2.0000     -14.436234      -392.8299
  11   2.0000     -14.426483      -392.5646
  12   2.0000     -14.425734      -392.5442
  13   2.0000     -14.422493      -392.4560
  14   2.0000     -14.416459      -392.2918
  15   2.0000     -14.410860      -392.1394
  16   2.0000     -14.409799      -392.1106
  17   2.0000     -14.409146      -392.0928
  18   2.0000     -14.408298      -392.0697
  19   2.0000     -10.322695      -280.8948
  20   2.0000     -10.321181      -280.8536
  21   2.0000     -10.318507      -280.7808
  22   2.0000     -10.310101      -280.5521
  23   2.0000     -10.303329      -280.3678
  24   2.0000     -10.302932      -280.3570
  25   2.0000     -10.300465      -280.2899
  26   2.0000     -10.299800      -280.2718
  27   2.0000     -10.299134      -280.2537
  28   2.0000     -10.298860      -280.2462
  29   2.0000     -10.298646      -280.2404
  30   2.0000     -10.298519      -280.2370
  31   2.0000     -10.294927      -280.1392
  32   2.0000     -10.294077      -280.1161
  33   2.0000     -10.293247      -280.0935
  34   2.0000     -10.291898      -280.0568
  35   2.0000     -10.290411      -280.0163
  36   2.0000     -10.285936      -279.8946
  37   2.0000     -10.285886      -279.8932
  38   2.0000     -10.283327      -279.8236
  39   2.0000     -10.281177      -279.7651
  40   2.0000     -10.280492      -279.7464
  41   2.0000     -10.280409      -279.7441
  42   2.0000     -10.274770      -279.5907
  43   2.0000     -10.272519      -279.5295
  44   2.0000     -10.272033      -279.5162
  45   2.0000     -10.269865      -279.4572
  46   2.0000     -10.269237      -279.4402
  47   2.0000     -10.268002      -279.4066
  48   2.0000     -10.267558      -279.3945
  49   2.0000     -10.266632      -279.3693
  50   2.0000     -10.264258      -279.3047
  51   2.0000     -10.263459      -279.2829
  52   2.0000     -10.257135      -279.1108
  53   2.0000     -10.255767      -279.0736
  54   2.0000     -10.253415      -279.0096
  55   2.0000     -10.252650      -278.9888
  56   2.0000     -10.250933      -278.9421
  57   2.0000     -10.250103      -278.9195
  58   2.0000     -10.249466      -278.9021
  59   2.0000     -10.246670      -278.8261
  60   2.0000     -10.229466      -278.3579
  61   2.0000      -8.055706      -219.2069
  62   2.0000      -8.048883      -219.0212
  63   2.0000      -8.039606      -218.7688
  64   2.0000      -8.038771      -218.7461
  65   2.0000      -8.021989      -218.2894
  66   2.0000      -8.019124      -218.2114
  67   2.0000      -6.028310      -164.0386
  68   2.0000      -6.023388      -163.9047
  69   2.0000      -6.021273      -163.8472
  70   2.0000      -6.016489      -163.7170
  71   2.0000      -6.012715      -163.6143
  72   2.0000      -6.012519      -163.6089
  73   2.0000      -6.011888      -163.5918
  74   2.0000      -6.006381      -163.4419
  75   2.0000      -6.005970      -163.4307
  76   2.0000      -6.005533      -163.4188
  77   2.0000      -5.996628      -163.1765
  78   2.0000      -5.995810      -163.1543
  79   2.0000      -5.991738      -163.0435
  80   2.0000      -5.988963      -162.9680
  81   2.0000      -5.987843      -162.9375
  82   2.0000      -5.985095      -162.8627
  83   2.0000      -5.982766      -162.7993
  84   2.0000      -5.979613      -162.7135
  85   2.0000      -1.190079       -32.3837
  86   2.0000      -1.146574       -31.1999
  87   2.0000      -1.130671       -30.7671
  88   2.0000      -1.077306       -29.3150
  89   2.0000      -1.075840       -29.2751
  90   2.0000      -1.067476       -29.0475
  91   2.0000      -1.049262       -28.5519
  92   2.0000      -1.048252       -28.5244
  93   2.0000      -1.039812       -28.2947
  94   2.0000      -0.999476       -27.1971
  95   2.0000      -0.985852       -26.8264
  96   2.0000      -0.975056       -26.5326
  97   2.0000      -0.952465       -25.9179
  98   2.0000      -0.948497       -25.8099
  99   2.0000      -0.947539       -25.7838
 100   2.0000      -0.907773       -24.7018
 101   2.0000      -0.907049       -24.6821
 102   2.0000      -0.903890       -24.5961
 103   2.0000      -0.893894       -24.3241
 104   2.0000      -0.875414       -23.8212
 105   2.0000      -0.873463       -23.7681
 106   2.0000      -0.864996       -23.5377
 107   2.0000      -0.855402       -23.2767
 108   2.0000      -0.852325       -23.1929
 109   2.0000      -0.835979       -22.7481
 110   2.0000      -0.831033       -22.6136
 111   2.0000      -0.827888       -22.5280
 112   2.0000      -0.827434       -22.5156
 113   2.0000      -0.825868       -22.4730
 114   2.0000      -0.820469       -22.3261
 115   2.0000      -0.809183       -22.0190
 116   2.0000      -0.806450       -21.9446
 117   2.0000      -0.800045       -21.7703
 118   2.0000      -0.787013       -21.4157
 119   2.0000      -0.779594       -21.2138
 120   2.0000      -0.761359       -20.7176
 121   2.0000      -0.752906       -20.4876
 122   2.0000      -0.748315       -20.3627
 123   2.0000      -0.736025       -20.0283
 124   2.0000      -0.727766       -19.8035
 125   2.0000      -0.713352       -19.4113
 126   2.0000      -0.709241       -19.2994
 127   2.0000      -0.705698       -19.2030
 128   2.0000      -0.701600       -19.0915
 129   2.0000      -0.690496       -18.7893
 130   2.0000      -0.687773       -18.7153
 131   2.0000      -0.686897       -18.6914
 132   2.0000      -0.681482       -18.5441
 133   2.0000      -0.673824       -18.3357
 134   2.0000      -0.671070       -18.2607
 135   2.0000      -0.656379       -17.8610
 136   2.0000      -0.647456       -17.6182
 137   2.0000      -0.645673       -17.5696
 138   2.0000      -0.640648       -17.4329
 139   2.0000      -0.634801       -17.2738
 140   2.0000      -0.631415       -17.1817
 141   2.0000      -0.622315       -16.9341
 142   2.0000      -0.619831       -16.8665
 143   2.0000      -0.618706       -16.8359
 144   2.0000      -0.612820       -16.6757
 145   2.0000      -0.604464       -16.4483
 146   2.0000      -0.603568       -16.4239
 147   2.0000      -0.597633       -16.2624
 148   2.0000      -0.595234       -16.1971
 149   2.0000      -0.591549       -16.0969
 150   2.0000      -0.585705       -15.9379
 151   2.0000      -0.582952       -15.8629
 152   2.0000      -0.578703       -15.7473
 153   2.0000      -0.574186       -15.6244
 154   2.0000      -0.571895       -15.5621
 155   2.0000      -0.568967       -15.4824
 156   2.0000      -0.563828       -15.3426
 157   2.0000      -0.560192       -15.2436
 158   2.0000      -0.555155       -15.1065
 159   2.0000      -0.553216       -15.0538
 160   2.0000      -0.551228       -14.9997
 161   2.0000      -0.550427       -14.9779
 162   2.0000      -0.546350       -14.8669
 163   2.0000      -0.538443       -14.6518
 164   2.0000      -0.534989       -14.5578
 165   2.0000      -0.533492       -14.5171
 166   2.0000      -0.530363       -14.4319
 167   2.0000      -0.523325       -14.2404
 168   2.0000      -0.520141       -14.1537
 169   2.0000      -0.519124       -14.1261
 170   2.0000      -0.518154       -14.0997
 171   2.0000      -0.513049       -13.9608
 172   2.0000      -0.508388       -13.8340
 173   2.0000      -0.496586       -13.5128
 174   2.0000      -0.494837       -13.4652
 175   2.0000      -0.489796       -13.3280
 176   2.0000      -0.489129       -13.3099
 177   2.0000      -0.484813       -13.1924
 178   2.0000      -0.484072       -13.1723
 179   2.0000      -0.482055       -13.1174
 180   2.0000      -0.478403       -13.0180
 181   2.0000      -0.476100       -12.9553
 182   2.0000      -0.474191       -12.9034
 183   2.0000      -0.473902       -12.8955
 184   2.0000      -0.473187       -12.8761
 185   2.0000      -0.469372       -12.7723
 186   2.0000      -0.467991       -12.7347
 187   2.0000      -0.467554       -12.7228
 188   2.0000      -0.465509       -12.6671
 189   2.0000      -0.463728       -12.6187
 190   2.0000      -0.461349       -12.5539
 191   2.0000      -0.458333       -12.4719
 192   2.0000      -0.455818       -12.4034
 193   2.0000      -0.455175       -12.3859
 194   2.0000      -0.450713       -12.2645
 195   2.0000      -0.450053       -12.2466
 196   2.0000      -0.446274       -12.1437
 197   2.0000      -0.445992       -12.1361
 198   2.0000      -0.445226       -12.1152
 199   2.0000      -0.444358       -12.0916
 200   2.0000      -0.440341       -11.9823
 201   2.0000      -0.438147       -11.9226
 202   2.0000      -0.434584       -11.8256
 203   2.0000      -0.432303       -11.7636
 204   2.0000      -0.427826       -11.6417
 205   2.0000      -0.418190       -11.3795
 206   2.0000      -0.411764       -11.2047
 207   2.0000      -0.411344       -11.1932
 208   2.0000      -0.410786       -11.1781
 209   2.0000      -0.409948       -11.1553
 210   2.0000      -0.405475       -11.0335
 211   2.0000      -0.402775       -10.9601
 212   2.0000      -0.402706       -10.9582
 213   2.0000      -0.396196       -10.7810
 214   2.0000      -0.395513       -10.7625
 215   2.0000      -0.394502       -10.7349
 216   2.0000      -0.390710       -10.6318
 217   2.0000      -0.389532       -10.5997
 218   2.0000      -0.387398       -10.5416
 219   2.0000      -0.380354       -10.3500
 220   2.0000      -0.377029       -10.2595
 221   2.0000      -0.363479        -9.8908
 222   2.0000      -0.358152        -9.7458
 223   2.0000      -0.355271        -9.6674
 224   2.0000      -0.354545        -9.6477
 225   2.0000      -0.342753        -9.3268
 226   2.0000      -0.322545        -8.7769
 227   2.0000      -0.321534        -8.7494
 228   2.0000      -0.315775        -8.5927
 229   2.0000      -0.314083        -8.5466
 230   2.0000      -0.311720        -8.4823
 231   2.0000      -0.301289        -8.1985
 232   2.0000      -0.300432        -8.1752
 233   2.0000      -0.288072        -7.8388
 234   2.0000      -0.283458        -7.7133
 235   2.0000      -0.280519        -7.6333
 236   2.0000      -0.278901        -7.5893
 237   2.0000      -0.265430        -7.2227
 238   2.0000      -0.245272        -6.6742
 239   2.0000      -0.240556        -6.5459
 240   2.0000      -0.220800        -6.0083
 241   2.0000      -0.209407        -5.6983
 242   2.0000      -0.183950        -5.0055
 243   0.0000      -0.058221        -1.5843
 244   0.0000      -0.018073        -0.4918
 245   0.0000       0.018496         0.5033
 246   0.0000       0.043843         1.1930
 247   0.0000       0.048488         1.3194

MULLIKEN ATOMIC CHARGES
-----------------------
   0 C :   -0.039934
   1 C :   -0.059264
   2 C :    0.042871
   3 C :    0.029157
   4 C :   -0.075935
   5 S :    0.062924
   6 C :   -0.041488
   7 C :    0.016802
   8 C :    0.035780
   9 C :   -0.020072
  10 S :    0.065032
  11 C :   -0.014689
  12 C :    0.007974
  13 C :   -0.040277
  14 C :    0.081542
  15 O :   -0.229020
  16 C :    0.120262
  17 C :    0.072082
  18 C :    0.093074
  19 O :   -0.180951
  20 O :   -0.209678
  21 C :   -0.083658
  22 C :    0.032894
  23 C :   -0.020885
  24 C :    0.031020
  25 C :   -0.008029
  26 N :   -0.039109
  27 C :   -0.071388
  28 C :    0.052199
  29 C :    0.034803
  30 N :   -0.049426
  31 C :   -0.051278
  32 C :    0.175444
  33 N :   -0.379407
  34 C :    0.064393
  35 C :    0.277648
  36 C :   -0.053882
  37 N :   -0.301955
  38 S :    0.210470
  39 N :   -0.308536
  40 C :   -0.022041
  41 C :    0.271424
  42 C :   -0.002397
  43 N :   -0.379862
  44 S :    0.289975
  45 C :    0.098762
  46 C :    0.069433
  47 N :   -0.381323
  48 C :    0.049337
  49 C :    0.276036
  50 C :   -0.060394
  51 N :   -0.301036
  52 S :    0.210904
  53 N :   -0.312382
  54 C :   -0.022076
  55 C :    0.282179
  56 C :    0.001853
  57 N :   -0.370451
  58 S :    0.304776
  59 C :    0.112239
  60 C :   -0.094577
  61 H :    0.012105
  62 H :    0.011556
  63 H :   -0.017950
  64 H :   -0.016388
  65 H :   -0.020884
  66 H :   -0.018179
  67 H :   -0.020757
  68 H :    0.002309
  69 H :   -0.003339
  70 H :    0.191383
  71 H :    0.188715
  72 H :   -0.047506
  73 H :   -0.002347
  74 H :   -0.058260
  75 H :   -0.042408
  76 H :    0.119840
  77 H :   -0.010458
  78 H :    0.117664
  79 H :   -0.024785
  80 H :    0.004888
  81 H :   -0.003273
  82 H :   -0.019602
  83 H :   -0.009043
  84 H :    0.120599
  85 H :    0.122235
  86 H :   -0.007593
  87 H :    0.000882
  88 H :   -0.023562
  89 H :   -0.005835
  90 H :   -0.001101
  91 H :    0.000583
  92 H :    0.000762
  93 H :   -0.001549
  94 H :   -0.018996
  95 H :   -0.005943
  96 H :    0.121017
  97 H :    0.123411
  98 H :   -0.005901
  99 H :    0.005438
 100 H :   -0.025520
 101 H :    0.004986
 102 H :    0.002056
 103 H :    0.003273
 104 H :    0.009592
Sum of atomic charges:    0.0000000

LOEWDIN ATOMIC CHARGES
----------------------
   0 C :   -0.095987
   1 C :   -0.136985
   2 C :   -0.044647
   3 C :   -0.025888
   4 C :   -0.190403
   5 S :    0.337689
   6 C :   -0.173964
   7 C :   -0.044456
   8 C :   -0.032215
   9 C :   -0.158323
  10 S :    0.357748
  11 C :   -0.048765
  12 C :   -0.045308
  13 C :   -0.027366
  14 C :   -0.006585
  15 O :   -0.002033
  16 C :   -0.000778
  17 C :   -0.030069
  18 C :   -0.000977
  19 O :   -0.050461
  20 O :   -0.070708
  21 C :   -0.083417
  22 C :   -0.008713
  23 C :   -0.065228
  24 C :   -0.022679
  25 C :   -0.069367
  26 N :    0.100599
  27 C :   -0.026196
  28 C :   -0.091968
  29 C :   -0.006947
  30 N :    0.051812
  31 C :   -0.046801
  32 C :   -0.046150
  33 N :   -0.189158
  34 C :    0.019618
  35 C :   -0.032621
  36 C :   -0.015213
  37 N :   -0.226810
  38 S :    0.354452
  39 N :   -0.229033
  40 C :   -0.011020
  41 C :   -0.040468
  42 C :    0.001803
  43 N :   -0.200792
  44 S :    0.415864
  45 C :   -0.059771
  46 C :   -0.064158
  47 N :   -0.192315
  48 C :    0.018490
  49 C :   -0.032270
  50 C :   -0.015311
  51 N :   -0.226472
  52 S :    0.354458
  53 N :   -0.229301
  54 C :   -0.010599
  55 C :   -0.036620
  56 C :    0.008236
  57 N :   -0.183837
  58 S :    0.414457
  59 C :    0.012430
  60 C :   -0.162190
  61 H :    0.025097
  62 H :    0.021588
  63 H :    0.030276
  64 H :    0.030476
  65 H :    0.028311
  66 H :    0.031211
  67 H :    0.030742
  68 H :    0.023494
  69 H :    0.038790
  70 H :    0.102141
  71 H :    0.095690
  72 H :    0.018749
  73 H :    0.031982
  74 H :    0.013716
  75 H :    0.026864
  76 H :    0.089390
  77 H :    0.015660
  78 H :    0.080839
  79 H :    0.012241
  80 H :    0.024942
  81 H :    0.024970
  82 H :    0.024244
  83 H :    0.016207
  84 H :    0.043545
  85 H :    0.043638
  86 H :    0.016390
  87 H :    0.025092
  88 H :    0.023430
  89 H :    0.019240
  90 H :    0.018858
  91 H :    0.008732
  92 H :    0.021364
  93 H :    0.026399
  94 H :    0.024318
  95 H :    0.017300
  96 H :    0.043817
  97 H :    0.044269
  98 H :    0.017344
  99 H :    0.028397
 100 H :    0.022204
 101 H :    0.024661
 102 H :    0.022370
 103 H :    0.011986
 104 H :    0.022712

  Mayer bond orders larger than 0.100000
B(  0-C ,  1-C ) :   1.8583 B(  0-C , 61-H ) :   0.9494 B(  0-C , 62-H ) :   0.9416
B(  1-C ,  2-C ) :   1.0845 B(  1-C ,  5-S ) :   1.0107 B(  2-C ,  3-C ) :   1.6514
B(  2-C , 63-H ) :   0.9924 B(  3-C ,  4-C ) :   1.1626 B(  3-C , 64-H ) :   0.9915
B(  4-C ,  5-S ) :   1.0315 B(  4-C ,  6-C ) :   1.5485 B(  6-C ,  7-C ) :   1.1777
B(  6-C , 10-S ) :   1.0430 B(  7-C ,  8-C ) :   1.5915 B(  7-C , 65-H ) :   0.9934
B(  8-C ,  9-C ) :   1.1482 B(  8-C , 66-H ) :   0.9990 B(  9-C , 10-S ) :   1.0184
B(  9-C , 11-C ) :   1.5529 B( 11-C , 12-C ) :   1.1644 B( 11-C , 67-H ) :   0.9817
B( 12-C , 13-C ) :   1.5567 B( 12-C , 68-H ) :   0.9831 B( 13-C , 14-C ) :   1.1987
B( 13-C , 69-H ) :   0.9738 B( 14-C , 15-O ) :   1.1057 B( 14-C , 16-C ) :   0.1100
B( 14-C , 18-C ) :   1.3549 B( 15-O , 16-C ) :   1.1272 B( 16-C , 17-C ) :   1.2987
B( 16-C , 21-C ) :   1.1455 B( 17-C , 18-C ) :   1.2566 B( 17-C , 20-O ) :   1.2144
B( 18-C , 19-O ) :   1.2637 B( 19-O , 70-H ) :   0.9557 B( 20-O , 71-H ) :   0.9612
B( 21-C , 22-C ) :   1.6013 B( 21-C , 72-H ) :   0.9609 B( 22-C , 23-C ) :   1.1558
B( 22-C , 73-H ) :   0.9987 B( 23-C , 24-C ) :   1.5908 B( 23-C , 74-H ) :   0.9803
B( 24-C , 25-C ) :   1.1470 B( 24-C , 75-H ) :   0.9509 B( 25-C , 26-N ) :   1.1797
B( 25-C , 27-C ) :   0.1180 B( 25-C , 29-C ) :   1.2482 B( 26-N , 27-C ) :   1.2658
B( 26-N , 76-H ) :   0.9357 B( 27-C , 28-C ) :   1.3264 B( 27-C , 77-H ) :   0.9867
B( 28-C , 29-C ) :   1.3115 B( 28-C , 32-C ) :   1.1624 B( 29-C , 30-N ) :   1.2174
B( 30-N , 31-C ) :   1.1008 B( 30-N , 78-H ) :   0.9435 B( 31-C , 32-C ) :   1.5688
B( 31-C , 79-H ) :   0.9890 B( 32-C , 33-N ) :   0.9885 B( 33-N , 34-C ) :   0.9386
B( 33-N , 44-S ) :   1.0246 B( 34-C , 35-C ) :   1.0917 B( 34-C , 42-C ) :   0.9856
B( 34-C , 80-H ) :   0.9014 B( 35-C , 36-C ) :   1.0725 B( 35-C , 41-C ) :   0.1299
B( 35-C , 81-H ) :   0.9311 B( 35-C , 82-H ) :   0.8441 B( 36-C , 37-N ) :   1.0497
B( 36-C , 40-C ) :   0.9564 B( 36-C , 83-H ) :   0.9129 B( 37-N , 38-S ) :   0.9789
B( 37-N , 84-H ) :   0.9462 B( 38-S , 39-N ) :   0.9791 B( 39-N , 40-C ) :   1.0482
B( 39-N , 85-H ) :   0.9444 B( 40-C , 41-C ) :   1.0810 B( 40-C , 86-H ) :   0.9182
B( 41-C , 42-C ) :   1.0894 B( 41-C , 87-H ) :   0.9252 B( 41-C , 88-H ) :   0.8381
B( 42-C , 43-N ) :   0.9733 B( 42-C , 89-H ) :   0.8992 B( 43-N , 44-S ) :   0.9200
B( 43-N , 45-C ) :   1.0408 B( 45-C , 46-C ) :   1.7888 B( 45-C , 90-H ) :   0.9563
B( 46-C , 47-N ) :   0.9982 B( 46-C , 91-H ) :   0.9471 B( 47-N , 48-C ) :   0.9506
B( 47-N , 58-S ) :   1.0037 B( 48-C , 49-C ) :   1.0872 B( 48-C , 56-C ) :   0.9812
B( 48-C , 92-H ) :   0.8993 B( 49-C , 50-C ) :   1.0718 B( 49-C , 55-C ) :   0.1258
B( 49-C , 93-H ) :   0.9325 B( 49-C , 94-H ) :   0.8457 B( 50-C , 51-N ) :   1.0528
B( 50-C , 54-C ) :   0.9563 B( 50-C , 95-H ) :   0.9141 B( 51-N , 52-S ) :   0.9789
B( 51-N , 96-H ) :   0.9460 B( 52-S , 53-N ) :   0.9791 B( 53-N , 54-C ) :   1.0411
B( 53-N , 97-H ) :   0.9439 B( 54-C , 55-C ) :   1.0899 B( 54-C , 98-H ) :   0.9191
B( 55-C , 56-C ) :   1.0958 B( 55-C , 99-H ) :   0.9271 B( 55-C ,100-H ) :   0.8356
B( 56-C , 57-N ) :   0.9593 B( 56-C ,101-H ) :   0.8984 B( 57-N , 58-S ) :   0.9105
B( 57-N , 59-C ) :   1.0995 B( 59-C , 60-C ) :   1.8901 B( 59-C ,102-H ) :   0.9568
B( 60-C ,103-H ) :   0.9533 B( 60-C ,104-H ) :   0.9519

-----------------------------------------------------------------------------
         ABSORPTION SPECTRUM VIA TRANSITION ELECTRIC DIPOLE MOMENTS
-----------------------------------------------------------------------------
State   Energy  Wavelength   fosc         T2         TX        TY        TZ
        (cm-1)    (nm)                  (au**2)     (au)      (au)      (au)
-----------------------------------------------------------------------------
   0   14162.4    706.1   0.943518680  21.93257  -2.48441   3.69666   1.44740
   1   20569.9    486.1   0.277504418   4.44133  -1.86138  -0.08144  -0.98486
   2   22817.7    438.3   1.462823191  21.10551   3.71434   0.97766   2.52059
   3   27038.1    369.8   0.416597930   5.07243   1.57049   0.84652   1.37456
   4   27892.4    358.5   0.117212429   1.38345  -0.64598  -0.58596  -0.78918
   5   28578.8    349.9   0.003893006   0.04485  -0.08023  -0.08620  -0.17600
   6   29578.6    338.1   0.039997160   0.44517   0.29670   0.37974   0.46146
   7   32333.4    309.3   0.028530708   0.29049   0.14228  -0.08137   0.51345
   8   32786.5    305.0   0.114168077   1.14637   0.92200  -0.54327   0.03384
   9   33045.1    302.6   0.093717268   0.93366  -0.88180   0.13459   0.37146
  10   33373.5    299.6   0.000177038   0.00175   0.03997  -0.00636  -0.01042
  11   34078.8    293.4   0.006757353   0.06528  -0.03905   0.07514   0.24106
  12   34320.8    291.4   0.020147665   0.19326  -0.29178  -0.05804  -0.32366
  13   34558.2    289.4   0.006661392   0.06346  -0.24862  -0.03112  -0.02603
  14   35230.3    283.8   0.011786931   0.11014   0.29697   0.13391   0.06343
  15   35689.4    280.2   0.006147224   0.05670   0.04978   0.22798  -0.04744
  16   36084.5    277.1   0.000574128   0.00524  -0.03006   0.03576  -0.05528
  17   36248.9    275.9   0.183774207   1.66904  -1.20388   0.43350  -0.17833
  18   36423.4    274.5   0.013606178   0.12298   0.28557  -0.18541   0.08397
  19   36742.5    272.2   0.025069316   0.22462  -0.34893  -0.31965   0.02624
  20   37777.2    264.7   0.034593249   0.30147  -0.51254   0.17775  -0.08472
  21   38161.2    262.0   0.050072284   0.43197  -0.39747   0.48676   0.19249
  22   39402.5    253.8   0.011715672   0.09789   0.17170   0.11368   0.23555

FINAL SINGLE POINT ENERGY     -4785.279109741305

DIPOLE MOMENT
-------------
                                X             Y             Z
Electronic contribution:     -0.25405      15.32415      40.74463
Nuclear contribution   :     -0.04091     -14.04891     -42.16362
                        -----------------------------------------
Total Dipole Moment    :     -0.29496       1.27524      -1.41900
                        -----------------------------------------
Magnitude (a.u.)       :      1.93049
Magnitude (Debye)      :      4.90692

Rotational constants in cm-1:     0.001282     0.000276     0.000245
Rotational constants in MHz :    38.432876     8.274347     7.357976

                             ****ORCA TERMINATED NORMALLY****
TOTAL RUN TIME: 0 days 0 hours 8 minutes 39 seconds 256 msec
