                         Program Version 4.2.0 -  RELEASE  -
|  1> # ORCA input file
|  2> # SCF done       -170.800762460339          0.000616169037
|  3> ! CAM-B3LYP def2-SVP def2/J RIJCOSX Grid4 TightSCF
|  4> %maxcore 5000
|  5> %tddft
|  6>     Mode sTDDFT
|  7>     Ethresh 5.0
|  8>     maxcore 5000
|  9> end
| 10>
| 11> %pal
| 12>   nprocs 6
| 13>   end
| 14> * xyz 0 1
| 15>    C        1.57697         0.39039         5.17012
| 16>    C        0.63428         0.98207         5.96443
| 17>    F       -0.06079         0.23256         6.83692
| 18>    C        0.35728         2.35540         5.90733
| 19>    C        1.05376         3.13476         5.02648
| 20>    C        2.03682         2.57671         4.18289
| 21>    C        2.30221         1.17726         4.25424
| 22>    C        3.27267         0.59172         3.40830
| 23>    C        3.95277         1.37983         2.51906
| 24>    C        3.69697         2.78192         2.46665
| 25>    C        2.76343         3.37247         3.27051
| 26>    C        4.57512         3.40439         1.46228
| 27>    O        4.61434         4.55862         1.10938
| 28>    C        5.47439         2.30219         0.99757
| 29>    C        4.94424         1.04835         1.49922
| 30>    C        5.13773        -0.19068         0.95611
| 31>    C        5.86173        -0.42969        -0.23144
| 32>    N        6.35780        -0.67671        -1.23636
| 33>    C        4.53344        -1.36556         1.45212
| 34>    N        4.07438        -2.34863         1.82523
| 35>    C        6.62256         2.61596         0.34797
| 36>    C        7.75139         1.78981         0.12694
| 37>    N        8.01289         0.67034         0.74281
| 38>    C        9.15443         0.14460         0.31742
| 39>    C        9.83701         0.86755        -0.68928
| 40>    S        8.97592         2.29527        -1.06504
| 41>    N       10.96110         0.32336        -1.14182
| 42>    C       11.20245        -0.80187        -0.53210
| 43>    S       10.01873        -1.29008         0.69528
| 44>    C       12.31675        -1.62277        -0.82148
| 45>    N       12.61600        -2.71406        -0.17781
| 46>    C       13.70309        -3.27888        -0.69497
| 47>    C       14.28631        -2.61113        -1.79703
| 48>    S       13.39491        -1.19150        -2.16348
| 49>    N       15.36485        -3.18230        -2.32309
| 50>    C       15.66571        -4.27435        -1.68046
| 51>    S       14.60127        -4.69456        -0.32519
| 52>    C       16.75478        -5.10905        -2.02139
| 53>    N       17.11456        -6.16044        -1.34300
| 54>    C       18.16034        -6.74826        -1.91477
| 55>    C       18.64708        -6.14275        -3.09747
| 56>    S       17.71516        -4.75069        -3.47002
| 57>    N       19.67436        -6.74338        -3.68292
| 58>    C       20.04263        -7.80321        -3.01757
| 59>    S       19.09819        -8.12877        -1.54275
| 60>    C       21.12669        -8.64975        -3.35723
| 61>    C       21.78310        -8.71009        -4.54227
| 62>    C       23.14082        -9.33693        -4.59966
| 63>    O       23.63907       -10.04866        -3.76109
| 64>    C       23.73448        -8.84249        -5.85354
| 65>    C       25.00386        -9.01739        -6.32757
| 66>    C       25.36651        -8.43123        -7.56006
| 67>    C       24.40380        -7.66185        -8.27797
| 68>    C       24.77350        -7.07700        -9.50484
| 69>    C       26.04174        -7.26170        -9.98119
| 70>    C       27.00207        -8.01492        -9.29086
| 71>    C       26.66110        -8.58806        -8.09769
| 72>    F       26.39578        -6.70678       -11.15289
| 73>    C       23.09619        -7.49851        -7.76482
| 74>    C       22.76294        -8.08764        -6.57486
| 75>    C       21.50067        -8.13156        -5.84272
| 76>    C       20.26440        -7.90591        -6.37930
| 77>    C       19.05224        -8.23870        -5.73774
| 78>    N       18.04181        -8.56440        -5.30219
| 79>    C       20.05582        -7.41966        -7.68750
| 80>    N       19.83670        -7.01743        -8.73939
| 81>    H        1.76066        -0.67043         5.23825
| 82>    H       -0.39827         2.76571         6.55839
| 83>    H        0.85816         4.19456         4.96389
| 84>    H        3.45894        -0.46742         3.48898
| 85>    H        2.58014         4.43465         3.20781
| 86>    H        6.71262         3.64163         0.00732
| 87>    H       21.51850        -9.26810        -2.55741
| 88>    H       25.72219        -9.59820        -5.76855
| 89>    H       24.05913        -6.49398       -10.06478
| 90>    H       27.98691        -8.12557        -9.71614
| 91>    H       27.38321        -9.17278        -7.54806
| 92>    H       22.39076        -6.90346        -8.32282
| 93> *
| 94>
| 95>                          ****END OF INPUT****

CARTESIAN COORDINATES (ANGSTROEM)
---------------------------------
  C      1.576970    0.390390    5.170120
  C      0.634280    0.982070    5.964430
  F     -0.060790    0.232560    6.836920
  C      0.357280    2.355400    5.907330
  C      1.053760    3.134760    5.026480
  C      2.036820    2.576710    4.182890
  C      2.302210    1.177260    4.254240
  C      3.272670    0.591720    3.408300
  C      3.952770    1.379830    2.519060
  C      3.696970    2.781920    2.466650
  C      2.763430    3.372470    3.270510
  C      4.575120    3.404390    1.462280
  O      4.614340    4.558620    1.109380
  C      5.474390    2.302190    0.997570
  C      4.944240    1.048350    1.499220
  C      5.137730   -0.190680    0.956110
  C      5.861730   -0.429690   -0.231440
  N      6.357800   -0.676710   -1.236360
  C      4.533440   -1.365560    1.452120
  N      4.074380   -2.348630    1.825230
  C      6.622560    2.615960    0.347970
  C      7.751390    1.789810    0.126940
  N      8.012890    0.670340    0.742810
  C      9.154430    0.144600    0.317420
  C      9.837010    0.867550   -0.689280
  S      8.975920    2.295270   -1.065040
  N     10.961100    0.323360   -1.141820
  C     11.202450   -0.801870   -0.532100
  S     10.018730   -1.290080    0.695280
  C     12.316750   -1.622770   -0.821480
  N     12.616000   -2.714060   -0.177810
  C     13.703090   -3.278880   -0.694970
  C     14.286310   -2.611130   -1.797030
  S     13.394910   -1.191500   -2.163480
  N     15.364850   -3.182300   -2.323090
  C     15.665710   -4.274350   -1.680460
  S     14.601270   -4.694560   -0.325190
  C     16.754780   -5.109050   -2.021390
  N     17.114560   -6.160440   -1.343000
  C     18.160340   -6.748260   -1.914770
  C     18.647080   -6.142750   -3.097470
  S     17.715160   -4.750690   -3.470020
  N     19.674360   -6.743380   -3.682920
  C     20.042630   -7.803210   -3.017570
  S     19.098190   -8.128770   -1.542750
  C     21.126690   -8.649750   -3.357230
  C     21.783100   -8.710090   -4.542270
  C     23.140820   -9.336930   -4.599660
  O     23.639070  -10.048660   -3.761090
  C     23.734480   -8.842490   -5.853540
  C     25.003860   -9.017390   -6.327570
  C     25.366510   -8.431230   -7.560060
  C     24.403800   -7.661850   -8.277970
  C     24.773500   -7.077000   -9.504840
  C     26.041740   -7.261700   -9.981190
  C     27.002070   -8.014920   -9.290860
  C     26.661100   -8.588060   -8.097690
  F     26.395780   -6.706780  -11.152890
  C     23.096190   -7.498510   -7.764820
  C     22.762940   -8.087640   -6.574860
  C     21.500670   -8.131560   -5.842720
  C     20.264400   -7.905910   -6.379300
  C     19.052240   -8.238700   -5.737740
  N     18.041810   -8.564400   -5.302190
  C     20.055820   -7.419660   -7.687500
  N     19.836700   -7.017430   -8.739390
  H      1.760660   -0.670430    5.238250
  H     -0.398270    2.765710    6.558390
  H      0.858160    4.194560    4.963890
  H      3.458940   -0.467420    3.488980
  H      2.580140    4.434650    3.207810
  H      6.712620    3.641630    0.007320
  H     21.518500   -9.268100   -2.557410
  H     25.722190   -9.598200   -5.768550
  H     24.059130   -6.493980  -10.064780
  H     27.986910   -8.125570   -9.716140
  H     27.383210   -9.172780   -7.548060
  H     22.390760   -6.903460   -8.322820

 Total Charge           Charge          ....    0
 Multiplicity           Mult            ....    1
 Number of Electrons    NEL             ....  488
 Basis Dimension        Dim             .... 1008

ORBITAL ENERGIES
----------------

  NO   OCC          E(Eh)            E(eV)
   0   2.0000     -88.986111     -2421.4352
   1   2.0000     -88.986068     -2421.4340
   2   2.0000     -88.984830     -2421.4003
   3   2.0000     -88.984705     -2421.3969
   4   2.0000     -88.984023     -2421.3784
   5   2.0000     -88.983889     -2421.3747
   6   2.0000     -24.788748      -674.5361
   7   2.0000     -24.788709      -674.5351
   8   2.0000     -19.221957      -523.0561
   9   2.0000     -19.221729      -523.0498
  10   2.0000     -14.442815      -393.0090
  11   2.0000     -14.442113      -392.9899
  12   2.0000     -14.442011      -392.9871
  13   2.0000     -14.441891      -392.9838
  14   2.0000     -14.441848      -392.9827
  15   2.0000     -14.441792      -392.9812
  16   2.0000     -14.420047      -392.3894
  17   2.0000     -14.419633      -392.3782
  18   2.0000     -14.415534      -392.2666
  19   2.0000     -14.415450      -392.2643
  20   2.0000     -10.372886      -282.2606
  21   2.0000     -10.372876      -282.2603
  22   2.0000     -10.372824      -282.2589
  23   2.0000     -10.372736      -282.2565
  24   2.0000     -10.366649      -282.0909
  25   2.0000     -10.366293      -282.0812
  26   2.0000     -10.364238      -282.0253
  27   2.0000     -10.364164      -282.0232
  28   2.0000     -10.362006      -281.9645
  29   2.0000     -10.361700      -281.9562
  30   2.0000     -10.349200      -281.6161
  31   2.0000     -10.349004      -281.6107
  32   2.0000     -10.348881      -281.6074
  33   2.0000     -10.348529      -281.5978
  34   2.0000     -10.346451      -281.5412
  35   2.0000     -10.345973      -281.5282
  36   2.0000     -10.345802      -281.5236
  37   2.0000     -10.345416      -281.5131
  38   2.0000     -10.344134      -281.4782
  39   2.0000     -10.343664      -281.4654
  40   2.0000     -10.326673      -281.0031
  41   2.0000     -10.326498      -280.9983
  42   2.0000     -10.321647      -280.8663
  43   2.0000     -10.321285      -280.8564
  44   2.0000     -10.318643      -280.7845
  45   2.0000     -10.318345      -280.7764
  46   2.0000     -10.311227      -280.5828
  47   2.0000     -10.311068      -280.5784
  48   2.0000     -10.310530      -280.5638
  49   2.0000     -10.310246      -280.5561
  50   2.0000     -10.309953      -280.5481
  51   2.0000     -10.309771      -280.5431
  52   2.0000     -10.304928      -280.4114
  53   2.0000     -10.304828      -280.4086
  54   2.0000     -10.304619      -280.4029
  55   2.0000     -10.304528      -280.4005
  56   2.0000     -10.301357      -280.3142
  57   2.0000     -10.301228      -280.3107
  58   2.0000     -10.301027      -280.3052
  59   2.0000     -10.300955      -280.3032
  60   2.0000     -10.297500      -280.2092
  61   2.0000     -10.297367      -280.2056
  62   2.0000     -10.294863      -280.1375
  63   2.0000     -10.294768      -280.1349
  64   2.0000     -10.291887      -280.0565
  65   2.0000     -10.291783      -280.0537
  66   2.0000      -8.082013      -219.9228
  67   2.0000      -8.081910      -219.9200
  68   2.0000      -8.080320      -219.8767
  69   2.0000      -8.080147      -219.8720
  70   2.0000      -8.079489      -219.8541
  71   2.0000      -8.079386      -219.8513
  72   2.0000      -6.050923      -164.6540
  73   2.0000      -6.050838      -164.6517
  74   2.0000      -6.049488      -164.6149
  75   2.0000      -6.049311      -164.6101
  76   2.0000      -6.048648      -164.5921
  77   2.0000      -6.048559      -164.5897
  78   2.0000      -6.047362      -164.5571
  79   2.0000      -6.047256      -164.5542
  80   2.0000      -6.045740      -164.5129
  81   2.0000      -6.045541      -164.5075
  82   2.0000      -6.044879      -164.4895
  83   2.0000      -6.044800      -164.4874
  84   2.0000      -6.044103      -164.4684
  85   2.0000      -6.044001      -164.4656
  86   2.0000      -6.042072      -164.4131
  87   2.0000      -6.041956      -164.4100
  88   2.0000      -6.041299      -164.3921
  89   2.0000      -6.041137      -164.3877
  90   2.0000      -1.304124       -35.4870
  91   2.0000      -1.304043       -35.4848
  92   2.0000      -1.137749       -30.9597
  93   2.0000      -1.137546       -30.9542
  94   2.0000      -1.117933       -30.4205
  95   2.0000      -1.113777       -30.3074
  96   2.0000      -1.107583       -30.1389
  97   2.0000      -1.079780       -29.3823
  98   2.0000      -1.071271       -29.1508
  99   2.0000      -1.062440       -28.9105
 100   2.0000      -1.021479       -27.7959
 101   2.0000      -1.021224       -27.7889
 102   2.0000      -1.004094       -27.3228
 103   2.0000      -1.003881       -27.3170
 104   2.0000      -0.995997       -27.1025
 105   2.0000      -0.995777       -27.0965
 106   2.0000      -0.980338       -26.6763
 107   2.0000      -0.980176       -26.6720
 108   2.0000      -0.938849       -25.5474
 109   2.0000      -0.937816       -25.5193
 110   2.0000      -0.935455       -25.4550
 111   2.0000      -0.931795       -25.3554
 112   2.0000      -0.929123       -25.2827
 113   2.0000      -0.914005       -24.8713
 114   2.0000      -0.910279       -24.7699
 115   2.0000      -0.902162       -24.5491
 116   2.0000      -0.897132       -24.4122
 117   2.0000      -0.895725       -24.3739
 118   2.0000      -0.891076       -24.2474
 119   2.0000      -0.889806       -24.2129
 120   2.0000      -0.882657       -24.0183
 121   2.0000      -0.881183       -23.9782
 122   2.0000      -0.871336       -23.7103
 123   2.0000      -0.848535       -23.0898
 124   2.0000      -0.838682       -22.8217
 125   2.0000      -0.837874       -22.7997
 126   2.0000      -0.823235       -22.4014
 127   2.0000      -0.813309       -22.1313
 128   2.0000      -0.783949       -21.3323
 129   2.0000      -0.772438       -21.0191
 130   2.0000      -0.765231       -20.8230
 131   2.0000      -0.758609       -20.6428
 132   2.0000      -0.738396       -20.0928
 133   2.0000      -0.728855       -19.8331
 134   2.0000      -0.724414       -19.7123
 135   2.0000      -0.721699       -19.6384
 136   2.0000      -0.712810       -19.3965
 137   2.0000      -0.712512       -19.3884
 138   2.0000      -0.702196       -19.1077
 139   2.0000      -0.700688       -19.0667
 140   2.0000      -0.685952       -18.6657
 141   2.0000      -0.683193       -18.5906
 142   2.0000      -0.682161       -18.5626
 143   2.0000      -0.677450       -18.4343
 144   2.0000      -0.674104       -18.3433
 145   2.0000      -0.665685       -18.1142
 146   2.0000      -0.664912       -18.0932
 147   2.0000      -0.650347       -17.6968
 148   2.0000      -0.641740       -17.4626
 149   2.0000      -0.638650       -17.3786
 150   2.0000      -0.633295       -17.2328
 151   2.0000      -0.632274       -17.2051
 152   2.0000      -0.627723       -17.0812
 153   2.0000      -0.610095       -16.6015
 154   2.0000      -0.607646       -16.5349
 155   2.0000      -0.605261       -16.4700
 156   2.0000      -0.594646       -16.1811
 157   2.0000      -0.588405       -16.0113
 158   2.0000      -0.582008       -15.8372
 159   2.0000      -0.571831       -15.5603
 160   2.0000      -0.570687       -15.5292
 161   2.0000      -0.569492       -15.4967
 162   2.0000      -0.568147       -15.4601
 163   2.0000      -0.565184       -15.3794
 164   2.0000      -0.564501       -15.3609
 165   2.0000      -0.561402       -15.2765
 166   2.0000      -0.561315       -15.2742
 167   2.0000      -0.553728       -15.0677
 168   2.0000      -0.551426       -15.0051
 169   2.0000      -0.551285       -15.0012
 170   2.0000      -0.547002       -14.8847
 171   2.0000      -0.546855       -14.8807
 172   2.0000      -0.540070       -14.6961
 173   2.0000      -0.539837       -14.6897
 174   2.0000      -0.534777       -14.5520
 175   2.0000      -0.534334       -14.5400
 176   2.0000      -0.531584       -14.4651
 177   2.0000      -0.529101       -14.3976
 178   2.0000      -0.527024       -14.3411
 179   2.0000      -0.526845       -14.3362
 180   2.0000      -0.526493       -14.3266
 181   2.0000      -0.524382       -14.2692
 182   2.0000      -0.519581       -14.1385
 183   2.0000      -0.518284       -14.1032
 184   2.0000      -0.511938       -13.9305
 185   2.0000      -0.507020       -13.7967
 186   2.0000      -0.505202       -13.7472
 187   2.0000      -0.502223       -13.6662
 188   2.0000      -0.499011       -13.5788
 189   2.0000      -0.496952       -13.5227
 190   2.0000      -0.492898       -13.4124
 191   2.0000      -0.491051       -13.3622
 192   2.0000      -0.490651       -13.3513
 193   2.0000      -0.486014       -13.2251
 194   2.0000      -0.482584       -13.1318
 195   2.0000      -0.472276       -12.8513
 196   2.0000      -0.472185       -12.8488
 197   2.0000      -0.466181       -12.6854
 198   2.0000      -0.460579       -12.5330
 199   2.0000      -0.460154       -12.5214
 200   2.0000      -0.451899       -12.2968
 201   2.0000      -0.451221       -12.2783
 202   2.0000      -0.445700       -12.1281
 203   2.0000      -0.445445       -12.1212
 204   2.0000      -0.443258       -12.0617
 205   2.0000      -0.441936       -12.0257
 206   2.0000      -0.441415       -12.0115
 207   2.0000      -0.441055       -12.0017
 208   2.0000      -0.440082       -11.9752
 209   2.0000      -0.432823       -11.7777
 210   2.0000      -0.432375       -11.7655
 211   2.0000      -0.431561       -11.7434
 212   2.0000      -0.431225       -11.7342
 213   2.0000      -0.424426       -11.5492
 214   2.0000      -0.423811       -11.5325
 215   2.0000      -0.415044       -11.2939
 216   2.0000      -0.413729       -11.2581
 217   2.0000      -0.410062       -11.1583
 218   2.0000      -0.408772       -11.1233
 219   2.0000      -0.407561       -11.0903
 220   2.0000      -0.404380       -11.0037
 221   2.0000      -0.401176       -10.9165
 222   2.0000      -0.398721       -10.8497
 223   2.0000      -0.392642       -10.6843
 224   2.0000      -0.388258       -10.5650
 225   2.0000      -0.385276       -10.4839
 226   2.0000      -0.384389       -10.4598
 227   2.0000      -0.372842       -10.1455
 228   2.0000      -0.366388        -9.9699
 229   2.0000      -0.365743        -9.9524
 230   2.0000      -0.362090        -9.8530
 231   2.0000      -0.361462        -9.8359
 232   2.0000      -0.345989        -9.4148
 233   2.0000      -0.343393        -9.3442
 234   2.0000      -0.342543        -9.3211
 235   2.0000      -0.339951        -9.2505
 236   2.0000      -0.338162        -9.2018
 237   2.0000      -0.330603        -8.9962
 238   2.0000      -0.317380        -8.6363
 239   2.0000      -0.315748        -8.5919
 240   2.0000      -0.304802        -8.2941
 241   2.0000      -0.301370        -8.2007
 242   2.0000      -0.293269        -7.9803
 243   2.0000      -0.266051        -7.2396
 244   0.0000      -0.113136        -3.0786
 245   0.0000      -0.102967        -2.8019
 246   0.0000      -0.074601        -2.0300
 247   0.0000      -0.061655        -1.6777
 248   0.0000      -0.055723        -1.5163

MULLIKEN ATOMIC CHARGES
-----------------------
   0 C :   -0.096176
   1 C :    0.303023
   2 F :   -0.187783
   3 C :   -0.030919
   4 C :   -0.007893
   5 C :    0.098704
   6 C :    0.101767
   7 C :   -0.084193
   8 C :    0.041353
   9 C :    0.004742
  10 C :   -0.073703
  11 C :    0.135351
  12 O :   -0.136003
  13 C :   -0.101647
  14 C :    0.278315
  15 C :   -0.295294
  16 C :   -0.187708
  17 N :    0.165944
  18 C :   -0.186489
  19 N :    0.159894
  20 C :    0.088339
  21 C :   -0.124883
  22 N :   -0.038699
  23 C :   -0.051131
  24 C :   -0.048412
  25 S :    0.163253
  26 N :   -0.034017
  27 C :   -0.081222
  28 S :    0.203968
  29 C :   -0.094875
  30 N :   -0.029420
  31 C :   -0.064355
  32 C :   -0.063272
  33 S :    0.197903
  34 N :   -0.032692
  35 C :   -0.091546
  36 S :    0.199383
  37 C :   -0.084550
  38 N :   -0.031668
  39 C :   -0.048821
  40 C :   -0.051178
  41 S :    0.201681
  42 N :   -0.040431
  43 C :   -0.124315
  44 S :    0.165724
  45 C :    0.089589
  46 C :   -0.102628
  47 C :    0.137246
  48 O :   -0.135719
  49 C :    0.004194
  50 C :   -0.077274
  51 C :    0.100873
  52 C :    0.104488
  53 C :   -0.099140
  54 C :    0.304379
  55 C :   -0.029504
  56 C :   -0.008922
  57 F :   -0.187800
  58 C :   -0.084598
  59 C :    0.041991
  60 C :    0.278171
  61 C :   -0.293170
  62 C :   -0.186551
  63 N :    0.163077
  64 C :   -0.186854
  65 N :    0.158846
  66 H :   -0.000148
  67 H :    0.005326
  68 H :   -0.006731
  69 H :   -0.001943
  70 H :   -0.008904
  71 H :    0.024599
  72 H :    0.025027
  73 H :   -0.009207
  74 H :   -0.000269
  75 H :    0.004802
  76 H :   -0.007183
  77 H :   -0.002117
Sum of atomic charges:   -0.0000000

LOEWDIN ATOMIC CHARGES
----------------------
   0 C :   -0.041910
   1 C :    0.094415
   2 F :   -0.062407
   3 C :   -0.035865
   4 C :    0.005561
   5 C :   -0.018810
   6 C :    0.005310
   7 C :    0.011139
   8 C :   -0.014928
   9 C :   -0.062336
  10 C :    0.037536
  11 C :    0.083341
  12 O :   -0.136801
  13 C :   -0.057752
  14 C :    0.067178
  15 C :   -0.111864
  16 C :   -0.017293
  17 N :   -0.048944
  18 C :   -0.017291
  19 N :   -0.044716
  20 C :    0.026237
  21 C :   -0.127563
  22 N :   -0.071928
  23 C :   -0.200022
  24 C :   -0.199145
  25 S :    0.448202
  26 N :   -0.096834
  27 C :   -0.140305
  28 S :    0.463970
  29 C :   -0.148315
  30 N :   -0.092925
  31 C :   -0.207439
  32 C :   -0.207614
  33 S :    0.461782
  34 N :   -0.093954
  35 C :   -0.148814
  36 S :    0.461370
  37 C :   -0.139898
  38 N :   -0.095897
  39 C :   -0.198972
  40 C :   -0.200816
  41 S :    0.463511
  42 N :   -0.073023
  43 C :   -0.127935
  44 S :    0.448648
  45 C :    0.026631
  46 C :   -0.056990
  47 C :    0.083498
  48 O :   -0.136601
  49 C :   -0.062298
  50 C :    0.037384
  51 C :   -0.018809
  52 C :    0.005265
  53 C :   -0.041943
  54 C :    0.094390
  55 C :   -0.035874
  56 C :    0.005650
  57 F :   -0.062434
  58 C :    0.011339
  59 C :   -0.015017
  60 C :    0.067607
  61 C :   -0.112243
  62 C :   -0.017198
  63 N :   -0.048888
  64 C :   -0.017468
  65 N :   -0.044976
  66 H :    0.043890
  67 H :    0.042593
  68 H :    0.036406
  69 H :    0.039833
  70 H :    0.040610
  71 H :    0.048310
  72 H :    0.048474
  73 H :    0.040504
  74 H :    0.043826
  75 H :    0.042504
  76 H :    0.036309
  77 H :    0.039836

  Mayer bond orders larger than 0.100000
B(  0-C ,  1-C ) :   1.4424 B(  0-C ,  6-C ) :   1.2041 B(  0-C , 66-H ) :   1.0054
B(  1-C ,  2-F ) :   1.0915 B(  1-C ,  3-C ) :   1.2521 B(  3-C ,  4-C ) :   1.4640
B(  3-C , 67-H ) :   0.9934 B(  4-C ,  5-C ) :   1.2326 B(  4-C , 68-H ) :   0.9965
B(  5-C ,  6-C ) :   1.2498 B(  5-C , 10-C ) :   1.2002 B(  6-C ,  7-C ) :   1.2076
B(  7-C ,  8-C ) :   1.4614 B(  7-C , 69-H ) :   0.9933 B(  8-C ,  9-C ) :   1.2152
B(  8-C , 14-C ) :   0.9993 B(  9-C , 10-C ) :   1.4680 B(  9-C , 11-C ) :   0.9231
B( 10-C , 70-H ) :   1.0138 B( 11-C , 12-O ) :   2.2777 B( 11-C , 13-C ) :   0.9276
B( 13-C , 14-C ) :   1.0220 B( 13-C , 20-C ) :   1.7075 B( 14-C , 15-C ) :   1.6912
B( 15-C , 16-C ) :   1.1593 B( 15-C , 18-C ) :   1.1363 B( 16-C , 17-N ) :   2.9880
B( 18-C , 19-N ) :   2.9858 B( 20-C , 21-C ) :   1.1017 B( 20-C , 71-H ) :   0.9275
B( 21-C , 22-N ) :   1.6188 B( 21-C , 25-S ) :   1.0760 B( 22-N , 23-C ) :   1.4167
B( 22-N , 25-S ) :   0.1143 B( 23-C , 24-C ) :   1.2564 B( 23-C , 28-S ) :   1.1003
B( 24-C , 25-S ) :   1.1290 B( 24-C , 26-N ) :   1.4203 B( 26-N , 27-C ) :   1.7156
B( 26-N , 28-S ) :   0.1070 B( 27-C , 28-S ) :   1.1034 B( 27-C , 29-C ) :   1.1346
B( 29-C , 30-N ) :   1.7192 B( 29-C , 33-S ) :   1.1016 B( 30-N , 31-C ) :   1.4202
B( 30-N , 33-S ) :   0.1091 B( 31-C , 32-C ) :   1.2743 B( 31-C , 36-S ) :   1.1045
B( 32-C , 33-S ) :   1.1048 B( 32-C , 34-N ) :   1.4217 B( 34-N , 35-C ) :   1.7165
B( 34-N , 36-S ) :   0.1089 B( 35-C , 36-S ) :   1.1007 B( 35-C , 37-C ) :   1.1348
B( 37-C , 38-N ) :   1.7171 B( 37-C , 41-S ) :   1.1043 B( 38-N , 39-C ) :   1.4191
B( 38-N , 41-S ) :   0.1072 B( 39-C , 40-C ) :   1.2558 B( 39-C , 44-S ) :   1.1284
B( 40-C , 41-S ) :   1.0996 B( 40-C , 42-N ) :   1.4186 B( 42-N , 43-C ) :   1.6179
B( 42-N , 44-S ) :   0.1142 B( 43-C , 44-S ) :   1.0770 B( 43-C , 45-C ) :   1.1012
B( 45-C , 46-C ) :   1.7077 B( 45-C , 72-H ) :   0.9302 B( 46-C , 47-C ) :   0.9271
B( 46-C , 60-C ) :   1.0211 B( 47-C , 48-O ) :   2.2796 B( 47-C , 49-C ) :   0.9226
B( 49-C , 50-C ) :   1.4659 B( 49-C , 59-C ) :   1.2151 B( 50-C , 51-C ) :   1.1979
B( 50-C , 73-H ) :   1.0150 B( 51-C , 52-C ) :   1.2509 B( 51-C , 56-C ) :   1.2324
B( 52-C , 53-C ) :   1.2022 B( 52-C , 58-C ) :   1.2066 B( 53-C , 54-C ) :   1.4415
B( 53-C , 74-H ) :   1.0066 B( 54-C , 55-C ) :   1.2519 B( 54-C , 57-F ) :   1.0912
B( 55-C , 56-C ) :   1.4630 B( 55-C , 75-H ) :   0.9932 B( 56-C , 76-H ) :   0.9973
B( 58-C , 59-C ) :   1.4591 B( 58-C , 77-H ) :   0.9941 B( 59-C , 60-C ) :   0.9986
B( 60-C , 61-C ) :   1.6910 B( 61-C , 62-C ) :   1.1574 B( 61-C , 64-C ) :   1.1365
B( 62-C , 63-N ) :   2.9886 B( 64-C , 65-N ) :   2.9860

-----------------------------------------------------------------------------
         ABSORPTION SPECTRUM VIA TRANSITION ELECTRIC DIPOLE MOMENTS
-----------------------------------------------------------------------------
State   Energy  Wavelength   fosc         T2         TX        TY        TZ
        (cm-1)    (nm)                  (au**2)     (au)      (au)      (au)
-----------------------------------------------------------------------------
   0   18332.1    545.5   2.299423450  41.29348  -5.26252   2.69432   2.51794
   1   21237.7    470.9   0.090546468   1.40359  -0.70747  -0.54847  -0.77606
   2   25404.6    393.6   0.017702914   0.22941  -0.34979  -0.23229  -0.23043
   3   25546.4    391.4   0.085714776   1.10459   0.84128  -0.42563  -0.46443
   4   26613.0    375.8   0.461400264   5.70767  -1.66051   1.71489   0.09759
   5   26927.7    371.4   0.026164479   0.31988  -0.45820  -0.17024  -0.28452
   6   27057.8    369.6   0.125747713   1.52997   0.91800  -0.77803  -0.28619
   7   28098.9    355.9   0.004591252   0.05379  -0.18353  -0.03377  -0.13772
   8   28849.7    346.6   0.005616866   0.06410   0.24621   0.05329  -0.02520
   9   28877.3    346.3   0.069687845   0.79447   0.70842  -0.22329  -0.49270
  10   30822.6    324.4   0.337681638   3.60673   1.49362  -0.18143  -1.15884
  11   30915.1    323.5   0.031541929   0.33589   0.25418   0.40386   0.32890
  12   31792.0    314.5   0.060112496   0.62248   0.40997   0.30501  -0.60114
  13   32070.6    311.8   0.000805843   0.00827   0.01086   0.06298   0.06471
  14   32379.1    308.8   0.335210433   3.40823   1.51752  -0.49575  -0.92715
  15   32928.5    303.7   0.021117939   0.21113  -0.25102  -0.15750   0.35116
  16   33330.4    300.0   0.002175170   0.02148   0.12158   0.07800  -0.02491
  17   33921.1    294.8   0.856124711   8.30887   2.24848  -0.34790  -1.76980
  18   34027.8    293.9   0.089315711   0.86411  -0.64076  -0.54427  -0.39663
  19   34264.7    291.8   0.044367798   0.42628  -0.34611  -0.18591   0.52147
  20   34542.1    289.5   0.000247250   0.00236  -0.03645  -0.02950   0.01254
  21   35277.8    283.5   0.003084268   0.02878   0.07141   0.09286  -0.12272
  22   35330.8    283.0   0.135946085   1.26674   0.18483   0.66872  -0.88622
  23   35384.5    282.6   0.031091768   0.28927   0.23275   0.43063  -0.22284
  24   35499.7    281.7   0.062534072   0.57992   0.38221   0.30397  -0.58433
  25   36123.4    276.8   0.001796890   0.01638  -0.07882  -0.07418   0.06827
  26   36192.4    276.3   0.006889814   0.06267   0.13003   0.10812   0.18459
  27   37170.3    269.0   0.224738617   1.99048  -1.02145  -0.11590   0.96628
  28   37346.1    267.8   0.010532169   0.09284  -0.23441  -0.15605  -0.11638
  29   37536.0    266.4   0.327150955   2.86930  -1.28474   1.07952   0.23101
  30   38208.9    261.7   0.079844326   0.68795  -0.45618  -0.48666  -0.49296
  31   39091.4    255.8   0.004710636   0.03967   0.14491   0.07602   0.11354
  32   39379.2    253.9   0.034855009   0.29139   0.33927  -0.41606  -0.05641
  33   39684.9    252.0   0.119344841   0.99004   0.22321  -0.77061   0.58853
  34   39797.3    251.3   0.082432181   0.68190   0.01442  -0.71603   0.41108
  35   39860.0    250.9   0.036556303   0.30193  -0.16558   0.52177   0.04754
  36   39910.3    250.6   0.054544164   0.44992   0.42919  -0.37506   0.35362
  37   40029.6    249.8   0.039019401   0.32090   0.38007   0.25834   0.33123

FINAL SINGLE POINT ENERGY     -5042.850418012112

DIPOLE MOMENT
-------------
                                X             Y             Z
Electronic contribution:     -0.20507      -1.11068       0.39720
Nuclear contribution   :      1.75880       2.71282       1.32161
                        -----------------------------------------
Total Dipole Moment    :      1.55373       1.60214       1.71881
                        -----------------------------------------
Magnitude (a.u.)       :      2.81696
Magnitude (Debye)      :      7.16014

Rotational constants in cm-1:     0.003604     0.000182     0.000177
Rotational constants in MHz :   108.050369     5.470317     5.308703

                             ****ORCA TERMINATED NORMALLY****
TOTAL RUN TIME: 0 days 0 hours 9 minutes 34 seconds 299 msec
