                         Program Version 4.2.0 -  RELEASE  -
|  1> # ORCA input file
|  2> # SCF done       -201.876821268585          0.000426525154
|  3> ! CAM-B3LYP def2-SVP def2/J RIJCOSX Grid4 TightSCF
|  4> %maxcore 5000
|  5> %tddft
|  6>     Mode sTDDFT
|  7>     Ethresh 5.0
|  8>     maxcore 5000
|  9> end
| 10>
| 11> %pal
| 12>   nprocs 6
| 13>   end
| 14> * xyz 0 1
| 15>    C       -3.29990         4.62249        -2.97181
| 16>    C       -2.37785         3.60995        -3.01937
| 17>    C       -1.35482         3.51565        -3.98529
| 18>    N       -0.49870         3.39039        -4.73970
| 19>    C       -2.34546         2.51153        -2.13478
| 20>    N       -2.27237         1.58083        -1.46615
| 21>    C       -3.42652         5.70904        -3.93375
| 22>    C       -4.58928         6.45883        -3.62871
| 23>    C       -4.98695         7.54320        -4.37222
| 24>    C       -4.20138         7.90478        -5.47163
| 25>    C       -3.03714         7.15466        -5.76443
| 26>    C       -2.63355         6.05950        -5.01175
| 27>    S       -2.20935         7.77819        -7.15963
| 28>    C       -3.42402         9.01737        -7.33070
| 29>    C       -4.39885         8.97034        -6.39194
| 30>   Br       -3.28982        10.25645        -8.73212
| 31>    C       -5.23941         5.89911        -2.42530
| 32>    O       -6.20909         6.34638        -1.85393
| 33>    C       -4.38800         4.74805        -2.01865
| 34>    C       -4.54474         4.05735        -0.85924
| 35>    C       -5.67891         4.16362         0.01769
| 36>    C       -5.44594         4.35511         1.35576
| 37>    S       -6.83872         4.73239         2.26621
| 38>    C       -7.82410         4.54595         0.84359
| 39>    C       -7.08892         4.19748        -0.29755
| 40>    C       -7.78386         3.87738        -1.48996
| 41>    C       -7.04893         3.19846        -2.61690
| 42>    C       -6.47267         1.85255        -2.17352
| 43>    C       -9.15525         4.09755        -1.56737
| 44>    C       -9.91438         3.87721        -2.84688
| 45>    C      -10.42913         2.43879        -2.94547
| 46>    C       -9.88357         4.51219        -0.42667
| 47>    C      -11.29065         4.80289        -0.25500
| 48>    C      -11.57399         5.17707         1.02630
| 49>    S      -10.22948         5.17942         2.09395
| 50>    C       -9.19726         4.70317         0.78351
| 51>    C      -12.36157         4.75124        -1.23412
| 52>    C      -13.30112         5.71449        -1.30140
| 53>    C      -14.37338         5.71284        -2.23904
| 54>    O      -15.25251         6.75510        -2.21759
| 55>    C      -14.73046         4.86278        -3.26529
| 56>    C      -14.38369         3.62849        -3.96514
| 57>    O      -13.49738         2.82817        -3.77836
| 58>    N      -15.33651         3.53760        -4.97138
| 59>    C      -16.26958         4.58080        -5.00303
| 60>    O      -17.16096         4.66962        -5.81712
| 61>    C      -15.87316         5.42743        -3.89344
| 62>    C      -16.17146         6.60251        -3.21602
| 63>    C      -17.19422         7.53556        -3.45784
| 64>    C      -17.41285         8.66426        -2.71184
| 65>    C      -18.38289         9.65041        -2.93946
| 66>    C      -19.24784         9.77474        -4.00961
| 67>    C      -20.20225        10.80954        -4.17899
| 68>    C      -20.91724        10.74121        -5.34033
| 69>    C      -20.56632         9.64834        -6.15574
| 70>    S      -19.30296         8.70748        -5.39172
| 71>    C      -21.04096         9.24155        -7.38913
| 72>    C      -22.04756         9.80354        -8.20508
| 73>    C      -22.23253         9.11812        -9.36421
| 74>    C      -21.38614         7.98163        -9.53521
| 75>    S      -20.35613         7.81198        -8.12868
| 76>    C      -21.40216         7.21432       -10.66783
| 77>    C      -20.63606         6.07852       -11.05827
| 78>    C      -20.79147         5.57863       -12.36910
| 79>    O      -21.66404         6.27857       -13.14198
| 80>    C      -22.28889         5.71934       -14.27786
| 81>    C      -20.03250         4.46131       -12.83449
| 82>    O      -20.20802         4.11143       -14.14512
| 83>    C      -19.46446         3.03415       -14.66124
| 84>    C      -19.15939         3.79790       -12.00345
| 85>    C      -18.99984         4.24894       -10.68795
| 86>    C      -19.72201         5.39257       -10.21499
| 87>    N      -19.42641         5.65871        -8.94882
| 88>    S      -18.34727         4.59447        -8.40001
| 89>    N      -18.20352         3.73128        -9.75103
| 90>    H       -5.87875         8.09283        -4.11482
| 91>    H       -1.73605         5.52314        -5.27090
| 92>    H       -5.22375         9.65779        -6.34813
| 93>    H       -3.72224         3.45638        -0.49104
| 94>    H       -4.48444         4.38016         1.83297
| 95>    H       -6.24475         3.83099        -2.99600
| 96>    H       -7.72137         3.01273        -3.44941
| 97>    H       -5.69520         1.97387        -1.42321
| 98>    H       -6.03941         1.33493        -3.02680
| 99>    H       -7.25783         1.22881        -1.75217
|100>    H       -9.29169         4.11142        -3.71092
|101>    H      -10.75388         4.57142        -2.87526
|102>    H       -9.61183         1.74397        -3.12308
|103>    H      -11.15008         2.34847        -3.75260
|104>    H      -10.91991         2.14707        -2.01994
|105>    H      -12.54345         5.41276         1.42028
|106>    H      -12.43308         3.89797        -1.89167
|107>    H      -13.25575         6.58091        -0.65606
|108>    H      -15.35599         2.77492        -5.63284
|109>    H      -17.81921         7.27811        -4.29664
|110>    H      -16.77433         8.81492        -1.85042
|111>    H      -18.45605        10.43491        -2.19662
|112>    H      -20.33085        11.57653        -3.43511
|113>    H      -21.67689        11.44665        -5.62736
|114>    H      -22.59820        10.68323        -7.92127
|115>    H      -22.94884         9.38984       -10.12032
|116>    H      -22.10845         7.53918       -11.42133
|117>    H      -22.65847         4.71126       -14.08211
|118>    H      -21.62022         5.70008       -15.14006
|119>    H      -23.13125         6.37981       -14.48782
|120>    H      -18.38863         3.22428       -14.60256
|121>    H      -19.76087         2.95364       -15.70604
|122>    H      -19.69938         2.09860       -14.14465
|123>    H      -18.58056         2.95238       -12.33051
|124> *
|125>
|126>                          ****END OF INPUT****

CARTESIAN COORDINATES (ANGSTROEM)
---------------------------------
  C     -3.299900    4.622490   -2.971810
  C     -2.377850    3.609950   -3.019370
  C     -1.354820    3.515650   -3.985290
  N     -0.498700    3.390390   -4.739700
  C     -2.345460    2.511530   -2.134780
  N     -2.272370    1.580830   -1.466150
  C     -3.426520    5.709040   -3.933750
  C     -4.589280    6.458830   -3.628710
  C     -4.986950    7.543200   -4.372220
  C     -4.201380    7.904780   -5.471630
  C     -3.037140    7.154660   -5.764430
  C     -2.633550    6.059500   -5.011750
  S     -2.209350    7.778190   -7.159630
  C     -3.424020    9.017370   -7.330700
  C     -4.398850    8.970340   -6.391940
  Br    -3.289820   10.256450   -8.732120
  C     -5.239410    5.899110   -2.425300
  O     -6.209090    6.346380   -1.853930
  C     -4.388000    4.748050   -2.018650
  C     -4.544740    4.057350   -0.859240
  C     -5.678910    4.163620    0.017690
  C     -5.445940    4.355110    1.355760
  S     -6.838720    4.732390    2.266210
  C     -7.824100    4.545950    0.843590
  C     -7.088920    4.197480   -0.297550
  C     -7.783860    3.877380   -1.489960
  C     -7.048930    3.198460   -2.616900
  C     -6.472670    1.852550   -2.173520
  C     -9.155250    4.097550   -1.567370
  C     -9.914380    3.877210   -2.846880
  C    -10.429130    2.438790   -2.945470
  C     -9.883570    4.512190   -0.426670
  C    -11.290650    4.802890   -0.255000
  C    -11.573990    5.177070    1.026300
  S    -10.229480    5.179420    2.093950
  C     -9.197260    4.703170    0.783510
  C    -12.361570    4.751240   -1.234120
  C    -13.301120    5.714490   -1.301400
  C    -14.373380    5.712840   -2.239040
  O    -15.252510    6.755100   -2.217590
  C    -14.730460    4.862780   -3.265290
  C    -14.383690    3.628490   -3.965140
  O    -13.497380    2.828170   -3.778360
  N    -15.336510    3.537600   -4.971380
  C    -16.269580    4.580800   -5.003030
  O    -17.160960    4.669620   -5.817120
  C    -15.873160    5.427430   -3.893440
  C    -16.171460    6.602510   -3.216020
  C    -17.194220    7.535560   -3.457840
  C    -17.412850    8.664260   -2.711840
  C    -18.382890    9.650410   -2.939460
  C    -19.247840    9.774740   -4.009610
  C    -20.202250   10.809540   -4.178990
  C    -20.917240   10.741210   -5.340330
  C    -20.566320    9.648340   -6.155740
  S    -19.302960    8.707480   -5.391720
  C    -21.040960    9.241550   -7.389130
  C    -22.047560    9.803540   -8.205080
  C    -22.232530    9.118120   -9.364210
  C    -21.386140    7.981630   -9.535210
  S    -20.356130    7.811980   -8.128680
  C    -21.402160    7.214320  -10.667830
  C    -20.636060    6.078520  -11.058270
  C    -20.791470    5.578630  -12.369100
  O    -21.664040    6.278570  -13.141980
  C    -22.288890    5.719340  -14.277860
  C    -20.032500    4.461310  -12.834490
  O    -20.208020    4.111430  -14.145120
  C    -19.464460    3.034150  -14.661240
  C    -19.159390    3.797900  -12.003450
  C    -18.999840    4.248940  -10.687950
  C    -19.722010    5.392570  -10.214990
  N    -19.426410    5.658710   -8.948820
  S    -18.347270    4.594470   -8.400010
  N    -18.203520    3.731280   -9.751030
  H     -5.878750    8.092830   -4.114820
  H     -1.736050    5.523140   -5.270900
  H     -5.223750    9.657790   -6.348130
  H     -3.722240    3.456380   -0.491040
  H     -4.484440    4.380160    1.832970
  H     -6.244750    3.830990   -2.996000
  H     -7.721370    3.012730   -3.449410
  H     -5.695200    1.973870   -1.423210
  H     -6.039410    1.334930   -3.026800
  H     -7.257830    1.228810   -1.752170
  H     -9.291690    4.111420   -3.710920
  H    -10.753880    4.571420   -2.875260
  H     -9.611830    1.743970   -3.123080
  H    -11.150080    2.348470   -3.752600
  H    -10.919910    2.147070   -2.019940
  H    -12.543450    5.412760    1.420280
  H    -12.433080    3.897970   -1.891670
  H    -13.255750    6.580910   -0.656060
  H    -15.355990    2.774920   -5.632840
  H    -17.819210    7.278110   -4.296640
  H    -16.774330    8.814920   -1.850420
  H    -18.456050   10.434910   -2.196620
  H    -20.330850   11.576530   -3.435110
  H    -21.676890   11.446650   -5.627360
  H    -22.598200   10.683230   -7.921270
  H    -22.948840    9.389840  -10.120320
  H    -22.108450    7.539180  -11.421330
  H    -22.658470    4.711260  -14.082110
  H    -21.620220    5.700080  -15.140060
  H    -23.131250    6.379810  -14.487820
  H    -18.388630    3.224280  -14.602560
  H    -19.760870    2.953640  -15.706040
  H    -19.699380    2.098600  -14.144650
  H    -18.580560    2.952380  -12.330510

 Total Charge           Charge          ....    0
 Multiplicity           Mult            ....    1
 Number of Electrons    NEL             ....  590
 Basis Dimension        Dim             .... 1262

ORBITAL ENERGIES
----------------

  NO   OCC          E(Eh)            E(eV)
   0   2.0000    -482.885071    -13139.9708
   1   2.0000     -88.999217     -2421.7918
   2   2.0000     -88.974738     -2421.1257
   3   2.0000     -88.959219     -2420.7034
   4   2.0000     -88.948717     -2420.4176
   5   2.0000     -88.936790     -2420.0931
   6   2.0000     -88.930212     -2419.9141
   7   2.0000     -62.562774     -1702.4196
   8   2.0000     -56.396722     -1534.6328
   9   2.0000     -56.394007     -1534.5589
  10   2.0000     -56.393977     -1534.5581
  11   2.0000     -19.292328      -524.9709
  12   2.0000     -19.259693      -524.0829
  13   2.0000     -19.251871      -523.8700
  14   2.0000     -19.212470      -522.7979
  15   2.0000     -19.200861      -522.4820
  16   2.0000     -19.197166      -522.3814
  17   2.0000     -14.442580      -393.0026
  18   2.0000     -14.418029      -392.3345
  19   2.0000     -14.416164      -392.2838
  20   2.0000     -14.414417      -392.2362
  21   2.0000     -14.414337      -392.2341
  22   2.0000     -10.388310      -282.6803
  23   2.0000     -10.385642      -282.6077
  24   2.0000     -10.363582      -282.0074
  25   2.0000     -10.358400      -281.8664
  26   2.0000     -10.350409      -281.6489
  27   2.0000     -10.348834      -281.6061
  28   2.0000     -10.345701      -281.5208
  29   2.0000     -10.343138      -281.4511
  30   2.0000     -10.341324      -281.4017
  31   2.0000     -10.340081      -281.3679
  32   2.0000     -10.333608      -281.1918
  33   2.0000     -10.324658      -280.9482
  34   2.0000     -10.319895      -280.8186
  35   2.0000     -10.317119      -280.7431
  36   2.0000     -10.317036      -280.7408
  37   2.0000     -10.315992      -280.7124
  38   2.0000     -10.309436      -280.5340
  39   2.0000     -10.308942      -280.5206
  40   2.0000     -10.307028      -280.4685
  41   2.0000     -10.306836      -280.4633
  42   2.0000     -10.306679      -280.4590
  43   2.0000     -10.304881      -280.4101
  44   2.0000     -10.300991      -280.3042
  45   2.0000     -10.300967      -280.3036
  46   2.0000     -10.299365      -280.2600
  47   2.0000     -10.297486      -280.2089
  48   2.0000     -10.296254      -280.1753
  49   2.0000     -10.295787      -280.1626
  50   2.0000     -10.295064      -280.1429
  51   2.0000     -10.294998      -280.1411
  52   2.0000     -10.294920      -280.1390
  53   2.0000     -10.291080      -280.0345
  54   2.0000     -10.291050      -280.0337
  55   2.0000     -10.290599      -280.0214
  56   2.0000     -10.287409      -279.9346
  57   2.0000     -10.281638      -279.7776
  58   2.0000     -10.281189      -279.7654
  59   2.0000     -10.280576      -279.7487
  60   2.0000     -10.279386      -279.7163
  61   2.0000     -10.278892      -279.7029
  62   2.0000     -10.278113      -279.6817
  63   2.0000     -10.277988      -279.6783
  64   2.0000     -10.277448      -279.6636
  65   2.0000     -10.277154      -279.6556
  66   2.0000     -10.274158      -279.5740
  67   2.0000     -10.274067      -279.5716
  68   2.0000     -10.273168      -279.5471
  69   2.0000     -10.272330      -279.5243
  70   2.0000     -10.268920      -279.4315
  71   2.0000     -10.268532      -279.4210
  72   2.0000     -10.267924      -279.4044
  73   2.0000     -10.264224      -279.3037
  74   2.0000     -10.263477      -279.2834
  75   2.0000     -10.257127      -279.1106
  76   2.0000     -10.252135      -278.9748
  77   2.0000     -10.247694      -278.8539
  78   2.0000     -10.237396      -278.5737
  79   2.0000      -8.792203      -239.2480
  80   2.0000      -8.090541      -220.1548
  81   2.0000      -8.070716      -219.6154
  82   2.0000      -8.055363      -219.1976
  83   2.0000      -8.045017      -218.9160
  84   2.0000      -8.032530      -218.5763
  85   2.0000      -8.024874      -218.3679
  86   2.0000      -6.628479      -180.3701
  87   2.0000      -6.613957      -179.9749
  88   2.0000      -6.613739      -179.9690
  89   2.0000      -6.061759      -164.9488
  90   2.0000      -6.054162      -164.7421
  91   2.0000      -6.052529      -164.6977
  92   2.0000      -6.040398      -164.3676
  93   2.0000      -6.036141      -164.2517
  94   2.0000      -6.031939      -164.1374
  95   2.0000      -6.024759      -163.9420
  96   2.0000      -6.020525      -163.8268
  97   2.0000      -6.017229      -163.7371
  98   2.0000      -6.014462      -163.6618
  99   2.0000      -6.010308      -163.5488
 100   2.0000      -6.006719      -163.4511
 101   2.0000      -6.002152      -163.3269
 102   2.0000      -5.998029      -163.2147
 103   2.0000      -5.994855      -163.1283
 104   2.0000      -5.993795      -163.0995
 105   2.0000      -5.990369      -163.0062
 106   2.0000      -5.985607      -162.8767
 107   2.0000      -2.744393       -74.6787
 108   2.0000      -2.740261       -74.5663
 109   2.0000      -2.740112       -74.5622
 110   2.0000      -2.728557       -74.2478
 111   2.0000      -2.728550       -74.2476
 112   2.0000      -1.206379       -32.8272
 113   2.0000      -1.169960       -31.8362
 114   2.0000      -1.146402       -31.1952
 115   2.0000      -1.142058       -31.0770
 116   2.0000      -1.127716       -30.6867
 117   2.0000      -1.120683       -30.4953
 118   2.0000      -1.103794       -30.0358
 119   2.0000      -1.028975       -27.9998
 120   2.0000      -1.021765       -27.8036
 121   2.0000      -1.012369       -27.5480
 122   2.0000      -1.002114       -27.2689
 123   2.0000      -0.993016       -27.0213
 124   2.0000      -0.988119       -26.8881
 125   2.0000      -0.986091       -26.8329
 126   2.0000      -0.973273       -26.4841
 127   2.0000      -0.966973       -26.3127
 128   2.0000      -0.956309       -26.0225
 129   2.0000      -0.947817       -25.7914
 130   2.0000      -0.941654       -25.6237
 131   2.0000      -0.921106       -25.0646
 132   2.0000      -0.917090       -24.9553
 133   2.0000      -0.907471       -24.6935
 134   2.0000      -0.907348       -24.6902
 135   2.0000      -0.904009       -24.5993
 136   2.0000      -0.893774       -24.3208
 137   2.0000      -0.884876       -24.0787
 138   2.0000      -0.882462       -24.0130
 139   2.0000      -0.871649       -23.7188
 140   2.0000      -0.866430       -23.5767
 141   2.0000      -0.856968       -23.3193
 142   2.0000      -0.855200       -23.2712
 143   2.0000      -0.849855       -23.1257
 144   2.0000      -0.843082       -22.9414
 145   2.0000      -0.833326       -22.6759
 146   2.0000      -0.828752       -22.5515
 147   2.0000      -0.825906       -22.4740
 148   2.0000      -0.817233       -22.2380
 149   2.0000      -0.811200       -22.0739
 150   2.0000      -0.805758       -21.9258
 151   2.0000      -0.801898       -21.8208
 152   2.0000      -0.791429       -21.5359
 153   2.0000      -0.783924       -21.3317
 154   2.0000      -0.777662       -21.1613
 155   2.0000      -0.764684       -20.8081
 156   2.0000      -0.761583       -20.7237
 157   2.0000      -0.754031       -20.5182
 158   2.0000      -0.751461       -20.4483
 159   2.0000      -0.749027       -20.3821
 160   2.0000      -0.734293       -19.9811
 161   2.0000      -0.711048       -19.3486
 162   2.0000      -0.709845       -19.3159
 163   2.0000      -0.705085       -19.1863
 164   2.0000      -0.698081       -18.9958
 165   2.0000      -0.694898       -18.9091
 166   2.0000      -0.691011       -18.8034
 167   2.0000      -0.688055       -18.7229
 168   2.0000      -0.686259       -18.6741
 169   2.0000      -0.682612       -18.5748
 170   2.0000      -0.673711       -18.3326
 171   2.0000      -0.671594       -18.2750
 172   2.0000      -0.661700       -18.0058
 173   2.0000      -0.658552       -17.9201
 174   2.0000      -0.656116       -17.8538
 175   2.0000      -0.642607       -17.4862
 176   2.0000      -0.629559       -17.1312
 177   2.0000      -0.627327       -17.0704
 178   2.0000      -0.622584       -16.9414
 179   2.0000      -0.621052       -16.8997
 180   2.0000      -0.615028       -16.7358
 181   2.0000      -0.612802       -16.6752
 182   2.0000      -0.610622       -16.6159
 183   2.0000      -0.608391       -16.5552
 184   2.0000      -0.603410       -16.4196
 185   2.0000      -0.600404       -16.3378
 186   2.0000      -0.596212       -16.2237
 187   2.0000      -0.591438       -16.0938
 188   2.0000      -0.586095       -15.9485
 189   2.0000      -0.583598       -15.8805
 190   2.0000      -0.582411       -15.8482
 191   2.0000      -0.573085       -15.5944
 192   2.0000      -0.567474       -15.4418
 193   2.0000      -0.566811       -15.4237
 194   2.0000      -0.563887       -15.3441
 195   2.0000      -0.554358       -15.0849
 196   2.0000      -0.553615       -15.0646
 197   2.0000      -0.548411       -14.9230
 198   2.0000      -0.547951       -14.9105
 199   2.0000      -0.546301       -14.8656
 200   2.0000      -0.545066       -14.8320
 201   2.0000      -0.541644       -14.7389
 202   2.0000      -0.539021       -14.6675
 203   2.0000      -0.535651       -14.5758
 204   2.0000      -0.529622       -14.4117
 205   2.0000      -0.528474       -14.3805
 206   2.0000      -0.527318       -14.3490
 207   2.0000      -0.526823       -14.3356
 208   2.0000      -0.525052       -14.2874
 209   2.0000      -0.524277       -14.2663
 210   2.0000      -0.520865       -14.1735
 211   2.0000      -0.519183       -14.1277
 212   2.0000      -0.513170       -13.9641
 213   2.0000      -0.510273       -13.8852
 214   2.0000      -0.509144       -13.8545
 215   2.0000      -0.507233       -13.8025
 216   2.0000      -0.506763       -13.7897
 217   2.0000      -0.502688       -13.6788
 218   2.0000      -0.498475       -13.5642
 219   2.0000      -0.496628       -13.5139
 220   2.0000      -0.495318       -13.4783
 221   2.0000      -0.491671       -13.3790
 222   2.0000      -0.489448       -13.3186
 223   2.0000      -0.488118       -13.2824
 224   2.0000      -0.487386       -13.2624
 225   2.0000      -0.485400       -13.2084
 226   2.0000      -0.482192       -13.1211
 227   2.0000      -0.481430       -13.1004
 228   2.0000      -0.478536       -13.0216
 229   2.0000      -0.475648       -12.9430
 230   2.0000      -0.473756       -12.8916
 231   2.0000      -0.471148       -12.8206
 232   2.0000      -0.467420       -12.7191
 233   2.0000      -0.464823       -12.6485
 234   2.0000      -0.462335       -12.5808
 235   2.0000      -0.457935       -12.4611
 236   2.0000      -0.455916       -12.4061
 237   2.0000      -0.453781       -12.3480
 238   2.0000      -0.452393       -12.3102
 239   2.0000      -0.449525       -12.2322
 240   2.0000      -0.448312       -12.1992
 241   2.0000      -0.447191       -12.1687
 242   2.0000      -0.445996       -12.1362
 243   2.0000      -0.442535       -12.0420
 244   2.0000      -0.441748       -12.0206
 245   2.0000      -0.440014       -11.9734
 246   2.0000      -0.439761       -11.9665
 247   2.0000      -0.437935       -11.9168
 248   2.0000      -0.435257       -11.8439
 249   2.0000      -0.432757       -11.7759
 250   2.0000      -0.430194       -11.7062
 251   2.0000      -0.427867       -11.6429
 252   2.0000      -0.426196       -11.5974
 253   2.0000      -0.422767       -11.5041
 254   2.0000      -0.422574       -11.4988
 255   2.0000      -0.421143       -11.4599
 256   2.0000      -0.416692       -11.3388
 257   2.0000      -0.414802       -11.2873
 258   2.0000      -0.413325       -11.2471
 259   2.0000      -0.411552       -11.1989
 260   2.0000      -0.407950       -11.1009
 261   2.0000      -0.404052       -10.9948
 262   2.0000      -0.403034       -10.9671
 263   2.0000      -0.399334       -10.8664
 264   2.0000      -0.391949       -10.6655
 265   2.0000      -0.387666       -10.5489
 266   2.0000      -0.387028       -10.5316
 267   2.0000      -0.384706       -10.4684
 268   2.0000      -0.381846       -10.3906
 269   2.0000      -0.378767       -10.3068
 270   2.0000      -0.374758       -10.1977
 271   2.0000      -0.373934       -10.1753
 272   2.0000      -0.372547       -10.1375
 273   2.0000      -0.370954       -10.0942
 274   2.0000      -0.365238        -9.9386
 275   2.0000      -0.357730        -9.7343
 276   2.0000      -0.355502        -9.6737
 277   2.0000      -0.351604        -9.5676
 278   2.0000      -0.346905        -9.4398
 279   2.0000      -0.337359        -9.1800
 280   2.0000      -0.335153        -9.1200
 281   2.0000      -0.331830        -9.0296
 282   2.0000      -0.328530        -8.9398
 283   2.0000      -0.324165        -8.8210
 284   2.0000      -0.316292        -8.6067
 285   2.0000      -0.314786        -8.5658
 286   2.0000      -0.310555        -8.4506
 287   2.0000      -0.302385        -8.2283
 288   2.0000      -0.292087        -7.9481
 289   2.0000      -0.289388        -7.8747
 290   2.0000      -0.287881        -7.8336
 291   2.0000      -0.267905        -7.2901
 292   2.0000      -0.265975        -7.2375
 293   2.0000      -0.246914        -6.7189
 294   2.0000      -0.200278        -5.4498
 295   0.0000      -0.084631        -2.3029
 296   0.0000      -0.082333        -2.2404
 297   0.0000      -0.054075        -1.4715
 298   0.0000      -0.037534        -1.0214
 299   0.0000      -0.033815        -0.9201

MULLIKEN ATOMIC CHARGES
-----------------------
   0 C :    0.318386
   1 C :   -0.348713
   2 C :   -0.185828
   3 N :    0.152474
   4 C :   -0.198774
   5 N :    0.164483
   6 C :    0.017997
   7 C :   -0.017565
   8 C :   -0.069074
   9 C :    0.117968
  10 C :   -0.088972
  11 C :   -0.023385
  12 S :    0.185639
  13 C :   -0.123766
  14 C :    0.038338
  15 Br:    0.024293
  16 C :    0.131857
  17 O :   -0.127541
  18 C :   -0.097789
  19 C :   -0.083723
  20 C :    0.037148
  21 C :   -0.082019
  22 S :    0.151452
  23 C :   -0.164116
  24 C :    0.181538
  25 C :   -0.105399
  26 C :    0.062394
  27 C :    0.011568
  28 C :   -0.127439
  29 C :    0.005664
  30 C :    0.048011
  31 C :    0.122697
  32 C :    0.060152
  33 C :   -0.117182
  34 S :    0.124657
  35 C :   -0.139965
  36 C :   -0.026360
  37 C :   -0.015957
  38 C :    0.119654
  39 O :   -0.215994
  40 C :   -0.071157
  41 C :    0.175283
  42 O :   -0.164659
  43 N :   -0.158915
  44 C :    0.160006
  45 O :   -0.173699
  46 C :   -0.039655
  47 C :    0.100340
  48 C :   -0.064655
  49 C :    0.036679
  50 C :   -0.016545
  51 C :   -0.009921
  52 C :    0.023358
  53 C :    0.033939
  54 C :   -0.054121
  55 S :    0.059859
  56 C :   -0.009693
  57 C :    0.030475
  58 C :    0.031237
  59 C :    0.025051
  60 S :    0.115373
  61 C :   -0.084291
  62 C :    0.007188
  63 C :    0.131107
  64 O :   -0.318969
  65 C :    0.209536
  66 C :    0.226320
  67 O :   -0.334154
  68 C :    0.180412
  69 C :   -0.204090
  70 C :    0.072759
  71 C :    0.057641
  72 N :   -0.336733
  73 S :    0.538254
  74 N :   -0.276822
  75 H :   -0.009349
  76 H :   -0.007002
  77 H :   -0.000858
  78 H :    0.037538
  79 H :    0.028757
  80 H :    0.005463
  81 H :   -0.006435
  82 H :    0.021279
  83 H :    0.016058
  84 H :    0.018633
  85 H :    0.005500
  86 H :    0.005764
  87 H :   -0.002648
  88 H :    0.033001
  89 H :    0.011153
  90 H :    0.021140
  91 H :    0.037376
  92 H :   -0.011174
  93 H :    0.131608
  94 H :    0.014620
  95 H :   -0.007636
  96 H :   -0.021140
  97 H :   -0.016700
  98 H :   -0.016356
  99 H :   -0.019450
 100 H :   -0.012803
 101 H :   -0.006653
 102 H :    0.016817
 103 H :    0.029837
 104 H :    0.026666
 105 H :    0.030828
 106 H :    0.038334
 107 H :    0.029484
 108 H :   -0.035197
Sum of atomic charges:   -0.0000000

LOEWDIN ATOMIC CHARGES
----------------------
   0 C :    0.076061
   1 C :   -0.139684
   2 C :   -0.018538
   3 N :   -0.052870
   4 C :   -0.022554
   5 N :   -0.050459
   6 C :   -0.022455
   7 C :   -0.049420
   8 C :    0.021907
   9 C :   -0.031617
  10 C :   -0.144246
  11 C :   -0.009305
  12 S :    0.431951
  13 C :   -0.271069
  14 C :   -0.070519
  15 Br:    0.137127
  16 C :    0.074965
  17 O :   -0.124184
  18 C :   -0.099300
  19 C :    0.075166
  20 C :   -0.068608
  21 C :   -0.140622
  22 S :    0.438305
  23 C :   -0.177230
  24 C :   -0.026641
  25 C :   -0.014761
  26 C :   -0.029613
  27 C :   -0.047727
  28 C :   -0.007264
  29 C :   -0.031350
  30 C :   -0.052165
  31 C :   -0.038941
  32 C :   -0.060090
  33 C :   -0.165645
  34 S :    0.412574
  35 C :   -0.175979
  36 C :    0.014620
  37 C :   -0.049622
  38 C :    0.068274
  39 O :    0.005619
  40 C :   -0.107464
  41 C :    0.088467
  42 O :   -0.171871
  43 N :   -0.005235
  44 C :    0.090539
  45 O :   -0.193784
  46 C :   -0.116371
  47 C :    0.079129
  48 C :   -0.082767
  49 C :   -0.004934
  50 C :   -0.090119
  51 C :   -0.127508
  52 C :   -0.047238
  53 C :   -0.028338
  54 C :   -0.196729
  55 S :    0.407298
  56 C :   -0.168301
  57 C :   -0.041944
  58 C :   -0.017266
  59 C :   -0.145624
  60 S :    0.429751
  61 C :   -0.032269
  62 C :   -0.065271
  63 C :    0.056699
  64 O :   -0.095267
  65 C :    0.079247
  66 C :    0.037777
  67 O :   -0.099179
  68 C :    0.078675
  69 C :   -0.077949
  70 C :   -0.057705
  71 C :   -0.046050
  72 N :   -0.304705
  73 S :    0.672749
  74 N :   -0.299266
  75 H :    0.041564
  76 H :    0.040769
  77 H :    0.039429
  78 H :    0.047355
  79 H :    0.028733
  80 H :    0.025204
  81 H :    0.027342
  82 H :    0.022739
  83 H :    0.026578
  84 H :    0.026765
  85 H :    0.025474
  86 H :    0.029401
  87 H :    0.018654
  88 H :    0.027770
  89 H :    0.022770
  90 H :    0.023518
  91 H :    0.037393
  92 H :    0.035471
  93 H :    0.090962
  94 H :    0.020930
  95 H :    0.032224
  96 H :    0.031059
  97 H :    0.030875
  98 H :    0.031268
  99 H :    0.028857
 100 H :    0.031973
 101 H :    0.036238
 102 H :    0.015299
 103 H :    0.016024
 104 H :    0.021553
 105 H :    0.019528
 106 H :    0.029497
 107 H :    0.018393
 108 H :    0.037124

  Mayer bond orders larger than 0.100000
B(  0-C ,  1-C ) :   1.6494 B(  0-C ,  6-C ) :   1.0110 B(  0-C , 18-C ) :   1.0456
B(  1-C ,  2-C ) :   1.1362 B(  1-C ,  4-C ) :   1.1542 B(  2-C ,  3-N ) :   2.9746
B(  4-C ,  5-N ) :   2.9699 B(  6-C ,  7-C ) :   1.2733 B(  6-C , 11-C ) :   1.4050
B(  7-C ,  8-C ) :   1.4267 B(  7-C , 16-C ) :   0.9326 B(  8-C ,  9-C ) :   1.2458
B(  8-C , 75-H ) :   1.0174 B(  9-C , 10-C ) :   1.3039 B(  9-C , 14-C ) :   1.1624
B( 10-C , 11-C ) :   1.3343 B( 10-C , 12-S ) :   1.0841 B( 11-C , 76-H ) :   0.9803
B( 12-S , 13-C ) :   1.0867 B( 13-C , 14-C ) :   1.6177 B( 13-C , 15-Br) :   1.0199
B( 14-C , 77-H ) :   1.0002 B( 16-C , 17-O ) :   2.2395 B( 16-C , 18-C ) :   0.9337
B( 18-C , 19-C ) :   1.6488 B( 19-C , 20-C ) :   1.0725 B( 19-C , 78-H ) :   0.9437
B( 20-C , 21-C ) :   1.5373 B( 20-C , 24-C ) :   1.1296 B( 21-C , 22-S ) :   1.1629
B( 21-C , 79-H ) :   0.9694 B( 22-S , 23-C ) :   1.0587 B( 23-C , 24-C ) :   1.3915
B( 23-C , 35-C ) :   1.3835 B( 24-C , 25-C ) :   1.2496 B( 25-C , 26-C ) :   1.0871
B( 25-C , 28-C ) :   1.5094 B( 26-C , 27-C ) :   1.1019 B( 26-C , 80-H ) :   0.9081
B( 26-C , 81-H ) :   0.9071 B( 27-C , 82-H ) :   0.9606 B( 27-C , 83-H ) :   0.9648
B( 27-C , 84-H ) :   0.9593 B( 28-C , 29-C ) :   1.0581 B( 28-C , 31-C ) :   1.2715
B( 29-C , 30-C ) :   1.1049 B( 29-C , 85-H ) :   0.9172 B( 29-C , 86-H ) :   0.9174
B( 30-C , 87-H ) :   0.9592 B( 30-C , 88-H ) :   0.9559 B( 30-C , 89-H ) :   0.9595
B( 31-C , 32-C ) :   1.1474 B( 31-C , 35-C ) :   1.3710 B( 32-C , 33-C ) :   1.6121
B( 32-C , 36-C ) :   1.0169 B( 33-C , 34-S ) :   1.1162 B( 33-C , 90-H ) :   0.9640
B( 34-S , 35-C ) :   1.0750 B( 36-C , 37-C ) :   1.7243 B( 36-C , 91-H ) :   0.9337
B( 37-C , 38-C ) :   1.1368 B( 37-C , 92-H ) :   0.9641 B( 38-C , 39-O ) :   1.1303
B( 38-C , 40-C ) :   1.4426 B( 39-O , 47-C ) :   1.1429 B( 40-C , 41-C ) :   0.8933
B( 40-C , 46-C ) :   1.2525 B( 41-C , 42-O ) :   2.1427 B( 41-C , 43-N ) :   1.1095
B( 43-N , 44-C ) :   1.0711 B( 43-N , 93-H ) :   0.9158 B( 44-C , 45-O ) :   2.1915
B( 44-C , 46-C ) :   0.9144 B( 46-C , 47-C ) :   1.3520 B( 47-C , 48-C ) :   1.2620
B( 48-C , 49-C ) :   1.5216 B( 48-C , 94-H ) :   0.9270 B( 49-C , 50-C ) :   1.2331
B( 49-C , 95-H ) :   0.9758 B( 50-C , 51-C ) :   1.5056 B( 50-C , 96-H ) :   0.9644
B( 51-C , 52-C ) :   1.1721 B( 51-C , 55-S ) :   1.0711 B( 52-C , 53-C ) :   1.5598
B( 52-C , 97-H ) :   0.9985 B( 53-C , 54-C ) :   1.2092 B( 53-C , 98-H ) :   0.9942
B( 54-C , 55-S ) :   1.0308 B( 54-C , 56-C ) :   1.4836 B( 56-C , 57-C ) :   1.1761
B( 56-C , 60-S ) :   1.0337 B( 57-C , 58-C ) :   1.5941 B( 57-C , 99-H ) :   0.9950
B( 58-C , 59-C ) :   1.1291 B( 58-C ,100-H ) :   1.0005 B( 59-C , 60-S ) :   1.0376
B( 59-C , 61-C ) :   1.5649 B( 61-C , 62-C ) :   1.1609 B( 61-C ,101-H ) :   0.9514
B( 62-C , 63-C ) :   1.4257 B( 62-C , 69-C ) :   0.1124 B( 62-C , 71-C ) :   1.1510
B( 63-C , 64-O ) :   1.1939 B( 63-C , 66-C ) :   1.1731 B( 64-O , 65-C ) :   0.9289
B( 65-C ,102-H ) :   0.9746 B( 65-C ,103-H ) :   0.9749 B( 65-C ,104-H ) :   0.9764
B( 66-C , 67-O ) :   1.1248 B( 66-C , 69-C ) :   1.3721 B( 67-O , 68-C ) :   0.9587
B( 68-C ,105-H ) :   0.9686 B( 68-C ,106-H ) :   0.9772 B( 68-C ,107-H ) :   0.9689
B( 69-C , 70-C ) :   1.1342 B( 69-C ,108-H ) :   1.0404 B( 70-C , 71-C ) :   1.1792
B( 70-C , 74-N ) :   1.5305 B( 71-C , 72-N ) :   1.4882 B( 72-N , 73-S ) :   1.2320
B( 72-N , 74-N ) :   0.1368 B( 73-S , 74-N ) :   1.2582

-----------------------------------------------------------------------------
         ABSORPTION SPECTRUM VIA TRANSITION ELECTRIC DIPOLE MOMENTS
-----------------------------------------------------------------------------
State   Energy  Wavelength   fosc         T2         TX        TY        TZ
        (cm-1)    (nm)                  (au**2)     (au)      (au)      (au)
-----------------------------------------------------------------------------
   0   11731.0    852.4   0.752899769  21.12899   2.39258   0.30857   3.91272
   1   18090.9    552.8   0.002297047   0.04180   0.19574  -0.02841   0.05177
   2   19606.3    510.0   0.126232558   2.11958   1.11635  -0.81220   0.46224
   3   21886.8    456.9   0.341840534   5.14183   2.12493  -0.56241   0.55693
   4   22624.9    442.0   0.421782332   6.13730  -1.54269   0.96538   1.68091
   5   22668.7    441.1   0.271044038   3.93630  -0.40874   1.94044  -0.06252
   6   23507.1    425.4   0.126835498   1.77630   0.66226   0.10987  -1.15136
   7   24189.7    413.4   0.022020472   0.29969  -0.26259   0.17295   0.44813
   8   25547.8    391.4   0.760109378   9.79485  -1.53057   2.49388   1.11030
   9   27012.9    370.2   0.059811552   0.72894   0.66488  -0.24838  -0.47453
  10   27735.4    360.6   0.041243200   0.48955  -0.67147  -0.05313   0.18936
  11   27904.9    358.4   0.028031321   0.33070   0.26920  -0.44564  -0.24421
  12   28552.3    350.2   0.174611872   2.01330   0.18323   1.22448  -0.69309
  13   28933.1    345.6   0.166851110   1.89850  -0.88360   0.42985  -0.96591
  14   28990.0    344.9   0.322400551   3.66119   0.10054   1.16533  -1.51429
  15   29355.0    340.7   0.021276379   0.23861  -0.41305  -0.13342   0.22406
  16   30031.1    333.0   0.163563956   1.79305  -1.12396   0.48997  -0.53823
  17   30136.3    331.8   0.033247304   0.36320   0.42562  -0.38857   0.17624
  18   30323.0    329.8   0.311823801   3.38542  -0.80812  -0.57018  -1.55153
  19   30738.8    325.3   0.080641602   0.86367  -0.46427   0.74753  -0.29888
  20   31176.8    320.8   0.015996115   0.16891  -0.32977   0.24420  -0.02301
  21   31778.4    314.7   0.043634022   0.45203  -0.35570   0.55560   0.12967
  22   31987.0    312.6   0.019717266   0.20293  -0.09816   0.41752   0.13773
  23   32242.0    310.2   0.011461053   0.11703   0.20562  -0.26823   0.05291
  24   32830.4    304.6   0.025508798   0.25579   0.32051  -0.17875  -0.34801
  25   33903.2    295.0   0.021034059   0.20425  -0.07904   0.17117   0.41073
  26   34152.6    292.8   0.487956235   4.70362  -1.03719   1.75719  -0.73494
  27   34511.1    289.8   0.184146013   1.75662  -0.45814  -0.54213   1.11930
  28   34648.9    288.6   0.101026607   0.95989  -0.09477   0.21954   0.95011
  29   34680.4    288.3   0.041797741   0.39677   0.32318   0.53996  -0.02777
  30   34988.2    285.8   0.033409549   0.31436  -0.34502  -0.35706   0.26043
  31   35259.8    283.6   0.041142060   0.38413  -0.02810  -0.10741  -0.60976
  32   35723.8    279.9   0.005976561   0.05508   0.02620   0.03445  -0.23066
  33   35837.2    279.0   0.009291071   0.08535  -0.12632   0.21729   0.14892
  34   36552.9    273.6   0.002094586   0.01886   0.02461   0.06961   0.11582
  35   36793.5    271.8   0.011100942   0.09933  -0.09570   0.27171   0.12784
  36   37214.3    268.7   0.030260808   0.26770   0.07198   0.41873   0.29526
  37   37463.2    266.9   0.085929921   0.75512   0.24901   0.57129  -0.60559
  38   37965.6    263.4   0.179191560   1.55383  -0.66790   0.34301   0.99503
  39   38067.1    262.7   0.020660054   0.17867   0.37746   0.04557   0.18471
  40   38459.8    260.0   0.000489276   0.00419   0.00234   0.01840   0.06200
  41   38584.4    259.2   0.000911459   0.00778  -0.00512  -0.08804   0.00067
  42   38763.5    258.0   0.000623703   0.00530  -0.06840   0.02435  -0.00500
  43   38898.0    257.1   0.168327997   1.42464  -0.54586   0.14293  -1.05178
  44   39146.3    255.5   0.000023098   0.00019  -0.00659  -0.00688  -0.01018
  45   39594.8    252.6   0.126618669   1.05277  -0.82203   0.10987   0.60412
  46   40178.1    248.9   0.278692106   2.28355   1.45768   0.22794  -0.32674
  47   40226.8    248.6   0.041082926   0.33622  -0.24797  -0.13827  -0.50558

FINAL SINGLE POINT ENERGY     -7876.262335071551

DIPOLE MOMENT
-------------
                                X             Y             Z
Electronic contribution:    133.37275      64.03222     -15.08953
Nuclear contribution   :   -136.49450     -62.11786      12.67110
                        -----------------------------------------
Total Dipole Moment    :     -3.12175       1.91436      -2.41843
                        -----------------------------------------
Magnitude (a.u.)       :      4.38850
Magnitude (Debye)      :     11.15467

Rotational constants in cm-1:     0.000795     0.000239     0.000212
Rotational constants in MHz :    23.846176     7.175817     6.341378

                             ****ORCA TERMINATED NORMALLY****
TOTAL RUN TIME: 0 days 0 hours 12 minutes 40 seconds 601 msec
