                         Program Version 4.2.0 -  RELEASE  -
|  1> # ORCA input file
|  2> # SCF done       -197.220342034825          0.000696203623
|  3> ! CAM-B3LYP def2-SVP def2/J RIJCOSX Grid4 TightSCF
|  4> %maxcore 5000
|  5> %tddft
|  6>     Mode sTDDFT
|  7>     Ethresh 5.0
|  8>     maxcore 5000
|  9> end
| 10>
| 11> %pal
| 12>   nprocs 6
| 13>   end
| 14> * xyz 0 1
| 15>    C       -7.20371         4.83113         3.44774
| 16>    C       -6.38253         3.93736         2.79939
| 17>    C       -4.97838         4.04484         2.75372
| 18>    N       -3.83236         4.07282         2.68137
| 19>    C       -6.80623         2.79018         2.09934
| 20>    N       -7.06622         1.83575         1.51420
| 21>    C       -6.74784         6.00862         4.18449
| 22>    C       -7.87764         6.67724         4.71544
| 23>    C       -7.77723         7.81850         5.47180
| 24>    C       -6.49722         8.32673         5.71940
| 25>    C       -5.37447         7.65398         5.18378
| 26>    C       -5.47729         6.49919         4.41649
| 27>    S       -3.88923         8.44833         5.61177
| 28>    C       -4.78547         9.65435         6.49645
| 29>    C       -6.12739         9.47582         6.47085
| 30>   Br       -3.86484        11.03716         7.36789
| 31>    C       -9.10186         5.94476         4.33195
| 32>    O      -10.24244         6.25044         4.62150
| 33>    C       -8.64060         4.78264         3.54519
| 34>    C       -9.47069         3.80519         3.03387
| 35>    C      -10.85149         3.76887         3.19913
| 36>    C      -11.63666         2.72056         2.75679
| 37>    C      -13.02220         2.55943         2.97510
| 38>    C      -13.52458         1.37541         2.51598
| 39>    C      -12.55920         0.55751         1.89569
| 40>    S      -10.99742         1.33971         1.89330
| 41>    C      -12.73537        -0.72610         1.39666
| 42>    C      -13.87274        -1.54770         1.50493
| 43>    C      -13.69018        -2.81192         1.02221
| 44>    C      -12.41362        -3.04682         0.46506
| 45>    S      -11.43648        -1.58873         0.60823
| 46>    C      -11.97874        -4.27438         0.00507
| 47>    C      -10.82325        -4.64887        -0.68929
| 48>    S      -10.33318        -6.32457        -0.58080
| 49>    C       -9.01714        -6.10335        -1.69382
| 50>    C       -8.99565        -4.76936        -2.14154
| 51>    C       -9.97762        -3.95062        -1.58065
| 52>    O      -10.12561        -2.68259        -1.96651
| 53>    C       -7.97551        -4.31117        -3.13337
| 54>    F       -6.71646        -4.53675        -2.69836
| 55>    F       -8.07251        -4.99013        -4.30018
| 56>    F       -8.04267        -3.02213        -3.44305
| 57>    C       -8.14598        -7.12729        -2.06102
| 58>    C       -8.04311        -8.37090        -1.46901
| 59>    C       -7.16235        -9.40313        -1.86404
| 60>    C       -7.18364       -10.49945        -1.04974
| 61>    C       -8.07226       -10.37645         0.03650
| 62>    S       -8.92506        -8.85380        -0.04000
| 63>    C       -8.26109       -11.24493         1.10320
| 64>    C       -7.66735       -12.50353         1.32443
| 65>    C       -8.00561       -13.06450         2.52337
| 66>    C       -8.87229       -12.27048         3.30621
| 67>    S       -9.28610       -10.80656         2.44659
| 68>    C       -9.32774       -12.54894         4.58208
| 69>    C      -10.11560       -11.66473         5.31099
| 70>    C      -10.60132       -11.78851         6.59427
| 71>    C      -10.67978       -12.89480         7.50852
| 72>    C      -10.75953       -14.23179         7.19392
| 73>    C      -10.87492       -15.25836         8.15132
| 74>    N      -10.94962       -16.13718         8.88716
| 75>    C      -10.84979       -14.73856         5.88287
| 76>    N      -10.97237       -15.20893         4.84198
| 77>    C      -10.87689       -12.33933         8.84848
| 78>    C      -11.11861       -10.94769         8.73154
| 79>    C      -11.02143       -10.56025         7.30955
| 80>    O      -11.20374        -9.46353         6.82651
| 81>    C      -11.37138       -10.14714         9.81772
| 82>    C      -11.37573       -10.74573        11.08266
| 83>    C      -11.12102       -12.13274        11.19040
| 84>    C      -10.87269       -12.94503        10.08919
| 85>    S      -11.16213       -12.66331        12.84434
| 86>    C      -11.52030       -11.03672        13.36124
| 87>    C      -11.60311       -10.14099        12.34943
| 88>   Br      -11.74861       -10.67476        15.18751
| 89>    H       -8.65782         8.30281         5.86387
| 90>    H       -4.58987         6.02480         4.03273
| 91>    H       -6.82895        10.12538         6.96170
| 92>    H       -9.02348         2.98596         2.48448
| 93>    H      -11.33702         4.57361         3.73233
| 94>    H      -13.60012         3.31293         3.47952
| 95>    H      -14.55395         1.07903         2.60656
| 96>    H      -14.78263        -1.20221         1.96030
| 97>    H      -14.44076        -3.58172         1.04210
| 98>    H      -12.62000        -5.10545         0.27599
| 99>    H      -10.78953        -2.21416        -1.44258
|100>    H       -7.45538        -6.92581        -2.86789
|101>    H       -6.53393        -9.30103        -2.73067
|102>    H       -6.56868       -11.36959        -1.19099
|103>    H       -7.00945       -12.95940         0.60681
|104>    H       -7.65405       -14.01939         2.87096
|105>    H       -8.99763       -13.47768         5.02250
|106>    H      -10.30299       -10.69285         4.86157
|107>    H      -11.55823        -9.09158         9.69747
|108>    H      -10.67837       -13.99614        10.22332
|109>    H      -11.81481        -9.09647        12.48805
|110> *
|111>
|112>                          ****END OF INPUT****

CARTESIAN COORDINATES (ANGSTROEM)
---------------------------------
  C     -7.203710    4.831130    3.447740
  C     -6.382530    3.937360    2.799390
  C     -4.978380    4.044840    2.753720
  N     -3.832360    4.072820    2.681370
  C     -6.806230    2.790180    2.099340
  N     -7.066220    1.835750    1.514200
  C     -6.747840    6.008620    4.184490
  C     -7.877640    6.677240    4.715440
  C     -7.777230    7.818500    5.471800
  C     -6.497220    8.326730    5.719400
  C     -5.374470    7.653980    5.183780
  C     -5.477290    6.499190    4.416490
  S     -3.889230    8.448330    5.611770
  C     -4.785470    9.654350    6.496450
  C     -6.127390    9.475820    6.470850
  Br    -3.864840   11.037160    7.367890
  C     -9.101860    5.944760    4.331950
  O    -10.242440    6.250440    4.621500
  C     -8.640600    4.782640    3.545190
  C     -9.470690    3.805190    3.033870
  C    -10.851490    3.768870    3.199130
  C    -11.636660    2.720560    2.756790
  C    -13.022200    2.559430    2.975100
  C    -13.524580    1.375410    2.515980
  C    -12.559200    0.557510    1.895690
  S    -10.997420    1.339710    1.893300
  C    -12.735370   -0.726100    1.396660
  C    -13.872740   -1.547700    1.504930
  C    -13.690180   -2.811920    1.022210
  C    -12.413620   -3.046820    0.465060
  S    -11.436480   -1.588730    0.608230
  C    -11.978740   -4.274380    0.005070
  C    -10.823250   -4.648870   -0.689290
  S    -10.333180   -6.324570   -0.580800
  C     -9.017140   -6.103350   -1.693820
  C     -8.995650   -4.769360   -2.141540
  C     -9.977620   -3.950620   -1.580650
  O    -10.125610   -2.682590   -1.966510
  C     -7.975510   -4.311170   -3.133370
  F     -6.716460   -4.536750   -2.698360
  F     -8.072510   -4.990130   -4.300180
  F     -8.042670   -3.022130   -3.443050
  C     -8.145980   -7.127290   -2.061020
  C     -8.043110   -8.370900   -1.469010
  C     -7.162350   -9.403130   -1.864040
  C     -7.183640  -10.499450   -1.049740
  C     -8.072260  -10.376450    0.036500
  S     -8.925060   -8.853800   -0.040000
  C     -8.261090  -11.244930    1.103200
  C     -7.667350  -12.503530    1.324430
  C     -8.005610  -13.064500    2.523370
  C     -8.872290  -12.270480    3.306210
  S     -9.286100  -10.806560    2.446590
  C     -9.327740  -12.548940    4.582080
  C    -10.115600  -11.664730    5.310990
  C    -10.601320  -11.788510    6.594270
  C    -10.679780  -12.894800    7.508520
  C    -10.759530  -14.231790    7.193920
  C    -10.874920  -15.258360    8.151320
  N    -10.949620  -16.137180    8.887160
  C    -10.849790  -14.738560    5.882870
  N    -10.972370  -15.208930    4.841980
  C    -10.876890  -12.339330    8.848480
  C    -11.118610  -10.947690    8.731540
  C    -11.021430  -10.560250    7.309550
  O    -11.203740   -9.463530    6.826510
  C    -11.371380  -10.147140    9.817720
  C    -11.375730  -10.745730   11.082660
  C    -11.121020  -12.132740   11.190400
  C    -10.872690  -12.945030   10.089190
  S    -11.162130  -12.663310   12.844340
  C    -11.520300  -11.036720   13.361240
  C    -11.603110  -10.140990   12.349430
  Br   -11.748610  -10.674760   15.187510
  H     -8.657820    8.302810    5.863870
  H     -4.589870    6.024800    4.032730
  H     -6.828950   10.125380    6.961700
  H     -9.023480    2.985960    2.484480
  H    -11.337020    4.573610    3.732330
  H    -13.600120    3.312930    3.479520
  H    -14.553950    1.079030    2.606560
  H    -14.782630   -1.202210    1.960300
  H    -14.440760   -3.581720    1.042100
  H    -12.620000   -5.105450    0.275990
  H    -10.789530   -2.214160   -1.442580
  H     -7.455380   -6.925810   -2.867890
  H     -6.533930   -9.301030   -2.730670
  H     -6.568680  -11.369590   -1.190990
  H     -7.009450  -12.959400    0.606810
  H     -7.654050  -14.019390    2.870960
  H     -8.997630  -13.477680    5.022500
  H    -10.302990  -10.692850    4.861570
  H    -11.558230   -9.091580    9.697470
  H    -10.678370  -13.996140   10.223320
  H    -11.814810   -9.096470   12.488050

 Total Charge           Charge          ....    0
 Multiplicity           Mult            ....    1
 Number of Electrons    NEL             ....  612
 Basis Dimension        Dim             .... 1205

ORBITAL ENERGIES
----------------

  NO   OCC          E(Eh)            E(eV)
   0   2.0000    -482.882643    -13139.9047
   1   2.0000    -482.878512    -13139.7923
   2   2.0000     -88.983094     -2421.3531
   3   2.0000     -88.978960     -2421.2406
   4   2.0000     -88.975708     -2421.1521
   5   2.0000     -88.971646     -2421.0416
   6   2.0000     -88.970987     -2421.0236
   7   2.0000     -88.966512     -2420.9019
   8   2.0000     -88.963263     -2420.8135
   9   2.0000     -62.560335     -1702.3533
  10   2.0000     -62.556226     -1702.2414
  11   2.0000     -56.394283     -1534.5665
  12   2.0000     -56.391575     -1534.4928
  13   2.0000     -56.391541     -1534.4918
  14   2.0000     -56.390165     -1534.4544
  15   2.0000     -56.387471     -1534.3811
  16   2.0000     -56.387432     -1534.3800
  17   2.0000     -24.798887      -674.8120
  18   2.0000     -24.795482      -674.7194
  19   2.0000     -24.794921      -674.7041
  20   2.0000     -19.271947      -524.4163
  21   2.0000     -19.207718      -522.6686
  22   2.0000     -19.203230      -522.5464
  23   2.0000     -14.409850      -392.1119
  24   2.0000     -14.408511      -392.0755
  25   2.0000     -14.403126      -391.9290
  26   2.0000     -14.400571      -391.8594
  27   2.0000     -10.521659      -286.3089
  28   2.0000     -10.375940      -282.3437
  29   2.0000     -10.358242      -281.8621
  30   2.0000     -10.354888      -281.7708
  31   2.0000     -10.353291      -281.7274
  32   2.0000     -10.350136      -281.6415
  33   2.0000     -10.343045      -281.4486
  34   2.0000     -10.343006      -281.4475
  35   2.0000     -10.342653      -281.4379
  36   2.0000     -10.338105      -281.3141
  37   2.0000     -10.338068      -281.3131
  38   2.0000     -10.337288      -281.2919
  39   2.0000     -10.336100      -281.2596
  40   2.0000     -10.335505      -281.2434
  41   2.0000     -10.334190      -281.2076
  42   2.0000     -10.329554      -281.0815
  43   2.0000     -10.327883      -281.0360
  44   2.0000     -10.326919      -281.0098
  45   2.0000     -10.326366      -280.9947
  46   2.0000     -10.324996      -280.9574
  47   2.0000     -10.323193      -280.9084
  48   2.0000     -10.321136      -280.8524
  49   2.0000     -10.315307      -280.6938
  50   2.0000     -10.315044      -280.6866
  51   2.0000     -10.313974      -280.6575
  52   2.0000     -10.313380      -280.6413
  53   2.0000     -10.313076      -280.6331
  54   2.0000     -10.312724      -280.6235
  55   2.0000     -10.312571      -280.6193
  56   2.0000     -10.311616      -280.5933
  57   2.0000     -10.310023      -280.5500
  58   2.0000     -10.309543      -280.5369
  59   2.0000     -10.308790      -280.5164
  60   2.0000     -10.308488      -280.5082
  61   2.0000     -10.306823      -280.4629
  62   2.0000     -10.305808      -280.4353
  63   2.0000     -10.304703      -280.4052
  64   2.0000     -10.303544      -280.3737
  65   2.0000     -10.302675      -280.3500
  66   2.0000     -10.300487      -280.2905
  67   2.0000     -10.300420      -280.2887
  68   2.0000     -10.297026      -280.1963
  69   2.0000     -10.296860      -280.1918
  70   2.0000     -10.296457      -280.1808
  71   2.0000     -10.296118      -280.1716
  72   2.0000     -10.294615      -280.1307
  73   2.0000     -10.293781      -280.1080
  74   2.0000     -10.293029      -280.0876
  75   2.0000     -10.290008      -280.0054
  76   2.0000     -10.289264      -279.9851
  77   2.0000     -10.288342      -279.9600
  78   2.0000     -10.287091      -279.9260
  79   2.0000     -10.280421      -279.7445
  80   2.0000     -10.279995      -279.7329
  81   2.0000     -10.277714      -279.6708
  82   2.0000      -8.789743      -239.1811
  83   2.0000      -8.785648      -239.0696
  84   2.0000      -8.078519      -219.8277
  85   2.0000      -8.075225      -219.7380
  86   2.0000      -8.071982      -219.6498
  87   2.0000      -8.067662      -219.5322
  88   2.0000      -8.067388      -219.5248
  89   2.0000      -8.062493      -219.3916
  90   2.0000      -8.059364      -219.3065
  91   2.0000      -6.626025      -180.3033
  92   2.0000      -6.621907      -180.1912
  93   2.0000      -6.611483      -179.9076
  94   2.0000      -6.611288      -179.9023
  95   2.0000      -6.607385      -179.7961
  96   2.0000      -6.607226      -179.7918
  97   2.0000      -6.047905      -164.5719
  98   2.0000      -6.044820      -164.4879
  99   2.0000      -6.043867      -164.4620
 100   2.0000      -6.041691      -164.4028
 101   2.0000      -6.040741      -164.3769
 102   2.0000      -6.040210      -164.3625
 103   2.0000      -6.037474      -164.2880
 104   2.0000      -6.037362      -164.2850
 105   2.0000      -6.036990      -164.2748
 106   2.0000      -6.036413      -164.2591
 107   2.0000      -6.033076      -164.1684
 108   2.0000      -6.033009      -164.1665
 109   2.0000      -6.032968      -164.1654
 110   2.0000      -6.032160      -164.1434
 111   2.0000      -6.028965      -164.0565
 112   2.0000      -6.028876      -164.0541
 113   2.0000      -6.028472      -164.0431
 114   2.0000      -6.027939      -164.0286
 115   2.0000      -6.024927      -163.9466
 116   2.0000      -6.023723      -163.9138
 117   2.0000      -6.020502      -163.8262
 118   2.0000      -2.741907       -74.6111
 119   2.0000      -2.737815       -74.4997
 120   2.0000      -2.737804       -74.4994
 121   2.0000      -2.737673       -74.4959
 122   2.0000      -2.733714       -74.3882
 123   2.0000      -2.733558       -74.3839
 124   2.0000      -2.726112       -74.1813
 125   2.0000      -2.726107       -74.1811
 126   2.0000      -2.722048       -74.0707
 127   2.0000      -2.722034       -74.0703
 128   2.0000      -1.387911       -37.7670
 129   2.0000      -1.292089       -35.1595
 130   2.0000      -1.284588       -34.9554
 131   2.0000      -1.175096       -31.9760
 132   2.0000      -1.122125       -30.5346
 133   2.0000      -1.116741       -30.3881
 134   2.0000      -1.026045       -27.9201
 135   2.0000      -1.020275       -27.7631
 136   2.0000      -1.017858       -27.6973
 137   2.0000      -1.012884       -27.5620
 138   2.0000      -1.011455       -27.5231
 139   2.0000      -1.007834       -27.4246
 140   2.0000      -1.001305       -27.2469
 141   2.0000      -0.999437       -27.1961
 142   2.0000      -0.994813       -27.0702
 143   2.0000      -0.987909       -26.8824
 144   2.0000      -0.983928       -26.7740
 145   2.0000      -0.981091       -26.6968
 146   2.0000      -0.976784       -26.5796
 147   2.0000      -0.939691       -25.5703
 148   2.0000      -0.933820       -25.4105
 149   2.0000      -0.930796       -25.3283
 150   2.0000      -0.920375       -25.0447
 151   2.0000      -0.909752       -24.7556
 152   2.0000      -0.903480       -24.5850
 153   2.0000      -0.901199       -24.5229
 154   2.0000      -0.897048       -24.4099
 155   2.0000      -0.884828       -24.0774
 156   2.0000      -0.882089       -24.0029
 157   2.0000      -0.881158       -23.9775
 158   2.0000      -0.875112       -23.8130
 159   2.0000      -0.873732       -23.7755
 160   2.0000      -0.868133       -23.6231
 161   2.0000      -0.867436       -23.6041
 162   2.0000      -0.853519       -23.2254
 163   2.0000      -0.848673       -23.0936
 164   2.0000      -0.844214       -22.9722
 165   2.0000      -0.841333       -22.8938
 166   2.0000      -0.827553       -22.5189
 167   2.0000      -0.824068       -22.4240
 168   2.0000      -0.818767       -22.2798
 169   2.0000      -0.807099       -21.9623
 170   2.0000      -0.797825       -21.7099
 171   2.0000      -0.781997       -21.2792
 172   2.0000      -0.774850       -21.0848
 173   2.0000      -0.759934       -20.6788
 174   2.0000      -0.752594       -20.4791
 175   2.0000      -0.746723       -20.3194
 176   2.0000      -0.740591       -20.1525
 177   2.0000      -0.729552       -19.8521
 178   2.0000      -0.720273       -19.5996
 179   2.0000      -0.714163       -19.4334
 180   2.0000      -0.706230       -19.2175
 181   2.0000      -0.697462       -18.9789
 182   2.0000      -0.692401       -18.8412
 183   2.0000      -0.686628       -18.6841
 184   2.0000      -0.684594       -18.6288
 185   2.0000      -0.679144       -18.4804
 186   2.0000      -0.677559       -18.4373
 187   2.0000      -0.669871       -18.2281
 188   2.0000      -0.668983       -18.2040
 189   2.0000      -0.665413       -18.1068
 190   2.0000      -0.661810       -18.0088
 191   2.0000      -0.654572       -17.8118
 192   2.0000      -0.651117       -17.7178
 193   2.0000      -0.647240       -17.6123
 194   2.0000      -0.645192       -17.5566
 195   2.0000      -0.641288       -17.4503
 196   2.0000      -0.638104       -17.3637
 197   2.0000      -0.632271       -17.2050
 198   2.0000      -0.629443       -17.1280
 199   2.0000      -0.623290       -16.9606
 200   2.0000      -0.618399       -16.8275
 201   2.0000      -0.617829       -16.8120
 202   2.0000      -0.612358       -16.6631
 203   2.0000      -0.597311       -16.2537
 204   2.0000      -0.590920       -16.0798
 205   2.0000      -0.589993       -16.0545
 206   2.0000      -0.589707       -16.0468
 207   2.0000      -0.582686       -15.8557
 208   2.0000      -0.578060       -15.7298
 209   2.0000      -0.569748       -15.5036
 210   2.0000      -0.561128       -15.2691
 211   2.0000      -0.558370       -15.1940
 212   2.0000      -0.550679       -14.9847
 213   2.0000      -0.549512       -14.9530
 214   2.0000      -0.545410       -14.8414
 215   2.0000      -0.543138       -14.7795
 216   2.0000      -0.541211       -14.7271
 217   2.0000      -0.539104       -14.6698
 218   2.0000      -0.538691       -14.6585
 219   2.0000      -0.533673       -14.5220
 220   2.0000      -0.533295       -14.5117
 221   2.0000      -0.531438       -14.4612
 222   2.0000      -0.529709       -14.4141
 223   2.0000      -0.527733       -14.3604
 224   2.0000      -0.524942       -14.2844
 225   2.0000      -0.523681       -14.2501
 226   2.0000      -0.521940       -14.2027
 227   2.0000      -0.519470       -14.1355
 228   2.0000      -0.517685       -14.0869
 229   2.0000      -0.516829       -14.0636
 230   2.0000      -0.514313       -13.9952
 231   2.0000      -0.510232       -13.8841
 232   2.0000      -0.508192       -13.8286
 233   2.0000      -0.503614       -13.7040
 234   2.0000      -0.502563       -13.6754
 235   2.0000      -0.501727       -13.6527
 236   2.0000      -0.498694       -13.5701
 237   2.0000      -0.498581       -13.5671
 238   2.0000      -0.497173       -13.5288
 239   2.0000      -0.495460       -13.4822
 240   2.0000      -0.493611       -13.4318
 241   2.0000      -0.493063       -13.4169
 242   2.0000      -0.489504       -13.3201
 243   2.0000      -0.487693       -13.2708
 244   2.0000      -0.486969       -13.2511
 245   2.0000      -0.484699       -13.1893
 246   2.0000      -0.482750       -13.1363
 247   2.0000      -0.482378       -13.1262
 248   2.0000      -0.481118       -13.0919
 249   2.0000      -0.480142       -13.0653
 250   2.0000      -0.479641       -13.0517
 251   2.0000      -0.468039       -12.7360
 252   2.0000      -0.463840       -12.6217
 253   2.0000      -0.462037       -12.5727
 254   2.0000      -0.461303       -12.5527
 255   2.0000      -0.459045       -12.4912
 256   2.0000      -0.454934       -12.3794
 257   2.0000      -0.450395       -12.2559
 258   2.0000      -0.449001       -12.2179
 259   2.0000      -0.446815       -12.1585
 260   2.0000      -0.443946       -12.0804
 261   2.0000      -0.443298       -12.0627
 262   2.0000      -0.442079       -12.0296
 263   2.0000      -0.439520       -11.9599
 264   2.0000      -0.438282       -11.9263
 265   2.0000      -0.437376       -11.9016
 266   2.0000      -0.436770       -11.8851
 267   2.0000      -0.433677       -11.8009
 268   2.0000      -0.432141       -11.7591
 269   2.0000      -0.431401       -11.7390
 270   2.0000      -0.428718       -11.6660
 271   2.0000      -0.425198       -11.5702
 272   2.0000      -0.420688       -11.4475
 273   2.0000      -0.419280       -11.4092
 274   2.0000      -0.416513       -11.3339
 275   2.0000      -0.414437       -11.2774
 276   2.0000      -0.413608       -11.2548
 277   2.0000      -0.411008       -11.1841
 278   2.0000      -0.408776       -11.1234
 279   2.0000      -0.403903       -10.9908
 280   2.0000      -0.400502       -10.8982
 281   2.0000      -0.394957       -10.7473
 282   2.0000      -0.390026       -10.6132
 283   2.0000      -0.383492       -10.4353
 284   2.0000      -0.378513       -10.2999
 285   2.0000      -0.373809       -10.1719
 286   2.0000      -0.372073       -10.1246
 287   2.0000      -0.368047       -10.0151
 288   2.0000      -0.363770        -9.8987
 289   2.0000      -0.362169        -9.8551
 290   2.0000      -0.360221        -9.8021
 291   2.0000      -0.352740        -9.5985
 292   2.0000      -0.348631        -9.4867
 293   2.0000      -0.343677        -9.3519
 294   2.0000      -0.337762        -9.1910
 295   2.0000      -0.331034        -9.0079
 296   2.0000      -0.324245        -8.8232
 297   2.0000      -0.323229        -8.7955
 298   2.0000      -0.312098        -8.4926
 299   2.0000      -0.310755        -8.4561
 300   2.0000      -0.305362        -8.3093
 301   2.0000      -0.290728        -7.9111
 302   2.0000      -0.288309        -7.8453
 303   2.0000      -0.282326        -7.6825
 304   2.0000      -0.248015        -6.7488
 305   2.0000      -0.221526        -6.0280
 306   0.0000      -0.131130        -3.5682
 307   0.0000      -0.104126        -2.8334
 308   0.0000      -0.071417        -1.9434
 309   0.0000      -0.059491        -1.6188
 310   0.0000      -0.050642        -1.3780

MULLIKEN ATOMIC CHARGES
-----------------------
   0 C :    0.329070
   1 C :   -0.361038
   2 C :   -0.186733
   3 N :    0.136352
   4 C :   -0.186974
   5 N :    0.131888
   6 C :    0.011760
   7 C :   -0.009986
   8 C :   -0.075642
   9 C :    0.117520
  10 C :   -0.091738
  11 C :   -0.023880
  12 S :    0.180966
  13 C :   -0.124293
  14 C :    0.037850
  15 Br:    0.015984
  16 C :    0.138677
  17 O :   -0.164729
  18 C :   -0.088238
  19 C :   -0.041355
  20 C :   -0.022591
  21 C :    0.002003
  22 C :    0.029102
  23 C :    0.038761
  24 C :   -0.049420
  25 S :    0.113903
  26 C :   -0.044879
  27 C :    0.029170
  28 C :    0.048468
  29 C :   -0.077036
  30 S :    0.091276
  31 C :    0.026637
  32 C :   -0.176515
  33 S :    0.134035
  34 C :   -0.084832
  35 C :   -0.111865
  36 C :    0.155572
  37 O :   -0.133823
  38 C :    0.516189
  39 F :   -0.173577
  40 F :   -0.178206
  41 F :   -0.124993
  42 C :    0.012855
  43 C :   -0.038733
  44 C :    0.038770
  45 C :    0.035215
  46 C :   -0.024213
  47 S :    0.094247
  48 C :   -0.050490
  49 C :    0.036257
  50 C :    0.044204
  51 C :   -0.022966
  52 S :    0.110762
  53 C :    0.009385
  54 C :    0.015044
  55 C :   -0.121049
  56 C :    0.288123
  57 C :   -0.340982
  58 C :   -0.180024
  59 N :    0.145842
  60 C :   -0.219471
  61 N :    0.159418
  62 C :    0.006141
  63 C :   -0.002915
  64 C :    0.137753
  65 O :   -0.154569
  66 C :   -0.073320
  67 C :    0.112378
  68 C :   -0.088987
  69 C :   -0.024268
  70 S :    0.181940
  71 C :   -0.125080
  72 C :    0.040073
  73 Br:    0.019421
  74 H :   -0.015860
  75 H :   -0.009681
  76 H :   -0.006245
  77 H :    0.014611
  78 H :    0.018453
  79 H :    0.001900
  80 H :   -0.004194
  81 H :   -0.004187
  82 H :    0.002539
  83 H :    0.011254
  84 H :    0.180376
  85 H :    0.019934
  86 H :    0.005721
  87 H :   -0.001608
  88 H :    0.000797
  89 H :    0.007313
  90 H :    0.010438
  91 H :    0.016808
  92 H :   -0.011942
  93 H :   -0.005761
  94 H :   -0.004265
Sum of atomic charges:   -0.0000000

LOEWDIN ATOMIC CHARGES
----------------------
   0 C :    0.072249
   1 C :   -0.153729
   2 C :   -0.018765
   3 N :   -0.066318
   4 C :   -0.020535
   5 N :   -0.064804
   6 C :   -0.018176
   7 C :   -0.049316
   8 C :    0.018047
   9 C :   -0.035726
  10 C :   -0.145536
  11 C :   -0.012927
  12 S :    0.428551
  13 C :   -0.274481
  14 C :   -0.070909
  15 Br:    0.130892
  16 C :    0.082320
  17 O :   -0.157343
  18 C :   -0.103962
  19 C :    0.047480
  20 C :   -0.068433
  21 C :   -0.106269
  22 C :   -0.037812
  23 C :   -0.010968
  24 C :   -0.191930
  25 S :    0.412879
  26 C :   -0.152475
  27 C :   -0.041160
  28 C :   -0.011439
  29 C :   -0.174365
  30 S :    0.408888
  31 C :   -0.048174
  32 C :   -0.228253
  33 S :    0.452085
  34 C :   -0.137083
  35 C :   -0.140449
  36 C :    0.047023
  37 O :   -0.013886
  38 C :    0.171711
  39 F :   -0.070414
  40 F :   -0.075290
  41 F :   -0.030702
  42 C :   -0.058692
  43 C :   -0.143238
  44 C :   -0.015081
  45 C :   -0.029220
  46 C :   -0.158517
  47 S :    0.394398
  48 C :   -0.177131
  49 C :   -0.010418
  50 C :   -0.025969
  51 C :   -0.104849
  52 S :    0.407914
  53 C :   -0.057186
  54 C :    0.047417
  55 C :   -0.097328
  56 C :    0.068366
  57 C :   -0.148592
  58 C :   -0.020141
  59 N :   -0.058848
  60 C :   -0.024507
  61 N :   -0.058416
  62 C :   -0.016445
  63 C :   -0.051469
  64 C :    0.079611
  65 O :   -0.153620
  66 C :    0.020096
  67 C :   -0.035444
  68 C :   -0.144078
  69 C :   -0.014666
  70 S :    0.429985
  71 C :   -0.273607
  72 C :   -0.070494
  73 Br:    0.133653
  74 H :    0.038827
  75 H :    0.040124
  76 H :    0.037589
  77 H :    0.031742
  78 H :    0.039064
  79 H :    0.039588
  80 H :    0.035411
  81 H :    0.036225
  82 H :    0.039306
  83 H :    0.042508
  84 H :    0.051207
  85 H :    0.044193
  86 H :    0.041063
  87 H :    0.037042
  88 H :    0.037695
  89 H :    0.042347
  90 H :    0.039304
  91 H :    0.034002
  92 H :    0.040247
  93 H :    0.040249
  94 H :    0.038289

  Mayer bond orders larger than 0.100000
B(  0-C ,  1-C ) :   1.5867 B(  0-C ,  6-C ) :   0.9895 B(  0-C , 18-C ) :   1.1101
B(  1-C ,  2-C ) :   1.1479 B(  1-C ,  4-C ) :   1.1525 B(  2-C ,  3-N ) :   2.9613
B(  4-C ,  5-N ) :   2.9534 B(  6-C ,  7-C ) :   1.2781 B(  6-C , 11-C ) :   1.4194
B(  7-C ,  8-C ) :   1.4283 B(  7-C , 16-C ) :   0.9373 B(  8-C ,  9-C ) :   1.2396
B(  8-C , 74-H ) :   1.0169 B(  9-C , 10-C ) :   1.3145 B(  9-C , 14-C ) :   1.1609
B( 10-C , 11-C ) :   1.3205 B( 10-C , 12-S ) :   1.0841 B( 11-C , 75-H ) :   0.9795
B( 12-S , 13-C ) :   1.0859 B( 13-C , 14-C ) :   1.6200 B( 13-C , 15-Br) :   1.0140
B( 14-C , 76-H ) :   1.0002 B( 16-C , 17-O ) :   2.1843 B( 16-C , 18-C ) :   0.9640
B( 18-C , 19-C ) :   1.4872 B( 19-C , 20-C ) :   1.2545 B( 19-C , 77-H ) :   0.9427
B( 20-C , 21-C ) :   1.4172 B( 20-C , 78-H ) :   0.9770 B( 21-C , 22-C ) :   1.1830
B( 21-C , 25-S ) :   1.0833 B( 22-C , 23-C ) :   1.5360 B( 22-C , 79-H ) :   1.0021
B( 23-C , 24-C ) :   1.2201 B( 23-C , 80-H ) :   0.9963 B( 24-C , 25-S ) :   1.0518
B( 24-C , 26-C ) :   1.4552 B( 26-C , 27-C ) :   1.2141 B( 26-C , 30-S ) :   1.0625
B( 27-C , 28-C ) :   1.5555 B( 27-C , 81-H ) :   0.9932 B( 28-C , 29-C ) :   1.1755
B( 28-C , 82-H ) :   0.9995 B( 29-C , 30-S ) :   1.0090 B( 29-C , 31-C ) :   1.5639
B( 31-C , 32-C ) :   1.2020 B( 31-C , 83-H ) :   0.9423 B( 32-C , 33-S ) :   1.0780
B( 32-C , 36-C ) :   1.3084 B( 33-S , 34-C ) :   1.1257 B( 34-C , 35-C ) :   1.3988
B( 34-C , 42-C ) :   1.2503 B( 35-C , 36-C ) :   1.3512 B( 35-C , 38-C ) :   0.9359
B( 36-C , 37-O ) :   1.3569 B( 37-O , 84-H ) :   0.9254 B( 38-C , 39-F ) :   1.1438
B( 38-C , 40-F ) :   1.1329 B( 38-C , 41-F ) :   1.2150 B( 42-C , 43-C ) :   1.5156
B( 42-C , 85-H ) :   0.9505 B( 43-C , 44-C ) :   1.1647 B( 43-C , 47-S ) :   1.0494
B( 44-C , 45-C ) :   1.5654 B( 44-C , 86-H ) :   1.0008 B( 45-C , 46-C ) :   1.2040
B( 45-C , 87-H ) :   0.9940 B( 46-C , 47-S ) :   1.0627 B( 46-C , 48-C ) :   1.4631
B( 48-C , 49-C ) :   1.2144 B( 48-C , 52-S ) :   1.0544 B( 49-C , 50-C ) :   1.5495
B( 49-C , 88-H ) :   0.9953 B( 50-C , 51-C ) :   1.1734 B( 50-C , 89-H ) :   1.0017
B( 51-C , 52-S ) :   1.0771 B( 51-C , 53-C ) :   1.5117 B( 53-C , 54-C ) :   1.2059
B( 53-C , 90-H ) :   0.9642 B( 54-C , 55-C ) :   1.5541 B( 54-C , 91-H ) :   0.9348
B( 55-C , 56-C ) :   1.0723 B( 55-C , 64-C ) :   0.9613 B( 56-C , 57-C ) :   1.6116
B( 56-C , 62-C ) :   1.0058 B( 57-C , 58-C ) :   1.1301 B( 57-C , 60-C ) :   1.1681
B( 58-C , 59-N ) :   2.9793 B( 60-C , 61-N ) :   3.0056 B( 62-C , 63-C ) :   1.2724
B( 62-C , 69-C ) :   1.4223 B( 63-C , 64-C ) :   0.9231 B( 63-C , 66-C ) :   1.4329
B( 64-C , 65-O ) :   2.2396 B( 66-C , 67-C ) :   1.2469 B( 66-C , 92-H ) :   1.0156
B( 67-C , 68-C ) :   1.3126 B( 67-C , 72-C ) :   1.1629 B( 68-C , 69-C ) :   1.3220
B( 68-C , 70-S ) :   1.0838 B( 69-C , 93-H ) :   0.9813 B( 70-S , 71-C ) :   1.0865
B( 71-C , 72-C ) :   1.6191 B( 71-C , 73-Br) :   1.0162 B( 72-C , 94-H ) :   1.0000

-----------------------------------------------------------------------------
         ABSORPTION SPECTRUM VIA TRANSITION ELECTRIC DIPOLE MOMENTS
-----------------------------------------------------------------------------
State   Energy  Wavelength   fosc         T2         TX        TY        TZ
        (cm-1)    (nm)                  (au**2)     (au)      (au)      (au)
-----------------------------------------------------------------------------
   0    7751.9   1290.0   1.267891119  53.84578   0.57530   7.21120  -1.23022
   1   13120.9    762.1   0.270718657   6.79248   0.93097   1.30648   2.05399
   2   13879.2    720.5   0.837171903  19.85756  -0.57259  -0.52204  -4.38830
   3   19485.1    513.2   0.343643282   5.80606  -2.10435   0.22129   1.15274
   4   20868.7    479.2   0.277431251   4.37658  -1.80689  -0.31815   1.00524
   5   21976.2    455.0   0.028662310   0.42937  -0.48365   0.11357   0.42727
   6   22104.0    452.4   0.408879588   6.08977   2.15454  -0.53137  -1.07952
   7   22822.0    438.2   0.048203460   0.69534  -0.13277   0.26093   0.78079
   8   23581.4    424.1   0.244574693   3.41442  -0.36602   1.33130   1.22804
   9   24792.6    403.3   0.381806135   5.06986   1.91189   0.04364  -1.18854
  10   25161.2    397.4   0.004735313   0.06196   0.19291   0.09770   0.12328
  11   26071.4    383.6   0.008781830   0.11089   0.30181   0.09827  -0.10071
  12   26540.7    376.8   0.000045286   0.00056   0.01626   0.01644  -0.00523
  13   26945.7    371.1   0.028809765   0.35199   0.04929  -0.48116  -0.34357
  14   27068.8    369.4   0.004641170   0.05645   0.12836  -0.17046   0.10447
  15   27311.6    366.1   0.071058751   0.85654   0.46768  -0.74955  -0.27565
  16   27595.4    362.4   0.004291020   0.05119   0.22255   0.02258  -0.03393
  17   27703.1    361.0   0.040872378   0.48571  -0.61283  -0.28582   0.16871
  18   28940.3    345.5   0.125907664   1.43227   0.70279   0.74954   0.61363
  19   29521.9    338.7   0.051670530   0.57620   0.45281   0.17840  -0.58253
  20   29770.9    335.9   0.072100926   0.79730   0.09297  -0.74316  -0.48618
  21   30119.4    332.0   0.075519965   0.82545  -0.74567  -0.51769  -0.03763
  22   30388.0    329.1   0.015539226   0.16835  -0.09776  -0.31653  -0.24207
  23   30730.7    325.4   0.043169366   0.46247  -0.03023  -0.21551   0.64429
  24   31250.0    320.0   0.371159228   3.91008   0.05346   1.33305   1.45952
  25   31593.9    316.5   0.075167132   0.78325  -0.27741  -0.75602  -0.36705
  26   31873.1    313.7   0.135906050   1.40375  -0.08262  -0.99948  -0.63084
  27   32268.1    309.9   0.233824137   2.38557   0.35588   0.88565   1.21431
  28   32414.7    308.5   0.069998461   0.71092   0.33091   0.61227  -0.47597
  29   32660.6    306.2   0.175245625   1.76644   0.14325  -1.06280  -0.78509
  30   32826.6    304.6   0.012457736   0.12494   0.30273  -0.02275   0.18103
  31   33062.8    302.5   0.000081534   0.00081  -0.01677   0.00971  -0.02089
  32   33200.2    301.2   0.008881949   0.08807   0.03124  -0.14633   0.25629
  33   33600.3    297.6   0.014381677   0.14091   0.31336   0.13549  -0.15606
  34   34059.5    293.6   0.002481364   0.02398  -0.06123  -0.09009  -0.11009
  35   34123.2    293.1   0.080445642   0.77612  -0.04946   0.85035   0.22490
  36   34314.3    291.4   0.083062791   0.79691   0.27584  -0.51633  -0.67396
  37   34604.1    289.0   0.055847922   0.53132  -0.00466  -0.41512  -0.59914
  38   34996.0    285.7   0.073446789   0.69092  -0.38800   0.37593   0.63171
  39   35087.3    285.0   0.184609042   1.73212  -0.25966  -1.13080  -0.62127
  40   35213.4    284.0   0.184919897   1.72883  -0.20161   1.08698   0.71180
  41   35904.3    278.5   0.016928896   0.15522   0.18481  -0.30372  -0.16976
  42   36381.1    274.9   0.015110108   0.13673  -0.32361   0.17735  -0.02353
  43   36550.6    273.6   0.000055837   0.00050  -0.01181   0.01300   0.01395
  44   36755.7    272.1   0.082653613   0.74031   0.51043  -0.39236  -0.57080
  45   37142.9    269.2   0.005200728   0.04610   0.12371  -0.16826  -0.04982
  46   37276.9    268.3   0.022025051   0.19451  -0.25029   0.33800   0.13276
  47   37389.9    267.5   0.002782520   0.02450  -0.11149   0.10396   0.03553
  48   37692.7    265.3   0.038923928   0.33997  -0.32734  -0.47405   0.08993
  49   37836.3    264.3   0.003907865   0.03400  -0.03613  -0.11417  -0.14022
  50   38424.3    260.3   0.049381585   0.42309  -0.61385   0.17251  -0.12853
  51   38701.3    258.4   0.019023800   0.16183  -0.19086  -0.06612   0.34789
  52   38889.4    257.1   0.028066259   0.23759  -0.43447  -0.21969  -0.02369
  53   39006.3    256.4   0.207394861   1.75041  -0.14998   1.31372  -0.04537
  54   39297.5    254.5   0.074291166   0.62237   0.66252  -0.26659  -0.33522
  55   39527.4    253.0   0.110138353   0.91731   0.39050  -0.70443  -0.51826
  56   39883.6    250.7   0.010608310   0.08756   0.27877   0.09907  -0.00622
  57   40088.7    249.4   0.100751901   0.82738   0.54646  -0.70423  -0.18117

FINAL SINGLE POINT ENERGY    -10783.458540545462

DIPOLE MOMENT
-------------
                                X             Y             Z
Electronic contribution:     43.80179      78.57189     126.13662
Nuclear contribution   :    -45.78493     -78.73920    -126.71857
                        -----------------------------------------
Total Dipole Moment    :     -1.98314      -0.16730      -0.58194
                        -----------------------------------------
Magnitude (a.u.)       :      2.07352
Magnitude (Debye)      :      5.27048

Rotational constants in cm-1:     0.000493     0.000184     0.000147
Rotational constants in MHz :    14.776346     5.529272     4.406161

                             ****ORCA TERMINATED NORMALLY****
TOTAL RUN TIME: 0 days 0 hours 10 minutes 21 seconds 623 msec
