                         Program Version 4.2.0 -  RELEASE  -
|  1> # ORCA input file
|  2> # SCF done       -156.099213312734          0.001349388754
|  3> ! CAM-B3LYP def2-SVP def2/J RIJCOSX Grid4 TightSCF
|  4> %maxcore 5000
|  5> %tddft
|  6>     Mode sTDDFT
|  7>     Ethresh 5.0
|  8>     maxcore 5000
|  9> end
| 10>
| 11> %pal
| 12>   nprocs 6
| 13>   end
| 14> * xyz 0 1
| 15>    C       -5.15385        -3.31764       -10.05444
| 16>    C       -5.47943        -4.62141        -9.74265
| 17>    C       -5.02036        -5.74218       -10.45892
| 18>    N       -4.68132        -6.69571       -11.00506
| 19>    C       -6.29744        -5.03199        -8.67351
| 20>    N       -6.94625        -5.46332        -7.82756
| 21>    C       -4.27747        -2.91716       -11.15670
| 22>    C       -4.14737        -1.50822       -11.13797
| 23>    C       -3.39147        -0.81996       -12.05286
| 24>    C       -2.73049        -1.55879       -13.04131
| 25>    C       -2.86576        -2.96458       -13.05248
| 26>    C       -3.63029        -3.66164       -12.12267
| 27>    S       -1.97170        -3.68179       -14.36023
| 28>    C       -1.43756        -2.10119       -14.86567
| 29>    C       -1.90144        -1.08857       -14.09746
| 30>   Br       -0.31730        -1.93679       -16.36306
| 31>    C       -4.94763        -0.96293       -10.01841
| 32>    O       -5.04658         0.21390        -9.72080
| 33>    C       -5.57978        -2.12662        -9.37757
| 34>    C       -6.47534        -2.04876        -8.31857
| 35>    C       -6.86184        -0.87514        -7.69753
| 36>    C       -7.81108        -0.81943        -6.68289
| 37>    C       -8.27245         0.33537        -6.03060
| 38>    C       -9.25574         0.09793        -5.10208
| 39>    C       -9.60042        -1.25443        -4.98591
| 40>    S       -8.63973        -2.23055        -6.06741
| 41>    C      -10.58706        -1.81926        -4.17121
| 42>    C      -11.51258        -1.15720        -3.35699
| 43>    C      -12.38487        -2.00489        -2.71532
| 44>    C      -12.17000        -3.35806        -2.99180
| 45>    S      -10.83181        -3.54168        -4.10138
| 46>    C      -12.89427        -4.44124        -2.48981
| 47>    C      -12.68807        -5.74988        -2.84632
| 48>    C      -13.42534        -6.82998        -2.35681
| 49>    C      -13.29117        -8.17498        -2.72098
| 50>    C      -14.16067        -9.02121        -2.07467
| 51>    C      -15.00815        -8.36947        -1.17112
| 52>    S      -14.68906        -6.64982        -1.16436
| 53>    C      -15.96944        -8.92127        -0.32688
| 54>    C      -16.29286       -10.27457        -0.13060
| 55>    C      -17.23904       -10.47544         0.83525
| 56>    C      -17.70596        -9.29381         1.45872
| 57>    S      -16.91638        -7.90561         0.72682
| 58>    C      -18.68924        -9.26883         2.42502
| 59>    C      -19.24947        -8.20838         3.15709
| 60>    S      -20.85270        -8.47615         3.81605
| 61>    C      -20.91739        -6.86543         4.39781
| 62>    C      -19.79155        -6.14433         4.13536
| 63>    C      -19.61541        -4.73910         4.60699
| 64>    C      -18.80704        -6.90719         3.44212
| 65>    C      -17.46065        -6.49511         3.17108
| 66>    C      -17.04138        -5.26114         2.80769
| 67>    C      -15.69336        -4.99256         2.44928
| 68>    C      -15.25721        -3.80008         1.97176
| 69>    C      -13.92537        -3.56726         1.54159
| 70>    C      -13.46629        -2.36883         1.10338
| 71>    C      -12.13242        -2.14659         0.66239
| 72>    C      -11.65700        -0.94506         0.26758
| 73>    C      -10.31722        -0.73157        -0.19627
| 74>    C       -9.84461         0.45610        -0.57724
| 75>    H       -3.31344         0.25520       -12.01148
| 76>    H       -3.70145        -4.73466       -12.17773
| 77>    H       -1.67164        -0.05245       -14.26651
| 78>    H       -6.92106        -2.96767        -7.95764
| 79>    H       -6.42487         0.05854        -8.02114
| 80>    H       -7.87856         1.30834        -6.26409
| 81>    H       -9.72496         0.86297        -4.51002
| 82>    H      -11.53329        -0.08731        -3.26228
| 83>    H      -13.17342        -1.68068        -2.06087
| 84>    H      -13.67788        -4.21015        -1.77800
| 85>    H      -11.91280        -5.97862        -3.56661
| 86>    H      -12.56471        -8.49402        -3.44710
| 87>    H      -14.19945       -10.08348        -2.23474
| 88>    H      -15.82073       -11.06367        -0.68756
| 89>    H      -17.60462       -11.44345         1.12973
| 90>    H      -19.16328       -10.22896         2.59951
| 91>    H      -21.79283        -6.53456         4.92259
| 92>    H      -20.31625        -4.52426         5.41052
| 93>    H      -19.80439        -4.03545         3.79678
| 94>    H      -18.60032        -4.58430         4.96742
| 95>    H      -16.72272        -7.28504         3.23518
| 96>    H      -17.75018        -4.45512         2.68887
| 97>    H      -14.99108        -5.81238         2.53031
| 98>    H      -15.95260        -2.97280         1.89976
| 99>    H      -13.24635        -4.41047         1.56915
|100>    H      -14.13912        -1.51958         1.08779
|101>    H      -11.47358        -3.00607         0.64391
|102>    H      -12.30754        -0.07934         0.29216
|103>    H       -9.67674        -1.60349        -0.23236
|104>    H      -10.45870         1.34161        -0.54748
|105>    H       -8.83378         0.58354        -0.92384
|106> *
|107>
|108>                          ****END OF INPUT****

CARTESIAN COORDINATES (ANGSTROEM)
---------------------------------
  C     -5.153850   -3.317640  -10.054440
  C     -5.479430   -4.621410   -9.742650
  C     -5.020360   -5.742180  -10.458920
  N     -4.681320   -6.695710  -11.005060
  C     -6.297440   -5.031990   -8.673510
  N     -6.946250   -5.463320   -7.827560
  C     -4.277470   -2.917160  -11.156700
  C     -4.147370   -1.508220  -11.137970
  C     -3.391470   -0.819960  -12.052860
  C     -2.730490   -1.558790  -13.041310
  C     -2.865760   -2.964580  -13.052480
  C     -3.630290   -3.661640  -12.122670
  S     -1.971700   -3.681790  -14.360230
  C     -1.437560   -2.101190  -14.865670
  C     -1.901440   -1.088570  -14.097460
  Br    -0.317300   -1.936790  -16.363060
  C     -4.947630   -0.962930  -10.018410
  O     -5.046580    0.213900   -9.720800
  C     -5.579780   -2.126620   -9.377570
  C     -6.475340   -2.048760   -8.318570
  C     -6.861840   -0.875140   -7.697530
  C     -7.811080   -0.819430   -6.682890
  C     -8.272450    0.335370   -6.030600
  C     -9.255740    0.097930   -5.102080
  C     -9.600420   -1.254430   -4.985910
  S     -8.639730   -2.230550   -6.067410
  C    -10.587060   -1.819260   -4.171210
  C    -11.512580   -1.157200   -3.356990
  C    -12.384870   -2.004890   -2.715320
  C    -12.170000   -3.358060   -2.991800
  S    -10.831810   -3.541680   -4.101380
  C    -12.894270   -4.441240   -2.489810
  C    -12.688070   -5.749880   -2.846320
  C    -13.425340   -6.829980   -2.356810
  C    -13.291170   -8.174980   -2.720980
  C    -14.160670   -9.021210   -2.074670
  C    -15.008150   -8.369470   -1.171120
  S    -14.689060   -6.649820   -1.164360
  C    -15.969440   -8.921270   -0.326880
  C    -16.292860  -10.274570   -0.130600
  C    -17.239040  -10.475440    0.835250
  C    -17.705960   -9.293810    1.458720
  S    -16.916380   -7.905610    0.726820
  C    -18.689240   -9.268830    2.425020
  C    -19.249470   -8.208380    3.157090
  S    -20.852700   -8.476150    3.816050
  C    -20.917390   -6.865430    4.397810
  C    -19.791550   -6.144330    4.135360
  C    -19.615410   -4.739100    4.606990
  C    -18.807040   -6.907190    3.442120
  C    -17.460650   -6.495110    3.171080
  C    -17.041380   -5.261140    2.807690
  C    -15.693360   -4.992560    2.449280
  C    -15.257210   -3.800080    1.971760
  C    -13.925370   -3.567260    1.541590
  C    -13.466290   -2.368830    1.103380
  C    -12.132420   -2.146590    0.662390
  C    -11.657000   -0.945060    0.267580
  C    -10.317220   -0.731570   -0.196270
  C     -9.844610    0.456100   -0.577240
  H     -3.313440    0.255200  -12.011480
  H     -3.701450   -4.734660  -12.177730
  H     -1.671640   -0.052450  -14.266510
  H     -6.921060   -2.967670   -7.957640
  H     -6.424870    0.058540   -8.021140
  H     -7.878560    1.308340   -6.264090
  H     -9.724960    0.862970   -4.510020
  H    -11.533290   -0.087310   -3.262280
  H    -13.173420   -1.680680   -2.060870
  H    -13.677880   -4.210150   -1.778000
  H    -11.912800   -5.978620   -3.566610
  H    -12.564710   -8.494020   -3.447100
  H    -14.199450  -10.083480   -2.234740
  H    -15.820730  -11.063670   -0.687560
  H    -17.604620  -11.443450    1.129730
  H    -19.163280  -10.228960    2.599510
  H    -21.792830   -6.534560    4.922590
  H    -20.316250   -4.524260    5.410520
  H    -19.804390   -4.035450    3.796780
  H    -18.600320   -4.584300    4.967420
  H    -16.722720   -7.285040    3.235180
  H    -17.750180   -4.455120    2.688870
  H    -14.991080   -5.812380    2.530310
  H    -15.952600   -2.972800    1.899760
  H    -13.246350   -4.410470    1.569150
  H    -14.139120   -1.519580    1.087790
  H    -11.473580   -3.006070    0.643910
  H    -12.307540   -0.079340    0.292160
  H     -9.676740   -1.603490   -0.232360
  H    -10.458700    1.341610   -0.547480
  H     -8.833780    0.583540   -0.923840

 Total Charge           Charge          ....    0
 Multiplicity           Mult            ....    1
 Number of Electrons    NEL             ....  484
 Basis Dimension        Dim             .... 1037

ORBITAL ENERGIES
----------------

  NO   OCC          E(Eh)            E(eV)
   0   2.0000    -482.866684    -13139.4705
   1   2.0000     -88.964939     -2420.8591
   2   2.0000     -88.964468     -2420.8463
   3   2.0000     -88.962633     -2420.7963
   4   2.0000     -88.954744     -2420.5817
   5   2.0000     -88.952062     -2420.5087
   6   2.0000     -88.945132     -2420.3201
   7   2.0000     -62.544380     -1701.9191
   8   2.0000     -56.378303     -1534.1316
   9   2.0000     -56.375640     -1534.0592
  10   2.0000     -56.375594     -1534.0579
  11   2.0000     -19.180931      -521.9397
  12   2.0000     -14.382652      -391.3719
  13   2.0000     -14.380741      -391.3199
  14   2.0000     -10.335836      -281.2524
  15   2.0000     -10.332166      -281.1525
  16   2.0000     -10.331145      -281.1247
  17   2.0000     -10.325911      -280.9823
  18   2.0000     -10.324725      -280.9500
  19   2.0000     -10.322768      -280.8968
  20   2.0000     -10.322466      -280.8886
  21   2.0000     -10.316037      -280.7136
  22   2.0000     -10.312907      -280.6285
  23   2.0000     -10.308448      -280.5071
  24   2.0000     -10.307607      -280.4842
  25   2.0000     -10.305314      -280.4219
  26   2.0000     -10.304640      -280.4035
  27   2.0000     -10.304539      -280.4008
  28   2.0000     -10.304256      -280.3931
  29   2.0000     -10.302488      -280.3449
  30   2.0000     -10.301318      -280.3131
  31   2.0000     -10.300851      -280.3004
  32   2.0000     -10.298612      -280.2395
  33   2.0000     -10.298559      -280.2380
  34   2.0000     -10.296813      -280.1905
  35   2.0000     -10.292695      -280.0785
  36   2.0000     -10.292301      -280.0678
  37   2.0000     -10.290700      -280.0242
  38   2.0000     -10.287613      -279.9402
  39   2.0000     -10.287500      -279.9371
  40   2.0000     -10.287471      -279.9363
  41   2.0000     -10.286290      -279.9042
  42   2.0000     -10.286146      -279.9003
  43   2.0000     -10.285508      -279.8829
  44   2.0000     -10.284936      -279.8673
  45   2.0000     -10.283757      -279.8353
  46   2.0000     -10.283594      -279.8308
  47   2.0000     -10.282014      -279.7878
  48   2.0000     -10.281565      -279.7756
  49   2.0000     -10.280416      -279.7443
  50   2.0000     -10.279740      -279.7259
  51   2.0000     -10.279095      -279.7084
  52   2.0000     -10.277891      -279.6756
  53   2.0000     -10.277641      -279.6688
  54   2.0000     -10.276389      -279.6347
  55   2.0000     -10.276068      -279.6260
  56   2.0000     -10.276029      -279.6250
  57   2.0000     -10.274649      -279.5874
  58   2.0000     -10.272931      -279.5407
  59   2.0000     -10.272501      -279.5290
  60   2.0000     -10.268802      -279.4283
  61   2.0000     -10.261287      -279.2238
  62   2.0000     -10.254157      -279.0298
  63   2.0000     -10.253047      -278.9996
  64   2.0000      -8.773784      -238.7468
  65   2.0000      -8.061133      -219.3546
  66   2.0000      -8.059987      -219.3234
  67   2.0000      -8.058673      -219.2876
  68   2.0000      -8.050912      -219.0764
  69   2.0000      -8.047990      -218.9970
  70   2.0000      -8.040976      -218.8061
  71   2.0000      -6.609961      -179.8662
  72   2.0000      -6.595547      -179.4740
  73   2.0000      -6.595433      -179.4709
  74   2.0000      -6.030349      -164.0941
  75   2.0000      -6.029687      -164.0761
  76   2.0000      -6.028242      -164.0368
  77   2.0000      -6.026259      -163.9828
  78   2.0000      -6.025501      -163.9622
  79   2.0000      -6.024185      -163.9264
  80   2.0000      -6.023264      -163.9014
  81   2.0000      -6.021111      -163.8428
  82   2.0000      -6.020408      -163.8236
  83   2.0000      -6.019994      -163.8124
  84   2.0000      -6.017687      -163.7496
  85   2.0000      -6.016360      -163.7135
  86   2.0000      -6.013439      -163.6340
  87   2.0000      -6.012336      -163.6040
  88   2.0000      -6.010437      -163.5523
  89   2.0000      -6.009228      -163.5194
  90   2.0000      -6.006458      -163.4440
  91   2.0000      -6.002450      -163.3350
  92   2.0000      -2.725872       -74.1747
  93   2.0000      -2.721798       -74.0639
  94   2.0000      -2.721696       -74.0611
  95   2.0000      -2.710247       -73.7496
  96   2.0000      -2.710236       -73.7493
  97   2.0000      -1.093922       -29.7671
  98   2.0000      -1.013367       -27.5751
  99   2.0000      -0.999798       -27.2059
 100   2.0000      -0.997996       -27.1568
 101   2.0000      -0.994846       -27.0711
 102   2.0000      -0.987745       -26.8779
 103   2.0000      -0.982026       -26.7223
 104   2.0000      -0.974593       -26.5200
 105   2.0000      -0.961329       -26.1591
 106   2.0000      -0.957645       -26.0588
 107   2.0000      -0.930422       -25.3181
 108   2.0000      -0.918827       -25.0026
 109   2.0000      -0.915248       -24.9052
 110   2.0000      -0.914888       -24.8954
 111   2.0000      -0.903945       -24.5976
 112   2.0000      -0.892644       -24.2901
 113   2.0000      -0.887965       -24.1628
 114   2.0000      -0.879766       -23.9396
 115   2.0000      -0.873393       -23.7662
 116   2.0000      -0.865766       -23.5587
 117   2.0000      -0.860941       -23.4274
 118   2.0000      -0.857958       -23.3462
 119   2.0000      -0.852728       -23.2039
 120   2.0000      -0.846699       -23.0398
 121   2.0000      -0.844552       -22.9814
 122   2.0000      -0.837579       -22.7917
 123   2.0000      -0.829115       -22.5614
 124   2.0000      -0.821855       -22.3638
 125   2.0000      -0.819844       -22.3091
 126   2.0000      -0.804339       -21.8872
 127   2.0000      -0.801892       -21.8206
 128   2.0000      -0.789239       -21.4763
 129   2.0000      -0.781586       -21.2680
 130   2.0000      -0.764219       -20.7955
 131   2.0000      -0.748471       -20.3669
 132   2.0000      -0.732723       -19.9384
 133   2.0000      -0.727485       -19.7959
 134   2.0000      -0.723682       -19.6924
 135   2.0000      -0.709203       -19.2984
 136   2.0000      -0.694613       -18.9014
 137   2.0000      -0.686373       -18.6771
 138   2.0000      -0.682086       -18.5605
 139   2.0000      -0.670615       -18.2484
 140   2.0000      -0.667297       -18.1581
 141   2.0000      -0.660180       -17.9644
 142   2.0000      -0.659230       -17.9386
 143   2.0000      -0.653525       -17.7833
 144   2.0000      -0.645593       -17.5675
 145   2.0000      -0.642238       -17.4762
 146   2.0000      -0.639566       -17.4035
 147   2.0000      -0.634505       -17.2658
 148   2.0000      -0.633346       -17.2342
 149   2.0000      -0.629137       -17.1197
 150   2.0000      -0.627672       -17.0798
 151   2.0000      -0.623205       -16.9583
 152   2.0000      -0.611656       -16.6440
 153   2.0000      -0.608269       -16.5518
 154   2.0000      -0.602435       -16.3931
 155   2.0000      -0.601886       -16.3782
 156   2.0000      -0.594087       -16.1659
 157   2.0000      -0.583346       -15.8737
 158   2.0000      -0.574088       -15.6217
 159   2.0000      -0.570168       -15.5150
 160   2.0000      -0.566141       -15.4055
 161   2.0000      -0.561540       -15.2803
 162   2.0000      -0.557987       -15.1836
 163   2.0000      -0.546365       -14.8674
 164   2.0000      -0.542106       -14.7514
 165   2.0000      -0.537980       -14.6392
 166   2.0000      -0.533219       -14.5096
 167   2.0000      -0.527053       -14.3418
 168   2.0000      -0.521688       -14.1958
 169   2.0000      -0.520062       -14.1516
 170   2.0000      -0.518318       -14.1042
 171   2.0000      -0.514905       -14.0113
 172   2.0000      -0.513417       -13.9708
 173   2.0000      -0.511099       -13.9077
 174   2.0000      -0.508411       -13.8346
 175   2.0000      -0.505716       -13.7612
 176   2.0000      -0.504239       -13.7211
 177   2.0000      -0.501883       -13.6569
 178   2.0000      -0.500236       -13.6121
 179   2.0000      -0.498899       -13.5757
 180   2.0000      -0.496042       -13.4980
 181   2.0000      -0.492435       -13.3998
 182   2.0000      -0.487768       -13.2728
 183   2.0000      -0.484283       -13.1780
 184   2.0000      -0.481955       -13.1147
 185   2.0000      -0.478974       -13.0335
 186   2.0000      -0.478586       -13.0230
 187   2.0000      -0.475732       -12.9453
 188   2.0000      -0.475335       -12.9345
 189   2.0000      -0.469877       -12.7860
 190   2.0000      -0.467729       -12.7275
 191   2.0000      -0.466672       -12.6988
 192   2.0000      -0.465527       -12.6676
 193   2.0000      -0.464088       -12.6285
 194   2.0000      -0.460582       -12.5331
 195   2.0000      -0.458804       -12.4847
 196   2.0000      -0.457504       -12.4493
 197   2.0000      -0.456550       -12.4234
 198   2.0000      -0.452297       -12.3076
 199   2.0000      -0.446635       -12.1536
 200   2.0000      -0.443149       -12.0587
 201   2.0000      -0.441695       -12.0191
 202   2.0000      -0.438372       -11.9287
 203   2.0000      -0.435412       -11.8482
 204   2.0000      -0.433157       -11.7868
 205   2.0000      -0.431774       -11.7492
 206   2.0000      -0.429234       -11.6801
 207   2.0000      -0.427662       -11.6373
 208   2.0000      -0.426761       -11.6127
 209   2.0000      -0.422209       -11.4889
 210   2.0000      -0.420085       -11.4311
 211   2.0000      -0.418763       -11.3951
 212   2.0000      -0.415594       -11.3089
 213   2.0000      -0.413819       -11.2606
 214   2.0000      -0.411810       -11.2059
 215   2.0000      -0.411405       -11.1949
 216   2.0000      -0.398885       -10.8542
 217   2.0000      -0.397743       -10.8231
 218   2.0000      -0.395106       -10.7514
 219   2.0000      -0.391736       -10.6597
 220   2.0000      -0.385350       -10.4859
 221   2.0000      -0.381414       -10.3788
 222   2.0000      -0.375719       -10.2238
 223   2.0000      -0.372183       -10.1276
 224   2.0000      -0.361415        -9.8346
 225   2.0000      -0.356435        -9.6991
 226   2.0000      -0.352231        -9.5847
 227   2.0000      -0.348349        -9.4791
 228   2.0000      -0.344990        -9.3877
 229   2.0000      -0.336016        -9.1435
 230   2.0000      -0.334237        -9.0951
 231   2.0000      -0.331051        -9.0084
 232   2.0000      -0.320539        -8.7223
 233   2.0000      -0.311291        -8.4706
 234   2.0000      -0.303277        -8.2526
 235   2.0000      -0.301766        -8.2115
 236   2.0000      -0.289191        -7.8693
 237   2.0000      -0.282008        -7.6738
 238   2.0000      -0.267748        -7.2858
 239   2.0000      -0.255000        -6.9389
 240   2.0000      -0.237615        -6.4658
 241   2.0000      -0.194927        -5.3042
 242   0.0000      -0.120356        -3.2751
 243   0.0000      -0.071551        -1.9470
 244   0.0000      -0.056624        -1.5408
 245   0.0000      -0.039339        -1.0705
 246   0.0000      -0.024775        -0.6742

MULLIKEN ATOMIC CHARGES
-----------------------
   0 C :    0.327711
   1 C :   -0.373838
   2 C :   -0.189600
   3 N :    0.124038
   4 C :   -0.192703
   5 N :    0.117794
   6 C :    0.012874
   7 C :   -0.005298
   8 C :   -0.084394
   9 C :    0.116503
  10 C :   -0.093336
  11 C :   -0.030042
  12 S :    0.171262
  13 C :   -0.124099
  14 C :    0.036952
  15 Br:    0.004464
  16 C :    0.131473
  17 O :   -0.175192
  18 C :   -0.101715
  19 C :   -0.036769
  20 C :   -0.026554
  21 C :    0.003718
  22 C :    0.014666
  23 C :    0.033564
  24 C :   -0.056538
  25 S :    0.111472
  26 C :   -0.030663
  27 C :    0.019285
  28 C :    0.067571
  29 C :   -0.060801
  30 S :    0.113379
  31 C :    0.015537
  32 C :   -0.021443
  33 C :   -0.017182
  34 C :    0.021666
  35 C :    0.028731
  36 C :   -0.052942
  37 S :    0.092653
  38 C :   -0.027176
  39 C :    0.024725
  40 C :    0.044408
  41 C :   -0.046577
  42 S :    0.090143
  43 C :    0.024055
  44 C :   -0.161877
  45 S :    0.121504
  46 C :   -0.110069
  47 C :   -0.090198
  48 C :    0.110870
  49 C :    0.143039
  50 C :   -0.088599
  51 C :    0.025595
  52 C :    0.015254
  53 C :    0.016830
  54 C :    0.016988
  55 C :    0.008004
  56 C :    0.012291
  57 C :   -0.000894
  58 C :    0.016697
  59 C :   -0.027910
  60 H :   -0.019295
  61 H :   -0.011935
  62 H :   -0.010029
  63 H :    0.007677
  64 H :    0.010735
  65 H :   -0.008815
  66 H :   -0.014081
  67 H :   -0.016961
  68 H :   -0.013293
  69 H :    0.002740
  70 H :    0.004460
  71 H :   -0.001197
  72 H :   -0.005696
  73 H :   -0.008508
  74 H :   -0.004383
  75 H :   -0.001271
  76 H :    0.021648
  77 H :    0.012020
  78 H :    0.036856
  79 H :    0.032272
  80 H :    0.018121
  81 H :   -0.013088
  82 H :   -0.011406
  83 H :   -0.014176
  84 H :   -0.007655
  85 H :   -0.013675
  86 H :   -0.006117
  87 H :   -0.015740
  88 H :   -0.000029
  89 H :    0.012283
  90 H :    0.029234
Sum of atomic charges:   -0.0000000

LOEWDIN ATOMIC CHARGES
----------------------
   0 C :    0.070912
   1 C :   -0.170005
   2 C :   -0.019092
   3 N :   -0.083010
   4 C :   -0.020862
   5 N :   -0.080715
   6 C :   -0.015464
   7 C :   -0.046695
   8 C :    0.012443
   9 C :   -0.039347
  10 C :   -0.147603
  11 C :   -0.017632
  12 S :    0.421363
  13 C :   -0.278398
  14 C :   -0.071454
  15 Br:    0.121960
  16 C :    0.079233
  17 O :   -0.168100
  18 C :   -0.120503
  19 C :    0.039761
  20 C :   -0.078925
  21 C :   -0.109191
  22 C :   -0.055705
  23 C :   -0.016427
  24 C :   -0.203615
  25 S :    0.416869
  26 C :   -0.145690
  27 C :   -0.047529
  28 C :   -0.011993
  29 C :   -0.170652
  30 S :    0.410777
  31 C :   -0.023308
  32 C :   -0.076916
  33 C :   -0.126449
  34 C :   -0.044670
  35 C :   -0.018857
  36 C :   -0.193118
  37 S :    0.395954
  38 C :   -0.157753
  39 C :   -0.043716
  40 C :   -0.014856
  41 C :   -0.162131
  42 S :    0.428537
  43 C :   -0.047570
  44 C :   -0.176839
  45 S :    0.434622
  46 C :   -0.179204
  47 C :   -0.054078
  48 C :   -0.044743
  49 C :   -0.050729
  50 C :   -0.045943
  51 C :   -0.016842
  52 C :   -0.026355
  53 C :   -0.020493
  54 C :   -0.026454
  55 C :   -0.026055
  56 C :   -0.025766
  57 C :   -0.021413
  58 C :   -0.020873
  59 C :   -0.046030
  60 H :    0.036872
  61 H :    0.038991
  62 H :    0.035933
  63 H :    0.029793
  64 H :    0.036319
  65 H :    0.035098
  66 H :    0.031776
  67 H :    0.030151
  68 H :    0.033369
  69 H :    0.031533
  70 H :    0.032173
  71 H :    0.038006
  72 H :    0.034982
  73 H :    0.034064
  74 H :    0.036102
  75 H :    0.037999
  76 H :    0.024393
  77 H :    0.033701
  78 H :    0.035767
  79 H :    0.036798
  80 H :    0.025540
  81 H :    0.027485
  82 H :    0.026577
  83 H :    0.026779
  84 H :    0.028747
  85 H :    0.026213
  86 H :    0.029663
  87 H :    0.024275
  88 H :    0.031791
  89 H :    0.019664
  90 H :    0.026781

  Mayer bond orders larger than 0.100000
B(  0-C ,  1-C ) :   1.5481 B(  0-C ,  6-C ) :   0.9817 B(  0-C , 18-C ) :   1.1502
B(  1-C ,  2-C ) :   1.1542 B(  1-C ,  4-C ) :   1.1603 B(  2-C ,  3-N ) :   2.9564
B(  4-C ,  5-N ) :   2.9531 B(  6-C ,  7-C ) :   1.2812 B(  6-C , 11-C ) :   1.4281
B(  7-C ,  8-C ) :   1.4378 B(  7-C , 16-C ) :   0.9317 B(  8-C ,  9-C ) :   1.2326
B(  8-C , 60-H ) :   1.0156 B(  9-C , 10-C ) :   1.3257 B(  9-C , 14-C ) :   1.1595
B( 10-C , 11-C ) :   1.3127 B( 10-C , 12-S ) :   1.0789 B( 11-C , 61-H ) :   0.9788
B( 12-S , 13-C ) :   1.0847 B( 13-C , 14-C ) :   1.6215 B( 13-C , 15-Br) :   1.0073
B( 14-C , 62-H ) :   1.0001 B( 16-C , 17-O ) :   2.1722 B( 16-C , 18-C ) :   0.9829
B( 18-C , 19-C ) :   1.4021 B( 19-C , 20-C ) :   1.3379 B( 19-C , 63-H ) :   0.9457
B( 20-C , 21-C ) :   1.3343 B( 20-C , 64-H ) :   0.9772 B( 21-C , 22-C ) :   1.2428
B( 21-C , 25-S ) :   1.0982 B( 22-C , 23-C ) :   1.4586 B( 22-C , 65-H ) :   1.0031
B( 23-C , 24-C ) :   1.2933 B( 23-C , 66-H ) :   0.9958 B( 24-C , 25-S ) :   1.0591
B( 24-C , 26-C ) :   1.3480 B( 26-C , 27-C ) :   1.2896 B( 26-C , 30-S ) :   1.1029
B( 27-C , 28-C ) :   1.4703 B( 27-C , 67-H ) :   0.9919 B( 28-C , 29-C ) :   1.2538
B( 28-C , 68-H ) :   0.9894 B( 29-C , 30-S ) :   1.0479 B( 29-C , 31-C ) :   1.4200
B( 31-C , 32-C ) :   1.3090 B( 31-C , 69-H ) :   0.9722 B( 32-C , 33-C ) :   1.4111
B( 32-C , 70-H ) :   0.9753 B( 33-C , 34-C ) :   1.2361 B( 33-C , 37-S ) :   1.0771
B( 34-C , 35-C ) :   1.4873 B( 34-C , 71-H ) :   1.0022 B( 35-C , 36-C ) :   1.2650
B( 35-C , 72-H ) :   0.9953 B( 36-C , 37-S ) :   1.0495 B( 36-C , 38-C ) :   1.4093
B( 38-C , 39-C ) :   1.2232 B( 38-C , 42-S ) :   1.0752 B( 39-C , 40-C ) :   1.5519
B( 39-C , 73-H ) :   0.9942 B( 40-C , 41-C ) :   1.1632 B( 40-C , 74-H ) :   0.9996
B( 41-C , 42-S ) :   1.0301 B( 41-C , 43-C ) :   1.5761 B( 43-C , 44-C ) :   1.1879
B( 43-C , 75-H ) :   0.9432 B( 44-C , 45-S ) :   1.1188 B( 44-C , 49-C ) :   1.3826
B( 45-S , 46-C ) :   1.1540 B( 46-C , 47-C ) :   1.5703 B( 46-C , 76-H ) :   0.9667
B( 47-C , 48-C ) :   1.0923 B( 47-C , 49-C ) :   1.2638 B( 48-C , 77-H ) :   0.9484
B( 48-C , 78-H ) :   0.9428 B( 48-C , 79-H ) :   0.9434 B( 49-C , 50-C ) :   1.0878
B( 50-C , 51-C ) :   1.6627 B( 50-C , 80-H ) :   0.9564 B( 51-C , 52-C ) :   1.1243
B( 51-C , 81-H ) :   0.9856 B( 52-C , 53-C ) :   1.6304 B( 52-C , 82-H ) :   0.9884
B( 53-C , 54-C ) :   1.1235 B( 53-C , 83-H ) :   0.9843 B( 54-C , 55-C ) :   1.6381
B( 54-C , 84-H ) :   0.9870 B( 55-C , 56-C ) :   1.1151 B( 55-C , 85-H ) :   0.9841
B( 56-C , 57-C ) :   1.6734 B( 56-C , 86-H ) :   0.9854 B( 57-C , 58-C ) :   1.1102
B( 57-C , 87-H ) :   0.9784 B( 58-C , 59-C ) :   1.8938 B( 58-C , 88-H ) :   0.9747
B( 59-C , 89-H ) :   0.9575 B( 59-C , 90-H ) :   0.9519

-----------------------------------------------------------------------------
         ABSORPTION SPECTRUM VIA TRANSITION ELECTRIC DIPOLE MOMENTS
-----------------------------------------------------------------------------
State   Energy  Wavelength   fosc         T2         TX        TY        TZ
        (cm-1)    (nm)                  (au**2)     (au)      (au)      (au)
-----------------------------------------------------------------------------
   0    4980.3   2007.9   0.765940740  50.63091  -4.87457  -2.19277   4.69694
   1   11812.1    846.6   0.052371495   1.45963   0.87639   0.63786  -0.53358
   2   13814.7    723.9   0.226062248   5.38719  -1.78096  -0.88684   1.19537
   3   15875.8    629.9   0.002043966   0.04239  -0.01164   0.10295  -0.17791
   4   17887.5    559.1   0.216458039   3.98383  -0.52512  -1.92094  -0.13446
   5   20311.9    492.3   0.025633989   0.41547   0.10311  -0.60970  -0.18195
   6   21746.3    459.8   0.228717660   3.46250  -0.07086  -1.82520  -0.35515
   7   22789.4    438.8   0.182852066   2.64145  -0.42903  -1.56639   0.06175
   8   23271.6    429.7   0.443760726   6.27767   0.41689   2.34500   0.77772
   9   24725.0    404.4   0.304735077   4.05754  -1.42967  -0.32207   1.38198
  10   25070.3    398.9   0.347675776   4.56552  -1.11538   1.22953   1.34525
  11   25926.3    385.7   0.001891638   0.02402   0.04005  -0.12364  -0.08443
  12   26781.3    373.4   0.045402417   0.55811  -0.58953   0.05896   0.45507
  13   26958.1    370.9   0.420537062   5.13558   1.82988  -0.15695  -1.32758
  14   27339.3    365.8   0.045562729   0.54865  -0.66084  -0.17507   0.28512
  15   27767.6    360.1   0.218745367   2.59344   1.01102   1.17800  -0.42848
  16   28556.2    350.2   0.126509942   1.45848   0.90591   0.19985  -0.77322
  17   29315.2    341.1   0.146182311   1.64164   0.94710   0.39322  -0.76813
  18   29823.0    335.3   1.152254851  12.71960   2.27193   2.49666  -1.15093
  19   30219.3    330.9   0.006859389   0.07473  -0.11764   0.24464   0.03223
  20   30861.6    324.0   0.005033267   0.05369   0.07521  -0.15116  -0.15870
  21   30967.6    322.9   0.273054868   2.90281  -1.12204  -0.14218   1.27422
  22   31617.9    316.3   0.119310568   1.24229   0.55086  -0.01125  -0.96887
  23   31843.5    314.0   0.001097698   0.01135  -0.02850  -0.03185   0.09758
  24   31903.8    313.4   0.001848938   0.01908  -0.13691  -0.00849  -0.01621
  25   32345.3    309.2   0.024860979   0.25304  -0.34876   0.05686   0.35801
  26   32778.2    305.1   0.136436018   1.37031  -0.60130  -0.19960   0.98433
  27   33007.2    303.0   0.117514444   1.17208   0.48200   0.80692  -0.53726
  28   33130.2    301.8   0.033764792   0.33552  -0.43353  -0.14621   0.35523
  29   33661.2    297.1   0.003780979   0.03698  -0.16349   0.05135   0.08726
  30   33954.8    294.5   0.040490146   0.39258  -0.46205  -0.35834   0.22512
  31   34616.0    288.9   0.011919112   0.11336  -0.21825   0.16884   0.19291
  32   35094.8    284.9   0.011004440   0.10323   0.23384   0.03367  -0.21775
  33   35206.3    284.0   0.020860126   0.19506   0.27438   0.24949  -0.23986
  34   35516.8    281.6   0.004704517   0.04361   0.00793  -0.20711  -0.02549
  35   36002.3    277.8   0.021037662   0.19237  -0.16981   0.32834   0.23607
  36   36245.8    275.9   0.366647941   3.33018   0.64922   1.57988  -0.64238
  37   36616.0    273.1   0.003985193   0.03583  -0.07250  -0.16131   0.06747
  38   36974.1    270.5   0.002119712   0.01887  -0.07444  -0.09569  -0.06462
  39   37249.3    268.5   0.075093848   0.66368  -0.24667  -0.72210   0.28531
  40   38004.1    263.1   0.024984666   0.21643   0.10495  -0.43001  -0.14320
  41   38309.1    261.0   0.007318204   0.06289  -0.07242  -0.18150   0.15717
  42   38655.1    258.7   0.068579862   0.58407  -0.33053  -0.58348   0.36657
  43   39185.6    255.2   0.006873355   0.05775  -0.11505   0.19794   0.07300
  44   39327.8    254.3   0.007435328   0.06224  -0.01098   0.23519   0.08250
  45   39358.7    254.1   0.010542123   0.08818   0.05540  -0.27473  -0.09816
  46   39925.6    250.5   0.067971211   0.56047  -0.20322   0.62939   0.35076
  47   40290.6    248.2   0.025187816   0.20581   0.13730   0.43031   0.04235

FINAL SINGLE POINT ENERGY     -7068.194072210952

DIPOLE MOMENT
-------------
                                X             Y             Z
Electronic contribution:    159.08809       9.47598    -199.94014
Nuclear contribution   :   -165.01945      -9.60957     205.75964
                        -----------------------------------------
Total Dipole Moment    :     -5.93135      -0.13360       5.81950
                        -----------------------------------------
Magnitude (a.u.)       :      8.31056
Magnitude (Debye)      :     21.12376

Rotational constants in cm-1:     0.002839     0.000214     0.000200
Rotational constants in MHz :    85.112218     6.402331     6.009537

                             ****ORCA TERMINATED NORMALLY****
TOTAL RUN TIME: 0 days 0 hours 8 minutes 17 seconds 378 msec
