                         Program Version 4.2.0 -  RELEASE  -
|  1> # ORCA input file
|  2> # SCF done       -152.867437706834          0.000326835717
|  3> ! CAM-B3LYP def2-SVP def2/J RIJCOSX Grid4 TightSCF
|  4> %maxcore 5000
|  5> %tddft
|  6>     Mode sTDDFT
|  7>     Ethresh 5.0
|  8>     maxcore 5000
|  9> end
| 10>
| 11> %pal
| 12>   nprocs 6
| 13>   end
| 14> * xyz 0 1
| 15>    C        9.37342        -3.12967         8.21495
| 16>    C        9.24316        -2.70099         6.95187
| 17>    C        9.96283        -1.64210         6.30437
| 18>    C        9.61691        -1.43871         5.01368
| 19>    C        8.60304        -2.31183         4.53193
| 20>    S        8.09871        -3.41162         5.80223
| 21>    C        8.05948        -2.34957         3.27047
| 22>    C        8.37825        -1.53576         2.15576
| 23>    C        7.66952        -1.83513         1.03576
| 24>    C        6.74730        -2.90230         1.18905
| 25>    S        6.81183        -3.50601         2.83593
| 26>    C        5.93522        -3.40417         0.20338
| 27>    C        5.02083        -4.45864         0.29944
| 28>    C        4.22830        -4.98992        -0.74020
| 29>    C        4.19193        -4.58631        -2.08279
| 30>    C        3.37033        -5.24655        -2.95942
| 31>    C        2.56451        -6.31354        -2.54163
| 32>    C        2.55148        -6.75220        -1.23425
| 33>    C        3.40265        -6.07742        -0.30432
| 34>    C        3.58421        -6.35256         1.03560
| 35>    S        4.72375        -5.32235         1.77834
| 36>    C        1.71076        -7.83831        -0.78011
| 37>    C        1.24831        -8.82918        -1.55767
| 38>    C        0.42117        -9.94060        -1.12838
| 39>    C        0.25927       -11.03290        -1.99050
| 40>    O        0.86331       -11.00974        -3.23754
| 41>    C       -0.01717       -10.68556        -4.29372
| 42>    C       -0.48428       -12.16082        -1.59513
| 43>    C       -1.09742       -12.14596        -0.34589
| 44>    C       -0.97806       -11.05086         0.50446
| 45>    C       -0.21120        -9.96323         0.11928
| 46>    O       -1.64116       -11.15556         1.69202
| 47>    C       -1.54854       -10.09440         2.61010
| 48>    C       -0.54320       -13.30741        -2.47483
| 49>    C       -1.39925       -14.34297        -2.37290
| 50>    C       -1.40442       -15.47212        -3.23434
| 51>    C       -2.22560       -16.60225        -3.15645
| 52>    C       -3.23654       -16.86045        -2.21259
| 53>    C       -3.93452       -18.03602        -2.28634
| 54>    C       -3.66296       -18.98796        -3.27536
| 55>    C       -2.68277       -18.80185        -4.23602
| 56>    C       -1.94260       -17.57059        -4.18165
| 57>    C       -0.92650       -17.14869        -5.00618
| 58>    S       -0.30792       -15.61841        -4.56777
| 59>    C       -2.38892       -19.76807        -5.24930
| 60>    C       -2.92367       -21.01466        -5.35713
| 61>    C       -2.57883       -21.92162        -6.37515
| 62>    C       -3.08501       -23.18993        -6.48167
| 63>    C       -2.77205       -24.15581        -7.47276
| 64>    C       -3.41885       -25.34148        -7.32800
| 65>    C       -4.28951       -25.39168        -6.21018
| 66>    S       -4.25290       -23.86397        -5.35059
| 67>    C       -5.07257       -26.44238        -5.79792
| 68>    C       -5.18616       -27.72568        -6.40155
| 69>    C       -6.03667       -28.56613        -5.77213
| 70>    C       -6.67019       -28.01014        -4.61088
| 71>    S       -6.10463       -26.34758        -4.38236
| 72>    C       -7.55228       -28.60246        -3.79443
| 73>    H       10.08344        -2.67056         8.87992
| 74>    H        8.78125        -3.93868         8.60132
| 75>    H       10.70981        -1.08118         6.83775
| 76>    H       10.05540        -0.68839         4.37961
| 77>    H        9.12008        -0.75952         2.21322
| 78>    H        7.77826        -1.32628         0.09358
| 79>    H        6.01843        -2.93220        -0.76708
| 80>    H        4.80575        -3.76547        -2.42066
| 81>    H        3.33417        -4.94015        -3.99449
| 82>    H        1.91851        -6.78656        -3.26543
| 83>    H        3.12160        -7.11456         1.62984
| 84>    H        1.48582        -7.83465         0.27674
| 85>    H        1.55325        -8.87156        -2.59364
| 86>    H       -0.40762        -9.66661        -4.18435
| 87>    H       -0.86171       -11.38104        -4.34483
| 88>    H        0.56765       -10.75506        -5.20964
| 89>    H       -1.66244       -12.99389         0.00397
| 90>    H       -0.10038        -9.11292         0.77071
| 91>    H       -2.15094       -10.39309         3.46665
| 92>    H       -1.94987        -9.16435         2.19402
| 93>    H       -0.51546        -9.93247         2.93509
| 94>    H        0.18969       -13.31611        -3.27212
| 95>    H       -2.15099       -14.34982        -1.59656
| 96>    H       -3.45563       -16.13803        -1.44188
| 97>    H       -4.71413       -18.24235        -1.56775
| 98>    H       -4.25006       -19.89264        -3.28300
| 99>    H       -0.49364       -17.64476        -5.85140
|100>    H       -1.65893       -19.47778        -5.99260
|101>    H       -3.64497       -21.36730        -4.63277
|102>    H       -1.86257       -21.60776        -7.12384
|103>    H       -2.07313       -23.93606        -8.26103
|104>    H       -3.29748       -26.18148        -7.98833
|105>    H       -4.62793       -27.97882        -7.28563
|106>    H       -6.24894       -29.57405        -6.08225
|107>    H       -7.86836       -29.61547        -3.97035
|108>    H       -7.96879       -28.09204        -2.94567
|109> *
|110>
|111>                          ****END OF INPUT****

CARTESIAN COORDINATES (ANGSTROEM)
---------------------------------
  C      9.373420   -3.129670    8.214950
  C      9.243160   -2.700990    6.951870
  C      9.962830   -1.642100    6.304370
  C      9.616910   -1.438710    5.013680
  C      8.603040   -2.311830    4.531930
  S      8.098710   -3.411620    5.802230
  C      8.059480   -2.349570    3.270470
  C      8.378250   -1.535760    2.155760
  C      7.669520   -1.835130    1.035760
  C      6.747300   -2.902300    1.189050
  S      6.811830   -3.506010    2.835930
  C      5.935220   -3.404170    0.203380
  C      5.020830   -4.458640    0.299440
  C      4.228300   -4.989920   -0.740200
  C      4.191930   -4.586310   -2.082790
  C      3.370330   -5.246550   -2.959420
  C      2.564510   -6.313540   -2.541630
  C      2.551480   -6.752200   -1.234250
  C      3.402650   -6.077420   -0.304320
  C      3.584210   -6.352560    1.035600
  S      4.723750   -5.322350    1.778340
  C      1.710760   -7.838310   -0.780110
  C      1.248310   -8.829180   -1.557670
  C      0.421170   -9.940600   -1.128380
  C      0.259270  -11.032900   -1.990500
  O      0.863310  -11.009740   -3.237540
  C     -0.017170  -10.685560   -4.293720
  C     -0.484280  -12.160820   -1.595130
  C     -1.097420  -12.145960   -0.345890
  C     -0.978060  -11.050860    0.504460
  C     -0.211200   -9.963230    0.119280
  O     -1.641160  -11.155560    1.692020
  C     -1.548540  -10.094400    2.610100
  C     -0.543200  -13.307410   -2.474830
  C     -1.399250  -14.342970   -2.372900
  C     -1.404420  -15.472120   -3.234340
  C     -2.225600  -16.602250   -3.156450
  C     -3.236540  -16.860450   -2.212590
  C     -3.934520  -18.036020   -2.286340
  C     -3.662960  -18.987960   -3.275360
  C     -2.682770  -18.801850   -4.236020
  C     -1.942600  -17.570590   -4.181650
  C     -0.926500  -17.148690   -5.006180
  S     -0.307920  -15.618410   -4.567770
  C     -2.388920  -19.768070   -5.249300
  C     -2.923670  -21.014660   -5.357130
  C     -2.578830  -21.921620   -6.375150
  C     -3.085010  -23.189930   -6.481670
  C     -2.772050  -24.155810   -7.472760
  C     -3.418850  -25.341480   -7.328000
  C     -4.289510  -25.391680   -6.210180
  S     -4.252900  -23.863970   -5.350590
  C     -5.072570  -26.442380   -5.797920
  C     -5.186160  -27.725680   -6.401550
  C     -6.036670  -28.566130   -5.772130
  C     -6.670190  -28.010140   -4.610880
  S     -6.104630  -26.347580   -4.382360
  C     -7.552280  -28.602460   -3.794430
  H     10.083440   -2.670560    8.879920
  H      8.781250   -3.938680    8.601320
  H     10.709810   -1.081180    6.837750
  H     10.055400   -0.688390    4.379610
  H      9.120080   -0.759520    2.213220
  H      7.778260   -1.326280    0.093580
  H      6.018430   -2.932200   -0.767080
  H      4.805750   -3.765470   -2.420660
  H      3.334170   -4.940150   -3.994490
  H      1.918510   -6.786560   -3.265430
  H      3.121600   -7.114560    1.629840
  H      1.485820   -7.834650    0.276740
  H      1.553250   -8.871560   -2.593640
  H     -0.407620   -9.666610   -4.184350
  H     -0.861710  -11.381040   -4.344830
  H      0.567650  -10.755060   -5.209640
  H     -1.662440  -12.993890    0.003970
  H     -0.100380   -9.112920    0.770710
  H     -2.150940  -10.393090    3.466650
  H     -1.949870   -9.164350    2.194020
  H     -0.515460   -9.932470    2.935090
  H      0.189690  -13.316110   -3.272120
  H     -2.150990  -14.349820   -1.596560
  H     -3.455630  -16.138030   -1.441880
  H     -4.714130  -18.242350   -1.567750
  H     -4.250060  -19.892640   -3.283000
  H     -0.493640  -17.644760   -5.851400
  H     -1.658930  -19.477780   -5.992600
  H     -3.644970  -21.367300   -4.632770
  H     -1.862570  -21.607760   -7.123840
  H     -2.073130  -23.936060   -8.261030
  H     -3.297480  -26.181480   -7.988330
  H     -4.627930  -27.978820   -7.285630
  H     -6.248940  -29.574050   -6.082250
  H     -7.868360  -29.615470   -3.970350
  H     -7.968790  -28.092040   -2.945670

 Total Charge           Charge          ....    0
 Multiplicity           Mult            ....    1
 Number of Electrons    NEL             ....  448
 Basis Dimension        Dim             .... 1016

ORBITAL ENERGIES
----------------

  NO   OCC          E(Eh)            E(eV)
   0   2.0000     -88.955685     -2420.6072
   1   2.0000     -88.955163     -2420.5930
   2   2.0000     -88.936763     -2420.0924
   3   2.0000     -88.935085     -2420.0467
   4   2.0000     -88.931792     -2419.9571
   5   2.0000     -88.930634     -2419.9256
   6   2.0000     -19.233631      -523.3737
   7   2.0000     -19.223343      -523.0938
   8   2.0000     -10.320329      -280.8304
   9   2.0000     -10.315463      -280.6980
  10   2.0000     -10.309292      -280.5301
  11   2.0000     -10.309044      -280.5233
  12   2.0000     -10.302889      -280.3559
  13   2.0000     -10.302312      -280.3402
  14   2.0000     -10.301772      -280.3255
  15   2.0000     -10.300430      -280.2890
  16   2.0000     -10.300423      -280.2888
  17   2.0000     -10.299633      -280.2673
  18   2.0000     -10.298719      -280.2424
  19   2.0000     -10.297102      -280.1984
  20   2.0000     -10.292217      -280.0655
  21   2.0000     -10.289364      -279.9878
  22   2.0000     -10.285286      -279.8769
  23   2.0000     -10.283791      -279.8362
  24   2.0000     -10.282832      -279.8101
  25   2.0000     -10.282526      -279.8017
  26   2.0000     -10.281763      -279.7810
  27   2.0000     -10.278382      -279.6890
  28   2.0000     -10.278226      -279.6847
  29   2.0000     -10.277637      -279.6687
  30   2.0000     -10.277627      -279.6684
  31   2.0000     -10.277407      -279.6625
  32   2.0000     -10.276761      -279.6449
  33   2.0000     -10.273015      -279.5430
  34   2.0000     -10.272659      -279.5333
  35   2.0000     -10.271691      -279.5069
  36   2.0000     -10.270926      -279.4861
  37   2.0000     -10.270834      -279.4836
  38   2.0000     -10.270523      -279.4751
  39   2.0000     -10.270378      -279.4712
  40   2.0000     -10.269512      -279.4476
  41   2.0000     -10.268895      -279.4308
  42   2.0000     -10.268644      -279.4240
  43   2.0000     -10.268349      -279.4160
  44   2.0000     -10.267505      -279.3930
  45   2.0000     -10.264111      -279.3007
  46   2.0000     -10.263625      -279.2874
  47   2.0000     -10.263516      -279.2845
  48   2.0000     -10.263201      -279.2759
  49   2.0000     -10.263006      -279.2706
  50   2.0000     -10.262825      -279.2657
  51   2.0000     -10.261811      -279.2381
  52   2.0000     -10.261597      -279.2322
  53   2.0000     -10.260873      -279.2125
  54   2.0000     -10.260505      -279.2025
  55   2.0000     -10.259745      -279.1819
  56   2.0000     -10.258750      -279.1548
  57   2.0000     -10.256723      -279.0996
  58   2.0000      -8.050688      -219.0704
  59   2.0000      -8.050328      -219.0606
  60   2.0000      -8.032811      -218.5839
  61   2.0000      -8.031343      -218.5439
  62   2.0000      -8.028493      -218.4664
  63   2.0000      -8.027419      -218.4372
  64   2.0000      -6.019635      -163.8026
  65   2.0000      -6.019210      -163.7910
  66   2.0000      -6.015306      -163.6848
  67   2.0000      -6.015024      -163.6771
  68   2.0000      -6.013796      -163.6437
  69   2.0000      -6.013499      -163.6356
  70   2.0000      -6.002604      -163.3392
  71   2.0000      -6.001105      -163.2984
  72   2.0000      -5.998502      -163.2275
  73   2.0000      -5.998320      -163.2226
  74   2.0000      -5.997251      -163.1935
  75   2.0000      -5.997206      -163.1923
  76   2.0000      -5.994433      -163.1168
  77   2.0000      -5.993659      -163.0958
  78   2.0000      -5.993348      -163.0873
  79   2.0000      -5.992085      -163.0529
  80   2.0000      -5.988990      -162.9687
  81   2.0000      -5.987896      -162.9389
  82   2.0000      -1.137664       -30.9574
  83   2.0000      -1.125864       -30.6363
  84   2.0000      -0.987614       -26.8743
  85   2.0000      -0.985309       -26.8116
  86   2.0000      -0.983644       -26.7663
  87   2.0000      -0.980181       -26.6721
  88   2.0000      -0.962481       -26.1905
  89   2.0000      -0.960678       -26.1414
  90   2.0000      -0.943403       -25.6713
  91   2.0000      -0.925789       -25.1920
  92   2.0000      -0.922674       -25.1072
  93   2.0000      -0.897009       -24.4089
  94   2.0000      -0.893791       -24.3213
  95   2.0000      -0.884171       -24.0595
  96   2.0000      -0.877121       -23.8677
  97   2.0000      -0.870394       -23.6846
  98   2.0000      -0.858652       -23.3651
  99   2.0000      -0.851872       -23.1806
 100   2.0000      -0.843104       -22.9420
 101   2.0000      -0.838047       -22.8044
 102   2.0000      -0.837358       -22.7857
 103   2.0000      -0.833253       -22.6740
 104   2.0000      -0.819547       -22.3010
 105   2.0000      -0.817287       -22.2395
 106   2.0000      -0.814803       -22.1719
 107   2.0000      -0.811634       -22.0857
 108   2.0000      -0.807686       -21.9783
 109   2.0000      -0.803076       -21.8528
 110   2.0000      -0.788413       -21.4538
 111   2.0000      -0.786587       -21.4041
 112   2.0000      -0.770059       -20.9544
 113   2.0000      -0.759176       -20.6582
 114   2.0000      -0.755706       -20.5638
 115   2.0000      -0.745028       -20.2732
 116   2.0000      -0.726318       -19.7641
 117   2.0000      -0.723844       -19.6968
 118   2.0000      -0.713999       -19.4289
 119   2.0000      -0.703139       -19.1334
 120   2.0000      -0.693911       -18.8823
 121   2.0000      -0.679663       -18.4946
 122   2.0000      -0.676612       -18.4116
 123   2.0000      -0.673505       -18.3270
 124   2.0000      -0.662001       -18.0140
 125   2.0000      -0.658893       -17.9294
 126   2.0000      -0.654354       -17.8059
 127   2.0000      -0.652228       -17.7480
 128   2.0000      -0.640638       -17.4326
 129   2.0000      -0.628985       -17.1156
 130   2.0000      -0.625578       -17.0228
 131   2.0000      -0.617836       -16.8122
 132   2.0000      -0.614481       -16.7209
 133   2.0000      -0.609405       -16.5828
 134   2.0000      -0.609312       -16.5802
 135   2.0000      -0.605692       -16.4817
 136   2.0000      -0.600654       -16.3446
 137   2.0000      -0.592181       -16.1141
 138   2.0000      -0.591870       -16.1056
 139   2.0000      -0.588906       -16.0249
 140   2.0000      -0.583260       -15.8713
 141   2.0000      -0.581211       -15.8156
 142   2.0000      -0.576644       -15.6913
 143   2.0000      -0.568681       -15.4746
 144   2.0000      -0.552353       -15.0303
 145   2.0000      -0.549998       -14.9662
 146   2.0000      -0.545370       -14.8403
 147   2.0000      -0.544234       -14.8094
 148   2.0000      -0.541790       -14.7429
 149   2.0000      -0.541446       -14.7335
 150   2.0000      -0.537264       -14.6197
 151   2.0000      -0.533751       -14.5241
 152   2.0000      -0.524796       -14.2804
 153   2.0000      -0.522000       -14.2043
 154   2.0000      -0.518773       -14.1165
 155   2.0000      -0.518341       -14.1048
 156   2.0000      -0.509550       -13.8656
 157   2.0000      -0.508053       -13.8248
 158   2.0000      -0.504996       -13.7416
 159   2.0000      -0.500935       -13.6311
 160   2.0000      -0.498775       -13.5724
 161   2.0000      -0.496201       -13.5023
 162   2.0000      -0.492968       -13.4144
 163   2.0000      -0.491815       -13.3830
 164   2.0000      -0.488947       -13.3049
 165   2.0000      -0.488548       -13.2941
 166   2.0000      -0.486751       -13.2452
 167   2.0000      -0.486443       -13.2368
 168   2.0000      -0.482100       -13.1186
 169   2.0000      -0.480721       -13.0811
 170   2.0000      -0.479546       -13.0491
 171   2.0000      -0.478657       -13.0249
 172   2.0000      -0.474045       -12.8994
 173   2.0000      -0.471965       -12.8428
 174   2.0000      -0.469296       -12.7702
 175   2.0000      -0.467658       -12.7256
 176   2.0000      -0.458929       -12.4881
 177   2.0000      -0.456144       -12.4123
 178   2.0000      -0.454162       -12.3584
 179   2.0000      -0.453362       -12.3366
 180   2.0000      -0.452841       -12.3224
 181   2.0000      -0.448010       -12.1910
 182   2.0000      -0.445619       -12.1259
 183   2.0000      -0.441251       -12.0071
 184   2.0000      -0.436229       -11.8704
 185   2.0000      -0.427491       -11.6326
 186   2.0000      -0.424460       -11.5501
 187   2.0000      -0.421496       -11.4695
 188   2.0000      -0.421015       -11.4564
 189   2.0000      -0.418491       -11.3877
 190   2.0000      -0.418114       -11.3775
 191   2.0000      -0.416008       -11.3202
 192   2.0000      -0.413554       -11.2534
 193   2.0000      -0.411607       -11.2004
 194   2.0000      -0.409582       -11.1453
 195   2.0000      -0.407157       -11.0793
 196   2.0000      -0.402156       -10.9432
 197   2.0000      -0.400598       -10.9008
 198   2.0000      -0.399305       -10.8656
 199   2.0000      -0.396974       -10.8022
 200   2.0000      -0.392299       -10.6750
 201   2.0000      -0.388841       -10.5809
 202   2.0000      -0.388501       -10.5717
 203   2.0000      -0.384923       -10.4743
 204   2.0000      -0.380360       -10.3501
 205   2.0000      -0.372752       -10.1431
 206   2.0000      -0.361210        -9.8290
 207   2.0000      -0.348040        -9.4706
 208   2.0000      -0.342082        -9.3085
 209   2.0000      -0.333310        -9.0698
 210   2.0000      -0.331026        -9.0077
 211   2.0000      -0.330772        -9.0008
 212   2.0000      -0.322312        -8.7706
 213   2.0000      -0.316453        -8.6111
 214   2.0000      -0.310743        -8.4557
 215   2.0000      -0.305125        -8.3029
 216   2.0000      -0.301676        -8.2090
 217   2.0000      -0.294538        -8.0148
 218   2.0000      -0.277686        -7.5562
 219   2.0000      -0.271208        -7.3799
 220   2.0000      -0.248064        -6.7502
 221   2.0000      -0.234020        -6.3680
 222   2.0000      -0.204733        -5.5711
 223   2.0000      -0.201751        -5.4899
 224   0.0000      -0.066956        -1.8220
 225   0.0000      -0.064731        -1.7614
 226   0.0000      -0.036894        -1.0039
 227   0.0000      -0.022737        -0.6187
 228   0.0000      -0.001670        -0.0454

MULLIKEN ATOMIC CHARGES
-----------------------
   0 C :   -0.034126
   1 C :   -0.060778
   2 C :    0.049227
   3 C :    0.028421
   4 C :   -0.067561
   5 S :    0.076299
   6 C :   -0.036404
   7 C :    0.022788
   8 C :    0.031714
   9 C :   -0.041031
  10 S :    0.058196
  11 C :   -0.015801
  12 C :   -0.121731
  13 C :    0.124184
  14 C :   -0.034648
  15 C :    0.034837
  16 C :   -0.059229
  17 C :    0.129220
  18 C :    0.066972
  19 C :   -0.146913
  20 S :    0.140598
  21 C :   -0.020147
  22 C :    0.001865
  23 C :    0.094894
  24 C :    0.065236
  25 O :   -0.351024
  26 C :    0.206160
  27 C :    0.108751
  28 C :   -0.108900
  29 C :    0.288427
  30 C :   -0.181627
  31 O :   -0.315033
  32 C :    0.181417
  33 C :   -0.055220
  34 C :    0.024979
  35 C :   -0.124320
  36 C :    0.115135
  37 C :   -0.031525
  38 C :    0.035647
  39 C :   -0.058111
  40 C :    0.145215
  41 C :    0.077307
  42 C :   -0.156773
  43 S :    0.142039
  44 C :   -0.034751
  45 C :    0.023023
  46 C :   -0.019412
  47 C :   -0.017852
  48 C :    0.036705
  49 C :    0.025521
  50 C :   -0.044018
  51 S :    0.061533
  52 C :   -0.069835
  53 C :    0.030282
  54 C :    0.050097
  55 C :   -0.062484
  56 S :    0.076276
  57 C :   -0.031045
  58 H :    0.017775
  59 H :    0.020033
  60 H :   -0.013370
  61 H :   -0.012942
  62 H :   -0.017515
  63 H :   -0.016171
  64 H :   -0.019758
  65 H :   -0.033560
  66 H :   -0.022823
  67 H :   -0.029373
  68 H :    0.016871
  69 H :   -0.023155
  70 H :   -0.013154
  71 H :    0.007241
  72 H :    0.021874
  73 H :    0.030335
  74 H :   -0.036813
  75 H :   -0.047729
  76 H :    0.034273
  77 H :    0.021583
  78 H :    0.018292
  79 H :    0.002593
  80 H :   -0.013832
  81 H :   -0.030340
  82 H :   -0.020124
  83 H :   -0.029559
  84 H :    0.016660
  85 H :   -0.036694
  86 H :   -0.000638
  87 H :   -0.021498
  88 H :   -0.015009
  89 H :   -0.015509
  90 H :   -0.014097
  91 H :   -0.014092
  92 H :    0.017529
  93 H :    0.020027
Sum of atomic charges:   -0.0000000

LOEWDIN ATOMIC CHARGES
----------------------
   0 C :   -0.081469
   1 C :   -0.138903
   2 C :   -0.034303
   3 C :   -0.026739
   4 C :   -0.179158
   5 S :    0.347853
   6 C :   -0.179254
   7 C :   -0.042932
   8 C :   -0.032155
   9 C :   -0.160033
  10 S :    0.359523
  11 C :   -0.069147
  12 C :   -0.186347
  13 C :   -0.043723
  14 C :   -0.021601
  15 C :   -0.029395
  16 C :   -0.023644
  17 C :   -0.015912
  18 C :   -0.045386
  19 C :   -0.208998
  20 S :    0.481365
  21 C :   -0.019531
  22 C :   -0.006972
  23 C :   -0.031761
  24 C :    0.037104
  25 O :   -0.137771
  26 C :    0.076877
  27 C :   -0.032935
  28 C :   -0.036097
  29 C :    0.054087
  30 C :   -0.068701
  31 O :   -0.109834
  32 C :    0.074343
  33 C :   -0.032797
  34 C :   -0.030476
  35 C :   -0.184549
  36 C :   -0.044225
  37 C :   -0.020070
  38 C :   -0.027823
  39 C :   -0.020432
  40 C :   -0.020710
  41 C :   -0.044640
  42 C :   -0.201225
  43 S :    0.481891
  44 C :   -0.018069
  45 C :   -0.022059
  46 C :   -0.057365
  47 C :   -0.144609
  48 C :   -0.034926
  49 C :   -0.032795
  50 C :   -0.179447
  51 S :    0.359663
  52 C :   -0.179880
  53 C :   -0.026724
  54 C :   -0.034362
  55 C :   -0.138960
  56 S :    0.348030
  57 C :   -0.080585
  58 H :    0.027568
  59 H :    0.025405
  60 H :    0.032411
  61 H :    0.031784
  62 H :    0.029773
  63 H :    0.031953
  64 H :    0.037167
  65 H :    0.024369
  66 H :    0.027083
  67 H :    0.025039
  68 H :    0.019513
  69 H :    0.020968
  70 H :    0.027452
  71 H :    0.009250
  72 H :    0.012154
  73 H :    0.023392
  74 H :    0.028551
  75 H :    0.023194
  76 H :    0.028105
  77 H :    0.013931
  78 H :    0.013110
  79 H :    0.021439
  80 H :    0.030331
  81 H :    0.025756
  82 H :    0.028621
  83 H :    0.025742
  84 H :    0.019087
  85 H :    0.024100
  86 H :    0.020530
  87 H :    0.030784
  88 H :    0.032573
  89 H :    0.030577
  90 H :    0.031471
  91 H :    0.032367
  92 H :    0.027639
  93 H :    0.025507

  Mayer bond orders larger than 0.100000
B(  0-C ,  1-C ) :   1.8616 B(  0-C , 58-H ) :   0.9505 B(  0-C , 59-H ) :   0.9420
B(  1-C ,  2-C ) :   1.0815 B(  1-C ,  5-S ) :   1.0087 B(  2-C ,  3-C ) :   1.6569
B(  2-C , 60-H ) :   0.9934 B(  3-C ,  4-C ) :   1.1544 B(  3-C , 61-H ) :   0.9920
B(  4-C ,  5-S ) :   1.0407 B(  4-C ,  6-C ) :   1.5597 B(  6-C ,  7-C ) :   1.1685
B(  6-C , 10-S ) :   1.0326 B(  7-C ,  8-C ) :   1.6025 B(  7-C , 62-H ) :   0.9927
B(  8-C ,  9-C ) :   1.1416 B(  8-C , 63-H ) :   0.9989 B(  9-C , 10-S ) :   1.0288
B(  9-C , 11-C ) :   1.5716 B( 11-C , 12-C ) :   1.2167 B( 11-C , 64-H ) :   0.9606
B( 12-C , 13-C ) :   1.2895 B( 12-C , 20-S ) :   1.1472 B( 13-C , 14-C ) :   1.2324
B( 13-C , 18-C ) :   1.2100 B( 14-C , 15-C ) :   1.5119 B( 14-C , 65-H ) :   0.9911
B( 15-C , 16-C ) :   1.2237 B( 15-C , 66-H ) :   0.9817 B( 16-C , 17-C ) :   1.5157
B( 16-C , 67-H ) :   0.9874 B( 17-C , 18-C ) :   1.1444 B( 17-C , 21-C ) :   1.0577
B( 18-C , 19-C ) :   1.4356 B( 19-C , 20-S ) :   1.1882 B( 19-C , 68-H ) :   0.9540
B( 21-C , 22-C ) :   1.7319 B( 21-C , 69-H ) :   0.9605 B( 22-C , 23-C ) :   1.0637
B( 22-C , 70-H ) :   0.9759 B( 23-C , 24-C ) :   1.3686 B( 23-C , 30-C ) :   1.2850
B( 24-C , 25-O ) :   1.1139 B( 24-C , 27-C ) :   1.3131 B( 25-O , 26-C ) :   0.9389
B( 26-C , 71-H ) :   0.9656 B( 26-C , 72-H ) :   0.9665 B( 26-C , 73-H ) :   0.9826
B( 27-C , 28-C ) :   1.3367 B( 27-C , 33-C ) :   1.0571 B( 28-C , 29-C ) :   1.3296
B( 28-C , 74-H ) :   0.9993 B( 29-C , 30-C ) :   1.3061 B( 29-C , 31-O ) :   1.1360
B( 30-C , 75-H ) :   0.9931 B( 31-O , 32-C ) :   0.9756 B( 32-C , 76-H ) :   0.9780
B( 32-C , 77-H ) :   0.9681 B( 32-C , 78-H ) :   0.9680 B( 33-C , 34-C ) :   1.6819
B( 33-C , 79-H ) :   0.9758 B( 34-C , 35-C ) :   1.1586 B( 34-C , 80-H ) :   0.9638
B( 35-C , 36-C ) :   1.3374 B( 35-C , 42-C ) :   0.1077 B( 35-C , 43-S ) :   1.1611
B( 36-C , 37-C ) :   1.2132 B( 36-C , 41-C ) :   1.1925 B( 37-C , 38-C ) :   1.5183
B( 37-C , 81-H ) :   0.9913 B( 38-C , 39-C ) :   1.2337 B( 38-C , 82-H ) :   0.9809
B( 39-C , 40-C ) :   1.4924 B( 39-C , 83-H ) :   0.9854 B( 40-C , 41-C ) :   1.1201
B( 40-C , 44-C ) :   1.0905 B( 41-C , 42-C ) :   1.4672 B( 42-C , 43-S ) :   1.1878
B( 42-C , 84-H ) :   0.9545 B( 44-C , 45-C ) :   1.6519 B( 44-C , 85-H ) :   0.9851
B( 45-C , 46-C ) :   1.1464 B( 45-C , 86-H ) :   0.9683 B( 46-C , 47-C ) :   1.5708
B( 46-C , 87-H ) :   0.9858 B( 47-C , 48-C ) :   1.1311 B( 47-C , 51-S ) :   1.0268
B( 48-C , 49-C ) :   1.6079 B( 48-C , 88-H ) :   0.9991 B( 49-C , 50-C ) :   1.1710
B( 49-C , 89-H ) :   0.9924 B( 50-C , 51-S ) :   1.0366 B( 50-C , 52-C ) :   1.5583
B( 52-C , 53-C ) :   1.1530 B( 52-C , 56-S ) :   1.0414 B( 53-C , 54-C ) :   1.6606
B( 53-C , 90-H ) :   0.9919 B( 54-C , 55-C ) :   1.0809 B( 54-C , 91-H ) :   0.9927
B( 55-C , 56-S ) :   1.0078 B( 55-C , 57-C ) :   1.8635 B( 57-C , 92-H ) :   0.9503
B( 57-C , 93-H ) :   0.9418

-----------------------------------------------------------------------------
         ABSORPTION SPECTRUM VIA TRANSITION ELECTRIC DIPOLE MOMENTS
-----------------------------------------------------------------------------
State   Energy  Wavelength   fosc         T2         TX        TY        TZ
        (cm-1)    (nm)                  (au**2)     (au)      (au)      (au)
-----------------------------------------------------------------------------
   0   16211.4    616.8   2.497842959  50.72463  -3.80579  -4.97081  -3.39584
   1   16805.2    595.1   0.600097538  11.75583  -0.09218   3.21659  -1.18359
   2   22170.1    451.1   0.018138196   0.26934   0.31940   0.03476  -0.40758
   3   22924.0    436.2   0.028878850   0.41473   0.23180  -0.22021   0.55902
   4   23620.9    423.4   0.180772732   2.51949   0.83148  -0.07092  -1.35022
   5   23857.6    419.2   0.003773290   0.05207   0.12458   0.18897   0.02893
   6   24932.8    401.1   0.003455982   0.04563   0.20545  -0.05588  -0.01733
   7   25968.8    385.1   0.489472985   6.20514   0.49629   1.52854  -1.90326
   8   28063.1    356.3   0.120380970   1.41220  -0.55229  -0.91798  -0.51429
   9   28364.8    352.5   0.052034163   0.60393  -0.19464  -0.71254   0.24153
  10   28823.1    346.9   0.093979245   1.07341  -0.48054  -0.91563  -0.06411
  11   29637.2    337.4   0.007841163   0.08710  -0.06113  -0.27275  -0.09471
  12   30043.9    332.8   0.201195531   2.20464  -0.74244  -1.25859  -0.26338
  13   30839.1    324.3   0.007489617   0.07995  -0.08364   0.04399   0.26650
  14   31731.9    315.1   0.033014955   0.34252  -0.15389  -0.52788  -0.20046
  15   31950.5    313.0   0.003043988   0.03136   0.03203  -0.00041  -0.17418
  16   32884.8    304.1   0.089416202   0.89515  -0.25592  -0.13019  -0.90150
  17   33419.6    299.2   0.270325204   2.66294  -0.67390   0.63817   1.34221
  18   33556.3    298.0   0.024131952   0.23675  -0.36771  -0.31372  -0.05585
  19   34126.1    293.0   0.068910205   0.66477   0.33720   0.70856  -0.22140
  20   34273.4    291.8   0.002875090   0.02762  -0.06527  -0.14994   0.02958
  21   34413.6    290.6   0.078214366   0.74823   0.46812   0.72721  -0.01564
  22   34927.8    286.3   0.069747669   0.65741  -0.59570  -0.54529   0.07219
  23   35373.0    282.7   0.007919000   0.07370  -0.01473  -0.22807  -0.14653
  24   35814.3    279.2   0.112187659   1.03125  -0.48724  -0.75526   0.47268
  25   36216.0    276.1   0.102354442   0.93043   0.48630   0.80984   0.19518
  26   36336.1    275.2   0.036029743   0.32644  -0.30535  -0.38845  -0.28689
  27   36678.3    272.6   0.167785134   1.50598   0.60797   1.05597  -0.14587
  28   36838.7    271.5   0.122925681   1.09854   0.50533  -0.38533  -0.83349
  29   37848.4    264.2   0.109005568   0.94815   0.43083   0.61318   0.62173
  30   38005.8    263.1   0.182615677   1.58185  -0.40901  -1.12614  -0.38257
  31   38154.3    262.1   0.009553537   0.08243  -0.10367  -0.12623   0.23612
  32   38406.8    260.4   0.022148108   0.18985  -0.04960   0.36264   0.23638
  33   39169.8    255.3   0.085988298   0.72271  -0.53969  -0.48989  -0.43756
  34   39784.5    251.4   0.118003001   0.97646  -0.53284  -0.61234  -0.56355
  35   39958.8    250.3   0.043872134   0.36145  -0.50035  -0.06897   0.32610
  36   40305.1    248.1   0.041052448   0.33532   0.01539  -0.13988  -0.56171

FINAL SINGLE POINT ENERGY     -4463.037736919303

DIPOLE MOMENT
-------------
                                X             Y             Z
Electronic contribution:     13.23126       3.61856       5.26011
Nuclear contribution   :    -12.99533      -3.37167      -6.04891
                        -----------------------------------------
Total Dipole Moment    :      0.23593       0.24689      -0.78880
                        -----------------------------------------
Magnitude (a.u.)       :      0.85955
Magnitude (Debye)      :      2.18481

Rotational constants in cm-1:     0.003231     0.000179     0.000176
Rotational constants in MHz :    96.852654     5.368525     5.272295

                             ****ORCA TERMINATED NORMALLY****
TOTAL RUN TIME: 0 days 0 hours 7 minutes 4 seconds 806 msec
