                         Program Version 4.2.0 -  RELEASE  -
|  1> # ORCA input file
|  2> # SCF done       -182.037492919981          0.000909492546
|  3> ! CAM-B3LYP def2-SVP def2/J RIJCOSX Grid4 TightSCF
|  4> %maxcore 5000
|  5> %tddft
|  6>     Mode sTDDFT
|  7>     Ethresh 5.0
|  8>     maxcore 5000
|  9> end
| 10>
| 11> %pal
| 12>   nprocs 6
| 13>   end
| 14> * xyz 0 1
| 15>    C       -4.99947         0.08544         6.60198
| 16>    S       -3.94298         0.02677         5.28055
| 17>    C       -3.35545        -1.54294         5.72183
| 18>    C       -4.00225        -2.01187         6.87507
| 19>    C       -4.94614        -1.05291         7.38056
| 20>    C       -5.69103        -1.31434         8.56928
| 21>    C       -6.65636        -0.30412         9.06958
| 22>    O       -7.19140         0.51800         8.37521
| 23>    O       -6.91888        -0.34069        10.39174
| 24>    C       -5.51108        -2.52747         9.18898
| 25>    C       -4.62921        -3.48616         8.67652
| 26>    C       -3.87989        -3.25846         7.54414
| 27>    O       -3.05392        -4.20389         7.05393
| 28>    C       -2.33003        -2.08713         4.90253
| 29>    O       -1.67728        -3.24093         5.18774
| 30>    C       -1.79955        -1.56881         3.73473
| 31>    C       -1.88240        -0.46490         2.78434
| 32>    O       -2.59006         0.51202         2.76452
| 33>    N       -0.91260        -0.77538         1.83327
| 34>    C       -0.20471        -1.95532         2.06516
| 35>    O        0.66971        -2.38768         1.35914
| 36>    C       -0.78818        -2.46588         3.30597
| 37>    C       -0.74187        -3.48722         4.22984
| 38>    C        0.09873        -4.63548         4.28808
| 39>    C        0.04375        -5.55578         5.26969
| 40>    C        0.88228        -6.73637         5.27893
| 41>    C        1.14850        -7.38372         4.10594
| 42>    S        2.10276        -8.79846         4.26455
| 43>    C        2.20261        -8.53401         5.97746
| 44>    C        1.50385        -7.39475         6.40640
| 45>    C        1.56232        -7.02943         7.77455
| 46>    C        0.94542        -5.71846         8.18942
| 47>    C       -0.49355        -5.85672         8.69121
| 48>    C        2.22826        -7.83963         8.68565
| 49>    C        2.18675        -7.57786        10.16571
| 50>    C        1.15913        -8.49223        10.84154
| 51>    C        2.95257        -8.97213         8.23826
| 52>    C        3.86501        -9.84054         8.94721
| 53>    C        4.46937       -10.73028         8.10729
| 54>    S        3.96952       -10.62864         6.46754
| 55>    C        2.93966        -9.29132         6.87224
| 56>    C        4.21412        -9.84061        10.35410
| 57>    C        5.50034        -9.88093        10.77056
| 58>    C        5.95631        -9.93271        12.11305
| 59>    C        5.25463       -10.20138        13.25529
| 60>    C        5.81907       -10.23802        14.56132
| 61>    C        4.95835       -10.60926        15.54309
| 62>    C        3.65144       -10.90014        15.08146
| 63>    S        3.55221       -10.63872        13.35334
| 64>    C        2.58077       -11.35820        15.81651
| 65>    C        2.52975       -11.61051        17.20822
| 66>    C        1.34232       -12.11366        17.63425
| 67>    C        0.38002       -12.29575        16.60474
| 68>    S        1.04385       -11.76489        15.06972
| 69>    C       -0.86819       -12.83010        16.76650
| 70>    C       -1.83327       -13.06637        15.77081
| 71>    S       -1.65630       -12.67471        14.06854
| 72>    C       -3.20106       -13.29348        13.63581
| 73>    C       -3.85002       -13.79210        14.74059
| 74>    C       -3.07481       -13.65688        15.93188
| 75>    O       -3.73425       -14.15805        16.99803
| 76>    C       -4.91733       -14.61109        16.50206
| 77>    N       -5.82799       -15.20111        17.40930
| 78>    O       -6.87849       -15.59801        16.93947
| 79>    O       -5.50811       -15.26904        18.57640
| 80>    C       -5.05540       -14.42371        15.15270
| 81>    H       -5.63476         0.93349         6.76081
| 82>    H       -6.38795        -0.99927        10.85769
| 83>    H       -6.08482        -2.79934        10.06506
| 84>    H       -4.54388        -4.44001         9.17994
| 85>    H       -3.10694        -5.00185         7.59696
| 86>    H       -0.73216        -0.18647         1.03305
| 87>    H        0.82012        -4.70342         3.48719
| 88>    H       -0.68865        -5.42688         6.05150
| 89>    H        0.78011        -7.11607         3.13490
| 90>    H        0.96676        -5.04612         7.33102
| 91>    H        1.55098        -5.24975         8.96643
| 92>    H       -1.07884        -6.46785         8.00626
| 93>    H       -0.94949        -4.87219         8.77498
| 94>    H       -0.51829        -6.33006         9.66892
| 95>    H        1.92678        -6.54392        10.38255
| 96>    H        3.17620        -7.76167        10.58838
| 97>    H        0.15225        -8.24054        10.51763
| 98>    H        1.21089        -8.38784        11.92295
| 99>    H        1.33226        -9.53416        10.58514
|100>    H        5.17277       -11.48997         8.38803
|101>    H        3.41352        -9.83426        11.07517
|102>    H        6.27932        -9.81662        10.02091
|103>    H        7.01563        -9.75841        12.25668
|104>    H        6.85459        -9.99428        14.72239
|105>    H        5.22601       -10.70078        16.58022
|106>    H        3.37021       -11.41793        17.85041
|107>    H        1.11934       -12.37391        18.65367
|108>    H       -1.15915       -13.12972        17.76478
|109>    H       -3.52595       -13.25713        12.61730
|110>    H       -5.90257       -14.70499        14.56257
|111> *
|112>
|113>                          ****END OF INPUT****

CARTESIAN COORDINATES (ANGSTROEM)
---------------------------------
  C     -4.999470    0.085440    6.601980
  S     -3.942980    0.026770    5.280550
  C     -3.355450   -1.542940    5.721830
  C     -4.002250   -2.011870    6.875070
  C     -4.946140   -1.052910    7.380560
  C     -5.691030   -1.314340    8.569280
  C     -6.656360   -0.304120    9.069580
  O     -7.191400    0.518000    8.375210
  O     -6.918880   -0.340690   10.391740
  C     -5.511080   -2.527470    9.188980
  C     -4.629210   -3.486160    8.676520
  C     -3.879890   -3.258460    7.544140
  O     -3.053920   -4.203890    7.053930
  C     -2.330030   -2.087130    4.902530
  O     -1.677280   -3.240930    5.187740
  C     -1.799550   -1.568810    3.734730
  C     -1.882400   -0.464900    2.784340
  O     -2.590060    0.512020    2.764520
  N     -0.912600   -0.775380    1.833270
  C     -0.204710   -1.955320    2.065160
  O      0.669710   -2.387680    1.359140
  C     -0.788180   -2.465880    3.305970
  C     -0.741870   -3.487220    4.229840
  C      0.098730   -4.635480    4.288080
  C      0.043750   -5.555780    5.269690
  C      0.882280   -6.736370    5.278930
  C      1.148500   -7.383720    4.105940
  S      2.102760   -8.798460    4.264550
  C      2.202610   -8.534010    5.977460
  C      1.503850   -7.394750    6.406400
  C      1.562320   -7.029430    7.774550
  C      0.945420   -5.718460    8.189420
  C     -0.493550   -5.856720    8.691210
  C      2.228260   -7.839630    8.685650
  C      2.186750   -7.577860   10.165710
  C      1.159130   -8.492230   10.841540
  C      2.952570   -8.972130    8.238260
  C      3.865010   -9.840540    8.947210
  C      4.469370  -10.730280    8.107290
  S      3.969520  -10.628640    6.467540
  C      2.939660   -9.291320    6.872240
  C      4.214120   -9.840610   10.354100
  C      5.500340   -9.880930   10.770560
  C      5.956310   -9.932710   12.113050
  C      5.254630  -10.201380   13.255290
  C      5.819070  -10.238020   14.561320
  C      4.958350  -10.609260   15.543090
  C      3.651440  -10.900140   15.081460
  S      3.552210  -10.638720   13.353340
  C      2.580770  -11.358200   15.816510
  C      2.529750  -11.610510   17.208220
  C      1.342320  -12.113660   17.634250
  C      0.380020  -12.295750   16.604740
  S      1.043850  -11.764890   15.069720
  C     -0.868190  -12.830100   16.766500
  C     -1.833270  -13.066370   15.770810
  S     -1.656300  -12.674710   14.068540
  C     -3.201060  -13.293480   13.635810
  C     -3.850020  -13.792100   14.740590
  C     -3.074810  -13.656880   15.931880
  O     -3.734250  -14.158050   16.998030
  C     -4.917330  -14.611090   16.502060
  N     -5.827990  -15.201110   17.409300
  O     -6.878490  -15.598010   16.939470
  O     -5.508110  -15.269040   18.576400
  C     -5.055400  -14.423710   15.152700
  H     -5.634760    0.933490    6.760810
  H     -6.387950   -0.999270   10.857690
  H     -6.084820   -2.799340   10.065060
  H     -4.543880   -4.440010    9.179940
  H     -3.106940   -5.001850    7.596960
  H     -0.732160   -0.186470    1.033050
  H      0.820120   -4.703420    3.487190
  H     -0.688650   -5.426880    6.051500
  H      0.780110   -7.116070    3.134900
  H      0.966760   -5.046120    7.331020
  H      1.550980   -5.249750    8.966430
  H     -1.078840   -6.467850    8.006260
  H     -0.949490   -4.872190    8.774980
  H     -0.518290   -6.330060    9.668920
  H      1.926780   -6.543920   10.382550
  H      3.176200   -7.761670   10.588380
  H      0.152250   -8.240540   10.517630
  H      1.210890   -8.387840   11.922950
  H      1.332260   -9.534160   10.585140
  H      5.172770  -11.489970    8.388030
  H      3.413520   -9.834260   11.075170
  H      6.279320   -9.816620   10.020910
  H      7.015630   -9.758410   12.256680
  H      6.854590   -9.994280   14.722390
  H      5.226010  -10.700780   16.580220
  H      3.370210  -11.417930   17.850410
  H      1.119340  -12.373910   18.653670
  H     -1.159150  -13.129720   17.764780
  H     -3.525950  -13.257130   12.617300
  H     -5.902570  -14.704990   14.562570

 Total Charge           Charge          ....    0
 Multiplicity           Mult            ....    1
 Number of Electrons    NEL             ....  506
 Basis Dimension        Dim             .... 1098

ORBITAL ENERGIES
----------------

  NO   OCC          E(Eh)            E(eV)
   0   2.0000     -88.978371     -2421.2246
   1   2.0000     -88.973706     -2421.0976
   2   2.0000     -88.955006     -2420.5888
   3   2.0000     -88.952917     -2420.5319
   4   2.0000     -88.952584     -2420.5229
   5   2.0000     -88.952355     -2420.5166
   6   2.0000     -19.310925      -525.4770
   7   2.0000     -19.302753      -525.2546
   8   2.0000     -19.267900      -524.3062
   9   2.0000     -19.254676      -523.9464
  10   2.0000     -19.244983      -523.6826
  11   2.0000     -19.242636      -523.6187
  12   2.0000     -19.204340      -522.5767
  13   2.0000     -19.203067      -522.5420
  14   2.0000     -19.193437      -522.2800
  15   2.0000     -14.656524      -398.8243
  16   2.0000     -14.447631      -393.1400
  17   2.0000     -10.398472      -282.9568
  18   2.0000     -10.393383      -282.8183
  19   2.0000     -10.392664      -282.7988
  20   2.0000     -10.388468      -282.6846
  21   2.0000     -10.365339      -282.0552
  22   2.0000     -10.361199      -281.9426
  23   2.0000     -10.353102      -281.7222
  24   2.0000     -10.347643      -281.5737
  25   2.0000     -10.319945      -280.8200
  26   2.0000     -10.319150      -280.7984
  27   2.0000     -10.316355      -280.7223
  28   2.0000     -10.315916      -280.7103
  29   2.0000     -10.314710      -280.6775
  30   2.0000     -10.313854      -280.6542
  31   2.0000     -10.313741      -280.6512
  32   2.0000     -10.310959      -280.5755
  33   2.0000     -10.300497      -280.2908
  34   2.0000     -10.300476      -280.2902
  35   2.0000     -10.300330      -280.2862
  36   2.0000     -10.299844      -280.2730
  37   2.0000     -10.299843      -280.2730
  38   2.0000     -10.298017      -280.2233
  39   2.0000     -10.296196      -280.1737
  40   2.0000     -10.294387      -280.1245
  41   2.0000     -10.294276      -280.1215
  42   2.0000     -10.293009      -280.0870
  43   2.0000     -10.292477      -280.0725
  44   2.0000     -10.291284      -280.0401
  45   2.0000     -10.290560      -280.0204
  46   2.0000     -10.290455      -280.0175
  47   2.0000     -10.290229      -280.0114
  48   2.0000     -10.290151      -280.0093
  49   2.0000     -10.286260      -279.9034
  50   2.0000     -10.285990      -279.8960
  51   2.0000     -10.283920      -279.8397
  52   2.0000     -10.282921      -279.8125
  53   2.0000     -10.282786      -279.8088
  54   2.0000     -10.282006      -279.7876
  55   2.0000     -10.281827      -279.7827
  56   2.0000     -10.281021      -279.7608
  57   2.0000     -10.280438      -279.7449
  58   2.0000     -10.280236      -279.7394
  59   2.0000     -10.277765      -279.6722
  60   2.0000     -10.277283      -279.6591
  61   2.0000     -10.276661      -279.6422
  62   2.0000     -10.270963      -279.4871
  63   2.0000     -10.270385      -279.4714
  64   2.0000     -10.266489      -279.3654
  65   2.0000     -10.259671      -279.1798
  66   2.0000      -8.072799      -219.6720
  67   2.0000      -8.068500      -219.5551
  68   2.0000      -8.051258      -219.0859
  69   2.0000      -8.048896      -219.0216
  70   2.0000      -8.048847      -219.0203
  71   2.0000      -8.047826      -218.9925
  72   2.0000      -6.042154      -164.4154
  73   2.0000      -6.037707      -164.2944
  74   2.0000      -6.037448      -164.2873
  75   2.0000      -6.035263      -164.2279
  76   2.0000      -6.032770      -164.1600
  77   2.0000      -6.031790      -164.1334
  78   2.0000      -6.020721      -163.8321
  79   2.0000      -6.018722      -163.7778
  80   2.0000      -6.018336      -163.7673
  81   2.0000      -6.017616      -163.7476
  82   2.0000      -6.016494      -163.7171
  83   2.0000      -6.014606      -163.6657
  84   2.0000      -6.014122      -163.6526
  85   2.0000      -6.013542      -163.6368
  86   2.0000      -6.012982      -163.6216
  87   2.0000      -6.010514      -163.5544
  88   2.0000      -6.009750      -163.5336
  89   2.0000      -6.008814      -163.5081
  90   2.0000      -1.327879       -36.1334
  91   2.0000      -1.230700       -33.4891
  92   2.0000      -1.221618       -33.2419
  93   2.0000      -1.177106       -32.0307
  94   2.0000      -1.166869       -31.7521
  95   2.0000      -1.148192       -31.2439
  96   2.0000      -1.144050       -31.1312
  97   2.0000      -1.127628       -30.6843
  98   2.0000      -1.091583       -29.7035
  99   2.0000      -1.035565       -28.1792
 100   2.0000      -1.004569       -27.3357
 101   2.0000      -1.004075       -27.3223
 102   2.0000      -1.003424       -27.3046
 103   2.0000      -0.995938       -27.1008
 104   2.0000      -0.977395       -26.5963
 105   2.0000      -0.974218       -26.5098
 106   2.0000      -0.945437       -25.7266
 107   2.0000      -0.937066       -25.4989
 108   2.0000      -0.928476       -25.2651
 109   2.0000      -0.921298       -25.0698
 110   2.0000      -0.915259       -24.9055
 111   2.0000      -0.912168       -24.8214
 112   2.0000      -0.900761       -24.5109
 113   2.0000      -0.886765       -24.1301
 114   2.0000      -0.882529       -24.0148
 115   2.0000      -0.872867       -23.7519
 116   2.0000      -0.869623       -23.6637
 117   2.0000      -0.859344       -23.3840
 118   2.0000      -0.855900       -23.2902
 119   2.0000      -0.849363       -23.1124
 120   2.0000      -0.844512       -22.9804
 121   2.0000      -0.836848       -22.7718
 122   2.0000      -0.830012       -22.5858
 123   2.0000      -0.826797       -22.4983
 124   2.0000      -0.815244       -22.1839
 125   2.0000      -0.803191       -21.8559
 126   2.0000      -0.794638       -21.6232
 127   2.0000      -0.785400       -21.3718
 128   2.0000      -0.780807       -21.2468
 129   2.0000      -0.768698       -20.9173
 130   2.0000      -0.761717       -20.7274
 131   2.0000      -0.756404       -20.5828
 132   2.0000      -0.744926       -20.2705
 133   2.0000      -0.736908       -20.0523
 134   2.0000      -0.725269       -19.7356
 135   2.0000      -0.720188       -19.5973
 136   2.0000      -0.709728       -19.3127
 137   2.0000      -0.709082       -19.2951
 138   2.0000      -0.705666       -19.2022
 139   2.0000      -0.700285       -19.0557
 140   2.0000      -0.697708       -18.9856
 141   2.0000      -0.692230       -18.8365
 142   2.0000      -0.682152       -18.5623
 143   2.0000      -0.679973       -18.5030
 144   2.0000      -0.677693       -18.4410
 145   2.0000      -0.669869       -18.2281
 146   2.0000      -0.651502       -17.7283
 147   2.0000      -0.648611       -17.6496
 148   2.0000      -0.646381       -17.5889
 149   2.0000      -0.641685       -17.4611
 150   2.0000      -0.639141       -17.3919
 151   2.0000      -0.633783       -17.2461
 152   2.0000      -0.632965       -17.2239
 153   2.0000      -0.628260       -17.0958
 154   2.0000      -0.626802       -17.0562
 155   2.0000      -0.616623       -16.7792
 156   2.0000      -0.608929       -16.5698
 157   2.0000      -0.602690       -16.4000
 158   2.0000      -0.596384       -16.2284
 159   2.0000      -0.593579       -16.1521
 160   2.0000      -0.589023       -16.0281
 161   2.0000      -0.586133       -15.9495
 162   2.0000      -0.583852       -15.8874
 163   2.0000      -0.582307       -15.8454
 164   2.0000      -0.581053       -15.8113
 165   2.0000      -0.580191       -15.7878
 166   2.0000      -0.569014       -15.4836
 167   2.0000      -0.567673       -15.4472
 168   2.0000      -0.562082       -15.2950
 169   2.0000      -0.554612       -15.0918
 170   2.0000      -0.548737       -14.9319
 171   2.0000      -0.548425       -14.9234
 172   2.0000      -0.541840       -14.7442
 173   2.0000      -0.539736       -14.6870
 174   2.0000      -0.537041       -14.6136
 175   2.0000      -0.536676       -14.6037
 176   2.0000      -0.536029       -14.5861
 177   2.0000      -0.533470       -14.5165
 178   2.0000      -0.529184       -14.3998
 179   2.0000      -0.521935       -14.2026
 180   2.0000      -0.520052       -14.1513
 181   2.0000      -0.519013       -14.1231
 182   2.0000      -0.516822       -14.0634
 183   2.0000      -0.512946       -13.9580
 184   2.0000      -0.511606       -13.9215
 185   2.0000      -0.509666       -13.8687
 186   2.0000      -0.506897       -13.7934
 187   2.0000      -0.505611       -13.7584
 188   2.0000      -0.503068       -13.6892
 189   2.0000      -0.500477       -13.6187
 190   2.0000      -0.498100       -13.5540
 191   2.0000      -0.495394       -13.4803
 192   2.0000      -0.492043       -13.3892
 193   2.0000      -0.488720       -13.2987
 194   2.0000      -0.486932       -13.2501
 195   2.0000      -0.484757       -13.1909
 196   2.0000      -0.480369       -13.0715
 197   2.0000      -0.479931       -13.0596
 198   2.0000      -0.479676       -13.0526
 199   2.0000      -0.474564       -12.9136
 200   2.0000      -0.471222       -12.8226
 201   2.0000      -0.469957       -12.7882
 202   2.0000      -0.467138       -12.7115
 203   2.0000      -0.466460       -12.6930
 204   2.0000      -0.461134       -12.5481
 205   2.0000      -0.459780       -12.5113
 206   2.0000      -0.457333       -12.4447
 207   2.0000      -0.456094       -12.4110
 208   2.0000      -0.454448       -12.3662
 209   2.0000      -0.450180       -12.2500
 210   2.0000      -0.447321       -12.1722
 211   2.0000      -0.443711       -12.0740
 212   2.0000      -0.443090       -12.0571
 213   2.0000      -0.440563       -11.9883
 214   2.0000      -0.439441       -11.9578
 215   2.0000      -0.434567       -11.8252
 216   2.0000      -0.430420       -11.7123
 217   2.0000      -0.428256       -11.6534
 218   2.0000      -0.427843       -11.6422
 219   2.0000      -0.425982       -11.5916
 220   2.0000      -0.421601       -11.4723
 221   2.0000      -0.417426       -11.3587
 222   2.0000      -0.417002       -11.3472
 223   2.0000      -0.414202       -11.2710
 224   2.0000      -0.397487       -10.8162
 225   2.0000      -0.396871       -10.7994
 226   2.0000      -0.396172       -10.7804
 227   2.0000      -0.390742       -10.6326
 228   2.0000      -0.390551       -10.6274
 229   2.0000      -0.387672       -10.5491
 230   2.0000      -0.381385       -10.3780
 231   2.0000      -0.378822       -10.3083
 232   2.0000      -0.373769       -10.1708
 233   2.0000      -0.372366       -10.1326
 234   2.0000      -0.369104       -10.0438
 235   2.0000      -0.360943        -9.8218
 236   2.0000      -0.359682        -9.7874
 237   2.0000      -0.355056        -9.6616
 238   2.0000      -0.348315        -9.4781
 239   2.0000      -0.344941        -9.3863
 240   2.0000      -0.342338        -9.3155
 241   2.0000      -0.337385        -9.1807
 242   2.0000      -0.334862        -9.1121
 243   2.0000      -0.331915        -9.0319
 244   2.0000      -0.327500        -8.9117
 245   2.0000      -0.324520        -8.8306
 246   2.0000      -0.313811        -8.5392
 247   2.0000      -0.303188        -8.2502
 248   2.0000      -0.287294        -7.8177
 249   2.0000      -0.271228        -7.3805
 250   2.0000      -0.265489        -7.2243
 251   2.0000      -0.242875        -6.6090
 252   2.0000      -0.217940        -5.9305
 253   0.0000      -0.083789        -2.2800
 254   0.0000      -0.061330        -1.6689
 255   0.0000      -0.060581        -1.6485
 256   0.0000      -0.040630        -1.1056
 257   0.0000      -0.017934        -0.4880

MULLIKEN ATOMIC CHARGES
-----------------------
   0 C :   -0.104202
   1 S :    0.240151
   2 C :   -0.258333
   3 C :    0.140733
   4 C :    0.037039
   5 C :   -0.012379
   6 C :    0.157228
   7 O :   -0.187605
   8 O :   -0.160217
   9 C :   -0.039320
  10 C :   -0.081787
  11 C :    0.113169
  12 O :   -0.150027
  13 C :    0.173217
  14 O :   -0.195167
  15 C :   -0.120917
  16 C :    0.169150
  17 O :   -0.156260
  18 N :   -0.164353
  19 C :    0.159531
  20 O :   -0.148754
  21 C :   -0.025036
  22 C :    0.077574
  23 C :   -0.039557
  24 C :   -0.009018
  25 C :    0.064846
  26 C :   -0.112704
  27 S :    0.134442
  28 C :   -0.150662
  29 C :    0.118000
  30 C :   -0.122497
  31 C :    0.010181
  32 C :    0.016881
  33 C :   -0.114904
  34 C :    0.041079
  35 C :    0.035900
  36 C :    0.110330
  37 C :    0.054695
  38 C :   -0.118077
  39 S :    0.126116
  40 C :   -0.144200
  41 C :   -0.043256
  42 C :    0.006512
  43 C :   -0.019498
  44 C :   -0.020474
  45 C :    0.042948
  46 C :    0.026343
  47 C :   -0.039305
  48 S :    0.051529
  49 C :   -0.036841
  50 C :    0.027949
  51 C :    0.036269
  52 C :   -0.024207
  53 S :    0.061157
  54 C :   -0.012885
  55 C :   -0.192081
  56 S :    0.140423
  57 C :   -0.136113
  58 C :    0.130060
  59 C :    0.192237
  60 O :   -0.184183
  61 C :    0.235778
  62 N :    0.272224
  63 O :   -0.249994
  64 O :   -0.230199
  65 C :   -0.071940
  66 H :    0.051518
  67 H :    0.174822
  68 H :   -0.020620
  69 H :   -0.038846
  70 H :    0.189097
  71 H :    0.136037
  72 H :    0.012163
  73 H :    0.003544
  74 H :    0.025766
  75 H :    0.018346
  76 H :    0.013748
  77 H :    0.009954
  78 H :    0.015002
  79 H :    0.010769
  80 H :   -0.012437
  81 H :    0.017621
  82 H :   -0.003373
  83 H :    0.019807
  84 H :    0.022207
  85 H :    0.021081
  86 H :    0.023870
  87 H :   -0.008720
  88 H :   -0.012285
  89 H :   -0.011045
  90 H :   -0.013349
  91 H :   -0.011173
  92 H :   -0.007947
  93 H :    0.004415
  94 H :    0.031138
  95 H :    0.012147
Sum of atomic charges:   -0.0000000

LOEWDIN ATOMIC CHARGES
----------------------
   0 C :   -0.174260
   1 S :    0.569540
   2 C :   -0.201431
   3 C :   -0.057953
   4 C :   -0.037554
   5 C :   -0.093854
   6 C :    0.087448
   7 O :   -0.160394
   8 O :   -0.034277
   9 C :   -0.013231
  10 C :   -0.102120
  11 C :    0.077113
  12 O :   -0.025228
  13 C :    0.052199
  14 O :    0.028347
  15 C :   -0.120562
  16 C :    0.077567
  17 O :   -0.171519
  18 N :   -0.006157
  19 C :    0.084380
  20 O :   -0.165290
  21 C :   -0.100823
  22 C :    0.066489
  23 C :   -0.043458
  24 C :    0.002695
  25 C :   -0.066719
  26 C :   -0.161747
  27 S :    0.421099
  28 C :   -0.178654
  29 C :   -0.042883
  30 C :   -0.026013
  31 C :   -0.027776
  32 C :   -0.057582
  33 C :   -0.016359
  34 C :   -0.030231
  35 C :   -0.051280
  36 C :   -0.041790
  37 C :   -0.060501
  38 C :   -0.167120
  39 S :    0.412635
  40 C :   -0.177931
  41 C :   -0.021305
  42 C :   -0.039460
  43 C :   -0.057959
  44 C :   -0.143407
  45 C :   -0.025686
  46 C :   -0.038258
  47 C :   -0.175787
  48 S :    0.379655
  49 C :   -0.177916
  50 C :   -0.033798
  51 C :   -0.029799
  52 C :   -0.150707
  53 S :    0.358559
  54 C :   -0.071360
  55 C :   -0.203460
  56 S :    0.471892
  57 C :   -0.192126
  58 C :   -0.084087
  59 C :    0.019147
  60 O :    0.001033
  61 C :    0.025111
  62 N :    0.271964
  63 O :   -0.211195
  64 O :   -0.192223
  65 C :   -0.009455
  66 H :    0.033825
  67 H :    0.087098
  68 H :    0.026561
  69 H :    0.026245
  70 H :    0.093770
  71 H :    0.093332
  72 H :    0.044329
  73 H :    0.031173
  74 H :    0.025455
  75 H :    0.031865
  76 H :    0.029067
  77 H :    0.016445
  78 H :    0.022290
  79 H :    0.023452
  80 H :    0.023579
  81 H :    0.031917
  82 H :    0.019855
  83 H :    0.024994
  84 H :    0.022674
  85 H :    0.024103
  86 H :    0.013212
  87 H :    0.030450
  88 H :    0.034662
  89 H :    0.034190
  90 H :    0.031899
  91 H :    0.032897
  92 H :    0.035314
  93 H :    0.046152
  94 H :    0.028261
  95 H :    0.046745

  Mayer bond orders larger than 0.100000
B(  0-C ,  1-S ) :   1.2074 B(  0-C ,  2-C ) :   0.1166 B(  0-C ,  4-C ) :   1.4660
B(  0-C , 66-H ) :   0.9417 B(  1-S ,  2-C ) :   1.2207 B(  2-C ,  3-C ) :   1.3082
B(  2-C , 13-C ) :   1.1523 B(  3-C ,  4-C ) :   1.2188 B(  3-C , 11-C ) :   1.1637
B(  4-C ,  5-C ) :   1.1839 B(  5-C ,  6-C ) :   0.9096 B(  5-C ,  9-C ) :   1.4773
B(  6-C ,  7-O ) :   2.1296 B(  6-C ,  8-O ) :   1.2349 B(  8-O , 67-H ) :   0.9547
B(  9-C , 10-C ) :   1.2361 B(  9-C , 68-H ) :   0.9785 B( 10-C , 11-C ) :   1.4458
B( 10-C , 69-H ) :   0.9792 B( 11-C , 12-O ) :   1.2807 B( 12-O , 70-H ) :   0.9354
B( 13-C , 14-O ) :   1.1885 B( 13-C , 15-C ) :   1.4332 B( 14-O , 22-C ) :   1.1479
B( 15-C , 16-C ) :   0.8848 B( 15-C , 21-C ) :   1.2598 B( 16-C , 17-O ) :   2.2225
B( 16-C , 18-N ) :   1.0895 B( 18-N , 19-C ) :   1.0769 B( 18-N , 71-H ) :   0.9153
B( 19-C , 20-O ) :   2.2622 B( 19-C , 21-C ) :   0.8815 B( 21-C , 22-C ) :   1.4149
B( 22-C , 23-C ) :   1.1501 B( 23-C , 24-C ) :   1.7093 B( 23-C , 72-H ) :   0.9621
B( 24-C , 25-C ) :   0.9951 B( 24-C , 73-H ) :   0.9621 B( 25-C , 26-C ) :   1.6102
B( 25-C , 29-C ) :   1.1479 B( 26-C , 27-S ) :   1.1236 B( 26-C , 74-H ) :   0.9633
B( 27-S , 28-C ) :   1.0780 B( 28-C , 29-C ) :   1.3706 B( 28-C , 40-C ) :   1.3770
B( 29-C , 30-C ) :   1.2654 B( 30-C , 31-C ) :   1.0542 B( 30-C , 33-C ) :   1.5153
B( 31-C , 32-C ) :   1.1051 B( 31-C , 75-H ) :   0.9221 B( 31-C , 76-H ) :   0.9225
B( 32-C , 77-H ) :   0.9583 B( 32-C , 78-H ) :   0.9586 B( 32-C , 79-H ) :   0.9577
B( 33-C , 34-C ) :   1.0737 B( 33-C , 36-C ) :   1.2490 B( 34-C , 35-C ) :   1.1101
B( 34-C , 80-H ) :   0.9092 B( 34-C , 81-H ) :   0.9126 B( 35-C , 82-H ) :   0.9521
B( 35-C , 83-H ) :   0.9647 B( 35-C , 84-H ) :   0.9596 B( 36-C , 37-C ) :   1.1597
B( 36-C , 40-C ) :   1.3742 B( 37-C , 38-C ) :   1.6120 B( 37-C , 41-C ) :   1.0323
B( 38-C , 39-S ) :   1.1101 B( 38-C , 85-H ) :   0.9660 B( 39-S , 40-C ) :   1.0808
B( 41-C , 42-C ) :   1.7280 B( 41-C , 86-H ) :   0.9273 B( 42-C , 43-C ) :   1.1554
B( 42-C , 87-H ) :   0.9676 B( 43-C , 44-C ) :   1.6156 B( 43-C , 88-H ) :   0.9627
B( 44-C , 45-C ) :   1.1318 B( 44-C , 48-S ) :   1.0291 B( 45-C , 46-C ) :   1.6099
B( 45-C , 89-H ) :   0.9974 B( 46-C , 47-C ) :   1.1707 B( 46-C , 90-H ) :   0.9926
B( 47-C , 48-S ) :   1.0397 B( 47-C , 49-C ) :   1.5376 B( 49-C , 50-C ) :   1.1728
B( 49-C , 53-S ) :   1.0329 B( 50-C , 51-C ) :   1.6049 B( 50-C , 91-H ) :   0.9930
B( 51-C , 52-C ) :   1.1326 B( 51-C , 92-H ) :   1.0007 B( 52-C , 53-S ) :   1.0325
B( 52-C , 54-C ) :   1.5790 B( 54-C , 55-C ) :   1.1696 B( 54-C , 93-H ) :   0.9733
B( 55-C , 56-S ) :   1.1081 B( 55-C , 57-C ) :   0.1093 B( 55-C , 59-C ) :   1.4449
B( 56-S , 57-C ) :   1.1867 B( 57-C , 58-C ) :   1.4145 B( 57-C , 94-H ) :   0.9764
B( 58-C , 59-C ) :   1.2301 B( 58-C , 65-C ) :   1.0604 B( 59-C , 60-O ) :   1.1212
B( 60-O , 61-C ) :   1.1237 B( 61-C , 62-N ) :   0.9161 B( 61-C , 65-C ) :   1.5762
B( 62-N , 63-O ) :   1.5331 B( 62-N , 64-O ) :   1.5149 B( 63-O , 64-O ) :   0.2799
B( 65-C , 95-H ) :   1.0255

-----------------------------------------------------------------------------
         ABSORPTION SPECTRUM VIA TRANSITION ELECTRIC DIPOLE MOMENTS
-----------------------------------------------------------------------------
State   Energy  Wavelength   fosc         T2         TX        TY        TZ
        (cm-1)    (nm)                  (au**2)     (au)      (au)      (au)
-----------------------------------------------------------------------------
   0   15639.6    639.4   0.964664472  20.30612   3.43334   1.85023  -2.25719
   1   20139.5    496.5   0.273238720   4.46651  -0.84060  -0.75587   1.78565
   2   22888.3    436.9   0.753411991  10.83665   2.51142  -1.54000  -1.46895
   3   24875.6    402.0   0.148824633   1.96960  -0.76922  -0.04046  -1.17314
   4   26109.9    383.0   0.006165419   0.07774  -0.17225   0.13260  -0.17460
   5   26280.9    380.5   0.002764024   0.03462  -0.06588   0.12311  -0.12299
   6   27461.1    364.2   0.493765184   5.91940   1.12549  -1.74856   1.26302
   7   28008.7    357.0   0.301469182   3.54344  -1.41011  -0.87271  -0.89073
   8   29807.6    335.5   0.012176309   0.13448   0.04998   0.14912   0.33128
   9   30212.3    331.0   0.009524796   0.10379  -0.05195   0.19609  -0.25027
  10   30536.7    327.5   0.218542972   2.35608  -0.07443  -0.41791   1.47509
  11   30644.2    326.3   0.322101350   3.46035  -0.86926  -0.22330  -1.62938
  12   31638.3    316.1   0.033125269   0.34468   0.44067  -0.02911  -0.38685
  13   31760.0    314.9   0.021196285   0.21971   0.01616   0.17498   0.43455
  14   32064.8    311.9   0.083168699   0.85390   0.81032   0.32590   0.30178
  15   32741.5    305.4   0.000414828   0.00417   0.05349   0.03581   0.00524
  16   32780.5    305.1   0.000024151   0.00024   0.01401   0.00629  -0.00258
  17   32944.7    303.5   0.053873865   0.53835  -0.58321  -0.33849   0.28921
  18   33393.2    299.5   0.036014060   0.35505   0.27733  -0.46191   0.25452
  19   33455.2    298.9   0.021293439   0.20954  -0.09433   0.13416  -0.42736
  20   33810.1    295.8   0.096939164   0.94390   0.29969  -0.88432   0.26847
  21   34850.3    286.9   0.151598091   1.43206  -0.92278  -0.07178  -0.75854
  22   35901.5    278.5   0.064643214   0.59277  -0.37240   0.39455   0.54627
  23   36363.4    275.0   0.099656993   0.90223  -0.39581  -0.44232   0.74157
  24   36452.0    274.3   0.019791292   0.17874   0.38763  -0.16193  -0.04757
  25   36811.4    271.7   0.126853780   1.13448   0.77247   0.32481  -0.65748
  26   37299.6    268.1   0.047130621   0.41598  -0.54370  -0.06753  -0.34032
  27   37369.7    267.6   0.032768611   0.28868   0.26719   0.26303  -0.38485
  28   37488.7    266.7   0.126083915   1.10722  -0.58180  -0.43436   0.76162
  29   37623.2    265.8   0.062674576   0.54842   0.57990   0.45753   0.05287
  30   38552.6    259.4   0.003398640   0.02902   0.10725   0.02167   0.13058
  31   38747.4    258.1   0.100119246   0.85065   0.37031  -0.51385   0.67043
  32   39642.4    252.3   0.066622256   0.55327   0.15045   0.23279  -0.69025
  33   39697.1    251.9   0.081687028   0.67744   0.52854   0.46256  -0.42910
  34   39836.9    251.0   0.111041890   0.91765   0.68903  -0.15242  -0.64781
  35   40233.0    248.6   0.006466900   0.05292   0.02096  -0.06175   0.22060

FINAL SINGLE POINT ENERGY     -5056.785572844437

DIPOLE MOMENT
-------------
                                X             Y             Z
Electronic contribution:    -22.19806      -3.76289     -15.00449
Nuclear contribution   :     24.83054       2.45441      16.13895
                        -----------------------------------------
Total Dipole Moment    :      2.63248      -1.30848       1.13446
                        -----------------------------------------
Magnitude (a.u.)       :      3.15104
Magnitude (Debye)      :      8.00931

Rotational constants in cm-1:     0.000973     0.000371     0.000298
Rotational constants in MHz :    29.166450    11.115496     8.947584

                             ****ORCA TERMINATED NORMALLY****
TOTAL RUN TIME: 0 days 0 hours 9 minutes 8 seconds 403 msec
