                         Program Version 4.2.0 -  RELEASE  -
|  1> # ORCA input file
|  2> # SCF done       -145.865676937484          0.000310456625
|  3> ! CAM-B3LYP def2-SVP def2/J RIJCOSX Grid4 TightSCF
|  4> %maxcore 5000
|  5> %tddft
|  6>     Mode sTDDFT
|  7>     Ethresh 5.0
|  8>     maxcore 5000
|  9> end
| 10>
| 11> %pal
| 12>   nprocs 6
| 13>   end
| 14> * xyz 0 1
| 15>    C       -6.20659         1.69452        -4.53892
| 16>    S       -4.75178         2.43356        -5.09431
| 17>    C       -4.71482         3.63340        -3.81689
| 18>    C       -5.82149         3.42490        -2.98773
| 19>    C       -6.64895         2.33581        -3.41486
| 20>    N       -7.66977         2.25447        -2.52626
| 21>    N       -7.54973         3.21185        -1.58250
| 22>    C       -6.46677         3.91186        -1.82738
| 23>    C       -3.74493         4.64292        -3.72248
| 24>    S       -3.91375         5.85797        -2.48428
| 25>    C       -2.51142         6.74794        -3.01462
| 26>    C       -1.91615         6.08985        -4.11591
| 27>    C       -2.60603         4.90531        -4.51276
| 28>    C       -2.11205         4.14903        -5.59002
| 29>    C       -0.98555         4.57038        -6.24070
| 30>    F       -0.50605         3.85168        -7.27048
| 31>    C       -0.31204         5.74400        -5.85219
| 32>    F        0.79167         6.12249        -6.52100
| 33>    C       -0.76409         6.49719        -4.80362
| 34>    C       -2.11659         7.93987        -2.41322
| 35>    C       -2.75828         8.51247        -1.33506
| 36>    C       -2.42080         9.72916        -0.76171
| 37>    C       -3.09788        10.27237         0.32006
| 38>    C       -2.89644        11.51677         0.94270
| 39>    C       -3.75610        11.77413         1.98074
| 40>    C       -4.66287        10.73394         2.23076
| 41>    S       -4.40985         9.42070         1.10633
| 42>    C       -5.66439        10.62543         3.19013
| 43>    C       -6.12245        11.54912         4.14220
| 44>    C       -7.16224        11.08511         4.90652
| 45>    C       -7.56065         9.76687         4.60851
| 46>    S       -6.57068         9.13748         3.30090
| 47>    C       -8.65186         9.07218         5.09999
| 48>    C       -8.93020         7.73763         4.78232
| 49>    S      -10.56887         7.20541         4.49433
| 50>    C      -10.05506         5.70558         3.77843
| 51>    C       -8.66512         5.54270         3.93179
| 52>    C       -8.03260         6.68241         4.51027
| 53>    C       -6.67640         6.62132         4.87505
| 54>    C       -5.96355         5.48971         4.59740
| 55>    F       -4.66782         5.41264         4.94555
| 56>    C       -6.57941         4.37367         3.99498
| 57>    F       -5.85065         3.26533         3.77069
| 58>    C       -7.90965         4.38093         3.68431
| 59>    C      -10.97271         4.89665         3.07544
| 60>    C      -10.60606         4.11020         2.02578
| 61>    C      -11.44487         3.26998         1.27139
| 62>    S      -13.12387         2.91518         1.63408
| 63>    C      -13.30791         1.84581         0.30222
| 64>    C      -12.14121         1.74921        -0.41777
| 65>    C      -11.09640         2.55845         0.13199
| 66>    N      -10.01128         2.38425        -0.65396
| 67>    N      -10.29185         1.53711        -1.66534
| 68>    C      -11.53382         1.14002        -1.55154
| 69>    H       -6.61896         0.86124        -5.06749
| 70>    H       -8.50368         1.67412        -2.52555
| 71>    H       -6.18475         4.72017        -1.18374
| 72>    H       -2.59257         3.24209        -5.91383
| 73>    H       -0.22771         7.38767        -4.52062
| 74>    H       -1.25895         8.44574        -2.83437
| 75>    H       -3.59998         7.97854        -0.90909
| 76>    H       -1.60341        10.30277        -1.17829
| 77>    H       -2.12990        12.19533         0.61154
| 78>    H       -3.74637        12.67668         2.56549
| 79>    H       -5.69539        12.53159         4.23678
| 80>    H       -7.64676        11.65699         5.67836
| 81>    H       -9.39555         9.63328         5.64994
| 82>    H       -6.20052         7.43580         5.39503
| 83>    H       -8.36780         3.48241         3.30665
| 84>    H      -12.01968         4.98195         3.33487
| 85>    H       -9.58343         4.14658         1.67527
| 86>    H      -14.25001         1.36436         0.13718
| 87>    H       -9.10190         2.85223        -0.65574
| 88>    H      -11.95808         0.45256        -2.25477
| 89> *
| 90>
| 91>                          ****END OF INPUT****

CARTESIAN COORDINATES (ANGSTROEM)
---------------------------------
  C     -6.206590    1.694520   -4.538920
  S     -4.751780    2.433560   -5.094310
  C     -4.714820    3.633400   -3.816890
  C     -5.821490    3.424900   -2.987730
  C     -6.648950    2.335810   -3.414860
  N     -7.669770    2.254470   -2.526260
  N     -7.549730    3.211850   -1.582500
  C     -6.466770    3.911860   -1.827380
  C     -3.744930    4.642920   -3.722480
  S     -3.913750    5.857970   -2.484280
  C     -2.511420    6.747940   -3.014620
  C     -1.916150    6.089850   -4.115910
  C     -2.606030    4.905310   -4.512760
  C     -2.112050    4.149030   -5.590020
  C     -0.985550    4.570380   -6.240700
  F     -0.506050    3.851680   -7.270480
  C     -0.312040    5.744000   -5.852190
  F      0.791670    6.122490   -6.521000
  C     -0.764090    6.497190   -4.803620
  C     -2.116590    7.939870   -2.413220
  C     -2.758280    8.512470   -1.335060
  C     -2.420800    9.729160   -0.761710
  C     -3.097880   10.272370    0.320060
  C     -2.896440   11.516770    0.942700
  C     -3.756100   11.774130    1.980740
  C     -4.662870   10.733940    2.230760
  S     -4.409850    9.420700    1.106330
  C     -5.664390   10.625430    3.190130
  C     -6.122450   11.549120    4.142200
  C     -7.162240   11.085110    4.906520
  C     -7.560650    9.766870    4.608510
  S     -6.570680    9.137480    3.300900
  C     -8.651860    9.072180    5.099990
  C     -8.930200    7.737630    4.782320
  S    -10.568870    7.205410    4.494330
  C    -10.055060    5.705580    3.778430
  C     -8.665120    5.542700    3.931790
  C     -8.032600    6.682410    4.510270
  C     -6.676400    6.621320    4.875050
  C     -5.963550    5.489710    4.597400
  F     -4.667820    5.412640    4.945550
  C     -6.579410    4.373670    3.994980
  F     -5.850650    3.265330    3.770690
  C     -7.909650    4.380930    3.684310
  C    -10.972710    4.896650    3.075440
  C    -10.606060    4.110200    2.025780
  C    -11.444870    3.269980    1.271390
  S    -13.123870    2.915180    1.634080
  C    -13.307910    1.845810    0.302220
  C    -12.141210    1.749210   -0.417770
  C    -11.096400    2.558450    0.131990
  N    -10.011280    2.384250   -0.653960
  N    -10.291850    1.537110   -1.665340
  C    -11.533820    1.140020   -1.551540
  H     -6.618960    0.861240   -5.067490
  H     -8.503680    1.674120   -2.525550
  H     -6.184750    4.720170   -1.183740
  H     -2.592570    3.242090   -5.913830
  H     -0.227710    7.387670   -4.520620
  H     -1.258950    8.445740   -2.834370
  H     -3.599980    7.978540   -0.909090
  H     -1.603410   10.302770   -1.178290
  H     -2.129900   12.195330    0.611540
  H     -3.746370   12.676680    2.565490
  H     -5.695390   12.531590    4.236780
  H     -7.646760   11.656990    5.678360
  H     -9.395550    9.633280    5.649940
  H     -6.200520    7.435800    5.395030
  H     -8.367800    3.482410    3.306650
  H    -12.019680    4.981950    3.334870
  H     -9.583430    4.146580    1.675270
  H    -14.250010    1.364360    0.137180
  H     -9.101900    2.852230   -0.655740
  H    -11.958080    0.452560   -2.254770

 Total Charge           Charge          ....    0
 Multiplicity           Mult            ....    1
 Number of Electrons    NEL             ....  420
 Basis Dimension        Dim             ....  880

ORBITAL ENERGIES
----------------

  NO   OCC          E(Eh)            E(eV)
   0   2.0000     -88.964454     -2420.8459
   1   2.0000     -88.963300     -2420.8145
   2   2.0000     -88.962338     -2420.7883
   3   2.0000     -88.961566     -2420.7673
   4   2.0000     -88.939315     -2420.1618
   5   2.0000     -88.938798     -2420.1477
   6   2.0000     -24.780896      -674.3225
   7   2.0000     -24.780766      -674.3189
   8   2.0000     -24.777813      -674.2386
   9   2.0000     -24.777521      -674.2306
  10   2.0000     -14.463853      -393.5815
  11   2.0000     -14.463294      -393.5662
  12   2.0000     -14.444935      -393.0667
  13   2.0000     -14.443271      -393.0214
  14   2.0000     -10.362330      -281.9733
  15   2.0000     -10.361451      -281.9494
  16   2.0000     -10.359025      -281.8834
  17   2.0000     -10.358711      -281.8748
  18   2.0000     -10.314083      -280.6605
  19   2.0000     -10.310307      -280.5577
  20   2.0000     -10.309618      -280.5390
  21   2.0000     -10.308386      -280.5054
  22   2.0000     -10.307695      -280.4866
  23   2.0000     -10.305689      -280.4320
  24   2.0000     -10.304661      -280.4041
  25   2.0000     -10.304573      -280.4017
  26   2.0000     -10.303937      -280.3844
  27   2.0000     -10.303089      -280.3613
  28   2.0000     -10.302375      -280.3419
  29   2.0000     -10.301422      -280.3159
  30   2.0000     -10.299624      -280.2670
  31   2.0000     -10.299565      -280.2654
  32   2.0000     -10.297747      -280.2159
  33   2.0000     -10.289880      -280.0019
  34   2.0000     -10.289011      -279.9782
  35   2.0000     -10.288216      -279.9566
  36   2.0000     -10.287225      -279.9296
  37   2.0000     -10.286276      -279.9038
  38   2.0000     -10.286037      -279.8973
  39   2.0000     -10.285522      -279.8833
  40   2.0000     -10.285251      -279.8759
  41   2.0000     -10.283084      -279.8169
  42   2.0000     -10.282955      -279.8134
  43   2.0000     -10.282198      -279.7928
  44   2.0000     -10.281743      -279.7805
  45   2.0000     -10.281152      -279.7644
  46   2.0000     -10.280926      -279.7582
  47   2.0000     -10.279735      -279.7258
  48   2.0000     -10.279656      -279.7237
  49   2.0000     -10.278656      -279.6964
  50   2.0000     -10.278204      -279.6841
  51   2.0000     -10.275237      -279.6034
  52   2.0000     -10.274647      -279.5874
  53   2.0000     -10.273679      -279.5610
  54   2.0000      -8.059263      -219.3037
  55   2.0000      -8.057491      -219.2555
  56   2.0000      -8.056991      -219.2419
  57   2.0000      -8.056924      -219.2401
  58   2.0000      -8.035780      -218.6647
  59   2.0000      -8.034803      -218.6381
  60   2.0000      -6.028537      -164.0448
  61   2.0000      -6.026992      -164.0028
  62   2.0000      -6.026131      -163.9794
  63   2.0000      -6.026027      -163.9765
  64   2.0000      -6.024190      -163.9266
  65   2.0000      -6.022447      -163.8791
  66   2.0000      -6.022069      -163.8688
  67   2.0000      -6.022044      -163.8682
  68   2.0000      -6.021825      -163.8622
  69   2.0000      -6.019901      -163.8098
  70   2.0000      -6.019534      -163.7998
  71   2.0000      -6.019310      -163.7938
  72   2.0000      -6.005406      -163.4154
  73   2.0000      -6.004534      -163.3917
  74   2.0000      -6.001431      -163.3072
  75   2.0000      -6.000393      -163.2790
  76   2.0000      -5.996817      -163.1817
  77   2.0000      -5.995779      -163.1534
  78   2.0000      -1.302227       -35.4354
  79   2.0000      -1.299071       -35.3495
  80   2.0000      -1.287479       -35.0341
  81   2.0000      -1.284287       -34.9472
  82   2.0000      -1.140277       -31.0285
  83   2.0000      -1.132735       -30.8233
  84   2.0000      -1.001507       -27.2524
  85   2.0000      -0.999221       -27.1902
  86   2.0000      -0.989913       -26.9369
  87   2.0000      -0.980507       -26.6810
  88   2.0000      -0.973876       -26.5005
  89   2.0000      -0.968351       -26.3502
  90   2.0000      -0.938406       -25.5353
  91   2.0000      -0.935716       -25.4621
  92   2.0000      -0.916406       -24.9367
  93   2.0000      -0.913266       -24.8512
  94   2.0000      -0.907841       -24.7036
  95   2.0000      -0.902435       -24.5565
  96   2.0000      -0.882968       -24.0268
  97   2.0000      -0.872726       -23.7481
  98   2.0000      -0.857834       -23.3428
  99   2.0000      -0.849092       -23.1050
 100   2.0000      -0.843321       -22.9479
 101   2.0000      -0.841241       -22.8913
 102   2.0000      -0.839318       -22.8390
 103   2.0000      -0.833002       -22.6671
 104   2.0000      -0.829004       -22.5584
 105   2.0000      -0.823252       -22.4018
 106   2.0000      -0.819171       -22.2908
 107   2.0000      -0.810850       -22.0643
 108   2.0000      -0.795759       -21.6537
 109   2.0000      -0.774949       -21.0874
 110   2.0000      -0.752405       -20.4740
 111   2.0000      -0.735091       -20.0028
 112   2.0000      -0.731380       -19.9019
 113   2.0000      -0.728231       -19.8162
 114   2.0000      -0.719863       -19.5885
 115   2.0000      -0.707544       -19.2533
 116   2.0000      -0.702145       -19.1063
 117   2.0000      -0.700326       -19.0568
 118   2.0000      -0.691760       -18.8238
 119   2.0000      -0.685191       -18.6450
 120   2.0000      -0.678053       -18.4508
 121   2.0000      -0.670116       -18.2348
 122   2.0000      -0.662002       -18.0140
 123   2.0000      -0.659324       -17.9411
 124   2.0000      -0.651416       -17.7259
 125   2.0000      -0.647144       -17.6097
 126   2.0000      -0.643798       -17.5186
 127   2.0000      -0.632381       -17.2080
 128   2.0000      -0.626440       -17.0463
 129   2.0000      -0.619736       -16.8639
 130   2.0000      -0.613459       -16.6931
 131   2.0000      -0.612567       -16.6688
 132   2.0000      -0.607740       -16.5375
 133   2.0000      -0.605149       -16.4669
 134   2.0000      -0.599515       -16.3136
 135   2.0000      -0.598883       -16.2964
 136   2.0000      -0.591241       -16.0885
 137   2.0000      -0.584688       -15.9102
 138   2.0000      -0.579686       -15.7741
 139   2.0000      -0.567728       -15.4487
 140   2.0000      -0.565158       -15.3787
 141   2.0000      -0.559533       -15.2257
 142   2.0000      -0.551535       -15.0080
 143   2.0000      -0.545818       -14.8525
 144   2.0000      -0.543057       -14.7773
 145   2.0000      -0.542160       -14.7529
 146   2.0000      -0.541800       -14.7431
 147   2.0000      -0.537092       -14.6150
 148   2.0000      -0.534028       -14.5316
 149   2.0000      -0.533147       -14.5077
 150   2.0000      -0.530042       -14.4232
 151   2.0000      -0.529827       -14.4173
 152   2.0000      -0.529338       -14.4040
 153   2.0000      -0.526651       -14.3309
 154   2.0000      -0.522943       -14.2300
 155   2.0000      -0.519024       -14.1234
 156   2.0000      -0.515030       -14.0147
 157   2.0000      -0.510913       -13.9026
 158   2.0000      -0.503442       -13.6994
 159   2.0000      -0.497813       -13.5462
 160   2.0000      -0.495908       -13.4943
 161   2.0000      -0.492454       -13.4003
 162   2.0000      -0.490319       -13.3423
 163   2.0000      -0.488869       -13.3028
 164   2.0000      -0.482121       -13.1192
 165   2.0000      -0.480142       -13.0653
 166   2.0000      -0.473358       -12.8807
 167   2.0000      -0.470570       -12.8049
 168   2.0000      -0.466512       -12.6944
 169   2.0000      -0.465314       -12.6618
 170   2.0000      -0.461326       -12.5533
 171   2.0000      -0.458354       -12.4725
 172   2.0000      -0.457652       -12.4533
 173   2.0000      -0.455964       -12.4074
 174   2.0000      -0.452582       -12.3154
 175   2.0000      -0.448698       -12.2097
 176   2.0000      -0.448013       -12.1911
 177   2.0000      -0.443902       -12.0792
 178   2.0000      -0.439585       -11.9617
 179   2.0000      -0.436679       -11.8826
 180   2.0000      -0.428469       -11.6592
 181   2.0000      -0.427311       -11.6277
 182   2.0000      -0.426651       -11.6098
 183   2.0000      -0.423444       -11.5225
 184   2.0000      -0.420013       -11.4291
 185   2.0000      -0.418337       -11.3835
 186   2.0000      -0.410912       -11.1815
 187   2.0000      -0.405390       -11.0312
 188   2.0000      -0.403098       -10.9689
 189   2.0000      -0.396798       -10.7974
 190   2.0000      -0.390923       -10.6376
 191   2.0000      -0.384525       -10.4635
 192   2.0000      -0.383449       -10.4342
 193   2.0000      -0.371239       -10.1019
 194   2.0000      -0.364319        -9.9136
 195   2.0000      -0.357297        -9.7226
 196   2.0000      -0.347207        -9.4480
 197   2.0000      -0.340041        -9.2530
 198   2.0000      -0.331254        -9.0139
 199   2.0000      -0.321881        -8.7588
 200   2.0000      -0.315443        -8.5836
 201   2.0000      -0.313764        -8.5379
 202   2.0000      -0.309732        -8.4282
 203   2.0000      -0.307031        -8.3547
 204   2.0000      -0.304812        -8.2944
 205   2.0000      -0.289243        -7.8707
 206   2.0000      -0.276579        -7.5261
 207   2.0000      -0.247536        -6.7358
 208   2.0000      -0.221326        -6.0226
 209   2.0000      -0.185577        -5.0498
 210   0.0000      -0.094458        -2.5703
 211   0.0000      -0.061594        -1.6761
 212   0.0000      -0.037545        -1.0216
 213   0.0000      -0.017010        -0.4629
 214   0.0000       0.001322         0.0360

MULLIKEN ATOMIC CHARGES
-----------------------
   0 C :   -0.205730
   1 S :    0.114083
   2 C :   -0.101220
   3 C :   -0.042547
   4 C :    0.209191
   5 N :   -0.041767
   6 N :   -0.103939
   7 C :    0.022144
   8 C :   -0.091040
   9 S :    0.119366
  10 C :   -0.060849
  11 C :    0.124811
  12 C :    0.104640
  13 C :   -0.114979
  14 C :    0.216823
  15 F :   -0.180222
  16 C :    0.221267
  17 F :   -0.181909
  18 C :   -0.117509
  19 C :   -0.019181
  20 C :   -0.003928
  21 C :   -0.002868
  22 C :   -0.021103
  23 C :    0.025978
  24 C :    0.023333
  25 C :   -0.039437
  26 S :    0.065087
  27 C :   -0.044626
  28 C :    0.023422
  29 C :    0.035818
  30 C :   -0.058703
  31 S :    0.074326
  32 C :    0.009935
  33 C :   -0.145418
  34 S :    0.159015
  35 C :   -0.121751
  36 C :    0.114131
  37 C :    0.091839
  38 C :   -0.088199
  39 C :    0.221229
  40 F :   -0.180537
  41 C :    0.225404
  42 F :   -0.183133
  43 C :   -0.123412
  44 C :    0.012364
  45 C :   -0.023103
  46 C :   -0.162787
  47 S :    0.134457
  48 C :   -0.129806
  49 C :    0.036710
  50 C :    0.147395
  51 N :   -0.050596
  52 N :   -0.094036
  53 C :    0.028799
  54 H :    0.013554
  55 H :    0.127630
  56 H :    0.005925
  57 H :   -0.002810
  58 H :   -0.012955
  59 H :   -0.018564
  60 H :    0.006527
  61 H :   -0.020151
  62 H :   -0.015842
  63 H :   -0.015690
  64 H :   -0.017537
  65 H :   -0.013776
  66 H :   -0.008107
  67 H :    0.004278
  68 H :   -0.006724
  69 H :   -0.011889
  70 H :    0.004752
  71 H :    0.026580
  72 H :    0.131356
  73 H :   -0.003790
Sum of atomic charges:   -0.0000000

LOEWDIN ATOMIC CHARGES
----------------------
   0 C :   -0.242689
   1 S :    0.470346
   2 C :   -0.185906
   3 C :   -0.106005
   4 C :   -0.020155
   5 N :    0.081404
   6 N :   -0.048825
   7 C :   -0.032784
   8 C :   -0.187807
   9 S :    0.471791
  10 C :   -0.166479
  11 C :   -0.044149
  12 C :   -0.048113
  13 C :   -0.049939
  14 C :    0.063087
  15 F :   -0.058570
  16 C :    0.057244
  17 F :   -0.060225
  18 C :   -0.035508
  19 C :   -0.049206
  20 C :   -0.036118
  21 C :   -0.059024
  22 C :   -0.146197
  23 C :   -0.042286
  24 C :   -0.034201
  25 C :   -0.182836
  26 S :    0.379261
  27 C :   -0.178435
  28 C :   -0.041545
  29 C :   -0.036406
  30 C :   -0.158175
  31 S :    0.403454
  32 C :   -0.078578
  33 C :   -0.189903
  34 S :    0.461235
  35 C :   -0.162918
  36 C :   -0.048911
  37 C :   -0.057588
  38 C :   -0.044701
  39 C :    0.061217
  40 F :   -0.057913
  41 C :    0.058188
  42 F :   -0.060833
  43 C :   -0.042858
  44 C :   -0.067061
  45 C :   -0.030340
  46 C :   -0.221727
  47 S :    0.460177
  48 C :   -0.178823
  49 C :   -0.100491
  50 C :   -0.014158
  51 N :    0.081419
  52 N :   -0.051077
  53 C :   -0.029127
  54 H :    0.024255
  55 H :    0.058073
  56 H :    0.018192
  57 H :    0.024630
  58 H :    0.039332
  59 H :    0.031558
  60 H :    0.013792
  61 H :    0.031656
  62 H :    0.031962
  63 H :    0.031340
  64 H :    0.030563
  65 H :    0.032174
  66 H :    0.033019
  67 H :    0.038929
  68 H :    0.040533
  69 H :    0.024802
  70 H :    0.037447
  71 H :    0.026463
  72 H :    0.048144
  73 H :    0.022903

  Mayer bond orders larger than 0.100000
B(  0-C ,  1-S ) :   1.1168 B(  0-C ,  2-C ) :   0.1115 B(  0-C ,  4-C ) :   1.4210
B(  0-C , 54-H ) :   0.9933 B(  1-S ,  2-C ) :   1.1635 B(  2-C ,  3-C ) :   1.3154
B(  2-C ,  8-C ) :   1.2553 B(  3-C ,  4-C ) :   1.2425 B(  3-C ,  7-C ) :   1.1758
B(  4-C ,  5-N ) :   1.1420 B(  5-N ,  6-N ) :   1.1441 B(  5-N , 55-H ) :   0.8968
B(  6-N ,  7-C ) :   1.6721 B(  6-N , 72-H ) :   0.1641 B(  7-C , 56-H ) :   0.9937
B(  8-C ,  9-S ) :   1.1361 B(  8-C , 12-C ) :   1.3232 B(  9-S , 10-C ) :   1.1106
B( 10-C , 11-C ) :   1.2741 B( 10-C , 19-C ) :   1.2562 B( 11-C , 12-C ) :   1.2214
B( 11-C , 18-C ) :   1.1881 B( 12-C , 13-C ) :   1.1596 B( 13-C , 14-C ) :   1.5107
B( 13-C , 18-C ) :   0.1117 B( 13-C , 57-H ) :   0.9810 B( 14-C , 15-F ) :   1.1325
B( 14-C , 16-C ) :   1.1714 B( 16-C , 17-F ) :   1.1253 B( 16-C , 18-C ) :   1.4859
B( 18-C , 58-H ) :   0.9984 B( 19-C , 20-C ) :   1.5073 B( 19-C , 59-H ) :   0.9744
B( 20-C , 21-C ) :   1.2432 B( 20-C , 60-H ) :   0.9665 B( 21-C , 22-C ) :   1.4657
B( 21-C , 61-H ) :   0.9875 B( 22-C , 23-C ) :   1.1958 B( 22-C , 26-S ) :   1.0493
B( 23-C , 24-C ) :   1.5237 B( 23-C , 62-H ) :   0.9997 B( 24-C , 25-C ) :   1.2446
B( 24-C , 63-H ) :   0.9952 B( 25-C , 26-S ) :   1.0554 B( 25-C , 27-C ) :   1.4289
B( 27-C , 28-C ) :   1.2325 B( 27-C , 31-S ) :   1.0594 B( 28-C , 29-C ) :   1.5404
B( 28-C , 64-H ) :   0.9947 B( 29-C , 30-C ) :   1.1846 B( 29-C , 65-H ) :   0.9979
B( 30-C , 31-S ) :   1.0463 B( 30-C , 32-C ) :   1.5323 B( 32-C , 33-C ) :   1.1992
B( 32-C , 66-H ) :   0.9564 B( 33-C , 34-S ) :   1.1184 B( 33-C , 37-C ) :   1.2966
B( 34-S , 35-C ) :   1.1523 B( 35-C , 36-C ) :   1.3188 B( 35-C , 44-C ) :   1.1629
B( 36-C , 37-C ) :   1.2375 B( 36-C , 43-C ) :   1.1610 B( 37-C , 38-C ) :   1.1652
B( 38-C , 39-C ) :   1.5002 B( 38-C , 43-C ) :   0.1102 B( 38-C , 67-H ) :   0.9916
B( 39-C , 40-F ) :   1.1233 B( 39-C , 41-C ) :   1.1664 B( 41-C , 42-F ) :   1.1211
B( 41-C , 43-C ) :   1.4917 B( 43-C , 68-H ) :   0.9975 B( 44-C , 45-C ) :   1.6113
B( 44-C , 69-H ) :   0.9601 B( 45-C , 46-C ) :   1.2180 B( 45-C , 70-H ) :   0.9716
B( 46-C , 47-S ) :   1.0906 B( 46-C , 48-C ) :   0.1127 B( 46-C , 50-C ) :   1.3701
B( 47-S , 48-C ) :   1.2066 B( 48-C , 49-C ) :   1.3967 B( 48-C , 71-H ) :   0.9766
B( 49-C , 50-C ) :   1.2388 B( 49-C , 53-C ) :   1.1260 B( 50-C , 51-N ) :   1.1863
B( 51-N , 52-N ) :   1.1435 B( 51-N , 72-H ) :   0.8735 B( 52-N , 53-C ) :   1.7103
B( 52-N , 55-H ) :   0.1342 B( 53-C , 73-H ) :   1.0008

-----------------------------------------------------------------------------
         ABSORPTION SPECTRUM VIA TRANSITION ELECTRIC DIPOLE MOMENTS
-----------------------------------------------------------------------------
State   Energy  Wavelength   fosc         T2         TX        TY        TZ
        (cm-1)    (nm)                  (au**2)     (au)      (au)      (au)
-----------------------------------------------------------------------------
   0    6934.0   1442.2   0.363688590  17.26715  -2.61691   0.48879   3.19061
   1   12468.3    802.0   0.018024078   0.47591  -0.52664  -0.43696  -0.08733
   2   15813.9    632.4   1.640007985  34.14141   2.60674   4.82999   2.00438
   3   17889.6    559.0   0.023121012   0.42548  -0.32170  -0.13722   0.55060
   4   20905.0    478.4   0.170831239   2.69025  -1.14036  -0.49008   1.07222
   5   21595.7    463.1   0.548709002   8.36470  -1.19988   0.41972   2.59785
   6   22524.3    444.0   0.146765380   2.14510   0.87041   0.88534   0.77696
   7   24992.5    400.1   0.019548320   0.25750  -0.29155  -0.00464  -0.41531
   8   26249.2    381.0   0.125648325   1.57585  -1.15085   0.46085   0.19754
   9   26440.0    378.2   0.052158572   0.64944  -0.57316  -0.56602   0.02331
  10   26568.7    376.4   0.118335182   1.46629   1.19450   0.19865   0.00258
  11   27306.6    366.2   0.109182814   1.31632  -0.94822  -0.63436   0.12161
  12   28356.1    352.7   0.112323660   1.30407   0.75214  -0.60938  -0.60582
  13   29499.6    339.0   0.037041215   0.41338  -0.53384  -0.34717   0.08871
  14   29957.5    333.8   0.049445752   0.54338  -0.27688  -0.39992  -0.55388
  15   30864.4    324.0   0.027444969   0.29274  -0.46387   0.21041  -0.18247
  16   31274.2    319.8   0.027757995   0.29220   0.52599  -0.01457   0.12378
  17   32101.2    311.5   0.034660971   0.35546   0.43510  -0.07870  -0.39994
  18   32370.6    308.9   0.029333551   0.29832  -0.07295  -0.41923  -0.34241
  19   32595.2    306.8   0.049992977   0.50493   0.16631   0.50331   0.47323
  20   33164.3    301.5   0.196346548   1.94907   0.64247  -0.73448  -0.99842
  21   33552.6    298.0   0.001407087   0.01381  -0.09970  -0.05226  -0.03368
  22   33923.7    294.8   0.011918332   0.11566   0.00499  -0.15528  -0.30253
  23   34442.8    290.3   0.058489332   0.55905  -0.66344  -0.11371   0.32554
  24   34901.5    286.5   0.029169885   0.27515   0.22276   0.10757  -0.46255
  25   35056.9    285.3   0.021966252   0.20628   0.10726   0.43905   0.04483
  26   35225.3    283.9   0.058251862   0.54442   0.32452   0.66145  -0.03986
  27   35505.3    281.6   0.048694735   0.45151   0.52915   0.05709  -0.41018
  28   36158.4    276.6   0.006435042   0.05859  -0.18534   0.04947   0.14762
  29   36297.1    275.5   0.003419446   0.03101   0.06658  -0.14588  -0.07280
  30   36799.2    271.7   0.002652804   0.02373   0.05325   0.14385  -0.01431
  31   37086.1    269.6   0.015916482   0.14129  -0.28088   0.22918   0.09935
  32   37655.8    265.6   0.017903634   0.15653  -0.27794  -0.06294  -0.27444
  33   37896.2    263.9   0.014073975   0.12226   0.25397  -0.14063  -0.19490
  34   38088.6    262.5   0.052339600   0.45239  -0.55576   0.37222  -0.07047
  35   38838.0    257.5   0.009811319   0.08317  -0.06088  -0.25321  -0.12388
  36   39456.0    253.4   0.056689844   0.47301  -0.42733   0.51656   0.15352
  37   39593.2    252.6   0.012875417   0.10706   0.06129   0.16222   0.27746
  38   39922.8    250.5   0.057480210   0.47399  -0.59821   0.32370  -0.10659

FINAL SINGLE POINT ENERGY     -4540.311417709736

DIPOLE MOMENT
-------------
                                X             Y             Z
Electronic contribution:     17.10458     -14.78836      -9.15679
Nuclear contribution   :    -18.78086      15.67280       9.72085
                        -----------------------------------------
Total Dipole Moment    :     -1.67628       0.88444       0.56406
                        -----------------------------------------
Magnitude (a.u.)       :      1.97745
Magnitude (Debye)      :      5.02628

Rotational constants in cm-1:     0.001377     0.000915     0.000595
Rotational constants in MHz :    41.271044    27.441223    17.840394

                             ****ORCA TERMINATED NORMALLY****
TOTAL RUN TIME: 0 days 0 hours 6 minutes 45 seconds 127 msec
