                         Program Version 4.2.0 -  RELEASE  -
|  1> # ORCA input file
|  2> # SCF done       -187.539123551015          0.000401388202
|  3> ! CAM-B3LYP def2-SVP def2/J RIJCOSX Grid4 TightSCF
|  4> %maxcore 5000
|  5> %tddft
|  6>     Mode sTDDFT
|  7>     Ethresh 5.0
|  8>     maxcore 5000
|  9> end
| 10>
| 11> %pal
| 12>   nprocs 6
| 13>   end
| 14> * xyz 0 1
| 15>    C        7.53215         8.30961        -6.21832
| 16>    C        6.51414         9.18856        -6.46451
| 17>    F        6.32586         9.65073        -7.71312
| 18>    C        5.64587         9.63416        -5.45832
| 19>    C        5.81960         9.17382        -4.18292
| 20>    C        6.85260         8.26538        -3.87271
| 21>    C        7.72793         7.82766        -4.90968
| 22>    C        8.77996         6.92715        -4.62068
| 23>    C        8.94463         6.47986        -3.33848
| 24>    C        8.05175         6.90048        -2.31023
| 25>    C        7.03417         7.77615        -2.55990
| 26>    C        8.41092         6.23086        -1.04652
| 27>    O        7.90572         6.36836         0.04375
| 28>    C        9.49273         5.27136        -1.41002
| 29>    C        9.94126         5.58913        -2.75040
| 30>    C       11.18470         5.34524        -3.26914
| 31>    C       12.20687         4.68178        -2.56139
| 32>    N       13.07059         4.17762        -1.99855
| 33>    C       11.60908         5.81576        -4.52937
| 34>    N       11.99480         6.19374        -5.54140
| 35>    C        9.82381         4.26674        -0.55319
| 36>    C       10.47584         3.04985        -0.85988
| 37>    O       11.10325         2.37864         0.13600
| 38>    C       11.66008         1.27130        -0.39056
| 39>    C       11.36278         1.19653        -1.74522
| 40>    C       10.59624         2.32560        -2.05157
| 41>    C        9.98735         2.60294        -3.37437
| 42>    O       10.63857         2.63047        -4.38808
| 43>    C        8.48553         2.75161        -3.36051
| 44>    C       12.43155         0.38455         0.39904
| 45>    S       13.18173        -0.97840        -0.34068
| 46>    C       13.90902        -1.52002         1.13809
| 47>    C       13.56029        -0.65850         2.19365
| 48>    C       12.72785         0.42814         1.76896
| 49>    C       12.28746         1.39705         2.69093
| 50>    C       12.65713         1.27834         3.99852
| 51>    F       12.25002         2.18430         4.89848
| 52>    C       13.46338         0.20074         4.42855
| 53>    F       13.79336         0.11104         5.72713
| 54>    C       13.90898        -0.74918         3.55586
| 55>    C       14.71431        -2.68476         1.03902
| 56>    C       15.46893        -3.29814         1.98050
| 57>    C       16.23959        -4.46253         1.67427
| 58>    C       17.01138        -5.14648         2.53728
| 59>    C       17.15609        -4.81409         3.99002
| 60>    C       17.80052        -6.33983         2.06531
| 61>    N       17.31416        -7.54581         2.69303
| 62>    C       18.08063        -8.54293         3.14086
| 63>    C       17.59385        -9.73697         3.58645
| 64>    C       18.43712       -10.77799         3.99312
| 65>    C       18.10185       -12.06810         4.31732
| 66>    C       19.07397       -12.89337         5.06726
| 67>    O       20.24020       -12.63272         5.27840
| 68>    C       18.31247       -14.06626         5.54306
| 69>    C       18.71686       -15.08281         6.35745
| 70>    C       17.79064       -16.08777         6.71841
| 71>    C       16.45490       -16.01070         6.22941
| 72>    C       15.53213       -17.00722         6.60221
| 73>    C       15.93769       -18.02570         7.41867
| 74>    C       17.24734       -18.12150         7.90687
| 75>    C       18.15521       -17.16099         7.55625
| 76>    F       15.05640       -18.97981         7.77616
| 77>    C       16.06730       -14.94909         5.37793
| 78>    C       16.98494       -13.99498         5.03267
| 79>    C       16.88551       -12.82292         4.16036
| 80>    C       15.89134       -12.63533         3.22879
| 81>    C       15.91293       -11.67671         2.19886
| 82>    N       15.87887       -10.94196         1.31528
| 83>    C       14.74889       -13.45320         3.12210
| 84>    N       13.78375       -14.06301         2.99398
| 85>    H        8.18470         7.99161        -7.01629
| 86>    H        4.86120        10.32910        -5.71204
| 87>    H        5.16332         9.50244        -3.39121
| 88>    H        9.42442         6.60341        -5.42265
| 89>    H        6.37415         8.09112        -1.76562
| 90>    H        9.49434         4.38328         0.47394
| 91>    H       11.65474         0.42018        -2.42233
| 92>    H        8.12336         3.19473        -2.43809
| 93>    H        8.06270         1.75011        -3.44694
| 94>    H        8.15815         3.33007        -4.22120
| 95>    H       11.67146         2.22081         2.37357
| 96>    H       14.51190        -1.55403         3.93561
| 97>    H       14.72217        -3.11681         0.04442
| 98>    H       15.53144        -2.91696         2.98467
| 99>    H       16.19334        -4.79695         0.64539
|100>    H       16.19631        -4.57291         4.44095
|101>    H       17.81278        -3.95289         4.11788
|102>    H       17.58876        -5.65223         4.53069
|103>    H       18.85452        -6.21769         2.33327
|104>    H       17.72953        -6.43025         0.97395
|105>    H       16.32185        -7.72037         2.61193
|106>    H       19.14854        -8.36532         3.12018
|107>    H       16.52501        -9.88343         3.59925
|108>    H       19.48742       -10.54039         4.13026
|109>    H       19.73164       -15.12087         6.72445
|110>    H       14.51611       -16.96731         6.24155
|111>    H       17.51018       -18.94853         8.54724
|112>    H       19.17043       -17.21272         7.92023
|113>    H       15.04761       -14.91574         5.02876
|114> *
|115>
|116>                          ****END OF INPUT****

CARTESIAN COORDINATES (ANGSTROEM)
---------------------------------
  C      7.532150    8.309610   -6.218320
  C      6.514140    9.188560   -6.464510
  F      6.325860    9.650730   -7.713120
  C      5.645870    9.634160   -5.458320
  C      5.819600    9.173820   -4.182920
  C      6.852600    8.265380   -3.872710
  C      7.727930    7.827660   -4.909680
  C      8.779960    6.927150   -4.620680
  C      8.944630    6.479860   -3.338480
  C      8.051750    6.900480   -2.310230
  C      7.034170    7.776150   -2.559900
  C      8.410920    6.230860   -1.046520
  O      7.905720    6.368360    0.043750
  C      9.492730    5.271360   -1.410020
  C      9.941260    5.589130   -2.750400
  C     11.184700    5.345240   -3.269140
  C     12.206870    4.681780   -2.561390
  N     13.070590    4.177620   -1.998550
  C     11.609080    5.815760   -4.529370
  N     11.994800    6.193740   -5.541400
  C      9.823810    4.266740   -0.553190
  C     10.475840    3.049850   -0.859880
  O     11.103250    2.378640    0.136000
  C     11.660080    1.271300   -0.390560
  C     11.362780    1.196530   -1.745220
  C     10.596240    2.325600   -2.051570
  C      9.987350    2.602940   -3.374370
  O     10.638570    2.630470   -4.388080
  C      8.485530    2.751610   -3.360510
  C     12.431550    0.384550    0.399040
  S     13.181730   -0.978400   -0.340680
  C     13.909020   -1.520020    1.138090
  C     13.560290   -0.658500    2.193650
  C     12.727850    0.428140    1.768960
  C     12.287460    1.397050    2.690930
  C     12.657130    1.278340    3.998520
  F     12.250020    2.184300    4.898480
  C     13.463380    0.200740    4.428550
  F     13.793360    0.111040    5.727130
  C     13.908980   -0.749180    3.555860
  C     14.714310   -2.684760    1.039020
  C     15.468930   -3.298140    1.980500
  C     16.239590   -4.462530    1.674270
  C     17.011380   -5.146480    2.537280
  C     17.156090   -4.814090    3.990020
  C     17.800520   -6.339830    2.065310
  N     17.314160   -7.545810    2.693030
  C     18.080630   -8.542930    3.140860
  C     17.593850   -9.736970    3.586450
  C     18.437120  -10.777990    3.993120
  C     18.101850  -12.068100    4.317320
  C     19.073970  -12.893370    5.067260
  O     20.240200  -12.632720    5.278400
  C     18.312470  -14.066260    5.543060
  C     18.716860  -15.082810    6.357450
  C     17.790640  -16.087770    6.718410
  C     16.454900  -16.010700    6.229410
  C     15.532130  -17.007220    6.602210
  C     15.937690  -18.025700    7.418670
  C     17.247340  -18.121500    7.906870
  C     18.155210  -17.160990    7.556250
  F     15.056400  -18.979810    7.776160
  C     16.067300  -14.949090    5.377930
  C     16.984940  -13.994980    5.032670
  C     16.885510  -12.822920    4.160360
  C     15.891340  -12.635330    3.228790
  C     15.912930  -11.676710    2.198860
  N     15.878870  -10.941960    1.315280
  C     14.748890  -13.453200    3.122100
  N     13.783750  -14.063010    2.993980
  H      8.184700    7.991610   -7.016290
  H      4.861200   10.329100   -5.712040
  H      5.163320    9.502440   -3.391210
  H      9.424420    6.603410   -5.422650
  H      6.374150    8.091120   -1.765620
  H      9.494340    4.383280    0.473940
  H     11.654740    0.420180   -2.422330
  H      8.123360    3.194730   -2.438090
  H      8.062700    1.750110   -3.446940
  H      8.158150    3.330070   -4.221200
  H     11.671460    2.220810    2.373570
  H     14.511900   -1.554030    3.935610
  H     14.722170   -3.116810    0.044420
  H     15.531440   -2.916960    2.984670
  H     16.193340   -4.796950    0.645390
  H     16.196310   -4.572910    4.440950
  H     17.812780   -3.952890    4.117880
  H     17.588760   -5.652230    4.530690
  H     18.854520   -6.217690    2.333270
  H     17.729530   -6.430250    0.973950
  H     16.321850   -7.720370    2.611930
  H     19.148540   -8.365320    3.120180
  H     16.525010   -9.883430    3.599250
  H     19.487420  -10.540390    4.130260
  H     19.731640  -15.120870    6.724450
  H     14.516110  -16.967310    6.241550
  H     17.510180  -18.948530    8.547240
  H     19.170430  -17.212720    7.920230
  H     15.047610  -14.915740    5.028760

 Total Charge           Charge          ....    0
 Multiplicity           Mult            ....    1
 Number of Electrons    NEL             ....  484
 Basis Dimension        Dim             .... 1129

ORBITAL ENERGIES
----------------

  NO   OCC          E(Eh)            E(eV)
   0   2.0000     -88.989622     -2421.5307
   1   2.0000     -24.797702      -674.7798
   2   2.0000     -24.796308      -674.7418
   3   2.0000     -24.787762      -674.5093
   4   2.0000     -24.776894      -674.2136
   5   2.0000     -19.321156      -525.7554
   6   2.0000     -19.223735      -523.1044
   7   2.0000     -19.218202      -522.9539
   8   2.0000     -19.195412      -522.3337
   9   2.0000     -14.471623      -393.7929
  10   2.0000     -14.417678      -392.3250
  11   2.0000     -14.414545      -392.2397
  12   2.0000     -14.403050      -391.9269
  13   2.0000     -14.401157      -391.8754
  14   2.0000     -10.380315      -282.4627
  15   2.0000     -10.380268      -282.4614
  16   2.0000     -10.379257      -282.4339
  17   2.0000     -10.371775      -282.2303
  18   2.0000     -10.370215      -282.1879
  19   2.0000     -10.370156      -282.1863
  20   2.0000     -10.360821      -281.9323
  21   2.0000     -10.359504      -281.8964
  22   2.0000     -10.352165      -281.6967
  23   2.0000     -10.347213      -281.5620
  24   2.0000     -10.346481      -281.5420
  25   2.0000     -10.342726      -281.4399
  26   2.0000     -10.335733      -281.2496
  27   2.0000     -10.330286      -281.1014
  28   2.0000     -10.329970      -281.0928
  29   2.0000     -10.327350      -281.0215
  30   2.0000     -10.325531      -280.9720
  31   2.0000     -10.324987      -280.9572
  32   2.0000     -10.318707      -280.7863
  33   2.0000     -10.316628      -280.7297
  34   2.0000     -10.312438      -280.6157
  35   2.0000     -10.310570      -280.5649
  36   2.0000     -10.308975      -280.5215
  37   2.0000     -10.308864      -280.5184
  38   2.0000     -10.308632      -280.5121
  39   2.0000     -10.307698      -280.4867
  40   2.0000     -10.306629      -280.4576
  41   2.0000     -10.306224      -280.4466
  42   2.0000     -10.305317      -280.4219
  43   2.0000     -10.305280      -280.4209
  44   2.0000     -10.303639      -280.3763
  45   2.0000     -10.303151      -280.3630
  46   2.0000     -10.302524      -280.3459
  47   2.0000     -10.300291      -280.2852
  48   2.0000     -10.300166      -280.2818
  49   2.0000     -10.299972      -280.2765
  50   2.0000     -10.298286      -280.2306
  51   2.0000     -10.297965      -280.2219
  52   2.0000     -10.296531      -280.1829
  53   2.0000     -10.296241      -280.1750
  54   2.0000     -10.294585      -280.1299
  55   2.0000     -10.293245      -280.0934
  56   2.0000     -10.292489      -280.0729
  57   2.0000     -10.290868      -280.0288
  58   2.0000     -10.289756      -279.9985
  59   2.0000     -10.289399      -279.9888
  60   2.0000     -10.287899      -279.9480
  61   2.0000     -10.286915      -279.9212
  62   2.0000     -10.285500      -279.8827
  63   2.0000     -10.284908      -279.8666
  64   2.0000     -10.284466      -279.8545
  65   2.0000     -10.281480      -279.7733
  66   2.0000     -10.279325      -279.7146
  67   2.0000     -10.276009      -279.6244
  68   2.0000     -10.274284      -279.5775
  69   2.0000     -10.271784      -279.5094
  70   2.0000      -8.084735      -219.9968
  71   2.0000      -6.053762      -164.7312
  72   2.0000      -6.049616      -164.6184
  73   2.0000      -6.047455      -164.5596
  74   2.0000      -1.319385       -35.9023
  75   2.0000      -1.304451       -35.4959
  76   2.0000      -1.302889       -35.4534
  77   2.0000      -1.291184       -35.1349
  78   2.0000      -1.240324       -33.7509
  79   2.0000      -1.142700       -31.0945
  80   2.0000      -1.133577       -30.8462
  81   2.0000      -1.109951       -30.2033
  82   2.0000      -1.070305       -29.1245
  83   2.0000      -1.022468       -27.8228
  84   2.0000      -1.020752       -27.7761
  85   2.0000      -1.004884       -27.3443
  86   2.0000      -1.002574       -27.2814
  87   2.0000      -0.994167       -27.0527
  88   2.0000      -0.988233       -26.8912
  89   2.0000      -0.981039       -26.6954
  90   2.0000      -0.979801       -26.6617
  91   2.0000      -0.963434       -26.2164
  92   2.0000      -0.960032       -26.1238
  93   2.0000      -0.944685       -25.7062
  94   2.0000      -0.941460       -25.6184
  95   2.0000      -0.930182       -25.3115
  96   2.0000      -0.925173       -25.1752
  97   2.0000      -0.917653       -24.9706
  98   2.0000      -0.908830       -24.7305
  99   2.0000      -0.900476       -24.5032
 100   2.0000      -0.892313       -24.2811
 101   2.0000      -0.886772       -24.1303
 102   2.0000      -0.880817       -23.9683
 103   2.0000      -0.875396       -23.8207
 104   2.0000      -0.870251       -23.6807
 105   2.0000      -0.859601       -23.3909
 106   2.0000      -0.851970       -23.1833
 107   2.0000      -0.844472       -22.9792
 108   2.0000      -0.839955       -22.8563
 109   2.0000      -0.836850       -22.7718
 110   2.0000      -0.824384       -22.4326
 111   2.0000      -0.821921       -22.3656
 112   2.0000      -0.803808       -21.8727
 113   2.0000      -0.801697       -21.8153
 114   2.0000      -0.778793       -21.1920
 115   2.0000      -0.767632       -20.8883
 116   2.0000      -0.763239       -20.7688
 117   2.0000      -0.751791       -20.4573
 118   2.0000      -0.748281       -20.3618
 119   2.0000      -0.747215       -20.3328
 120   2.0000      -0.733108       -19.9489
 121   2.0000      -0.726224       -19.7616
 122   2.0000      -0.719316       -19.5736
 123   2.0000      -0.718664       -19.5558
 124   2.0000      -0.711425       -19.3589
 125   2.0000      -0.708289       -19.2735
 126   2.0000      -0.697583       -18.9822
 127   2.0000      -0.695972       -18.9383
 128   2.0000      -0.688435       -18.7333
 129   2.0000      -0.681962       -18.5571
 130   2.0000      -0.676738       -18.4150
 131   2.0000      -0.672832       -18.3087
 132   2.0000      -0.666042       -18.1239
 133   2.0000      -0.656325       -17.8595
 134   2.0000      -0.644808       -17.5461
 135   2.0000      -0.639198       -17.3935
 136   2.0000      -0.633295       -17.2328
 137   2.0000      -0.632245       -17.2043
 138   2.0000      -0.628468       -17.1015
 139   2.0000      -0.625123       -17.0105
 140   2.0000      -0.623366       -16.9627
 141   2.0000      -0.620684       -16.8897
 142   2.0000      -0.618578       -16.8324
 143   2.0000      -0.611325       -16.6350
 144   2.0000      -0.608723       -16.5642
 145   2.0000      -0.605292       -16.4708
 146   2.0000      -0.594978       -16.1902
 147   2.0000      -0.592471       -16.1220
 148   2.0000      -0.589864       -16.0510
 149   2.0000      -0.586651       -15.9636
 150   2.0000      -0.583737       -15.8843
 151   2.0000      -0.580225       -15.7887
 152   2.0000      -0.571738       -15.5578
 153   2.0000      -0.571030       -15.5385
 154   2.0000      -0.566279       -15.4092
 155   2.0000      -0.560565       -15.2538
 156   2.0000      -0.560255       -15.2453
 157   2.0000      -0.558462       -15.1965
 158   2.0000      -0.556229       -15.1358
 159   2.0000      -0.553293       -15.0559
 160   2.0000      -0.551304       -15.0017
 161   2.0000      -0.550280       -14.9739
 162   2.0000      -0.549079       -14.9412
 163   2.0000      -0.546079       -14.8596
 164   2.0000      -0.545902       -14.8548
 165   2.0000      -0.542370       -14.7586
 166   2.0000      -0.540239       -14.7006
 167   2.0000      -0.535334       -14.5672
 168   2.0000      -0.533107       -14.5066
 169   2.0000      -0.530627       -14.4391
 170   2.0000      -0.527330       -14.3494
 171   2.0000      -0.525470       -14.2988
 172   2.0000      -0.522938       -14.2299
 173   2.0000      -0.520130       -14.1535
 174   2.0000      -0.519854       -14.1459
 175   2.0000      -0.516834       -14.0638
 176   2.0000      -0.513408       -13.9705
 177   2.0000      -0.512942       -13.9579
 178   2.0000      -0.512244       -13.9389
 179   2.0000      -0.510750       -13.8982
 180   2.0000      -0.507113       -13.7993
 181   2.0000      -0.504692       -13.7334
 182   2.0000      -0.499557       -13.5936
 183   2.0000      -0.498397       -13.5621
 184   2.0000      -0.495641       -13.4871
 185   2.0000      -0.493069       -13.4171
 186   2.0000      -0.490740       -13.3537
 187   2.0000      -0.489216       -13.3122
 188   2.0000      -0.485352       -13.2071
 189   2.0000      -0.485035       -13.1985
 190   2.0000      -0.482228       -13.1221
 191   2.0000      -0.480143       -13.0653
 192   2.0000      -0.478557       -13.0222
 193   2.0000      -0.473850       -12.8941
 194   2.0000      -0.471129       -12.8201
 195   2.0000      -0.469221       -12.7681
 196   2.0000      -0.467172       -12.7124
 197   2.0000      -0.465327       -12.6622
 198   2.0000      -0.461362       -12.5543
 199   2.0000      -0.459325       -12.4989
 200   2.0000      -0.451165       -12.2768
 201   2.0000      -0.450494       -12.2586
 202   2.0000      -0.449151       -12.2220
 203   2.0000      -0.445901       -12.1336
 204   2.0000      -0.444636       -12.0992
 205   2.0000      -0.444381       -12.0922
 206   2.0000      -0.440881       -11.9970
 207   2.0000      -0.439663       -11.9638
 208   2.0000      -0.439200       -11.9512
 209   2.0000      -0.438714       -11.9380
 210   2.0000      -0.433837       -11.8053
 211   2.0000      -0.431920       -11.7532
 212   2.0000      -0.430461       -11.7134
 213   2.0000      -0.430151       -11.7050
 214   2.0000      -0.427336       -11.6284
 215   2.0000      -0.427198       -11.6247
 216   2.0000      -0.423373       -11.5206
 217   2.0000      -0.417124       -11.3505
 218   2.0000      -0.414768       -11.2864
 219   2.0000      -0.413040       -11.2394
 220   2.0000      -0.409135       -11.1331
 221   2.0000      -0.402738       -10.9591
 222   2.0000      -0.398698       -10.8491
 223   2.0000      -0.391228       -10.6459
 224   2.0000      -0.388702       -10.5771
 225   2.0000      -0.383674       -10.4403
 226   2.0000      -0.376965       -10.2577
 227   2.0000      -0.369760       -10.0617
 228   2.0000      -0.364008        -9.9052
 229   2.0000      -0.349577        -9.5125
 230   2.0000      -0.344352        -9.3703
 231   2.0000      -0.340354        -9.2615
 232   2.0000      -0.331581        -9.0228
 233   2.0000      -0.328330        -8.9343
 234   2.0000      -0.320708        -8.7269
 235   2.0000      -0.316778        -8.6200
 236   2.0000      -0.307790        -8.3754
 237   2.0000      -0.302942        -8.2435
 238   2.0000      -0.298327        -8.1179
 239   2.0000      -0.288779        -7.8581
 240   2.0000      -0.263675        -7.1750
 241   2.0000      -0.246401        -6.7049
 242   0.0000      -0.104204        -2.8355
 243   0.0000      -0.074978        -2.0403
 244   0.0000      -0.071845        -1.9550
 245   0.0000      -0.058423        -1.5898
 246   0.0000      -0.039818        -1.0835

MULLIKEN ATOMIC CHARGES
-----------------------
   0 C :   -0.093951
   1 C :    0.302686
   2 F :   -0.188882
   3 C :   -0.032593
   4 C :   -0.007474
   5 C :    0.099374
   6 C :    0.096739
   7 C :   -0.085821
   8 C :    0.042531
   9 C :    0.010751
  10 C :   -0.080143
  11 C :    0.142392
  12 O :   -0.140618
  13 C :   -0.170289
  14 C :    0.242316
  15 C :   -0.297709
  16 C :   -0.189695
  17 N :    0.167944
  18 C :   -0.182105
  19 N :    0.166596
  20 C :    0.007587
  21 C :    0.147742
  22 O :   -0.195759
  23 C :    0.207941
  24 C :   -0.090138
  25 C :    0.027503
  26 C :   -0.017712
  27 O :   -0.162994
  28 C :    0.064064
  29 C :   -0.135869
  30 S :    0.185584
  31 C :   -0.111280
  32 C :    0.130038
  33 C :    0.115733
  34 C :   -0.116734
  35 C :    0.237866
  36 F :   -0.172932
  37 C :    0.229074
  38 F :   -0.174340
  39 C :   -0.119020
  40 C :    0.063857
  41 C :   -0.013001
  42 C :    0.015322
  43 C :   -0.230619
  44 C :    0.094188
  45 C :    0.219267
  46 N :   -0.130150
  47 C :    0.078150
  48 C :   -0.014958
  49 C :    0.021638
  50 C :   -0.143331
  51 C :    0.138897
  52 O :   -0.162340
  53 C :    0.006319
  54 C :   -0.085986
  55 C :    0.101393
  56 C :    0.101678
  57 C :   -0.097283
  58 C :    0.300702
  59 C :   -0.032568
  60 C :   -0.010614
  61 F :   -0.194891
  62 C :   -0.089213
  63 C :    0.036637
  64 C :    0.306250
  65 C :   -0.360766
  66 C :   -0.214065
  67 N :    0.142225
  68 C :   -0.179177
  69 N :    0.134223
  70 H :   -0.000989
  71 H :    0.005206
  72 H :   -0.008301
  73 H :   -0.000071
  74 H :   -0.010990
  75 H :    0.030511
  76 H :    0.003076
  77 H :    0.036951
  78 H :    0.048579
  79 H :    0.035906
  80 H :    0.003743
  81 H :   -0.025206
  82 H :   -0.014154
  83 H :   -0.017694
  84 H :   -0.021775
  85 H :    0.034114
  86 H :    0.039863
  87 H :    0.014493
  88 H :    0.026621
  89 H :    0.027521
  90 H :    0.139743
  91 H :    0.023758
  92 H :    0.007900
  93 H :    0.006345
  94 H :   -0.017664
  95 H :   -0.005625
  96 H :   -0.000593
  97 H :   -0.012922
  98 H :   -0.008535
Sum of atomic charges:   -0.0000000

LOEWDIN ATOMIC CHARGES
----------------------
   0 C :   -0.041769
   1 C :    0.093907
   2 F :   -0.063467
   3 C :   -0.036779
   4 C :    0.004937
   5 C :   -0.019516
   6 C :    0.003977
   7 C :    0.010398
   8 C :   -0.016660
   9 C :   -0.061907
  10 C :    0.035295
  11 C :    0.080854
  12 O :   -0.143369
  13 C :   -0.088263
  14 C :    0.052118
  15 C :   -0.123582
  16 C :   -0.013319
  17 N :   -0.043141
  18 C :   -0.014945
  19 N :   -0.044360
  20 C :    0.039545
  21 C :    0.020355
  22 O :    0.033507
  23 C :    0.045441
  24 C :   -0.042650
  25 C :   -0.056572
  26 C :    0.080327
  27 O :   -0.122245
  28 C :   -0.074281
  29 C :   -0.200461
  30 S :    0.508502
  31 C :   -0.165157
  32 C :   -0.042918
  33 C :   -0.031408
  34 C :   -0.035457
  35 C :    0.065022
  36 F :   -0.050636
  37 C :    0.066661
  38 F :   -0.054417
  39 C :   -0.042079
  40 C :   -0.039749
  41 C :   -0.025483
  42 C :   -0.039975
  43 C :   -0.044575
  44 C :   -0.053868
  45 C :    0.050845
  46 N :    0.037120
  47 C :    0.094294
  48 C :   -0.110691
  49 C :    0.076317
  50 C :   -0.133108
  51 C :    0.078321
  52 O :   -0.165411
  53 C :   -0.056307
  54 C :    0.028149
  55 C :   -0.020172
  56 C :    0.001228
  57 C :   -0.042879
  58 C :    0.090301
  59 C :   -0.040815
  60 C :    0.002570
  61 F :   -0.069131
  62 C :    0.007415
  63 C :   -0.016100
  64 C :    0.075893
  65 C :   -0.160958
  66 C :   -0.018523
  67 N :   -0.078736
  68 C :   -0.019769
  69 N :   -0.067953
  70 H :    0.043884
  71 H :    0.042374
  72 H :    0.036002
  73 H :    0.040687
  74 H :    0.040001
  75 H :    0.053375
  76 H :    0.035861
  77 H :    0.035715
  78 H :    0.055124
  79 H :    0.041522
  80 H :    0.041981
  81 H :    0.037449
  82 H :    0.029580
  83 H :    0.023734
  84 H :    0.027659
  85 H :    0.035971
  86 H :    0.042581
  87 H :    0.030469
  88 H :    0.034888
  89 H :    0.029632
  90 H :    0.093330
  91 H :    0.036559
  92 H :    0.029790
  93 H :    0.040324
  94 H :    0.037436
  95 H :    0.042057
  96 H :    0.040133
  97 H :    0.034224
  98 H :    0.037921

  Mayer bond orders larger than 0.100000
B(  0-C ,  1-C ) :   1.4398 B(  0-C ,  6-C ) :   1.2039 B(  0-C , 70-H ) :   1.0063
B(  1-C ,  2-F ) :   1.0905 B(  1-C ,  3-C ) :   1.2549 B(  3-C ,  4-C ) :   1.4615
B(  3-C , 71-H ) :   0.9933 B(  4-C ,  5-C ) :   1.2334 B(  4-C , 72-H ) :   0.9967
B(  5-C ,  6-C ) :   1.2539 B(  5-C , 10-C ) :   1.1936 B(  6-C ,  7-C ) :   1.2010
B(  7-C ,  8-C ) :   1.4640 B(  7-C , 73-H ) :   0.9968 B(  8-C ,  9-C ) :   1.2212
B(  8-C , 14-C ) :   0.9912 B(  9-C , 10-C ) :   1.4658 B(  9-C , 11-C ) :   0.9196
B( 10-C , 74-H ) :   1.0148 B( 11-C , 12-O ) :   2.2801 B( 11-C , 13-C ) :   0.9376
B( 13-C , 14-C ) :   1.0394 B( 13-C , 20-C ) :   1.6278 B( 14-C , 15-C ) :   1.6590
B( 15-C , 16-C ) :   1.1559 B( 15-C , 18-C ) :   1.1485 B( 16-C , 17-N ) :   2.9979
B( 18-C , 19-N ) :   2.9946 B( 20-C , 21-C ) :   1.1318 B( 20-C , 75-H ) :   0.9434
B( 21-C , 22-O ) :   1.1012 B( 21-C , 23-C ) :   0.1035 B( 21-C , 25-C ) :   1.4036
B( 22-O , 23-C ) :   1.1675 B( 23-C , 24-C ) :   1.3915 B( 23-C , 29-C ) :   1.1399
B( 24-C , 25-C ) :   1.3081 B( 24-C , 76-H ) :   1.0133 B( 25-C , 26-C ) :   0.8666
B( 26-C , 27-O ) :   2.2170 B( 26-C , 28-C ) :   1.0404 B( 28-C , 77-H ) :   0.9548
B( 28-C , 78-H ) :   0.9332 B( 28-C , 79-H ) :   0.9449 B( 29-C , 30-S ) :   1.1694
B( 29-C , 31-C ) :   0.1218 B( 29-C , 33-C ) :   1.3399 B( 30-S , 31-C ) :   1.1657
B( 31-C , 32-C ) :   1.3460 B( 31-C , 40-C ) :   1.1279 B( 32-C , 33-C ) :   1.2050
B( 32-C , 39-C ) :   1.1516 B( 33-C , 34-C ) :   1.1792 B( 34-C , 35-C ) :   1.4822
B( 34-C , 39-C ) :   0.1139 B( 34-C , 80-H ) :   1.0007 B( 35-C , 36-F ) :   1.1318
B( 35-C , 37-C ) :   1.1521 B( 37-C , 38-F ) :   1.1433 B( 37-C , 39-C ) :   1.5129
B( 39-C , 81-H ) :   1.0012 B( 40-C , 41-C ) :   1.6809 B( 40-C , 82-H ) :   0.9514
B( 41-C , 42-C ) :   1.1214 B( 41-C , 83-H ) :   0.9710 B( 42-C , 43-C ) :   1.7511
B( 42-C , 84-H ) :   0.9779 B( 43-C , 44-C ) :   1.0685 B( 43-C , 45-C ) :   1.0547
B( 44-C , 85-H ) :   0.9481 B( 44-C , 86-H ) :   0.9455 B( 44-C , 87-H ) :   0.9512
B( 45-C , 46-N ) :   0.9667 B( 45-C , 88-H ) :   0.9280 B( 45-C , 89-H ) :   0.9371
B( 46-N , 47-C ) :   1.3144 B( 46-N , 90-H ) :   0.9315 B( 47-C , 48-C ) :   1.4993
B( 47-C , 91-H ) :   0.9687 B( 48-C , 49-C ) :   1.2546 B( 48-C , 92-H ) :   0.9543
B( 49-C , 50-C ) :   1.5125 B( 49-C , 93-H ) :   0.9482 B( 50-C , 51-C ) :   0.9673
B( 50-C , 64-C ) :   1.0845 B( 51-C , 52-O ) :   2.2495 B( 51-C , 53-C ) :   0.9173
B( 53-C , 54-C ) :   1.4821 B( 53-C , 63-C ) :   1.2207 B( 54-C , 55-C ) :   1.1815
B( 54-C , 94-H ) :   1.0148 B( 55-C , 56-C ) :   1.2615 B( 55-C , 60-C ) :   1.2378
B( 56-C , 57-C ) :   1.2024 B( 56-C , 62-C ) :   1.1991 B( 57-C , 58-C ) :   1.4403
B( 57-C , 95-H ) :   1.0063 B( 58-C , 59-C ) :   1.2585 B( 58-C , 61-F ) :   1.0841
B( 59-C , 60-C ) :   1.4572 B( 59-C , 96-H ) :   0.9928 B( 60-C , 97-H ) :   0.9963
B( 62-C , 63-C ) :   1.4660 B( 62-C , 98-H ) :   0.9917 B( 63-C , 64-C ) :   0.9909
B( 64-C , 65-C ) :   1.5953 B( 65-C , 66-C ) :   1.1736 B( 65-C , 68-C ) :   1.1334
B( 66-C , 67-N ) :   3.0064 B( 68-C , 69-N ) :   2.9752

-----------------------------------------------------------------------------
         ABSORPTION SPECTRUM VIA TRANSITION ELECTRIC DIPOLE MOMENTS
-----------------------------------------------------------------------------
State   Energy  Wavelength   fosc         T2         TX        TY        TZ
        (cm-1)    (nm)                  (au**2)     (au)      (au)      (au)
-----------------------------------------------------------------------------
   0   15859.4    630.5   1.273658424  26.43884  -2.15242   4.08049  -2.27058
   1   22637.5    441.7   0.571503427   8.31123  -1.25574   2.52752  -0.58821
   2   24050.3    415.8   0.359977863   4.92755  -1.43008  -1.69586  -0.08063
   3   25877.4    386.4   0.028411175   0.36145  -0.54148  -0.02823  -0.25970
   4   26068.5    383.6   0.005681609   0.07175  -0.16724  -0.10555   0.18067
   5   26680.6    374.8   0.048784244   0.60195  -0.74332   0.21974   0.03385
   6   27691.0    361.1   0.045567715   0.54174   0.68518  -0.16583  -0.21161
   7   28294.3    353.4   0.003409922   0.03968  -0.17300   0.07556  -0.06353
   8   28859.6    346.5   0.020938303   0.23885  -0.14622  -0.33762   0.32169
   9   29324.9    341.0   0.012542690   0.14081  -0.35874  -0.00864   0.10972
  10   29598.3    337.9   0.124715947   1.38717   0.26735   1.09524  -0.34081
  11   29702.5    336.7   0.126800121   1.40541  -0.60568   0.89356  -0.49002
  12   30414.1    328.8   0.003911865   0.04234   0.00193  -0.04125   0.20159
  13   31244.0    320.1   0.144688306   1.52455   0.23738  -1.09809   0.51226
  14   31742.0    315.0   0.026977284   0.27979  -0.38434  -0.18503  -0.31279
  15   32516.3    307.5   0.167774427   1.69863   0.27471  -1.10374   0.63633
  16   32631.8    306.5   0.006460706   0.06518   0.12603   0.19971  -0.09702
  17   32858.3    304.3   0.554942574   5.56004   0.61505  -1.82427   1.36154
  18   33415.5    299.3   0.449690904   4.43039   1.54453  -0.94768   1.07085
  19   33551.5    298.0   0.178131285   1.74785   0.83808  -1.02223   0.02245
  20   33980.7    294.3   0.100996213   0.97847   0.55576  -0.71170  -0.40384
  21   34427.6    290.5   0.015282821   0.14614   0.08731   0.22633  -0.29546
  22   34560.0    289.4   0.153552100   1.46271   0.61768  -0.63653   0.82220
  23   34934.9    286.2   0.029921439   0.28197   0.18657  -0.45245   0.20603
  24   35403.1    282.5   0.504826203   4.69435   1.07764  -1.85808   0.28390
  25   35906.0    278.5   0.658744109   6.03984   0.16179  -1.60141   1.85719
  26   36342.2    275.2   0.061438961   0.55656  -0.02857   0.16265  -0.72752
  27   37162.3    269.1   0.004310016   0.03818   0.00534  -0.08289   0.17687
  28   37177.9    269.0   0.016731416   0.14816   0.18984  -0.29737   0.15391
  29   37423.1    267.2   0.180866487   1.59109   1.11788  -0.57514  -0.10316
  30   38094.1    262.5   0.131733864   1.13845  -0.84173   0.64352   0.12581
  31   38739.8    258.1   0.030289588   0.25740  -0.41301  -0.13096   0.26396
  32   39075.9    255.9   0.015345845   0.12929   0.01347  -0.29332   0.20753
  33   39366.0    254.0   0.017663475   0.14772   0.03684   0.24969  -0.28985
  34   39720.9    251.8   0.084464673   0.70005  -0.33239  -0.76131  -0.09991
  35   40074.8    249.5   0.245130012   2.01373  -1.11517  -0.87097  -0.10741

FINAL SINGLE POINT ENERGY     -3519.543110133944

DIPOLE MOMENT
-------------
                                X             Y             Z
Electronic contribution:    -21.48006      26.92964      -1.97590
Nuclear contribution   :     20.79252     -25.47126       2.89861
                        -----------------------------------------
Total Dipole Moment    :     -0.68754       1.45837       0.92271
                        -----------------------------------------
Magnitude (a.u.)       :      1.85768
Magnitude (Debye)      :      4.72184

Rotational constants in cm-1:     0.002697     0.000172     0.000170
Rotational constants in MHz :    80.866551     5.151231     5.087449

                             ****ORCA TERMINATED NORMALLY****
TOTAL RUN TIME: 0 days 0 hours 9 minutes 18 seconds 950 msec
