                         Program Version 4.2.0 -  RELEASE  -
|  1> # ORCA input file
|  2> # SCF done       -192.010041726471          0.000935991237
|  3> ! CAM-B3LYP def2-SVP def2/J RIJCOSX Grid4 TightSCF
|  4> %maxcore 5000
|  5> %tddft
|  6>     Mode sTDDFT
|  7>     Ethresh 5.0
|  8>     maxcore 5000
|  9> end
| 10>
| 11> %pal
| 12>   nprocs 6
| 13>   end
| 14> * xyz 0 1
| 15>    C      -13.50079        -3.82297         4.26046
| 16>    C      -14.35484        -4.87419         4.47651
| 17>    C      -15.31950        -4.91010         5.50362
| 18>    N      -16.12287        -4.98454         6.31991
| 19>    C      -14.32973        -6.07029         3.72965
| 20>    N      -14.32263        -7.07773         3.17914
| 21>    C      -13.38015        -2.62677         5.08448
| 22>    C      -12.26827        -1.87425         4.63014
| 23>    C      -11.89713        -0.68468         5.20700
| 24>    C      -12.65813        -0.21529         6.28361
| 25>    C      -13.76822        -0.97279         6.72816
| 26>    C      -14.14374        -2.17710         6.14465
| 27>    S      -14.57582        -0.20312         8.05948
| 28>    C      -13.42800         1.10799         8.00308
| 29>    C      -12.48624         0.97692         7.03798
| 30>   Br      -13.57943         2.52453         9.22262
| 31>    C      -11.65451        -2.55236         3.47186
| 32>    O      -10.73322        -2.14460         2.79260
| 33>    C      -12.48086        -3.75583         3.23784
| 34>    C      -12.41705        -4.51393         2.09712
| 35>    C      -11.34936        -4.53136         1.17749
| 36>    O      -11.67104        -4.77231        -0.13755
| 37>    C      -10.59266        -4.64523        -0.87565
| 38>    C       -9.49585        -4.36276        -0.09251
| 39>    N       -8.17449        -4.17695        -0.53720
| 40>    O       -7.95639        -4.27748        -1.72450
| 41>    O       -7.32742        -3.93399         0.31092
| 42>    C       -9.95889        -4.31998         1.26994
| 43>    N       -9.13222        -4.23280         2.31915
| 44>    C       -9.40993        -4.52234         3.63216
| 45>    C       -8.54634        -4.32473         4.63752
| 46>    C       -7.17297        -3.76102         4.46493
| 47>    C       -8.94737        -4.72268         6.03682
| 48>    N       -8.37663        -5.99902         6.39948
| 49>    C       -7.31745        -6.15684         7.22394
| 50>    C       -6.64510        -7.32408         7.34363
| 51>    C       -5.59616        -7.65248         8.24770
| 52>    S       -5.31032        -9.34613         8.50614
| 53>    C       -4.06631        -9.02577         9.68020
| 54>    C       -3.88211        -7.65725         9.82970
| 55>    C       -4.72518        -6.88618         9.01384
| 56>    C       -4.63708        -5.37920         8.96257
| 57>    C       -4.67485        -4.91359         7.59531
| 58>    N       -4.65959        -4.52011         6.52169
| 59>    C       -3.33154        -4.87318         9.59802
| 60>    C       -3.12395        -5.54130        10.94785
| 61>    C       -2.85039        -7.03939        10.74233
| 62>    C       -2.78681        -7.65997        12.04668
| 63>    N       -2.70377        -8.08225        13.10643
| 64>    C       -3.46495       -10.07715        10.40502
| 65>    C       -3.70170       -11.39966        10.20303
| 66>    C       -3.16661       -12.42437        11.02013
| 67>    C       -2.80553       -12.34659        12.33319
| 68>    C       -1.90169       -13.38260        12.90305
| 69>    O       -1.58850       -14.43218        12.38614
| 70>    C       -1.43173       -12.82825        14.18755
| 71>    C       -0.48565       -13.31225        15.04436
| 72>    C       -0.16253       -12.57010        16.20281
| 73>    C       -0.81544       -11.32530        16.44099
| 74>    C       -0.47211       -10.58223        17.58733
| 75>    C        0.46989       -11.07222        18.44777
| 76>    C        1.11838       -12.29619        18.23509
| 77>    C        0.80087       -13.02812        17.12491
| 78>    F        0.79873       -10.36374        19.54531
| 79>    C       -1.79780       -10.85209        15.54036
| 80>    C       -2.11199       -11.60359        14.44163
| 81>    C       -3.08652       -11.38087        13.37655
| 82>    C       -4.19760       -10.59175        13.51351
| 83>    C       -5.24049       -10.48008        12.57462
| 84>    N       -6.14332       -10.34020        11.87841
| 85>    C       -4.48844        -9.84398        14.67504
| 86>    N       -4.80215        -9.23716        15.59732
| 87>    H      -11.04905        -0.13026         4.83715
| 88>    H      -15.00288        -2.71447         6.51036
| 89>    H      -11.70473         1.69323         6.86194
| 90>    H      -13.28432        -5.08521         1.79054
| 91>    H      -10.67099        -4.76286        -1.93991
| 92>    H       -8.18041        -3.94901         2.08463
| 93>    H      -10.38302        -4.95424         3.81148
| 94>    H       -6.74240        -4.01027         3.49788
| 95>    H       -6.50270        -4.13345         5.23703
| 96>    H       -7.20386        -2.67421         4.54540
| 97>    H      -10.03903        -4.79312         6.11053
| 98>    H       -8.59719        -3.97559         6.75231
| 99>    H       -8.58168        -6.76349         5.77224
|100>    H       -7.09735        -5.29401         7.83300
|101>    H       -6.98031        -8.15498         6.73574
|102>    H       -5.49064        -4.94338         9.50206
|103>    H       -3.38128        -3.78892         9.71358
|104>    H       -2.49100        -5.10334         8.93789
|105>    H       -4.01521        -5.41623        11.56813
|106>    H       -2.28140        -5.08625        11.47155
|107>    H       -1.85807        -7.16692        10.28170
|108>    H       -2.76978        -9.79182        11.18318
|109>    H       -4.28684       -11.70305         9.34451
|110>    H       -2.97646       -13.38350        10.54855
|111>    H        0.01343       -14.24793        14.84099
|112>    H       -0.95570        -9.63831        17.78436
|113>    H        1.85252       -12.63297        18.94977
|114>    H        1.28787       -13.97369        16.93893
|115>    H       -2.26664        -9.89944        15.72787
|116> *
|117>
|118>                          ****END OF INPUT****

CARTESIAN COORDINATES (ANGSTROEM)
---------------------------------
  C    -13.500790   -3.822970    4.260460
  C    -14.354840   -4.874190    4.476510
  C    -15.319500   -4.910100    5.503620
  N    -16.122870   -4.984540    6.319910
  C    -14.329730   -6.070290    3.729650
  N    -14.322630   -7.077730    3.179140
  C    -13.380150   -2.626770    5.084480
  C    -12.268270   -1.874250    4.630140
  C    -11.897130   -0.684680    5.207000
  C    -12.658130   -0.215290    6.283610
  C    -13.768220   -0.972790    6.728160
  C    -14.143740   -2.177100    6.144650
  S    -14.575820   -0.203120    8.059480
  C    -13.428000    1.107990    8.003080
  C    -12.486240    0.976920    7.037980
  Br   -13.579430    2.524530    9.222620
  C    -11.654510   -2.552360    3.471860
  O    -10.733220   -2.144600    2.792600
  C    -12.480860   -3.755830    3.237840
  C    -12.417050   -4.513930    2.097120
  C    -11.349360   -4.531360    1.177490
  O    -11.671040   -4.772310   -0.137550
  C    -10.592660   -4.645230   -0.875650
  C     -9.495850   -4.362760   -0.092510
  N     -8.174490   -4.176950   -0.537200
  O     -7.956390   -4.277480   -1.724500
  O     -7.327420   -3.933990    0.310920
  C     -9.958890   -4.319980    1.269940
  N     -9.132220   -4.232800    2.319150
  C     -9.409930   -4.522340    3.632160
  C     -8.546340   -4.324730    4.637520
  C     -7.172970   -3.761020    4.464930
  C     -8.947370   -4.722680    6.036820
  N     -8.376630   -5.999020    6.399480
  C     -7.317450   -6.156840    7.223940
  C     -6.645100   -7.324080    7.343630
  C     -5.596160   -7.652480    8.247700
  S     -5.310320   -9.346130    8.506140
  C     -4.066310   -9.025770    9.680200
  C     -3.882110   -7.657250    9.829700
  C     -4.725180   -6.886180    9.013840
  C     -4.637080   -5.379200    8.962570
  C     -4.674850   -4.913590    7.595310
  N     -4.659590   -4.520110    6.521690
  C     -3.331540   -4.873180    9.598020
  C     -3.123950   -5.541300   10.947850
  C     -2.850390   -7.039390   10.742330
  C     -2.786810   -7.659970   12.046680
  N     -2.703770   -8.082250   13.106430
  C     -3.464950  -10.077150   10.405020
  C     -3.701700  -11.399660   10.203030
  C     -3.166610  -12.424370   11.020130
  C     -2.805530  -12.346590   12.333190
  C     -1.901690  -13.382600   12.903050
  O     -1.588500  -14.432180   12.386140
  C     -1.431730  -12.828250   14.187550
  C     -0.485650  -13.312250   15.044360
  C     -0.162530  -12.570100   16.202810
  C     -0.815440  -11.325300   16.440990
  C     -0.472110  -10.582230   17.587330
  C      0.469890  -11.072220   18.447770
  C      1.118380  -12.296190   18.235090
  C      0.800870  -13.028120   17.124910
  F      0.798730  -10.363740   19.545310
  C     -1.797800  -10.852090   15.540360
  C     -2.111990  -11.603590   14.441630
  C     -3.086520  -11.380870   13.376550
  C     -4.197600  -10.591750   13.513510
  C     -5.240490  -10.480080   12.574620
  N     -6.143320  -10.340200   11.878410
  C     -4.488440   -9.843980   14.675040
  N     -4.802150   -9.237160   15.597320
  H    -11.049050   -0.130260    4.837150
  H    -15.002880   -2.714470    6.510360
  H    -11.704730    1.693230    6.861940
  H    -13.284320   -5.085210    1.790540
  H    -10.670990   -4.762860   -1.939910
  H     -8.180410   -3.949010    2.084630
  H    -10.383020   -4.954240    3.811480
  H     -6.742400   -4.010270    3.497880
  H     -6.502700   -4.133450    5.237030
  H     -7.203860   -2.674210    4.545400
  H    -10.039030   -4.793120    6.110530
  H     -8.597190   -3.975590    6.752310
  H     -8.581680   -6.763490    5.772240
  H     -7.097350   -5.294010    7.833000
  H     -6.980310   -8.154980    6.735740
  H     -5.490640   -4.943380    9.502060
  H     -3.381280   -3.788920    9.713580
  H     -2.491000   -5.103340    8.937890
  H     -4.015210   -5.416230   11.568130
  H     -2.281400   -5.086250   11.471550
  H     -1.858070   -7.166920   10.281700
  H     -2.769780   -9.791820   11.183180
  H     -4.286840  -11.703050    9.344510
  H     -2.976460  -13.383500   10.548550
  H      0.013430  -14.247930   14.840990
  H     -0.955700   -9.638310   17.784360
  H      1.852520  -12.632970   18.949770
  H      1.287870  -13.973690   16.938930
  H     -2.266640   -9.899440   15.727870

 Total Charge           Charge          ....    0
 Multiplicity           Mult            ....    1
 Number of Electrons    NEL             ....  532
 Basis Dimension        Dim             .... 1179

ORBITAL ENERGIES
----------------

  NO   OCC          E(Eh)            E(eV)
   0   2.0000    -482.890526    -13140.1192
   1   2.0000     -88.980993     -2421.2959
   2   2.0000     -88.958003     -2420.6703
   3   2.0000     -62.568237     -1702.5683
   4   2.0000     -56.402189     -1534.7816
   5   2.0000     -56.399468     -1534.7075
   6   2.0000     -56.399437     -1534.7067
   7   2.0000     -24.776488      -674.2025
   8   2.0000     -19.336363      -526.1692
   9   2.0000     -19.266453      -524.2669
  10   2.0000     -19.264478      -524.2131
  11   2.0000     -19.220255      -523.0097
  12   2.0000     -19.200095      -522.4611
  13   2.0000     -14.676521      -399.3684
  14   2.0000     -14.475061      -393.8864
  15   2.0000     -14.449680      -393.1958
  16   2.0000     -14.419913      -392.3858
  17   2.0000     -14.419679      -392.3794
  18   2.0000     -14.418452      -392.3460
  19   2.0000     -14.417510      -392.3204
  20   2.0000     -14.401320      -391.8798
  21   2.0000     -14.395063      -391.7096
  22   2.0000     -10.392386      -282.7912
  23   2.0000     -10.373255      -282.2706
  24   2.0000     -10.371330      -282.2182
  25   2.0000     -10.364342      -282.0281
  26   2.0000     -10.360541      -281.9247
  27   2.0000     -10.359156      -281.8870
  28   2.0000     -10.351805      -281.6869
  29   2.0000     -10.350314      -281.6464
  30   2.0000     -10.347126      -281.5596
  31   2.0000     -10.346341      -281.5382
  32   2.0000     -10.338424      -281.3228
  33   2.0000     -10.338278      -281.3188
  34   2.0000     -10.334448      -281.2146
  35   2.0000     -10.331562      -281.1361
  36   2.0000     -10.330679      -281.1121
  37   2.0000     -10.327396      -281.0227
  38   2.0000     -10.325426      -280.9691
  39   2.0000     -10.324555      -280.9454
  40   2.0000     -10.322897      -280.9003
  41   2.0000     -10.322426      -280.8875
  42   2.0000     -10.321149      -280.8527
  43   2.0000     -10.320868      -280.8451
  44   2.0000     -10.320031      -280.8223
  45   2.0000     -10.318248      -280.7738
  46   2.0000     -10.313434      -280.6428
  47   2.0000     -10.313214      -280.6368
  48   2.0000     -10.311601      -280.5929
  49   2.0000     -10.306638      -280.4579
  50   2.0000     -10.305605      -280.4298
  51   2.0000     -10.305568      -280.4288
  52   2.0000     -10.304505      -280.3998
  53   2.0000     -10.303613      -280.3756
  54   2.0000     -10.303588      -280.3749
  55   2.0000     -10.303501      -280.3725
  56   2.0000     -10.302053      -280.3331
  57   2.0000     -10.301627      -280.3215
  58   2.0000     -10.298814      -280.2450
  59   2.0000     -10.298565      -280.2382
  60   2.0000     -10.298454      -280.2352
  61   2.0000     -10.294132      -280.1176
  62   2.0000     -10.294064      -280.1157
  63   2.0000     -10.291080      -280.0345
  64   2.0000     -10.289734      -279.9979
  65   2.0000     -10.289175      -279.9827
  66   2.0000     -10.287855      -279.9468
  67   2.0000     -10.287684      -279.9421
  68   2.0000     -10.284513      -279.8558
  69   2.0000     -10.283397      -279.8255
  70   2.0000     -10.282639      -279.8048
  71   2.0000     -10.279750      -279.7262
  72   2.0000     -10.278444      -279.6907
  73   2.0000     -10.277116      -279.6545
  74   2.0000     -10.272115      -279.5185
  75   2.0000     -10.269510      -279.4476
  76   2.0000      -8.797670      -239.3968
  77   2.0000      -8.076958      -219.7852
  78   2.0000      -8.053851      -219.1564
  79   2.0000      -6.633968      -180.5195
  80   2.0000      -6.619403      -180.1231
  81   2.0000      -6.619202      -180.1176
  82   2.0000      -6.046638      -164.5374
  83   2.0000      -6.042365      -164.4211
  84   2.0000      -6.038201      -164.3078
  85   2.0000      -6.023041      -163.8953
  86   2.0000      -6.019104      -163.7881
  87   2.0000      -6.015836      -163.6992
  88   2.0000      -2.749875       -74.8279
  89   2.0000      -2.745740       -74.7154
  90   2.0000      -2.745585       -74.7112
  91   2.0000      -2.734008       -74.3961
  92   2.0000      -2.734000       -74.3959
  93   2.0000      -1.345826       -36.6218
  94   2.0000      -1.290884       -35.1267
  95   2.0000      -1.259245       -34.2658
  96   2.0000      -1.165201       -31.7067
  97   2.0000      -1.136174       -30.9169
  98   2.0000      -1.114936       -30.3389
  99   2.0000      -1.081165       -29.4200
 100   2.0000      -1.051336       -28.6083
 101   2.0000      -1.028326       -27.9822
 102   2.0000      -1.019871       -27.7521
 103   2.0000      -1.018236       -27.7076
 104   2.0000      -1.008595       -27.4453
 105   2.0000      -1.002513       -27.2798
 106   2.0000      -0.998803       -27.1788
 107   2.0000      -0.996354       -27.1122
 108   2.0000      -0.995284       -27.0830
 109   2.0000      -0.987106       -26.8605
 110   2.0000      -0.975920       -26.5561
 111   2.0000      -0.968190       -26.3458
 112   2.0000      -0.963654       -26.2224
 113   2.0000      -0.952866       -25.9288
 114   2.0000      -0.951112       -25.8811
 115   2.0000      -0.930435       -25.3184
 116   2.0000      -0.927054       -25.2264
 117   2.0000      -0.916425       -24.9372
 118   2.0000      -0.913713       -24.8634
 119   2.0000      -0.910060       -24.7640
 120   2.0000      -0.901318       -24.5261
 121   2.0000      -0.891523       -24.2596
 122   2.0000      -0.885928       -24.1073
 123   2.0000      -0.881872       -23.9970
 124   2.0000      -0.874324       -23.7916
 125   2.0000      -0.869683       -23.6653
 126   2.0000      -0.852650       -23.2018
 127   2.0000      -0.850399       -23.1405
 128   2.0000      -0.840874       -22.8813
 129   2.0000      -0.836681       -22.7672
 130   2.0000      -0.832995       -22.6670
 131   2.0000      -0.822693       -22.3866
 132   2.0000      -0.810452       -22.0535
 133   2.0000      -0.799500       -21.7555
 134   2.0000      -0.793428       -21.5903
 135   2.0000      -0.781439       -21.2640
 136   2.0000      -0.778743       -21.1907
 137   2.0000      -0.764598       -20.8058
 138   2.0000      -0.763412       -20.7735
 139   2.0000      -0.747464       -20.3395
 140   2.0000      -0.730181       -19.8692
 141   2.0000      -0.726240       -19.7620
 142   2.0000      -0.725072       -19.7302
 143   2.0000      -0.723191       -19.6790
 144   2.0000      -0.706207       -19.2169
 145   2.0000      -0.703094       -19.1322
 146   2.0000      -0.696828       -18.9616
 147   2.0000      -0.696148       -18.9432
 148   2.0000      -0.690527       -18.7902
 149   2.0000      -0.684380       -18.6229
 150   2.0000      -0.676388       -18.4055
 151   2.0000      -0.667000       -18.1500
 152   2.0000      -0.663833       -18.0638
 153   2.0000      -0.659422       -17.9438
 154   2.0000      -0.657518       -17.8920
 155   2.0000      -0.654039       -17.7973
 156   2.0000      -0.648838       -17.6558
 157   2.0000      -0.642405       -17.4807
 158   2.0000      -0.638856       -17.3842
 159   2.0000      -0.630467       -17.1559
 160   2.0000      -0.629877       -17.1398
 161   2.0000      -0.624032       -16.9808
 162   2.0000      -0.621471       -16.9111
 163   2.0000      -0.618038       -16.8177
 164   2.0000      -0.614380       -16.7181
 165   2.0000      -0.606077       -16.4922
 166   2.0000      -0.605635       -16.4802
 167   2.0000      -0.603675       -16.4268
 168   2.0000      -0.600235       -16.3332
 169   2.0000      -0.596366       -16.2280
 170   2.0000      -0.591527       -16.0963
 171   2.0000      -0.588588       -16.0163
 172   2.0000      -0.583740       -15.8844
 173   2.0000      -0.582827       -15.8595
 174   2.0000      -0.572157       -15.5692
 175   2.0000      -0.568946       -15.4818
 176   2.0000      -0.563863       -15.3435
 177   2.0000      -0.556941       -15.1551
 178   2.0000      -0.553967       -15.0742
 179   2.0000      -0.553746       -15.0682
 180   2.0000      -0.549057       -14.9406
 181   2.0000      -0.548591       -14.9279
 182   2.0000      -0.547827       -14.9071
 183   2.0000      -0.545614       -14.8469
 184   2.0000      -0.540576       -14.7098
 185   2.0000      -0.536754       -14.6058
 186   2.0000      -0.532064       -14.4782
 187   2.0000      -0.531012       -14.4496
 188   2.0000      -0.529397       -14.4056
 189   2.0000      -0.527208       -14.3461
 190   2.0000      -0.524305       -14.2671
 191   2.0000      -0.522286       -14.2121
 192   2.0000      -0.518308       -14.1039
 193   2.0000      -0.515998       -14.0410
 194   2.0000      -0.514437       -13.9985
 195   2.0000      -0.511469       -13.9178
 196   2.0000      -0.508159       -13.8277
 197   2.0000      -0.505446       -13.7539
 198   2.0000      -0.503221       -13.6934
 199   2.0000      -0.499891       -13.6027
 200   2.0000      -0.496199       -13.5023
 201   2.0000      -0.494408       -13.4535
 202   2.0000      -0.491139       -13.3646
 203   2.0000      -0.487969       -13.2783
 204   2.0000      -0.486583       -13.2406
 205   2.0000      -0.484463       -13.1829
 206   2.0000      -0.483541       -13.1578
 207   2.0000      -0.480827       -13.0840
 208   2.0000      -0.478093       -13.0096
 209   2.0000      -0.474408       -12.9093
 210   2.0000      -0.471518       -12.8307
 211   2.0000      -0.471203       -12.8221
 212   2.0000      -0.469540       -12.7768
 213   2.0000      -0.464894       -12.6504
 214   2.0000      -0.463251       -12.6057
 215   2.0000      -0.459110       -12.4930
 216   2.0000      -0.457161       -12.4400
 217   2.0000      -0.453319       -12.3354
 218   2.0000      -0.453210       -12.3325
 219   2.0000      -0.451868       -12.2960
 220   2.0000      -0.448393       -12.2014
 221   2.0000      -0.448243       -12.1973
 222   2.0000      -0.446475       -12.1492
 223   2.0000      -0.445069       -12.1109
 224   2.0000      -0.444428       -12.0935
 225   2.0000      -0.439848       -11.9689
 226   2.0000      -0.437006       -11.8915
 227   2.0000      -0.435294       -11.8450
 228   2.0000      -0.432523       -11.7695
 229   2.0000      -0.430325       -11.7097
 230   2.0000      -0.430065       -11.7027
 231   2.0000      -0.426502       -11.6057
 232   2.0000      -0.423725       -11.5302
 233   2.0000      -0.422332       -11.4922
 234   2.0000      -0.419379       -11.4119
 235   2.0000      -0.416354       -11.3296
 236   2.0000      -0.414634       -11.2828
 237   2.0000      -0.414508       -11.2793
 238   2.0000      -0.411014       -11.1843
 239   2.0000      -0.410379       -11.1670
 240   2.0000      -0.406139       -11.0516
 241   2.0000      -0.404468       -11.0061
 242   2.0000      -0.404156       -10.9976
 243   2.0000      -0.401563       -10.9271
 244   2.0000      -0.400211       -10.8903
 245   2.0000      -0.397656       -10.8208
 246   2.0000      -0.395393       -10.7592
 247   2.0000      -0.392025       -10.6675
 248   2.0000      -0.387926       -10.5560
 249   2.0000      -0.385785       -10.4978
 250   2.0000      -0.379776       -10.3342
 251   2.0000      -0.372709       -10.1419
 252   2.0000      -0.366591        -9.9755
 253   2.0000      -0.361456        -9.8357
 254   2.0000      -0.347960        -9.4685
 255   2.0000      -0.345847        -9.4110
 256   2.0000      -0.327596        -8.9144
 257   2.0000      -0.322040        -8.7632
 258   2.0000      -0.321390        -8.7455
 259   2.0000      -0.316804        -8.6207
 260   2.0000      -0.304197        -8.2776
 261   2.0000      -0.299427        -8.1478
 262   2.0000      -0.294356        -8.0098
 263   2.0000      -0.283874        -7.7246
 264   2.0000      -0.275327        -7.4920
 265   2.0000      -0.239370        -6.5136
 266   0.0000      -0.096027        -2.6130
 267   0.0000      -0.083923        -2.2837
 268   0.0000      -0.067307        -1.8315
 269   0.0000      -0.061858        -1.6832
 270   0.0000      -0.044670        -1.2155

MULLIKEN ATOMIC CHARGES
-----------------------
   0 C :    0.297157
   1 C :   -0.340563
   2 C :   -0.183900
   3 N :    0.153236
   4 C :   -0.216155
   5 N :    0.165697
   6 C :    0.015748
   7 C :   -0.016243
   8 C :   -0.078075
   9 C :    0.117234
  10 C :   -0.090170
  11 C :   -0.024439
  12 S :    0.188901
  13 C :   -0.124409
  14 C :    0.036966
  15 Br:    0.026684
  16 C :    0.141661
  17 O :   -0.161433
  18 C :   -0.160275
  19 C :   -0.007962
  20 C :    0.009062
  21 O :   -0.156251
  22 C :    0.106044
  23 C :    0.103032
  24 N :    0.288258
  25 O :   -0.231179
  26 O :   -0.264146
  27 C :    0.063660
  28 N :    0.045295
  29 C :    0.054009
  30 C :   -0.224800
  31 C :    0.088153
  32 C :    0.200602
  33 N :   -0.144117
  34 C :    0.074122
  35 C :    0.000981
  36 C :   -0.109300
  37 S :    0.145911
  38 C :   -0.115083
  39 C :    0.004725
  40 C :   -0.042042
  41 C :    0.019064
  42 C :   -0.275971
  43 N :    0.120724
  44 C :    0.079239
  45 C :    0.067038
  46 C :    0.042348
  47 C :   -0.273184
  48 N :    0.112590
  49 C :    0.009898
  50 C :   -0.010952
  51 C :    0.043132
  52 C :   -0.129103
  53 C :    0.132347
  54 O :   -0.149894
  55 C :    0.015733
  56 C :   -0.086805
  57 C :    0.100803
  58 C :    0.098355
  59 C :   -0.095759
  60 C :    0.301836
  61 C :   -0.034525
  62 C :   -0.009179
  63 F :   -0.194374
  64 C :   -0.073856
  65 C :    0.022206
  66 C :    0.278442
  67 C :   -0.344258
  68 C :   -0.197869
  69 N :    0.164420
  70 C :   -0.171965
  71 N :    0.154594
  72 H :   -0.012817
  73 H :   -0.004779
  74 H :   -0.002652
  75 H :    0.038701
  76 H :    0.043329
  77 H :    0.143349
  78 H :    0.007117
  79 H :    0.023598
  80 H :    0.015444
  81 H :    0.036948
  82 H :    0.014095
  83 H :    0.015994
  84 H :    0.119091
  85 H :    0.005602
  86 H :   -0.026646
  87 H :    0.051924
  88 H :    0.028015
  89 H :    0.021082
  90 H :    0.025202
  91 H :    0.031731
  92 H :    0.055189
  93 H :    0.018740
  94 H :    0.006392
  95 H :    0.022236
  96 H :   -0.016182
  97 H :   -0.004968
  98 H :    0.000213
  99 H :   -0.012707
 100 H :    0.005088
Sum of atomic charges:   -0.0000000

LOEWDIN ATOMIC CHARGES
----------------------
   0 C :    0.072472
   1 C :   -0.144375
   2 C :   -0.020518
   3 N :   -0.051670
   4 C :   -0.027060
   5 N :   -0.053003
   6 C :   -0.024031
   7 C :   -0.049512
   8 C :    0.017606
   9 C :   -0.033407
  10 C :   -0.146478
  11 C :   -0.009171
  12 S :    0.435007
  13 C :   -0.271564
  14 C :   -0.071872
  15 Br:    0.138880
  16 C :    0.071047
  17 O :   -0.152731
  18 C :   -0.116348
  19 C :    0.046180
  20 C :   -0.027143
  21 O :    0.047728
  22 C :    0.119075
  23 C :   -0.105399
  24 N :    0.294287
  25 O :   -0.193341
  26 O :   -0.214039
  27 C :    0.045590
  28 N :    0.075597
  29 C :   -0.000099
  30 C :   -0.068645
  31 C :   -0.053833
  32 C :    0.049659
  33 N :    0.009326
  34 C :    0.064497
  35 C :   -0.151410
  36 C :   -0.121314
  37 S :    0.465370
  38 C :   -0.187551
  39 C :   -0.032407
  40 C :   -0.092113
  41 C :   -0.046050
  42 C :   -0.016798
  43 N :   -0.066149
  44 C :   -0.006747
  45 C :   -0.006886
  46 C :   -0.042306
  47 C :   -0.019859
  48 N :   -0.059053
  49 C :    0.008890
  50 C :   -0.054086
  51 C :    0.063690
  52 C :   -0.095034
  53 C :    0.080849
  54 O :   -0.151816
  55 C :   -0.059271
  56 C :    0.029724
  57 C :   -0.020070
  58 C :    0.002733
  59 C :   -0.041890
  60 C :    0.090835
  61 C :   -0.041124
  62 C :    0.003002
  63 F :   -0.068796
  64 C :    0.016340
  65 C :   -0.013867
  66 C :    0.063778
  67 C :   -0.132219
  68 C :   -0.014896
  69 N :   -0.055242
  70 C :   -0.016074
  71 N :   -0.060788
  72 H :    0.039943
  73 H :    0.041408
  74 H :    0.038730
  75 H :    0.053369
  76 H :    0.045633
  77 H :    0.080880
  78 H :    0.026145
  79 H :    0.032020
  80 H :    0.032942
  81 H :    0.042281
  82 H :    0.026018
  83 H :    0.032020
  84 H :    0.080365
  85 H :    0.025833
  86 H :    0.024243
  87 H :    0.053582
  88 H :    0.037214
  89 H :    0.035391
  90 H :    0.036680
  91 H :    0.038349
  92 H :    0.064331
  93 H :    0.038951
  94 H :    0.027957
  95 H :    0.044631
  96 H :    0.037695
  97 H :    0.042652
  98 H :    0.040219
  99 H :    0.034257
 100 H :    0.042155

  Mayer bond orders larger than 0.100000
B(  0-C ,  1-C ) :   1.6410 B(  0-C ,  6-C ) :   1.0064 B(  0-C , 18-C ) :   1.0729
B(  1-C ,  2-C ) :   1.1349 B(  1-C ,  4-C ) :   1.1459 B(  2-C ,  3-N ) :   2.9769
B(  4-C ,  5-N ) :   3.0038 B(  6-C ,  7-C ) :   1.2726 B(  6-C , 11-C ) :   1.4136
B(  7-C ,  8-C ) :   1.4293 B(  7-C , 16-C ) :   0.9410 B(  8-C ,  9-C ) :   1.2388
B(  8-C , 72-H ) :   1.0181 B(  9-C , 10-C ) :   1.3107 B(  9-C , 14-C ) :   1.1636
B( 10-C , 11-C ) :   1.3229 B( 10-C , 12-S ) :   1.0854 B( 11-C , 73-H ) :   0.9819
B( 12-S , 13-C ) :   1.0894 B( 13-C , 14-C ) :   1.6152 B( 13-C , 15-Br) :   1.0211
B( 14-C , 74-H ) :   1.0003 B( 16-C , 17-O ) :   2.1835 B( 16-C , 18-C ) :   0.9770
B( 18-C , 19-C ) :   1.5223 B( 19-C , 20-C ) :   1.2730 B( 19-C , 75-H ) :   0.9307
B( 20-C , 21-O ) :   1.0460 B( 20-C , 27-C ) :   1.2884 B( 21-O , 22-C ) :   1.2612
B( 22-C , 23-C ) :   1.4181 B( 22-C , 76-H ) :   1.0112 B( 23-C , 24-N ) :   0.9495
B( 23-C , 27-C ) :   1.2199 B( 24-N , 25-O ) :   1.5573 B( 24-N , 26-O ) :   1.4724
B( 25-O , 26-O ) :   0.2587 B( 27-C , 28-N ) :   1.3537 B( 28-N , 29-C ) :   1.1042
B( 28-N , 77-H ) :   0.8438 B( 29-C , 30-C ) :   1.7988 B( 29-C , 78-H ) :   0.9471
B( 30-C , 31-C ) :   1.0671 B( 30-C , 32-C ) :   1.0582 B( 31-C , 79-H ) :   0.9461
B( 31-C , 80-H ) :   0.9297 B( 31-C , 81-H ) :   0.9401 B( 32-C , 33-N ) :   1.0030
B( 32-C , 82-H ) :   0.9407 B( 32-C , 83-H ) :   0.9284 B( 33-N , 34-C ) :   1.2617
B( 33-N , 84-H ) :   0.9372 B( 34-C , 35-C ) :   1.5852 B( 34-C , 85-H ) :   0.9581
B( 35-C , 36-C ) :   1.1773 B( 35-C , 86-H ) :   0.9331 B( 36-C , 37-S ) :   1.1644
B( 36-C , 40-C ) :   1.4613 B( 37-S , 38-C ) :   1.0905 B( 38-C , 39-C ) :   1.4802
B( 38-C , 49-C ) :   1.2100 B( 39-C , 40-C ) :   1.3898 B( 39-C , 46-C ) :   0.9580
B( 40-C , 41-C ) :   0.9807 B( 41-C , 42-C ) :   1.0516 B( 41-C , 44-C ) :   1.1094
B( 41-C , 87-H ) :   0.8312 B( 42-C , 43-N ) :   3.0242 B( 44-C , 45-C ) :   1.1137
B( 44-C , 88-H ) :   0.9320 B( 44-C , 89-H ) :   0.9154 B( 45-C , 46-C ) :   1.1116
B( 45-C , 90-H ) :   0.9158 B( 45-C , 91-H ) :   0.9343 B( 46-C , 47-C ) :   1.0446
B( 46-C , 92-H ) :   0.8429 B( 47-C , 48-N ) :   3.0317 B( 49-C , 50-C ) :   1.6175
B( 49-C , 93-H ) :   0.9538 B( 50-C , 51-C ) :   1.1608 B( 50-C , 94-H ) :   0.9579
B( 51-C , 52-C ) :   1.6475 B( 51-C , 95-H ) :   0.9340 B( 52-C , 53-C ) :   0.9494
B( 52-C , 66-C ) :   1.0369 B( 53-C , 54-O ) :   2.2658 B( 53-C , 55-C ) :   0.9174
B( 55-C , 56-C ) :   1.4680 B( 55-C , 65-C ) :   1.2174 B( 56-C , 57-C ) :   1.1921
B( 56-C , 96-H ) :   1.0154 B( 57-C , 58-C ) :   1.2561 B( 57-C , 62-C ) :   1.2337
B( 58-C , 59-C ) :   1.2021 B( 58-C , 64-C ) :   1.1993 B( 59-C , 60-C ) :   1.4417
B( 59-C , 97-H ) :   1.0071 B( 60-C , 61-C ) :   1.2552 B( 60-C , 63-F ) :   1.0843
B( 61-C , 62-C ) :   1.4606 B( 61-C , 98-H ) :   0.9933 B( 62-C , 99-H ) :   0.9968
B( 64-C , 65-C ) :   1.4719 B( 64-C ,100-H ) :   0.9952 B( 65-C , 66-C ) :   0.9878
B( 66-C , 67-C ) :   1.6624 B( 67-C , 68-C ) :   1.1729 B( 67-C , 70-C ) :   1.1263
B( 68-C , 69-N ) :   2.9936 B( 70-C , 71-N ) :   3.0050

-----------------------------------------------------------------------------
         ABSORPTION SPECTRUM VIA TRANSITION ELECTRIC DIPOLE MOMENTS
-----------------------------------------------------------------------------
State   Energy  Wavelength   fosc         T2         TX        TY        TZ
        (cm-1)    (nm)                  (au**2)     (au)      (au)      (au)
-----------------------------------------------------------------------------
   0   17028.9    587.2   0.738872265  14.28426   1.64576  -2.12220   2.65932
   1   19260.3    519.2   0.163721309   2.79846   1.47468  -0.19751  -0.76470
   2   21632.4    462.3   0.303370384   4.61682  -1.67473   0.21377   1.32907
   3   24565.4    407.1   0.036924327   0.49484  -0.39130   0.27665   0.51497
   4   25490.4    392.3   0.153014114   1.97619  -1.03190   0.79102  -0.53448
   5   25994.6    384.7   0.053577053   0.67853   0.10744  -0.73145   0.36328
   6   26967.3    370.8   0.105812830   1.29174   0.43995  -0.86264   0.59501
   7   27268.9    366.7   0.309111066   3.73184  -1.41565   1.05137  -0.78892
   8   27801.1    359.7   0.023696063   0.28060  -0.08627  -0.51779   0.07104
   9   28072.9    356.2   0.070009222   0.82100   0.72877  -0.38098   0.38045
  10   28186.2    354.8   0.366802615   4.28421   0.15619  -1.61881  -1.28035
  11   28523.6    350.6   0.050085794   0.57808   0.06277  -0.75104   0.10035
  12   29476.9    339.2   0.036490969   0.40755  -0.60045   0.20462  -0.07171
  13   30163.4    331.5   0.028822470   0.31458   0.20341   0.48268   0.20055
  14   30494.4    327.9   0.126753374   1.36841   0.44988  -0.28688   1.04102
  15   30942.7    323.2   0.082986235   0.88292   0.66851   0.17523  -0.63664
  16   31711.9    315.3   0.188034301   1.95205   0.89063  -0.74227   0.77965
  17   32388.6    308.8   0.028474047   0.28942  -0.09864   0.32727   0.41544
  18   33012.8    302.9   0.033497289   0.33404   0.51808  -0.19664   0.16421
  19   33318.5    300.1   0.515905565   5.09754  -0.38278  -1.94557  -1.07971
  20   33837.6    295.5   0.380117291   3.69822  -1.43222   0.35468  -1.23336
  21   33961.7    294.4   0.237201310   2.29934   0.83213   0.27975  -1.23638
  22   34764.8    287.6   0.202895000   1.92136   0.89639   0.18185   1.04152
  23   35070.0    285.1   0.134821457   1.26561   0.49944  -0.29429   0.96413
  24   35260.2    283.6   0.012464301   0.11637   0.30642   0.10095  -0.11087
  25   36168.7    276.5   0.000599588   0.00546  -0.01107  -0.05998   0.04168
  26   36639.0    272.9   0.066414370   0.59675   0.28232  -0.38174  -0.60936
  27   36746.2    272.1   0.045247009   0.40537   0.48633  -0.25978  -0.31839
  28   36843.0    271.4   0.077335862   0.69104  -0.48280   0.66523  -0.12411
  29   36943.2    270.7   0.302969480   2.69985  -0.90642  -0.39158  -1.31336
  30   37840.2    264.3   0.082610022   0.71871   0.78014  -0.32016  -0.08717
  31   38720.5    258.3   0.007583222   0.06447   0.22199  -0.11240   0.05062
  32   38868.3    257.3   0.164661853   1.39467   0.80647   0.00032  -0.86271
  33   38994.2    256.4   0.033892090   0.28614  -0.50595   0.16322  -0.05925
  34   39126.3    255.6   0.005369754   0.04518  -0.08791   0.08955   0.17156
  35   39326.6    254.3   0.003514614   0.02942  -0.02561  -0.14758   0.08359
  36   39551.2    252.8   0.037984225   0.31617  -0.29727   0.17368   0.44456
  37   39832.5    251.1   0.198983604   1.64458   0.98319   0.73857   0.36391
  38   40100.5    249.4   0.031715192   0.26037  -0.24612   0.41724   0.16034

FINAL SINGLE POINT ENERGY     -6409.992508453463

DIPOLE MOMENT
-------------
                                X             Y             Z
Electronic contribution:    -91.89097      90.19349      13.25891
Nuclear contribution   :     93.05606     -87.05983     -15.10841
                        -----------------------------------------
Total Dipole Moment    :      1.16509       3.13366      -1.84950
                        -----------------------------------------
Magnitude (a.u.)       :      3.82072
Magnitude (Debye)      :      9.71151

Rotational constants in cm-1:     0.001141     0.000265     0.000237
Rotational constants in MHz :    34.212775     7.956189     7.092532

                             ****ORCA TERMINATED NORMALLY****
TOTAL RUN TIME: 0 days 0 hours 19 minutes 42 seconds 980 msec
