                         Program Version 4.2.0 -  RELEASE  -
|  1> # ORCA input file
|  2> # SCF done       -168.419419106341          0.000475316434
|  3> ! CAM-B3LYP def2-SVP def2/J RIJCOSX Grid4 TightSCF
|  4> %maxcore 5000
|  5> %tddft
|  6>     Mode sTDDFT
|  7>     Ethresh 5.0
|  8>     maxcore 5000
|  9> end
| 10>
| 11> %pal
| 12>   nprocs 6
| 13>   end
| 14> * xyz 0 1
| 15>    C        4.91075        -0.01418        -6.81098
| 16>    C        5.46008        -0.18555        -5.60163
| 17>    C        6.51507         0.58083        -5.00026
| 18>    C        6.85934         0.17710        -3.75896
| 19>    C        6.11109        -0.93509        -3.27399
| 20>    S        4.94766        -1.45296        -4.47454
| 21>    C        6.22877        -1.54815        -2.05028
| 22>    C        7.11446        -1.21010        -0.99441
| 23>    C        6.97434        -1.98729         0.10929
| 24>    C        5.96798        -2.98444        -0.00506
| 25>    S        5.21987        -2.90873        -1.58533
| 26>    C        5.58733        -3.87090         0.96762
| 27>    C        4.55823        -4.81320         0.81100
| 28>    O        3.91359        -4.94972        -0.38206
| 29>    C        3.98627        -5.70098         1.71182
| 30>    C        4.05017        -6.19588         3.08409
| 31>    O        4.77039        -5.90273         4.00514
| 32>    N        3.04018        -7.15736         3.13083
| 33>    C        2.33367        -7.34112         1.94327
| 34>    O        1.44811        -8.13791         1.78122
| 35>    C        2.95069        -6.37709         1.02490
| 36>    C        2.93258        -5.88995        -0.26886
| 37>    C        2.12787        -6.17891        -1.39960
| 38>    C        0.99155        -6.91276        -1.34195
| 39>    C        0.17812        -7.17193        -2.47561
| 40>    S        0.74453        -6.99153        -4.10954
| 41>    C       -0.81437        -7.42504        -4.76211
| 42>    C       -1.72188        -7.70243        -3.74503
| 43>    C       -1.14379        -7.56784        -2.47673
| 44>    S       -2.03883        -7.83929        -0.94994
| 45>    O       -1.87703        -6.68614        -0.10812
| 46>    O       -1.66199        -9.12266        -0.43045
| 47>    C       -3.75511        -7.94045        -1.54070
| 48>    C       -3.72960        -8.85386        -2.74780
| 49>    C       -3.13308        -8.14906        -3.96498
| 50>    C       -0.96050        -7.46885        -6.17718
| 51>    C       -2.11754        -7.34026        -6.86834
| 52>    C       -2.19917        -7.41877        -8.28325
| 53>    O       -1.15083        -7.84082        -9.04386
| 54>    C       -3.25197        -7.11607        -9.12345
| 55>    C       -4.63508        -6.63994        -9.16372
| 56>    O       -5.39334        -6.32901        -8.27940
| 57>    N       -4.93230        -6.61992       -10.52290
| 58>    C       -3.89815        -7.03551       -11.36828
| 59>    O       -3.97228        -7.08785       -12.56986
| 60>    C       -2.81152        -7.35487       -10.44799
| 61>    C       -1.50677        -7.81668       -10.36238
| 62>    C       -0.62799        -8.26000       -11.37148
| 63>    C        0.57864        -8.84893       -11.12436
| 64>    C        1.42162        -9.34262       -12.12947
| 65>    C        2.58050       -10.04027       -11.89601
| 66>    C        3.44925       -10.59098       -12.87369
| 67>    C        4.50309       -11.28041       -12.36350
| 68>    C        4.53497       -11.31710       -10.94712
| 69>    S        3.17725       -10.42145       -10.29027
| 70>    C        5.44644       -11.95642       -10.14042
| 71>    C        6.56729       -12.73281       -10.55329
| 72>    C        7.27917       -13.26580        -9.53692
| 73>    C        6.77559       -12.94920        -8.23042
| 74>    S        5.33976       -11.92465        -8.39390
| 75>    C        7.26530       -13.33855        -7.04606
| 76>    H        5.25168         0.77076        -7.46284
| 77>    H        4.11851        -0.64675        -7.16701
| 78>    H        6.96579         1.40199        -5.52882
| 79>    H        7.62695         0.63721        -3.16260
| 80>    H        7.82036        -0.40358        -1.07981
| 81>    H        7.54964        -1.88180         1.01182
| 82>    H        6.07212        -3.84730         1.93123
| 83>    H        2.83602        -7.68760         3.96567
| 84>    H        2.45183        -5.73551        -2.33267
| 85>    H        0.62923        -7.30061        -0.39918
| 86>    H       -4.08151        -6.93034        -1.77128
| 87>    H       -4.33985        -8.34694        -0.72015
| 88>    H       -3.13024        -9.73069        -2.49149
| 89>    H       -4.73917        -9.19018        -2.99368
| 90>    H       -3.75317        -7.27946        -4.20743
| 91>    H       -3.16030        -8.82024        -4.82715
| 92>    H       -0.04118        -7.57935        -6.73771
| 93>    H       -3.05335        -7.11063        -6.38625
| 94>    H       -5.83306        -6.33073       -10.87613
| 95>    H       -0.99145        -8.14629       -12.38229
| 96>    H        0.89650        -8.97226       -10.09677
| 97>    H        1.13140        -9.19028       -13.16061
| 98>    H        3.25697       -10.46149       -13.92421
| 99>    H        5.25392       -11.76608       -12.96051
|100>    H        6.80067       -12.86955       -11.59422
|101>    H        8.15280       -13.88228        -9.65306
|102>    H        8.13869       -13.96422        -6.99191
|103>    H        6.80662       -13.04424        -6.11996
|104> *
|105>
|106>                          ****END OF INPUT****

CARTESIAN COORDINATES (ANGSTROEM)
---------------------------------
  C      4.910750   -0.014180   -6.810980
  C      5.460080   -0.185550   -5.601630
  C      6.515070    0.580830   -5.000260
  C      6.859340    0.177100   -3.758960
  C      6.111090   -0.935090   -3.273990
  S      4.947660   -1.452960   -4.474540
  C      6.228770   -1.548150   -2.050280
  C      7.114460   -1.210100   -0.994410
  C      6.974340   -1.987290    0.109290
  C      5.967980   -2.984440   -0.005060
  S      5.219870   -2.908730   -1.585330
  C      5.587330   -3.870900    0.967620
  C      4.558230   -4.813200    0.811000
  O      3.913590   -4.949720   -0.382060
  C      3.986270   -5.700980    1.711820
  C      4.050170   -6.195880    3.084090
  O      4.770390   -5.902730    4.005140
  N      3.040180   -7.157360    3.130830
  C      2.333670   -7.341120    1.943270
  O      1.448110   -8.137910    1.781220
  C      2.950690   -6.377090    1.024900
  C      2.932580   -5.889950   -0.268860
  C      2.127870   -6.178910   -1.399600
  C      0.991550   -6.912760   -1.341950
  C      0.178120   -7.171930   -2.475610
  S      0.744530   -6.991530   -4.109540
  C     -0.814370   -7.425040   -4.762110
  C     -1.721880   -7.702430   -3.745030
  C     -1.143790   -7.567840   -2.476730
  S     -2.038830   -7.839290   -0.949940
  O     -1.877030   -6.686140   -0.108120
  O     -1.661990   -9.122660   -0.430450
  C     -3.755110   -7.940450   -1.540700
  C     -3.729600   -8.853860   -2.747800
  C     -3.133080   -8.149060   -3.964980
  C     -0.960500   -7.468850   -6.177180
  C     -2.117540   -7.340260   -6.868340
  C     -2.199170   -7.418770   -8.283250
  O     -1.150830   -7.840820   -9.043860
  C     -3.251970   -7.116070   -9.123450
  C     -4.635080   -6.639940   -9.163720
  O     -5.393340   -6.329010   -8.279400
  N     -4.932300   -6.619920  -10.522900
  C     -3.898150   -7.035510  -11.368280
  O     -3.972280   -7.087850  -12.569860
  C     -2.811520   -7.354870  -10.447990
  C     -1.506770   -7.816680  -10.362380
  C     -0.627990   -8.260000  -11.371480
  C      0.578640   -8.848930  -11.124360
  C      1.421620   -9.342620  -12.129470
  C      2.580500  -10.040270  -11.896010
  C      3.449250  -10.590980  -12.873690
  C      4.503090  -11.280410  -12.363500
  C      4.534970  -11.317100  -10.947120
  S      3.177250  -10.421450  -10.290270
  C      5.446440  -11.956420  -10.140420
  C      6.567290  -12.732810  -10.553290
  C      7.279170  -13.265800   -9.536920
  C      6.775590  -12.949200   -8.230420
  S      5.339760  -11.924650   -8.393900
  C      7.265300  -13.338550   -7.046060
  H      5.251680    0.770760   -7.462840
  H      4.118510   -0.646750   -7.167010
  H      6.965790    1.401990   -5.528820
  H      7.626950    0.637210   -3.162600
  H      7.820360   -0.403580   -1.079810
  H      7.549640   -1.881800    1.011820
  H      6.072120   -3.847300    1.931230
  H      2.836020   -7.687600    3.965670
  H      2.451830   -5.735510   -2.332670
  H      0.629230   -7.300610   -0.399180
  H     -4.081510   -6.930340   -1.771280
  H     -4.339850   -8.346940   -0.720150
  H     -3.130240   -9.730690   -2.491490
  H     -4.739170   -9.190180   -2.993680
  H     -3.753170   -7.279460   -4.207430
  H     -3.160300   -8.820240   -4.827150
  H     -0.041180   -7.579350   -6.737710
  H     -3.053350   -7.110630   -6.386250
  H     -5.833060   -6.330730  -10.876130
  H     -0.991450   -8.146290  -12.382290
  H      0.896500   -8.972260  -10.096770
  H      1.131400   -9.190280  -13.160610
  H      3.256970  -10.461490  -13.924210
  H      5.253920  -11.766080  -12.960510
  H      6.800670  -12.869550  -11.594220
  H      8.152800  -13.882280   -9.653060
  H      8.138690  -13.964220   -6.991910
  H      6.806620  -13.044240   -6.119960

 Total Charge           Charge          ....    0
 Multiplicity           Mult            ....    1
 Number of Electrons    NEL             ....  472
 Basis Dimension        Dim             .... 1018

ORBITAL ENERGIES
----------------

  NO   OCC          E(Eh)            E(eV)
   0   2.0000     -89.130671     -2425.3689
   1   2.0000     -88.964888     -2420.8577
   2   2.0000     -88.948007     -2420.3983
   3   2.0000     -88.944666     -2420.3074
   4   2.0000     -88.944359     -2420.2991
   5   2.0000     -88.942970     -2420.2613
   6   2.0000     -19.303210      -525.2671
   7   2.0000     -19.299952      -525.1784
   8   2.0000     -19.202586      -522.5289
   9   2.0000     -19.201034      -522.4867
  10   2.0000     -19.196282      -522.3574
  11   2.0000     -19.193988      -522.2950
  12   2.0000     -19.180687      -521.9330
  13   2.0000     -19.180590      -521.9304
  14   2.0000     -14.445775      -393.0895
  15   2.0000     -14.438428      -392.8896
  16   2.0000     -10.391915      -282.7784
  17   2.0000     -10.390614      -282.7430
  18   2.0000     -10.384433      -282.5748
  19   2.0000     -10.383646      -282.5534
  20   2.0000     -10.354491      -281.7600
  21   2.0000     -10.354211      -281.7524
  22   2.0000     -10.349568      -281.6261
  23   2.0000     -10.348600      -281.5997
  24   2.0000     -10.318144      -280.7710
  25   2.0000     -10.317358      -280.7496
  26   2.0000     -10.316524      -280.7269
  27   2.0000     -10.314716      -280.6777
  28   2.0000     -10.314413      -280.6695
  29   2.0000     -10.313340      -280.6402
  30   2.0000     -10.311965      -280.6028
  31   2.0000     -10.310991      -280.5763
  32   2.0000     -10.310268      -280.5567
  33   2.0000     -10.307773      -280.4888
  34   2.0000     -10.298091      -280.2253
  35   2.0000     -10.297745      -280.2159
  36   2.0000     -10.297349      -280.2051
  37   2.0000     -10.295272      -280.1486
  38   2.0000     -10.294814      -280.1361
  39   2.0000     -10.294332      -280.1230
  40   2.0000     -10.293736      -280.1068
  41   2.0000     -10.292097      -280.0622
  42   2.0000     -10.291814      -280.0545
  43   2.0000     -10.291603      -280.0487
  44   2.0000     -10.290404      -280.0161
  45   2.0000     -10.288117      -279.9539
  46   2.0000     -10.287892      -279.9478
  47   2.0000     -10.287820      -279.9458
  48   2.0000     -10.286540      -279.9110
  49   2.0000     -10.286036      -279.8973
  50   2.0000     -10.285421      -279.8805
  51   2.0000     -10.284108      -279.8448
  52   2.0000     -10.282991      -279.8144
  53   2.0000     -10.282101      -279.7902
  54   2.0000     -10.281961      -279.7864
  55   2.0000     -10.279826      -279.7283
  56   2.0000     -10.279562      -279.7211
  57   2.0000     -10.277363      -279.6613
  58   2.0000     -10.276935      -279.6496
  59   2.0000     -10.275985      -279.6238
  60   2.0000     -10.274419      -279.5811
  61   2.0000      -8.195702      -223.0164
  62   2.0000      -8.060433      -219.3355
  63   2.0000      -8.044341      -218.8977
  64   2.0000      -8.041422      -218.8182
  65   2.0000      -8.040303      -218.7878
  66   2.0000      -8.039755      -218.7729
  67   2.0000      -6.164783      -167.7523
  68   2.0000      -6.164440      -167.7429
  69   2.0000      -6.163782      -167.7250
  70   2.0000      -6.029564      -164.0728
  71   2.0000      -6.025681      -163.9671
  72   2.0000      -6.022579      -163.8827
  73   2.0000      -6.014073      -163.6513
  74   2.0000      -6.011230      -163.5739
  75   2.0000      -6.010169      -163.5450
  76   2.0000      -6.010142      -163.5443
  77   2.0000      -6.009572      -163.5288
  78   2.0000      -6.007305      -163.4671
  79   2.0000      -6.005938      -163.4299
  80   2.0000      -6.005641      -163.4218
  81   2.0000      -6.005146      -163.4083
  82   2.0000      -6.001967      -163.3218
  83   2.0000      -6.001056      -163.2970
  84   2.0000      -6.000280      -163.2759
  85   2.0000      -1.217403       -33.1272
  86   2.0000      -1.215087       -33.0642
  87   2.0000      -1.188581       -32.3429
  88   2.0000      -1.145791       -31.1786
  89   2.0000      -1.139609       -31.0103
  90   2.0000      -1.124984       -30.6124
  91   2.0000      -1.118901       -30.4468
  92   2.0000      -1.067235       -29.0409
  93   2.0000      -1.033467       -28.1221
  94   2.0000      -1.026680       -27.9374
  95   2.0000      -1.001349       -27.2481
  96   2.0000      -0.998105       -27.1598
  97   2.0000      -0.995643       -27.0928
  98   2.0000      -0.975253       -26.5380
  99   2.0000      -0.973505       -26.4904
 100   2.0000      -0.932738       -25.3811
 101   2.0000      -0.929177       -25.2842
 102   2.0000      -0.919276       -25.0148
 103   2.0000      -0.915619       -24.9153
 104   2.0000      -0.909873       -24.7589
 105   2.0000      -0.908303       -24.7162
 106   2.0000      -0.893654       -24.3176
 107   2.0000      -0.883990       -24.0546
 108   2.0000      -0.873084       -23.7578
 109   2.0000      -0.863022       -23.4840
 110   2.0000      -0.850443       -23.1417
 111   2.0000      -0.849953       -23.1284
 112   2.0000      -0.848406       -23.0863
 113   2.0000      -0.846623       -23.0378
 114   2.0000      -0.828969       -22.5574
 115   2.0000      -0.826099       -22.4793
 116   2.0000      -0.820609       -22.3299
 117   2.0000      -0.817449       -22.2439
 118   2.0000      -0.799503       -21.7556
 119   2.0000      -0.786712       -21.4075
 120   2.0000      -0.772679       -21.0257
 121   2.0000      -0.763113       -20.7654
 122   2.0000      -0.757019       -20.5995
 123   2.0000      -0.751945       -20.4615
 124   2.0000      -0.751138       -20.4395
 125   2.0000      -0.739141       -20.1130
 126   2.0000      -0.729557       -19.8523
 127   2.0000      -0.720534       -19.6067
 128   2.0000      -0.716725       -19.5031
 129   2.0000      -0.705701       -19.2031
 130   2.0000      -0.696300       -18.9473
 131   2.0000      -0.690503       -18.7895
 132   2.0000      -0.687655       -18.7120
 133   2.0000      -0.683571       -18.6009
 134   2.0000      -0.669485       -18.2176
 135   2.0000      -0.655700       -17.8425
 136   2.0000      -0.647622       -17.6227
 137   2.0000      -0.639867       -17.4117
 138   2.0000      -0.635582       -17.2951
 139   2.0000      -0.627991       -17.0885
 140   2.0000      -0.624554       -16.9950
 141   2.0000      -0.621588       -16.9143
 142   2.0000      -0.617698       -16.8084
 143   2.0000      -0.616387       -16.7728
 144   2.0000      -0.603654       -16.4263
 145   2.0000      -0.602412       -16.3925
 146   2.0000      -0.598695       -16.2913
 147   2.0000      -0.593678       -16.1548
 148   2.0000      -0.586210       -15.9516
 149   2.0000      -0.583763       -15.8850
 150   2.0000      -0.581799       -15.8316
 151   2.0000      -0.577892       -15.7253
 152   2.0000      -0.576155       -15.6780
 153   2.0000      -0.572531       -15.5794
 154   2.0000      -0.570549       -15.5254
 155   2.0000      -0.566698       -15.4206
 156   2.0000      -0.559979       -15.2378
 157   2.0000      -0.557135       -15.1604
 158   2.0000      -0.548866       -14.9354
 159   2.0000      -0.547944       -14.9103
 160   2.0000      -0.542681       -14.7671
 161   2.0000      -0.539371       -14.6770
 162   2.0000      -0.537446       -14.6247
 163   2.0000      -0.535175       -14.5628
 164   2.0000      -0.533709       -14.5230
 165   2.0000      -0.531863       -14.4727
 166   2.0000      -0.529414       -14.4061
 167   2.0000      -0.522804       -14.2262
 168   2.0000      -0.517866       -14.0919
 169   2.0000      -0.515299       -14.0220
 170   2.0000      -0.514434       -13.9985
 171   2.0000      -0.509521       -13.8648
 172   2.0000      -0.507761       -13.8169
 173   2.0000      -0.507400       -13.8070
 174   2.0000      -0.503962       -13.7135
 175   2.0000      -0.500862       -13.6291
 176   2.0000      -0.500424       -13.6172
 177   2.0000      -0.500219       -13.6116
 178   2.0000      -0.497035       -13.5250
 179   2.0000      -0.494767       -13.4633
 180   2.0000      -0.493177       -13.4200
 181   2.0000      -0.490829       -13.3561
 182   2.0000      -0.490256       -13.3406
 183   2.0000      -0.486249       -13.2315
 184   2.0000      -0.484096       -13.1729
 185   2.0000      -0.479687       -13.0529
 186   2.0000      -0.474058       -12.8998
 187   2.0000      -0.473126       -12.8744
 188   2.0000      -0.468514       -12.7489
 189   2.0000      -0.468150       -12.7390
 190   2.0000      -0.467574       -12.7233
 191   2.0000      -0.465022       -12.6539
 192   2.0000      -0.462980       -12.5983
 193   2.0000      -0.460897       -12.5416
 194   2.0000      -0.457807       -12.4576
 195   2.0000      -0.454279       -12.3616
 196   2.0000      -0.452251       -12.3064
 197   2.0000      -0.446538       -12.1509
 198   2.0000      -0.444247       -12.0886
 199   2.0000      -0.433208       -11.7882
 200   2.0000      -0.432732       -11.7752
 201   2.0000      -0.430294       -11.7089
 202   2.0000      -0.427041       -11.6204
 203   2.0000      -0.424376       -11.5478
 204   2.0000      -0.421316       -11.4646
 205   2.0000      -0.418640       -11.3918
 206   2.0000      -0.413550       -11.2533
 207   2.0000      -0.404222       -10.9994
 208   2.0000      -0.402009       -10.9392
 209   2.0000      -0.396306       -10.7840
 210   2.0000      -0.389370       -10.5953
 211   2.0000      -0.387656       -10.5487
 212   2.0000      -0.385314       -10.4849
 213   2.0000      -0.377929       -10.2840
 214   2.0000      -0.366382        -9.9698
 215   2.0000      -0.365190        -9.9373
 216   2.0000      -0.361165        -9.8278
 217   2.0000      -0.360506        -9.8099
 218   2.0000      -0.353880        -9.6296
 219   2.0000      -0.353178        -9.6105
 220   2.0000      -0.349708        -9.5160
 221   2.0000      -0.345515        -9.4019
 222   2.0000      -0.342958        -9.3324
 223   2.0000      -0.342815        -9.3285
 224   2.0000      -0.340499        -9.2654
 225   2.0000      -0.337021        -9.1708
 226   2.0000      -0.334925        -9.1138
 227   2.0000      -0.330024        -8.9804
 228   2.0000      -0.327074        -8.9001
 229   2.0000      -0.323453        -8.8016
 230   2.0000      -0.319628        -8.6975
 231   2.0000      -0.303625        -8.2621
 232   2.0000      -0.280890        -7.6434
 233   2.0000      -0.256871        -6.9898
 234   2.0000      -0.221733        -6.0337
 235   2.0000      -0.215319        -5.8591
 236   0.0000      -0.084640        -2.3032
 237   0.0000      -0.076576        -2.0837
 238   0.0000      -0.061017        -1.6604
 239   0.0000      -0.029435        -0.8010
 240   0.0000      -0.024043        -0.6542

MULLIKEN ATOMIC CHARGES
-----------------------
   0 C :   -0.026071
   1 C :   -0.065366
   2 C :    0.057089
   3 C :    0.028562
   4 C :   -0.063278
   5 S :    0.088035
   6 C :   -0.053682
   7 C :    0.033310
   8 C :    0.030435
   9 C :   -0.002368
  10 S :    0.105567
  11 C :   -0.059011
  12 C :    0.092667
  13 O :   -0.230155
  14 C :   -0.032013
  15 C :    0.155417
  16 O :   -0.153819
  17 N :   -0.165893
  18 C :    0.179114
  19 O :   -0.135394
  20 C :   -0.064926
  21 C :    0.120510
  22 C :   -0.015515
  23 C :    0.016592
  24 C :   -0.114785
  25 S :    0.150885
  26 C :   -0.139201
  27 C :   -0.029233
  28 C :   -0.037510
  29 S :    0.732730
  30 O :   -0.455697
  31 O :   -0.449479
  32 C :   -0.009294
  33 C :   -0.012981
  34 C :    0.078868
  35 C :    0.038806
  36 C :   -0.039090
  37 C :    0.087589
  38 O :   -0.224030
  39 C :   -0.034832
  40 C :    0.161749
  41 O :   -0.154593
  42 N :   -0.169395
  43 C :    0.158671
  44 O :   -0.151212
  45 C :   -0.033704
  46 C :    0.111012
  47 C :   -0.054402
  48 C :    0.035728
  49 C :   -0.029491
  50 C :   -0.006256
  51 C :    0.033167
  52 C :    0.032182
  53 C :   -0.052421
  54 S :    0.078166
  55 C :   -0.063478
  56 C :    0.029025
  57 C :    0.057876
  58 C :   -0.068073
  59 S :    0.088763
  60 C :   -0.022792
  61 H :    0.023661
  62 H :    0.025663
  63 H :   -0.008082
  64 H :   -0.008635
  65 H :   -0.011112
  66 H :   -0.006820
  67 H :    0.006258
  68 H :    0.135597
  69 H :   -0.002201
  70 H :    0.040271
  71 H :    0.050731
  72 H :    0.068091
  73 H :    0.048301
  74 H :    0.025687
  75 H :    0.043200
  76 H :    0.032919
  77 H :    0.006854
  78 H :    0.008429
  79 H :    0.134959
  80 H :    0.008706
  81 H :    0.011676
  82 H :   -0.011237
  83 H :   -0.009517
  84 H :   -0.010753
  85 H :   -0.009716
  86 H :   -0.007717
  87 H :    0.024251
  88 H :    0.027461
Sum of atomic charges:   -0.0000000

LOEWDIN ATOMIC CHARGES
----------------------
   0 C :   -0.067531
   1 C :   -0.140160
   2 C :   -0.024583
   3 C :   -0.027064
   4 C :   -0.166625
   5 S :    0.357802
   6 C :   -0.189425
   7 C :   -0.021741
   8 C :   -0.037129
   9 C :   -0.125715
  10 S :    0.387749
  11 C :   -0.086720
  12 C :    0.066667
  13 O :    0.003450
  14 C :   -0.104003
  15 C :    0.082417
  16 O :   -0.170524
  17 N :   -0.007403
  18 C :    0.085735
  19 O :   -0.147426
  20 C :   -0.091082
  21 C :    0.062696
  22 C :   -0.039558
  23 C :   -0.007455
  24 C :   -0.154636
  25 S :    0.457626
  26 C :   -0.174977
  27 C :   -0.054601
  28 C :   -0.214641
  29 S :    1.167560
  30 O :   -0.504821
  31 O :   -0.501786
  32 C :   -0.134035
  33 C :   -0.046363
  34 C :   -0.029553
  35 C :   -0.023356
  36 C :   -0.042170
  37 C :    0.065135
  38 O :    0.005335
  39 C :   -0.098228
  40 C :    0.082682
  41 O :   -0.170926
  42 N :   -0.008503
  43 C :    0.084341
  44 O :   -0.166902
  45 C :   -0.106505
  46 C :    0.074602
  47 C :   -0.052868
  48 C :   -0.001857
  49 C :   -0.069248
  50 C :   -0.130471
  51 C :   -0.038070
  52 C :   -0.022457
  53 C :   -0.184826
  54 S :    0.369829
  55 C :   -0.169013
  56 C :   -0.027570
  57 C :   -0.024583
  58 C :   -0.140724
  59 S :    0.359012
  60 C :   -0.065313
  61 H :    0.030335
  62 H :    0.028082
  63 H :    0.034885
  64 H :    0.033294
  65 H :    0.032067
  66 H :    0.035559
  67 H :    0.049214
  68 H :    0.093130
  69 H :    0.032415
  70 H :    0.040209
  71 H :    0.031785
  72 H :    0.043189
  73 H :    0.032259
  74 H :    0.035777
  75 H :    0.037408
  76 H :    0.041086
  77 H :    0.033903
  78 H :    0.043468
  79 H :    0.092581
  80 H :    0.044362
  81 H :    0.026482
  82 H :    0.034145
  83 H :    0.034600
  84 H :    0.032710
  85 H :    0.033006
  86 H :    0.035053
  87 H :    0.030629
  88 H :    0.028879

  Mayer bond orders larger than 0.100000
B(  0-C ,  1-C ) :   1.8660 B(  0-C , 61-H ) :   0.9509 B(  0-C , 62-H ) :   0.9423
B(  1-C ,  2-C ) :   1.0778 B(  1-C ,  5-S ) :   1.0058 B(  2-C ,  3-C ) :   1.6643
B(  2-C , 63-H ) :   0.9935 B(  3-C ,  4-C ) :   1.1485 B(  3-C , 64-H ) :   0.9922
B(  4-C ,  5-S ) :   1.0534 B(  4-C ,  6-C ) :   1.5619 B(  6-C ,  7-C ) :   1.1690
B(  6-C , 10-S ) :   1.0152 B(  7-C ,  8-C ) :   1.6071 B(  7-C , 65-H ) :   0.9946
B(  8-C ,  9-C ) :   1.1291 B(  8-C , 66-H ) :   1.0015 B(  9-C , 10-S ) :   1.0618
B(  9-C , 11-C ) :   1.5431 B( 11-C , 12-C ) :   1.2134 B( 11-C , 67-H ) :   0.9639
B( 12-C , 13-O ) :   1.1237 B( 12-C , 14-C ) :   1.3681 B( 13-O , 21-C ) :   1.1170
B( 14-C , 15-C ) :   0.8920 B( 14-C , 20-C ) :   1.2885 B( 15-C , 16-O ) :   2.2568
B( 15-C , 17-N ) :   1.0761 B( 17-N , 18-C ) :   1.0862 B( 17-N , 68-H ) :   0.9153
B( 18-C , 19-O ) :   2.2162 B( 18-C , 20-C ) :   0.8766 B( 20-C , 21-C ) :   1.4294
B( 21-C , 22-C ) :   1.1737 B( 22-C , 23-C ) :   1.6318 B( 22-C , 69-H ) :   0.9584
B( 23-C , 24-C ) :   1.1627 B( 23-C , 70-H ) :   0.9357 B( 24-C , 25-S ) :   1.1460
B( 24-C , 26-C ) :   0.1003 B( 24-C , 28-C ) :   1.5463 B( 25-S , 26-C ) :   1.1095
B( 26-C , 27-C ) :   1.5189 B( 26-C , 35-C ) :   1.1001 B( 27-C , 28-C ) :   1.3171
B( 27-C , 34-C ) :   1.0555 B( 28-C , 29-S ) :   0.8029 B( 29-S , 30-O ) :   1.7136
B( 29-S , 31-O ) :   1.7024 B( 29-S , 32-C ) :   0.8745 B( 32-C , 33-C ) :   1.0235
B( 32-C , 71-H ) :   0.9377 B( 32-C , 72-H ) :   0.9330 B( 33-C , 34-C ) :   1.0807
B( 33-C , 73-H ) :   0.9443 B( 33-C , 74-H ) :   0.9306 B( 34-C , 75-H ) :   0.9093
B( 34-C , 76-H ) :   0.9122 B( 35-C , 36-C ) :   1.6398 B( 35-C , 77-H ) :   0.9629
B( 36-C , 37-C ) :   1.1833 B( 36-C , 78-H ) :   0.9543 B( 37-C , 38-O ) :   1.1427
B( 37-C , 39-C ) :   1.4051 B( 38-O , 46-C ) :   1.1379 B( 39-C , 40-C ) :   0.8810
B( 39-C , 45-C ) :   1.2624 B( 40-C , 41-O ) :   2.2538 B( 40-C , 42-N ) :   1.0877
B( 42-N , 43-C ) :   1.0668 B( 42-N , 79-H ) :   0.9149 B( 43-C , 44-O ) :   2.2612
B( 43-C , 45-C ) :   0.8913 B( 45-C , 46-C ) :   1.3757 B( 46-C , 47-C ) :   1.1903
B( 47-C , 48-C ) :   1.5741 B( 47-C , 80-H ) :   0.9695 B( 48-C , 49-C ) :   1.1557
B( 48-C , 81-H ) :   0.9809 B( 49-C , 50-C ) :   1.5496 B( 49-C , 82-H ) :   0.9859
B( 50-C , 51-C ) :   1.1387 B( 50-C , 54-S ) :   1.0432 B( 51-C , 52-C ) :   1.6001
B( 51-C , 83-H ) :   1.0002 B( 52-C , 53-C ) :   1.1766 B( 52-C , 84-H ) :   0.9928
B( 53-C , 54-S ) :   1.0333 B( 53-C , 55-C ) :   1.5509 B( 55-C , 56-C ) :   1.1511
B( 55-C , 59-S ) :   1.0537 B( 56-C , 57-C ) :   1.6633 B( 56-C , 85-H ) :   0.9922
B( 57-C , 58-C ) :   1.0790 B( 57-C , 86-H ) :   0.9930 B( 58-C , 59-S ) :   1.0056
B( 58-C , 60-C ) :   1.8644 B( 60-C , 87-H ) :   0.9513 B( 60-C , 88-H ) :   0.9422

-----------------------------------------------------------------------------
         ABSORPTION SPECTRUM VIA TRANSITION ELECTRIC DIPOLE MOMENTS
-----------------------------------------------------------------------------
State   Energy  Wavelength   fosc         T2         TX        TY        TZ
        (cm-1)    (nm)                  (au**2)     (au)      (au)      (au)
-----------------------------------------------------------------------------
   0   14945.9    669.1   0.661762081  14.57661  -1.07723   3.60365   0.65568
   1   16913.4    591.2   1.008825524  19.63634  -4.23445  -0.61279   1.15337
   2   19600.6    510.2   0.125138409   2.10182   0.32695   0.69326  -1.23058
   3   20698.6    483.1   1.441409738  22.92569   2.10236  -1.96272   3.82799
   4   21830.6    458.1   0.003995454   0.06025   0.16011  -0.10984  -0.15017
   5   23764.3    420.8   0.021550260   0.29854   0.23238   0.00072  -0.49451
   6   24487.5    408.4   0.956940892  12.86522   1.47182  -0.37755   3.24906
   7   26164.0    382.2   0.383719568   4.82820  -1.26997   0.18392  -1.78369
   8   27665.0    361.5   0.047550635   0.56585  -0.17527   0.24724  -0.68848
   9   27763.1    360.2   0.162404595   1.92578   0.17103  -0.22579   1.35851
  10   28913.8    345.9   0.095872808   1.09161  -0.88961  -0.07445  -0.54282
  11   29921.8    334.2   0.010868189   0.11958   0.18400  -0.21250  -0.20141
  12   30203.7    331.1   0.056661515   0.61759  -0.13535   0.07067  -0.77090
  13   31007.6    322.5   0.177789606   1.88761  -1.18641  -0.21251   0.65947
  14   32365.6    309.0   0.166394766   1.69251   0.42211   0.58496   1.08266
  15   33238.3    300.9   0.005511762   0.05459   0.16408   0.16623   0.00601
  16   33359.4    299.8   0.003159908   0.03118   0.05539   0.04011  -0.16281
  17   33706.1    296.7   0.063208705   0.61737  -0.00086  -0.34496  -0.70596
  18   34761.2    287.7   0.011020923   0.10438  -0.23754  -0.02656  -0.21736
  19   34826.1    287.1   0.074833115   0.70740   0.81998  -0.10925  -0.15199
  20   35317.5    283.1   0.040133031   0.37410   0.40523   0.41933  -0.18452
  21   36182.4    276.4   0.026370557   0.23994  -0.10566  -0.27735   0.38968
  22   36816.4    271.6   0.017387964   0.15548  -0.06079   0.35233  -0.16629
  23   37070.3    269.8   0.162828753   1.44604  -1.16363  -0.07109   0.29488
  24   37359.7    267.7   0.020575926   0.18131  -0.06425   0.21088  -0.36430
  25   37937.1    263.6   0.029567926   0.25659  -0.40336  -0.19396  -0.23720
  26   38366.1    260.6   0.066029275   0.56658   0.20332   0.44479  -0.57220
  27   39083.5    255.9   0.139958445   1.17891  -0.61071   0.49211  -0.75085
  28   39239.4    254.8   0.002651836   0.02225   0.03190  -0.10315   0.10291
  29   39308.6    254.4   0.003119130   0.02612   0.04529   0.14943   0.04176
  30   39731.8    251.7   0.032494428   0.26924   0.27927   0.36532   0.24041
  31   39877.1    250.8   0.010111565   0.08348   0.14982   0.24476   0.03348

FINAL SINGLE POINT ENERGY     -4828.209004333901

DIPOLE MOMENT
-------------
                                X             Y             Z
Electronic contribution:     -2.44371       5.23775      15.32721
Nuclear contribution   :      5.03579      -4.89531     -18.28505
                        -----------------------------------------
Total Dipole Moment    :      2.59208       0.34244      -2.95784
                        -----------------------------------------
Magnitude (a.u.)       :      3.94778
Magnitude (Debye)      :     10.03446

Rotational constants in cm-1:     0.000875     0.000520     0.000456
Rotational constants in MHz :    26.225607    15.574739    13.680026

                             ****ORCA TERMINATED NORMALLY****
TOTAL RUN TIME: 0 days 0 hours 6 minutes 59 seconds 601 msec
