                         Program Version 4.2.0 -  RELEASE  -
|  1> # ORCA input file
|  2> # SCF done       -150.560782956139          0.000312003742
|  3> ! CAM-B3LYP def2-SVP def2/J RIJCOSX Grid4 TightSCF
|  4> %maxcore 5000
|  5> %tddft
|  6>     Mode sTDDFT
|  7>     Ethresh 5.0
|  8>     maxcore 5000
|  9> end
| 10>
| 11> %pal
| 12>   nprocs 6
| 13>   end
| 14> * xyz 0 1
| 15>    C        3.31982        -2.83263       -10.12063
| 16>    C        4.35649        -3.63616        -9.84845
| 17>    C        5.66536        -3.61166       -10.43763
| 18>    C        6.50836        -4.55492        -9.96491
| 19>    C        5.94347        -5.40098        -8.96831
| 20>    S        4.28315        -4.93989        -8.65190
| 21>    C        6.55289        -6.44624        -8.31884
| 22>    C        7.87478        -6.93070        -8.48732
| 23>    C        8.17355        -7.99703        -7.70369
| 24>    C        7.11325        -8.43622        -6.86032
| 25>    S        5.71492        -7.40182        -7.10912
| 26>    C        7.19151        -9.51959        -6.02975
| 27>    C        6.20974       -10.07619        -5.17224
| 28>    C        4.95548        -9.53003        -4.87943
| 29>    N        4.02995       -10.07481        -4.10968
| 30>    C        4.22059       -11.25419        -3.52674
| 31>    C        5.46385       -11.91714        -3.70250
| 32>    C        6.47228       -11.31818        -4.52420
| 33>    N        7.57311       -12.06269        -4.57850
| 34>    S        7.35182       -13.38298        -3.67985
| 35>    N        5.85124       -13.07775        -3.18643
| 36>    C        3.18151       -11.82268        -2.74336
| 37>    S        3.40344       -13.33507        -1.94296
| 38>    C        1.79088       -13.25994        -1.27763
| 39>    C        1.13153       -12.10360        -1.68656
| 40>    C        1.91968       -11.29447        -2.51370
| 41>    C        1.46699       -10.00694        -3.12167
| 42>    C        1.76950        -9.97849        -4.62911
| 43>    O        1.73197       -10.97656        -5.30754
| 44>    C        1.82141        -8.59135        -5.22191
| 45>    C       -0.04654        -9.82593        -2.93145
| 46>    C       -0.45181       -10.20098        -1.51098
| 47>    C       -0.24931       -11.69738        -1.28527
| 48>    C        1.28303       -14.32801        -0.48564
| 49>    S       -0.43095       -14.55891        -0.33709
| 50>    C       -0.21438       -16.04217         0.55622
| 51>    C        1.13623       -16.30629         0.75530
| 52>    C        1.97499       -15.32148         0.20309
| 53>    C        3.46225       -15.32151         0.39977
| 54>    C        4.03855       -14.00493         0.91616
| 55>    O        5.18203       -13.69599         0.70100
| 56>    C        3.13380       -13.18545         1.80114
| 57>    C        3.89315       -16.35815         1.45573
| 58>    C        3.15226       -17.66864         1.24791
| 59>    C        1.66459       -17.47289         1.51674
| 60>    C       -1.39627       -16.67916         1.01043
| 61>    C       -1.75093       -17.98838         1.24550
| 62>    C       -3.09910       -18.16061         1.72476
| 63>    C       -3.87136       -16.96413         1.88502
| 64>    O       -4.98967       -16.77376         2.26665
| 65>    S       -2.76826       -15.60646         1.34614
| 66>    C       -3.34573       -19.49807         1.85774
| 67>    N       -2.23162       -20.17811         1.48347
| 68>    C       -1.20579       -19.32000         1.06107
| 69>    O       -0.14368       -19.72730         0.63143
| 70>    H        3.40771        -2.05381       -10.85732
| 71>    H        2.37542        -2.93793        -9.61897
| 72>    H        5.91290        -2.88609       -11.19199
| 73>    H        7.52424        -4.68128       -10.29474
| 74>    H        8.55909        -6.48122        -9.18432
| 75>    H        9.12429        -8.50065        -7.69914
| 76>    H        8.12781       -10.06379        -6.04569
| 77>    H        4.67907        -8.56959        -5.28765
| 78>    H        2.00398        -9.18179        -2.64377
| 79>    H        2.36292        -7.90242        -4.58315
| 80>    H        0.79765        -8.23524        -5.33218
| 81>    H        2.27613        -8.62618        -6.20769
| 82>    H       -0.57466       -10.46931        -3.63862
| 83>    H       -0.31874        -8.79068        -3.14108
| 84>    H        0.15376        -9.63565        -0.79902
| 85>    H       -1.49921        -9.94779        -1.34083
| 86>    H       -0.97494       -12.25730        -1.88316
| 87>    H       -0.43206       -11.94851        -0.23747
| 88>    H        3.96103       -15.56349        -0.54509
| 89>    H        2.58477       -12.48017         1.17929
| 90>    H        3.73317       -12.61539         2.50694
| 91>    H        2.41606       -13.80851         2.32677
| 92>    H        3.67244       -15.97788         2.45665
| 93>    H        4.97165       -16.50011         1.38244
| 94>    H        3.29301       -18.01280         0.22228
| 95>    H        3.54535       -18.43344         1.91854
| 96>    H        1.48984       -17.31574         2.58615
| 97>    H        1.12675       -18.37571         1.22639
| 98>    H       -4.23806       -19.99856         2.18279
| 99>    H       -2.13889       -21.18168         1.45700
|100> *
|101>
|102>                          ****END OF INPUT****

CARTESIAN COORDINATES (ANGSTROEM)
---------------------------------
  C      3.319820   -2.832630  -10.120630
  C      4.356490   -3.636160   -9.848450
  C      5.665360   -3.611660  -10.437630
  C      6.508360   -4.554920   -9.964910
  C      5.943470   -5.400980   -8.968310
  S      4.283150   -4.939890   -8.651900
  C      6.552890   -6.446240   -8.318840
  C      7.874780   -6.930700   -8.487320
  C      8.173550   -7.997030   -7.703690
  C      7.113250   -8.436220   -6.860320
  S      5.714920   -7.401820   -7.109120
  C      7.191510   -9.519590   -6.029750
  C      6.209740  -10.076190   -5.172240
  C      4.955480   -9.530030   -4.879430
  N      4.029950  -10.074810   -4.109680
  C      4.220590  -11.254190   -3.526740
  C      5.463850  -11.917140   -3.702500
  C      6.472280  -11.318180   -4.524200
  N      7.573110  -12.062690   -4.578500
  S      7.351820  -13.382980   -3.679850
  N      5.851240  -13.077750   -3.186430
  C      3.181510  -11.822680   -2.743360
  S      3.403440  -13.335070   -1.942960
  C      1.790880  -13.259940   -1.277630
  C      1.131530  -12.103600   -1.686560
  C      1.919680  -11.294470   -2.513700
  C      1.466990  -10.006940   -3.121670
  C      1.769500   -9.978490   -4.629110
  O      1.731970  -10.976560   -5.307540
  C      1.821410   -8.591350   -5.221910
  C     -0.046540   -9.825930   -2.931450
  C     -0.451810  -10.200980   -1.510980
  C     -0.249310  -11.697380   -1.285270
  C      1.283030  -14.328010   -0.485640
  S     -0.430950  -14.558910   -0.337090
  C     -0.214380  -16.042170    0.556220
  C      1.136230  -16.306290    0.755300
  C      1.974990  -15.321480    0.203090
  C      3.462250  -15.321510    0.399770
  C      4.038550  -14.004930    0.916160
  O      5.182030  -13.695990    0.701000
  C      3.133800  -13.185450    1.801140
  C      3.893150  -16.358150    1.455730
  C      3.152260  -17.668640    1.247910
  C      1.664590  -17.472890    1.516740
  C     -1.396270  -16.679160    1.010430
  C     -1.750930  -17.988380    1.245500
  C     -3.099100  -18.160610    1.724760
  C     -3.871360  -16.964130    1.885020
  O     -4.989670  -16.773760    2.266650
  S     -2.768260  -15.606460    1.346140
  C     -3.345730  -19.498070    1.857740
  N     -2.231620  -20.178110    1.483470
  C     -1.205790  -19.320000    1.061070
  O     -0.143680  -19.727300    0.631430
  H      3.407710   -2.053810  -10.857320
  H      2.375420   -2.937930   -9.618970
  H      5.912900   -2.886090  -11.191990
  H      7.524240   -4.681280  -10.294740
  H      8.559090   -6.481220   -9.184320
  H      9.124290   -8.500650   -7.699140
  H      8.127810  -10.063790   -6.045690
  H      4.679070   -8.569590   -5.287650
  H      2.003980   -9.181790   -2.643770
  H      2.362920   -7.902420   -4.583150
  H      0.797650   -8.235240   -5.332180
  H      2.276130   -8.626180   -6.207690
  H     -0.574660  -10.469310   -3.638620
  H     -0.318740   -8.790680   -3.141080
  H      0.153760   -9.635650   -0.799020
  H     -1.499210   -9.947790   -1.340830
  H     -0.974940  -12.257300   -1.883160
  H     -0.432060  -11.948510   -0.237470
  H      3.961030  -15.563490   -0.545090
  H      2.584770  -12.480170    1.179290
  H      3.733170  -12.615390    2.506940
  H      2.416060  -13.808510    2.326770
  H      3.672440  -15.977880    2.456650
  H      4.971650  -16.500110    1.382440
  H      3.293010  -18.012800    0.222280
  H      3.545350  -18.433440    1.918540
  H      1.489840  -17.315740    2.586150
  H      1.126750  -18.375710    1.226390
  H     -4.238060  -19.998560    2.182790
  H     -2.138890  -21.181680    1.457000

 Total Charge           Charge          ....    0
 Multiplicity           Mult            ....    1
 Number of Electrons    NEL             ....  432
 Basis Dimension        Dim             ....  944

ORBITAL ENERGIES
----------------

  NO   OCC          E(Eh)            E(eV)
   0   2.0000     -89.024391     -2422.4768
   1   2.0000     -88.957240     -2420.6496
   2   2.0000     -88.948917     -2420.4231
   3   2.0000     -88.945956     -2420.3425
   4   2.0000     -88.940189     -2420.1856
   5   2.0000     -88.936481     -2420.0847
   6   2.0000     -19.207252      -522.6559
   7   2.0000     -19.195154      -522.3267
   8   2.0000     -19.189157      -522.1635
   9   2.0000     -19.167743      -521.5808
  10   2.0000     -14.464255      -393.5924
  11   2.0000     -14.441712      -392.9790
  12   2.0000     -14.436884      -392.8476
  13   2.0000     -14.412844      -392.1934
  14   2.0000     -10.381871      -282.5051
  15   2.0000     -10.376071      -282.3473
  16   2.0000     -10.344131      -281.4781
  17   2.0000     -10.340348      -281.3752
  18   2.0000     -10.337336      -281.2932
  19   2.0000     -10.334830      -281.2250
  20   2.0000     -10.326001      -280.9848
  21   2.0000     -10.322568      -280.8913
  22   2.0000     -10.319534      -280.8088
  23   2.0000     -10.312735      -280.6238
  24   2.0000     -10.312127      -280.6072
  25   2.0000     -10.308315      -280.5035
  26   2.0000     -10.308242      -280.5015
  27   2.0000     -10.307849      -280.4908
  28   2.0000     -10.305010      -280.4136
  29   2.0000     -10.302512      -280.3456
  30   2.0000     -10.299803      -280.2719
  31   2.0000     -10.291153      -280.0365
  32   2.0000     -10.290767      -280.0260
  33   2.0000     -10.288802      -279.9725
  34   2.0000     -10.287188      -279.9286
  35   2.0000     -10.286660      -279.9143
  36   2.0000     -10.286349      -279.9058
  37   2.0000     -10.282979      -279.8141
  38   2.0000     -10.278374      -279.6888
  39   2.0000     -10.278324      -279.6874
  40   2.0000     -10.276509      -279.6380
  41   2.0000     -10.274858      -279.5931
  42   2.0000     -10.273517      -279.5566
  43   2.0000     -10.272676      -279.5337
  44   2.0000     -10.272479      -279.5284
  45   2.0000     -10.271873      -279.5119
  46   2.0000     -10.266476      -279.3650
  47   2.0000     -10.264605      -279.3141
  48   2.0000     -10.264603      -279.3140
  49   2.0000     -10.261457      -279.2284
  50   2.0000     -10.261265      -279.2232
  51   2.0000     -10.256264      -279.0871
  52   2.0000     -10.255036      -279.0537
  53   2.0000     -10.252465      -278.9838
  54   2.0000     -10.246812      -278.8299
  55   2.0000      -8.115931      -220.8457
  56   2.0000      -8.052147      -219.1100
  57   2.0000      -8.042705      -218.8531
  58   2.0000      -8.041591      -218.8228
  59   2.0000      -8.036869      -218.6943
  60   2.0000      -8.034101      -218.6190
  61   2.0000      -6.087140      -165.6395
  62   2.0000      -6.079442      -165.4300
  63   2.0000      -6.078303      -165.3990
  64   2.0000      -6.021505      -163.8535
  65   2.0000      -6.017264      -163.7381
  66   2.0000      -6.014193      -163.6545
  67   2.0000      -6.012137      -163.5986
  68   2.0000      -6.011363      -163.5775
  69   2.0000      -6.007714      -163.4782
  70   2.0000      -6.007334      -163.4679
  71   2.0000      -6.006702      -163.4507
  72   2.0000      -6.004825      -163.3996
  73   2.0000      -6.003623      -163.3669
  74   2.0000      -6.002762      -163.3435
  75   2.0000      -6.002515      -163.3367
  76   2.0000      -5.999462      -163.2537
  77   2.0000      -5.997408      -163.1978
  78   2.0000      -5.995120      -163.1355
  79   2.0000      -1.134851       -30.8809
  80   2.0000      -1.129477       -30.7346
  81   2.0000      -1.124955       -30.6116
  82   2.0000      -1.109487       -30.1907
  83   2.0000      -1.092409       -29.7260
  84   2.0000      -1.061439       -28.8832
  85   2.0000      -1.043486       -28.3947
  86   2.0000      -1.001339       -27.2478
  87   2.0000      -0.993115       -27.0240
  88   2.0000      -0.984733       -26.7959
  89   2.0000      -0.975145       -26.5351
  90   2.0000      -0.969386       -26.3783
  91   2.0000      -0.957563       -26.0566
  92   2.0000      -0.916568       -24.9411
  93   2.0000      -0.913910       -24.8687
  94   2.0000      -0.909795       -24.7568
  95   2.0000      -0.891752       -24.2658
  96   2.0000      -0.882259       -24.0075
  97   2.0000      -0.869562       -23.6620
  98   2.0000      -0.859239       -23.3811
  99   2.0000      -0.857120       -23.3234
 100   2.0000      -0.846237       -23.0273
 101   2.0000      -0.837743       -22.7962
 102   2.0000      -0.830534       -22.6000
 103   2.0000      -0.825288       -22.4572
 104   2.0000      -0.822100       -22.3705
 105   2.0000      -0.819294       -22.2941
 106   2.0000      -0.814822       -22.1724
 107   2.0000      -0.807918       -21.9846
 108   2.0000      -0.797331       -21.6965
 109   2.0000      -0.792808       -21.5734
 110   2.0000      -0.776675       -21.1344
 111   2.0000      -0.759384       -20.6639
 112   2.0000      -0.739753       -20.1297
 113   2.0000      -0.727935       -19.8081
 114   2.0000      -0.727602       -19.7990
 115   2.0000      -0.723710       -19.6931
 116   2.0000      -0.715926       -19.4813
 117   2.0000      -0.713622       -19.4186
 118   2.0000      -0.698013       -18.9939
 119   2.0000      -0.689635       -18.7659
 120   2.0000      -0.681982       -18.5577
 121   2.0000      -0.674188       -18.3456
 122   2.0000      -0.651666       -17.7327
 123   2.0000      -0.642539       -17.4844
 124   2.0000      -0.640270       -17.4226
 125   2.0000      -0.631533       -17.1849
 126   2.0000      -0.625167       -17.0117
 127   2.0000      -0.616177       -16.7670
 128   2.0000      -0.616002       -16.7623
 129   2.0000      -0.613087       -16.6829
 130   2.0000      -0.608488       -16.5578
 131   2.0000      -0.601685       -16.3727
 132   2.0000      -0.599008       -16.2998
 133   2.0000      -0.588709       -16.0196
 134   2.0000      -0.585673       -15.9370
 135   2.0000      -0.582370       -15.8471
 136   2.0000      -0.576684       -15.6924
 137   2.0000      -0.565242       -15.3810
 138   2.0000      -0.561653       -15.2834
 139   2.0000      -0.554693       -15.0940
 140   2.0000      -0.551644       -15.0110
 141   2.0000      -0.547018       -14.8851
 142   2.0000      -0.546563       -14.8727
 143   2.0000      -0.540433       -14.7059
 144   2.0000      -0.539104       -14.6698
 145   2.0000      -0.534466       -14.5436
 146   2.0000      -0.529615       -14.4115
 147   2.0000      -0.528086       -14.3700
 148   2.0000      -0.524225       -14.2649
 149   2.0000      -0.520022       -14.1505
 150   2.0000      -0.516310       -14.0495
 151   2.0000      -0.509972       -13.8770
 152   2.0000      -0.509656       -13.8684
 153   2.0000      -0.507770       -13.8171
 154   2.0000      -0.504340       -13.7238
 155   2.0000      -0.503722       -13.7070
 156   2.0000      -0.501532       -13.6474
 157   2.0000      -0.497059       -13.5257
 158   2.0000      -0.496332       -13.5059
 159   2.0000      -0.495552       -13.4847
 160   2.0000      -0.493316       -13.4238
 161   2.0000      -0.490637       -13.3509
 162   2.0000      -0.487309       -13.2604
 163   2.0000      -0.486201       -13.2302
 164   2.0000      -0.484640       -13.1877
 165   2.0000      -0.481060       -13.0903
 166   2.0000      -0.477888       -13.0040
 167   2.0000      -0.476446       -12.9648
 168   2.0000      -0.472695       -12.8627
 169   2.0000      -0.468187       -12.7400
 170   2.0000      -0.464996       -12.6532
 171   2.0000      -0.464579       -12.6418
 172   2.0000      -0.463615       -12.6156
 173   2.0000      -0.457170       -12.4402
 174   2.0000      -0.452824       -12.3220
 175   2.0000      -0.450067       -12.2469
 176   2.0000      -0.442454       -12.0398
 177   2.0000      -0.440578       -11.9887
 178   2.0000      -0.435714       -11.8564
 179   2.0000      -0.432065       -11.7571
 180   2.0000      -0.429015       -11.6741
 181   2.0000      -0.424858       -11.5610
 182   2.0000      -0.423476       -11.5234
 183   2.0000      -0.422507       -11.4970
 184   2.0000      -0.420807       -11.4507
 185   2.0000      -0.414453       -11.2778
 186   2.0000      -0.412914       -11.2360
 187   2.0000      -0.410585       -11.1726
 188   2.0000      -0.406560       -11.0631
 189   2.0000      -0.405772       -11.0416
 190   2.0000      -0.403240       -10.9727
 191   2.0000      -0.398611       -10.8468
 192   2.0000      -0.392279       -10.6745
 193   2.0000      -0.389060       -10.5869
 194   2.0000      -0.388143       -10.5619
 195   2.0000      -0.386231       -10.5099
 196   2.0000      -0.384734       -10.4691
 197   2.0000      -0.383347       -10.4314
 198   2.0000      -0.359548        -9.7838
 199   2.0000      -0.352755        -9.5990
 200   2.0000      -0.349025        -9.4975
 201   2.0000      -0.340031        -9.2527
 202   2.0000      -0.338559        -9.2126
 203   2.0000      -0.335469        -9.1286
 204   2.0000      -0.330521        -8.9939
 205   2.0000      -0.327725        -8.9179
 206   2.0000      -0.324939        -8.8420
 207   2.0000      -0.319723        -8.7001
 208   2.0000      -0.314348        -8.5538
 209   2.0000      -0.303842        -8.2680
 210   2.0000      -0.301504        -8.2043
 211   2.0000      -0.296535        -8.0691
 212   2.0000      -0.289581        -7.8799
 213   2.0000      -0.275097        -7.4858
 214   2.0000      -0.247703        -6.7403
 215   2.0000      -0.215562        -5.8657
 216   0.0000      -0.089472        -2.4346
 217   0.0000      -0.063311        -1.7228
 218   0.0000      -0.045190        -1.2297
 219   0.0000      -0.012303        -0.3348
 220   0.0000       0.010480         0.2852

MULLIKEN ATOMIC CHARGES
-----------------------
   0 C :   -0.025843
   1 C :   -0.066471
   2 C :    0.054086
   3 C :    0.030333
   4 C :   -0.062941
   5 S :    0.083657
   6 C :   -0.035815
   7 C :    0.031190
   8 C :    0.033174
   9 C :    0.003192
  10 S :    0.053598
  11 C :   -0.050767
  12 C :    0.026833
  13 C :   -0.030466
  14 N :   -0.103534
  15 C :    0.065262
  16 C :   -0.027401
  17 C :    0.054444
  18 N :   -0.278661
  19 S :    0.526097
  20 N :   -0.276706
  21 C :   -0.131071
  22 S :    0.179301
  23 C :   -0.134212
  24 C :   -0.096302
  25 C :   -0.003203
  26 C :    0.051197
  27 C :   -0.029895
  28 O :   -0.206978
  29 C :    0.088137
  30 C :    0.046960
  31 C :    0.064215
  32 C :    0.100544
  33 C :   -0.121123
  34 S :    0.122837
  35 C :   -0.123489
  36 C :   -0.049684
  37 C :   -0.034255
  38 C :   -0.010345
  39 C :   -0.066551
  40 O :   -0.174449
  41 C :    0.094031
  42 C :    0.046694
  43 C :    0.051008
  44 C :    0.123317
  45 C :   -0.126752
  46 C :    0.019124
  47 C :   -0.011111
  48 C :    0.049336
  49 O :   -0.146014
  50 S :    0.015260
  51 C :    0.070986
  52 N :   -0.113428
  53 C :    0.152262
  54 O :   -0.189004
  55 H :    0.022303
  56 H :    0.023853
  57 H :   -0.009485
  58 H :   -0.010282
  59 H :   -0.013397
  60 H :   -0.010088
  61 H :   -0.004692
  62 H :    0.000126
  63 H :    0.004277
  64 H :    0.019157
  65 H :    0.025180
  66 H :    0.024011
  67 H :    0.012915
  68 H :   -0.000829
  69 H :    0.002482
  70 H :    0.001434
  71 H :    0.027445
  72 H :    0.019268
  73 H :    0.031738
  74 H :    0.045349
  75 H :    0.030409
  76 H :    0.021308
  77 H :   -0.003270
  78 H :    0.016303
  79 H :    0.008363
  80 H :    0.001839
  81 H :    0.006420
  82 H :    0.034788
  83 H :    0.026583
  84 H :    0.135887
Sum of atomic charges:   -0.0000000

LOEWDIN ATOMIC CHARGES
----------------------
   0 C :   -0.071609
   1 C :   -0.139814
   2 C :   -0.027310
   3 C :   -0.026343
   4 C :   -0.171649
   5 S :    0.353663
   6 C :   -0.182762
   7 C :   -0.033430
   8 C :   -0.029412
   9 C :   -0.136511
  10 S :    0.380448
  11 C :   -0.051949
  12 C :   -0.059543
  13 C :    0.012998
  14 N :   -0.043221
  15 C :    0.011913
  16 C :   -0.068029
  17 C :   -0.033304
  18 N :   -0.286061
  19 S :    0.655669
  20 N :   -0.278500
  21 C :   -0.175859
  22 S :    0.520812
  23 C :   -0.198190
  24 C :   -0.050281
  25 C :   -0.018590
  26 C :   -0.053418
  27 C :    0.086705
  28 O :   -0.183695
  29 C :   -0.077345
  30 C :   -0.020201
  31 C :   -0.023933
  32 C :   -0.042111
  33 C :   -0.164923
  34 S :    0.469495
  35 C :   -0.213885
  36 C :   -0.012451
  37 C :   -0.069332
  38 C :   -0.064408
  39 C :    0.072423
  40 O :   -0.145860
  41 C :   -0.080316
  42 C :   -0.013330
  43 C :   -0.024213
  44 C :   -0.036012
  45 C :   -0.094747
  46 C :   -0.130391
  47 C :   -0.153832
  48 C :   -0.042310
  49 O :   -0.150489
  50 S :    0.306811
  51 C :    0.094869
  52 N :    0.037021
  53 C :    0.079523
  54 O :   -0.186210
  55 H :    0.029566
  56 H :    0.027356
  57 H :    0.034293
  58 H :    0.032980
  59 H :    0.031798
  60 H :    0.034738
  61 H :    0.039633
  62 H :    0.004142
  63 H :    0.033991
  64 H :    0.028914
  65 H :    0.040310
  66 H :    0.035132
  67 H :    0.027265
  68 H :    0.022705
  69 H :    0.022385
  70 H :    0.025742
  71 H :    0.031249
  72 H :    0.023083
  73 H :    0.034519
  74 H :    0.049359
  75 H :    0.038049
  76 H :    0.031941
  77 H :    0.021123
  78 H :    0.030942
  79 H :    0.026203
  80 H :    0.026998
  81 H :    0.032173
  82 H :    0.035957
  83 H :    0.038034
  84 H :    0.092848

  Mayer bond orders larger than 0.100000
B(  0-C ,  1-C ) :   1.8665 B(  0-C , 55-H ) :   0.9510 B(  0-C , 56-H ) :   0.9410
B(  1-C ,  2-C ) :   1.0782 B(  1-C ,  5-S ) :   1.0070 B(  2-C ,  3-C ) :   1.6643
B(  2-C , 57-H ) :   0.9935 B(  3-C ,  4-C ) :   1.1488 B(  3-C , 58-H ) :   0.9918
B(  4-C ,  5-S ) :   1.0476 B(  4-C ,  6-C ) :   1.5599 B(  6-C ,  7-C ) :   1.1648
B(  6-C , 10-S ) :   1.0290 B(  7-C ,  8-C ) :   1.6085 B(  7-C , 59-H ) :   0.9923
B(  8-C ,  9-C ) :   1.1345 B(  8-C , 60-H ) :   1.0000 B(  9-C , 10-S ) :   1.0383
B(  9-C , 11-C ) :   1.5542 B( 11-C , 12-C ) :   1.1642 B( 11-C , 61-H ) :   0.9726
B( 12-C , 13-C ) :   1.3750 B( 12-C , 17-C ) :   1.1665 B( 13-C , 14-N ) :   1.4126
B( 13-C , 62-H ) :   0.9600 B( 14-N , 15-C ) :   1.5380 B( 14-N , 27-C ) :   0.1046
B( 15-C , 16-C ) :   1.1300 B( 15-C , 21-C ) :   1.1695 B( 16-C , 17-C ) :   1.1838
B( 16-C , 20-N ) :   1.5360 B( 17-C , 18-N ) :   1.5519 B( 18-N , 19-S ) :   1.2598
B( 18-N , 20-N ) :   0.1480 B( 19-S , 20-N ) :   1.2681 B( 21-C , 22-S ) :   1.1509
B( 21-C , 23-C ) :   0.1130 B( 21-C , 25-C ) :   1.4621 B( 22-S , 23-C ) :   1.1192
B( 23-C , 24-C ) :   1.4518 B( 23-C , 33-C ) :   1.1249 B( 24-C , 25-C ) :   1.3690
B( 24-C , 32-C ) :   1.0535 B( 25-C , 26-C ) :   0.9891 B( 26-C , 27-C ) :   0.8890
B( 26-C , 30-C ) :   1.0560 B( 26-C , 63-H ) :   0.8683 B( 27-C , 28-O ) :   2.1841
B( 27-C , 29-C ) :   1.0360 B( 29-C , 64-H ) :   0.9481 B( 29-C , 65-H ) :   0.9392
B( 29-C , 66-H ) :   0.9433 B( 30-C , 31-C ) :   1.0829 B( 30-C , 67-H ) :   0.9318
B( 30-C , 68-H ) :   0.9300 B( 31-C , 32-C ) :   1.0903 B( 31-C , 69-H ) :   0.9389
B( 31-C , 70-H ) :   0.9309 B( 32-C , 71-H ) :   0.9010 B( 32-C , 72-H ) :   0.9086
B( 33-C , 34-S ) :   1.1535 B( 33-C , 35-C ) :   0.1124 B( 33-C , 37-C ) :   1.4600
B( 34-S , 35-C ) :   1.0831 B( 35-C , 36-C ) :   1.4863 B( 35-C , 45-C ) :   1.1641
B( 36-C , 37-C ) :   1.3455 B( 36-C , 44-C ) :   1.0670 B( 37-C , 38-C ) :   0.9527
B( 38-C , 39-C ) :   0.9167 B( 38-C , 42-C ) :   1.0604 B( 38-C , 73-H ) :   0.8729
B( 39-C , 40-O ) :   2.2085 B( 39-C , 41-C ) :   1.0499 B( 41-C , 74-H ) :   0.9237
B( 41-C , 75-H ) :   0.9485 B( 41-C , 76-H ) :   0.9415 B( 42-C , 43-C ) :   1.0733
B( 42-C , 77-H ) :   0.9352 B( 42-C , 78-H ) :   0.9305 B( 43-C , 44-C ) :   1.1012
B( 43-C , 79-H ) :   0.9398 B( 43-C , 80-H ) :   0.9304 B( 44-C , 81-H ) :   0.8941
B( 44-C , 82-H ) :   0.8652 B( 45-C , 46-C ) :   1.5238 B( 45-C , 50-S ) :   1.0831
B( 46-C , 47-C ) :   1.1340 B( 46-C , 53-C ) :   0.9786 B( 47-C , 48-C ) :   0.9476
B( 47-C , 51-C ) :   1.5014 B( 48-C , 49-O ) :   2.2096 B( 48-C , 50-S ) :   0.9619
B( 49-O , 50-S ) :   0.1093 B( 51-C , 52-N ) :   1.2049 B( 51-C , 83-H ) :   0.9885
B( 52-N , 53-C ) :   1.0768 B( 52-N , 84-H ) :   0.9285 B( 53-C , 54-O ) :   2.0687
B( 54-O , 82-H ) :   0.1232

-----------------------------------------------------------------------------
         ABSORPTION SPECTRUM VIA TRANSITION ELECTRIC DIPOLE MOMENTS
-----------------------------------------------------------------------------
State   Energy  Wavelength   fosc         T2         TX        TY        TZ
        (cm-1)    (nm)                  (au**2)     (au)      (au)      (au)
-----------------------------------------------------------------------------
   0   13602.0    735.2   1.397152082  33.81561  -1.72135  -4.24556   3.58159
   1   20617.5    485.0   0.495315359   7.90900  -2.18731  -1.46224   0.99324
   2   22004.4    454.5   0.092552021   1.38469   1.06530   0.45884   0.19822
   3   22902.9    436.6   0.547078871   7.86385   1.11451  -2.18238   1.36343
   4   24663.2    405.5   0.033168689   0.44275  -0.43092   0.43980  -0.25225
   5   26567.3    376.4   0.316351730   3.92011   0.87656  -1.77066  -0.12852
   6   27931.1    358.0   0.026025294   0.30675   0.33108   0.42334  -0.13385
   7   28938.2    345.6   0.037821087   0.43027  -0.58852   0.20712  -0.20252
   8   29335.1    340.9   0.020124166   0.22584   0.34548  -0.32612  -0.01127
   9   29837.1    335.2   0.013569890   0.14973  -0.38622  -0.01435  -0.01874
  10   30489.9    328.0   0.041455032   0.44761  -0.50892  -0.12750   0.41515
  11   31033.2    322.2   0.008194716   0.08693   0.17316   0.07831  -0.22543
  12   31292.0    319.6   0.190957327   2.00899   1.18904   0.25764  -0.72718
  13   31892.9    313.5   0.056271866   0.58086  -0.72963   0.22010  -0.00705
  14   32159.9    310.9   0.028181279   0.28848   0.50455  -0.18387   0.01029
  15   32895.3    304.0   0.008875652   0.08883  -0.22543   0.02221   0.19368
  16   33198.7    301.2   0.003525836   0.03496  -0.08689   0.04866  -0.15826
  17   33393.6    299.5   0.003278344   0.03232  -0.12083  -0.09498  -0.09326
  18   33949.7    294.6   0.013278410   0.12876   0.32636  -0.00522   0.14908
  19   34774.0    287.6   0.029975888   0.28379  -0.32811   0.41605  -0.05504
  20   35285.9    283.4   0.001016218   0.00948  -0.07514   0.02821  -0.05513
  21   35401.0    282.5   0.001157216   0.01076   0.07022  -0.07132   0.02726
  22   35537.1    281.4   0.001237469   0.01146   0.07966  -0.07126   0.00631
  23   35777.2    279.5   0.000494932   0.00455   0.01364   0.05124  -0.04175
  24   36025.0    277.6   0.003488802   0.03188   0.16841   0.00608   0.05902
  25   36754.0    272.1   0.022366788   0.20034   0.40099   0.02526  -0.19726
  26   37324.8    267.9   0.067925105   0.59911  -0.18714  -0.63410   0.40250
  27   37521.8    266.5   0.045805700   0.40189   0.35709   0.28663  -0.43844
  28   37752.5    264.9   0.007342018   0.06402  -0.21144  -0.05551   0.12742
  29   38252.4    261.4   0.000597747   0.00514   0.05056  -0.02102   0.04633
  30   38313.0    261.0   0.069020588   0.59307   0.15336   0.59297  -0.46684
  31   39191.3    255.2   0.014756402   0.12396  -0.34098  -0.08362  -0.02637
  32   39270.4    254.6   0.103680001   0.86917  -0.73291   0.53712  -0.20861
  33   39555.9    252.8   0.014318512   0.11917   0.28211  -0.17171   0.10050

FINAL SINGLE POINT ENERGY     -4486.088627892895

DIPOLE MOMENT
-------------
                                X             Y             Z
Electronic contribution:      2.75236     -19.51016      -3.13449
Nuclear contribution   :     -1.82920      20.16424       2.66956
                        -----------------------------------------
Total Dipole Moment    :      0.92316       0.65407      -0.46493
                        -----------------------------------------
Magnitude (a.u.)       :      1.22319
Magnitude (Debye)      :      3.10911

Rotational constants in cm-1:     0.003154     0.000508     0.000455
Rotational constants in MHz :    94.540833    15.219064    13.635795

                             ****ORCA TERMINATED NORMALLY****
TOTAL RUN TIME: 0 days 0 hours 8 minutes 18 seconds 447 msec
