                         Program Version 4.2.0 -  RELEASE  -
|  1> # ORCA input file
|  2> # SCF done       -170.752070426046          0.000793072507
|  3> ! CAM-B3LYP def2-SVP def2/J RIJCOSX Grid4 TightSCF
|  4> %maxcore 5000
|  5> %tddft
|  6>     Mode sTDDFT
|  7>     Ethresh 5.0
|  8>     maxcore 5000
|  9> end
| 10>
| 11> %pal
| 12>   nprocs 6
| 13>   end
| 14> * xyz 0 1
| 15>    C        0.05660        -0.81524        -0.12460
| 16>    S        0.05112         0.72040         0.63272
| 17>    C        1.18551         1.34580        -0.53329
| 18>    C        1.53618         0.37596        -1.44654
| 19>    C        0.87725        -0.85583        -1.21087
| 20>    C        1.12944        -2.09239        -2.03318
| 21>    C        1.95567        -2.97853        -1.23767
| 22>    N        2.62453        -3.65197        -0.60124
| 23>    C        1.84507        -1.75240        -3.34827
| 24>    C        3.01737        -0.81455        -3.07747
| 25>    C        2.50292         0.54768        -2.58646
| 26>    C        1.80446         1.21256        -3.66867
| 27>    N        1.22446         1.70858        -4.51947
| 28>    C        1.62437         2.70420        -0.42369
| 29>    S        1.53909         3.51210         1.11897
| 30>    C        2.17666         4.98886         0.45828
| 31>    C        2.45025         4.82827        -0.89717
| 32>    C        2.13034         3.54281        -1.38452
| 33>    C        3.06277         5.78103        -1.72984
| 34>    N        3.60669         6.49000        -2.44958
| 35>    C        2.32587         6.11379         1.31272
| 36>    C        2.54454         7.38031         0.88036
| 37>    C        2.66989         8.57132         1.64250
| 38>    N        2.89668         8.74278         2.99715
| 39>    C        3.22747         7.74780         3.98897
| 40>    C        4.57114         7.07926         3.71353
| 41>    C        2.92951        10.10289         3.34608
| 42>    O        3.12793        10.50021         4.48548
| 43>    C        2.68243        10.80814         2.11804
| 44>    C        2.54185         9.83986         1.09229
| 45>    C        2.26253        10.53194        -0.14721
| 46>    O        2.05110        10.14285        -1.27337
| 47>    N        2.27705        11.89843         0.21683
| 48>    C        1.99833        12.93038        -0.75236
| 49>    C        0.55710        13.42493        -0.65799
| 50>    C        2.51231        12.07329         1.55550
| 51>    C        2.56097        13.34634         2.18493
| 52>    C        2.79605        13.44361         3.51187
| 53>    N        2.85321        14.60828         4.23186
| 54>    C        3.14094        14.64537         5.58862
| 55>    C        3.42714        13.43827         6.38743
| 56>    C        3.11040        15.95012         5.99183
| 57>    C        2.78478        16.78129         4.86143
| 58>    C        2.61387        15.92935         3.71418
| 59>    O        2.33808        16.17392         2.56379
| 60>    C        2.73392        18.08267         5.26691
| 61>    C        2.40070        19.29001         4.48550
| 62>    N        3.01983        18.11419         6.62029
| 63>    C        3.26338        16.80577         7.13895
| 64>    O        3.52049        16.58781         8.30196
| 65>    C        3.10977        19.26573         7.39285
| 66>    S        4.14748        20.58332         6.91124
| 67>    C        3.68363        21.48623         8.29472
| 68>    C        2.80959        20.81243         9.08681
| 69>    C        2.49368        19.52141         8.58689
| 70>    C        1.50936        18.60295         9.26066
| 71>    C        0.35688        18.51894         8.39156
| 72>    N       -0.52974        18.48770         7.66996
| 73>    C        1.12484        19.10527        10.65989
| 74>    C        0.88729        20.61179        10.66023
| 75>    C        2.19965        21.34890        10.35276
| 76>    C        3.14656        21.16455        11.43392
| 77>    N        3.89772        21.00760        12.28010
| 78>    H       -0.54393        -1.60785         0.27593
| 79>    H        0.18408        -2.61051        -2.23473
| 80>    H        1.13822        -1.27114        -4.02868
| 81>    H        2.19987        -2.67200        -3.81771
| 82>    H        3.60220        -0.67262        -3.98828
| 83>    H        3.66923        -1.24797        -2.31484
| 84>    H        3.34303         1.18220        -2.27769
| 85>    H        2.23505         3.28587        -2.42283
| 86>    H        2.19100         5.89907         2.36217
| 87>    H        2.57324         7.56730        -0.18569
| 88>    H        2.42580         7.00790         4.06556
| 89>    H        3.27668         8.29334         4.93696
| 90>    H        4.56549         6.56442         2.75572
| 91>    H        4.78960         6.35908         4.49743
| 92>    H        5.36076         7.82667         3.69803
| 93>    H        2.16665        12.47502        -1.73240
| 94>    H        2.70060        13.75744        -0.61881
| 95>    H       -0.13016        12.59631        -0.81124
| 96>    H        0.37603        14.17346        -1.42416
| 97>    H        0.35942        13.86768         0.31543
| 98>    H        2.40446        14.22752         1.58564
| 99>    H        2.95453        12.54529         4.09445
|100>    H        2.58776        12.74304         6.36308
|101>    H        3.62308        13.73155         7.41510
|102>    H        4.29242        12.90549         5.99267
|103>    H        2.00386        18.98645         3.52068
|104>    H        3.28719        19.90340         4.32253
|105>    H        1.66409        19.89384         5.01492
|106>    H        4.08174        22.47116         8.43818
|107>    H        1.94315        17.59773         9.34105
|108>    H        1.93391        18.86604        11.35398
|109>    H        0.22534        18.58374        10.99287
|110>    H        0.50921        20.92963        11.63375
|111>    H        0.14534        20.87267         9.90109
|112>    H        2.02060        22.42652        10.25308
|113> *
|114>
|115>                          ****END OF INPUT****

CARTESIAN COORDINATES (ANGSTROEM)
---------------------------------
  C      0.056600   -0.815240   -0.124600
  S      0.051120    0.720400    0.632720
  C      1.185510    1.345800   -0.533290
  C      1.536180    0.375960   -1.446540
  C      0.877250   -0.855830   -1.210870
  C      1.129440   -2.092390   -2.033180
  C      1.955670   -2.978530   -1.237670
  N      2.624530   -3.651970   -0.601240
  C      1.845070   -1.752400   -3.348270
  C      3.017370   -0.814550   -3.077470
  C      2.502920    0.547680   -2.586460
  C      1.804460    1.212560   -3.668670
  N      1.224460    1.708580   -4.519470
  C      1.624370    2.704200   -0.423690
  S      1.539090    3.512100    1.118970
  C      2.176660    4.988860    0.458280
  C      2.450250    4.828270   -0.897170
  C      2.130340    3.542810   -1.384520
  C      3.062770    5.781030   -1.729840
  N      3.606690    6.490000   -2.449580
  C      2.325870    6.113790    1.312720
  C      2.544540    7.380310    0.880360
  C      2.669890    8.571320    1.642500
  N      2.896680    8.742780    2.997150
  C      3.227470    7.747800    3.988970
  C      4.571140    7.079260    3.713530
  C      2.929510   10.102890    3.346080
  O      3.127930   10.500210    4.485480
  C      2.682430   10.808140    2.118040
  C      2.541850    9.839860    1.092290
  C      2.262530   10.531940   -0.147210
  O      2.051100   10.142850   -1.273370
  N      2.277050   11.898430    0.216830
  C      1.998330   12.930380   -0.752360
  C      0.557100   13.424930   -0.657990
  C      2.512310   12.073290    1.555500
  C      2.560970   13.346340    2.184930
  C      2.796050   13.443610    3.511870
  N      2.853210   14.608280    4.231860
  C      3.140940   14.645370    5.588620
  C      3.427140   13.438270    6.387430
  C      3.110400   15.950120    5.991830
  C      2.784780   16.781290    4.861430
  C      2.613870   15.929350    3.714180
  O      2.338080   16.173920    2.563790
  C      2.733920   18.082670    5.266910
  C      2.400700   19.290010    4.485500
  N      3.019830   18.114190    6.620290
  C      3.263380   16.805770    7.138950
  O      3.520490   16.587810    8.301960
  C      3.109770   19.265730    7.392850
  S      4.147480   20.583320    6.911240
  C      3.683630   21.486230    8.294720
  C      2.809590   20.812430    9.086810
  C      2.493680   19.521410    8.586890
  C      1.509360   18.602950    9.260660
  C      0.356880   18.518940    8.391560
  N     -0.529740   18.487700    7.669960
  C      1.124840   19.105270   10.659890
  C      0.887290   20.611790   10.660230
  C      2.199650   21.348900   10.352760
  C      3.146560   21.164550   11.433920
  N      3.897720   21.007600   12.280100
  H     -0.543930   -1.607850    0.275930
  H      0.184080   -2.610510   -2.234730
  H      1.138220   -1.271140   -4.028680
  H      2.199870   -2.672000   -3.817710
  H      3.602200   -0.672620   -3.988280
  H      3.669230   -1.247970   -2.314840
  H      3.343030    1.182200   -2.277690
  H      2.235050    3.285870   -2.422830
  H      2.191000    5.899070    2.362170
  H      2.573240    7.567300   -0.185690
  H      2.425800    7.007900    4.065560
  H      3.276680    8.293340    4.936960
  H      4.565490    6.564420    2.755720
  H      4.789600    6.359080    4.497430
  H      5.360760    7.826670    3.698030
  H      2.166650   12.475020   -1.732400
  H      2.700600   13.757440   -0.618810
  H     -0.130160   12.596310   -0.811240
  H      0.376030   14.173460   -1.424160
  H      0.359420   13.867680    0.315430
  H      2.404460   14.227520    1.585640
  H      2.954530   12.545290    4.094450
  H      2.587760   12.743040    6.363080
  H      3.623080   13.731550    7.415100
  H      4.292420   12.905490    5.992670
  H      2.003860   18.986450    3.520680
  H      3.287190   19.903400    4.322530
  H      1.664090   19.893840    5.014920
  H      4.081740   22.471160    8.438180
  H      1.943150   17.597730    9.341050
  H      1.933910   18.866040   11.353980
  H      0.225340   18.583740   10.992870
  H      0.509210   20.929630   11.633750
  H      0.145340   20.872670    9.901090
  H      2.020600   22.426520   10.253080

 Total Charge           Charge          ....    0
 Multiplicity           Mult            ....    1
 Number of Electrons    NEL             ....  460
 Basis Dimension        Dim             .... 1069

ORBITAL ENERGIES
----------------

  NO   OCC          E(Eh)            E(eV)
   0   2.0000     -88.978246     -2421.2212
   1   2.0000     -88.976337     -2421.1692
   2   2.0000     -88.974175     -2421.1104
   3   2.0000     -19.216726      -522.9137
   4   2.0000     -19.212899      -522.8096
   5   2.0000     -19.191277      -522.2212
   6   2.0000     -19.185555      -522.0655
   7   2.0000     -14.489555      -394.2808
   8   2.0000     -14.485807      -394.1788
   9   2.0000     -14.451539      -393.2464
  10   2.0000     -14.450000      -393.2045
  11   2.0000     -14.410411      -392.1272
  12   2.0000     -14.406314      -392.0157
  13   2.0000     -14.405902      -392.0045
  14   2.0000     -14.405150      -391.9841
  15   2.0000     -14.401257      -391.8781
  16   2.0000     -10.400465      -283.0110
  17   2.0000     -10.398488      -282.9572
  18   2.0000     -10.373329      -282.2726
  19   2.0000     -10.368770      -282.1486
  20   2.0000     -10.357861      -281.8517
  21   2.0000     -10.357279      -281.8359
  22   2.0000     -10.351326      -281.6739
  23   2.0000     -10.344605      -281.4910
  24   2.0000     -10.335248      -281.2364
  25   2.0000     -10.333662      -281.1932
  26   2.0000     -10.332538      -281.1627
  27   2.0000     -10.332294      -281.1560
  28   2.0000     -10.329967      -281.0927
  29   2.0000     -10.328423      -281.0507
  30   2.0000     -10.326599      -281.0010
  31   2.0000     -10.325028      -280.9583
  32   2.0000     -10.322274      -280.8834
  33   2.0000     -10.314085      -280.6605
  34   2.0000     -10.313158      -280.6353
  35   2.0000     -10.309717      -280.5417
  36   2.0000     -10.309674      -280.5405
  37   2.0000     -10.306475      -280.4535
  38   2.0000     -10.305976      -280.4399
  39   2.0000     -10.305948      -280.4391
  40   2.0000     -10.305331      -280.4223
  41   2.0000     -10.305248      -280.4200
  42   2.0000     -10.304962      -280.4123
  43   2.0000     -10.304774      -280.4072
  44   2.0000     -10.303305      -280.3672
  45   2.0000     -10.302775      -280.3528
  46   2.0000     -10.301632      -280.3217
  47   2.0000     -10.298090      -280.2253
  48   2.0000     -10.297788      -280.2171
  49   2.0000     -10.297539      -280.2103
  50   2.0000     -10.297219      -280.2016
  51   2.0000     -10.296729      -280.1882
  52   2.0000     -10.294020      -280.1145
  53   2.0000     -10.293362      -280.0966
  54   2.0000     -10.291892      -280.0566
  55   2.0000     -10.286980      -279.9230
  56   2.0000     -10.281820      -279.7826
  57   2.0000     -10.278996      -279.7057
  58   2.0000     -10.276361      -279.6340
  59   2.0000     -10.261659      -279.2339
  60   2.0000     -10.261445      -279.2281
  61   2.0000     -10.257572      -279.1227
  62   2.0000     -10.253384      -279.0088
  63   2.0000      -8.074123      -219.7081
  64   2.0000      -8.072159      -219.6546
  65   2.0000      -8.070127      -219.5993
  66   2.0000      -6.043374      -164.4486
  67   2.0000      -6.041424      -164.3955
  68   2.0000      -6.039402      -164.3405
  69   2.0000      -6.039218      -164.3355
  70   2.0000      -6.037280      -164.2827
  71   2.0000      -6.036243      -164.2545
  72   2.0000      -6.035092      -164.2232
  73   2.0000      -6.034242      -164.2001
  74   2.0000      -6.032351      -164.1486
  75   2.0000      -1.157797       -31.5053
  76   2.0000      -1.151487       -31.3336
  77   2.0000      -1.131217       -30.7820
  78   2.0000      -1.122564       -30.5465
  79   2.0000      -1.091415       -29.6989
  80   2.0000      -1.085247       -29.5311
  81   2.0000      -1.061296       -28.8793
  82   2.0000      -1.050045       -28.5732
  83   2.0000      -1.024259       -27.8715
  84   2.0000      -1.017142       -27.6778
  85   2.0000      -1.008959       -27.4552
  86   2.0000      -0.997988       -27.1566
  87   2.0000      -0.994707       -27.0673
  88   2.0000      -0.991771       -26.9875
  89   2.0000      -0.990952       -26.9652
  90   2.0000      -0.979944       -26.6656
  91   2.0000      -0.953541       -25.9472
  92   2.0000      -0.948517       -25.8105
  93   2.0000      -0.941634       -25.6232
  94   2.0000      -0.925491       -25.1839
  95   2.0000      -0.917744       -24.9731
  96   2.0000      -0.909816       -24.7573
  97   2.0000      -0.904867       -24.6227
  98   2.0000      -0.891791       -24.2669
  99   2.0000      -0.881819       -23.9955
 100   2.0000      -0.873105       -23.7584
 101   2.0000      -0.869112       -23.6497
 102   2.0000      -0.867667       -23.6104
 103   2.0000      -0.856183       -23.2979
 104   2.0000      -0.850844       -23.1526
 105   2.0000      -0.848822       -23.0976
 106   2.0000      -0.839022       -22.8310
 107   2.0000      -0.818339       -22.2681
 108   2.0000      -0.815046       -22.1785
 109   2.0000      -0.793274       -21.5861
 110   2.0000      -0.782287       -21.2871
 111   2.0000      -0.778643       -21.1880
 112   2.0000      -0.776465       -21.1287
 113   2.0000      -0.775598       -21.1051
 114   2.0000      -0.757528       -20.6134
 115   2.0000      -0.749880       -20.4053
 116   2.0000      -0.738654       -20.0998
 117   2.0000      -0.725660       -19.7462
 118   2.0000      -0.717008       -19.5108
 119   2.0000      -0.713070       -19.4036
 120   2.0000      -0.708969       -19.2920
 121   2.0000      -0.705208       -19.1897
 122   2.0000      -0.703037       -19.1306
 123   2.0000      -0.689027       -18.7494
 124   2.0000      -0.682728       -18.5780
 125   2.0000      -0.678903       -18.4739
 126   2.0000      -0.667363       -18.1599
 127   2.0000      -0.666726       -18.1425
 128   2.0000      -0.648534       -17.6475
 129   2.0000      -0.645258       -17.5584
 130   2.0000      -0.643743       -17.5171
 131   2.0000      -0.628900       -17.1133
 132   2.0000      -0.618941       -16.8422
 133   2.0000      -0.609458       -16.5842
 134   2.0000      -0.606065       -16.4919
 135   2.0000      -0.602842       -16.4042
 136   2.0000      -0.596567       -16.2334
 137   2.0000      -0.596218       -16.2239
 138   2.0000      -0.588601       -16.0167
 139   2.0000      -0.586503       -15.9596
 140   2.0000      -0.584140       -15.8953
 141   2.0000      -0.582591       -15.8531
 142   2.0000      -0.579341       -15.7647
 143   2.0000      -0.575186       -15.6516
 144   2.0000      -0.567186       -15.4339
 145   2.0000      -0.564178       -15.3521
 146   2.0000      -0.560004       -15.2385
 147   2.0000      -0.557451       -15.1690
 148   2.0000      -0.553070       -15.0498
 149   2.0000      -0.546117       -14.8606
 150   2.0000      -0.543209       -14.7815
 151   2.0000      -0.543087       -14.7782
 152   2.0000      -0.541543       -14.7361
 153   2.0000      -0.539364       -14.6768
 154   2.0000      -0.534031       -14.5317
 155   2.0000      -0.531954       -14.4752
 156   2.0000      -0.527530       -14.3548
 157   2.0000      -0.526056       -14.3147
 158   2.0000      -0.523453       -14.2439
 159   2.0000      -0.522967       -14.2307
 160   2.0000      -0.519522       -14.1369
 161   2.0000      -0.516933       -14.0665
 162   2.0000      -0.515126       -14.0173
 163   2.0000      -0.514507       -14.0004
 164   2.0000      -0.513524       -13.9737
 165   2.0000      -0.510973       -13.9043
 166   2.0000      -0.507905       -13.8208
 167   2.0000      -0.506604       -13.7854
 168   2.0000      -0.505757       -13.7623
 169   2.0000      -0.499702       -13.5976
 170   2.0000      -0.498306       -13.5596
 171   2.0000      -0.495155       -13.4739
 172   2.0000      -0.491040       -13.3619
 173   2.0000      -0.485661       -13.2155
 174   2.0000      -0.479073       -13.0362
 175   2.0000      -0.477435       -12.9917
 176   2.0000      -0.474556       -12.9133
 177   2.0000      -0.470227       -12.7955
 178   2.0000      -0.466628       -12.6976
 179   2.0000      -0.463713       -12.6183
 180   2.0000      -0.461478       -12.5575
 181   2.0000      -0.459914       -12.5149
 182   2.0000      -0.459108       -12.4930
 183   2.0000      -0.456639       -12.4258
 184   2.0000      -0.454262       -12.3611
 185   2.0000      -0.453529       -12.3412
 186   2.0000      -0.450875       -12.2689
 187   2.0000      -0.450070       -12.2470
 188   2.0000      -0.449414       -12.2292
 189   2.0000      -0.448737       -12.2108
 190   2.0000      -0.446133       -12.1399
 191   2.0000      -0.444792       -12.1034
 192   2.0000      -0.444606       -12.0983
 193   2.0000      -0.438039       -11.9196
 194   2.0000      -0.435859       -11.8603
 195   2.0000      -0.435297       -11.8450
 196   2.0000      -0.435257       -11.8439
 197   2.0000      -0.432934       -11.7807
 198   2.0000      -0.431232       -11.7344
 199   2.0000      -0.428046       -11.6477
 200   2.0000      -0.427669       -11.6375
 201   2.0000      -0.426733       -11.6120
 202   2.0000      -0.422529       -11.4976
 203   2.0000      -0.418291       -11.3823
 204   2.0000      -0.416066       -11.3217
 205   2.0000      -0.410395       -11.1674
 206   2.0000      -0.409736       -11.1495
 207   2.0000      -0.408298       -11.1104
 208   2.0000      -0.405617       -11.0374
 209   2.0000      -0.402007       -10.9392
 210   2.0000      -0.401203       -10.9173
 211   2.0000      -0.399940       -10.8829
 212   2.0000      -0.398059       -10.8317
 213   2.0000      -0.395449       -10.7607
 214   2.0000      -0.388456       -10.5704
 215   2.0000      -0.381491       -10.3809
 216   2.0000      -0.368006       -10.0140
 217   2.0000      -0.350969        -9.5503
 218   2.0000      -0.344832        -9.3834
 219   2.0000      -0.338378        -9.2077
 220   2.0000      -0.336309        -9.1514
 221   2.0000      -0.334538        -9.1032
 222   2.0000      -0.332831        -9.0568
 223   2.0000      -0.331637        -9.0243
 224   2.0000      -0.329620        -8.9694
 225   2.0000      -0.312834        -8.5127
 226   2.0000      -0.306559        -8.3419
 227   2.0000      -0.284523        -7.7423
 228   2.0000      -0.276998        -7.5375
 229   2.0000      -0.233134        -6.3439
 230   0.0000      -0.083555        -2.2736
 231   0.0000      -0.058431        -1.5900
 232   0.0000      -0.037668        -1.0250
 233   0.0000      -0.016698        -0.4544
 234   0.0000      -0.008586        -0.2336

MULLIKEN ATOMIC CHARGES
-----------------------
   0 C :   -0.112319
   1 S :    0.150729
   2 C :   -0.117580
   3 C :    0.024187
   4 C :   -0.017056
   5 C :    0.034943
   6 C :   -0.283490
   7 N :    0.113215
   8 C :    0.057525
   9 C :    0.069270
  10 C :    0.008969
  11 C :   -0.281914
  12 N :    0.116399
  13 C :   -0.075778
  14 S :    0.145878
  15 C :   -0.072976
  16 C :   -0.060194
  17 C :   -0.006816
  18 C :   -0.194564
  19 N :    0.142040
  20 C :    0.047780
  21 C :   -0.036771
  22 C :    0.089878
  23 N :   -0.263808
  24 C :    0.100433
  25 C :   -0.005433
  26 C :    0.160178
  27 O :   -0.251975
  28 C :   -0.077196
  29 C :   -0.022782
  30 C :    0.153587
  31 O :   -0.168189
  32 N :   -0.265038
  33 C :    0.096833
  34 C :    0.002188
  35 C :    0.154138
  36 C :   -0.041684
  37 C :    0.076508
  38 N :   -0.190014
  39 C :   -0.101348
  40 C :    0.150557
  41 C :   -0.017018
  42 C :   -0.024179
  43 C :    0.183727
  44 O :   -0.169010
  45 C :   -0.074285
  46 C :    0.130816
  47 N :   -0.231541
  48 C :    0.176519
  49 O :   -0.178915
  50 C :   -0.128037
  51 S :    0.138178
  52 C :   -0.123633
  53 C :   -0.018932
  54 C :    0.071088
  55 C :    0.025956
  56 C :   -0.287453
  57 N :    0.104897
  58 C :    0.053845
  59 C :    0.071630
  60 C :    0.011868
  61 C :   -0.269298
  62 N :    0.116005
  63 H :    0.026249
  64 H :    0.047228
  65 H :    0.042154
  66 H :    0.033533
  67 H :    0.032938
  68 H :    0.042502
  69 H :    0.052037
  70 H :    0.001602
  71 H :   -0.028754
  72 H :    0.030714
  73 H :    0.024280
  74 H :    0.041762
  75 H :    0.027918
  76 H :    0.021224
  77 H :    0.025318
  78 H :    0.044822
  79 H :    0.029817
  80 H :    0.027844
  81 H :    0.024712
  82 H :    0.021191
  83 H :    0.007594
  84 H :    0.022021
  85 H :    0.060389
  86 H :    0.040326
  87 H :    0.054955
  88 H :    0.045484
  89 H :    0.047218
  90 H :    0.054783
  91 H :    0.024543
  92 H :    0.078179
  93 H :    0.045387
  94 H :    0.030553
  95 H :    0.030552
  96 H :    0.034528
  97 H :    0.043861
Sum of atomic charges:   -0.0000000

LOEWDIN ATOMIC CHARGES
----------------------
   0 C :   -0.173993
   1 S :    0.457303
   2 C :   -0.183072
   3 C :   -0.048239
   4 C :   -0.054801
   5 C :   -0.040562
   6 C :   -0.036569
   7 N :   -0.065314
   8 C :   -0.009100
   9 C :   -0.006588
  10 C :   -0.043583
  11 C :   -0.038720
  12 N :   -0.060736
  13 C :   -0.185474
  14 S :    0.448592
  15 C :   -0.134299
  16 C :   -0.105314
  17 C :   -0.026596
  18 C :   -0.034909
  19 N :   -0.045205
  20 C :   -0.053110
  21 C :   -0.003072
  22 C :    0.048689
  23 N :   -0.002879
  24 C :    0.034426
  25 C :   -0.063242
  26 C :    0.076248
  27 O :   -0.236078
  28 C :   -0.147815
  29 C :   -0.094019
  30 C :    0.085511
  31 O :   -0.171384
  32 N :   -0.001681
  33 C :    0.036810
  34 C :   -0.060451
  35 C :    0.102264
  36 C :   -0.085603
  37 C :    0.083860
  38 N :    0.021776
  39 C :    0.096219
  40 C :   -0.045932
  41 C :   -0.124168
  42 C :   -0.130016
  43 C :    0.105394
  44 O :   -0.162417
  45 C :    0.094676
  46 C :   -0.052109
  47 N :   -0.008523
  48 C :    0.098159
  49 O :   -0.176470
  50 C :   -0.137393
  51 S :    0.453596
  52 C :   -0.175406
  53 C :   -0.052968
  54 C :   -0.044790
  55 C :   -0.047454
  56 C :   -0.035388
  57 N :   -0.075877
  58 C :   -0.008365
  59 C :   -0.008489
  60 C :   -0.041575
  61 C :   -0.036797
  62 N :   -0.061986
  63 H :    0.029043
  64 H :    0.061857
  65 H :    0.036891
  66 H :    0.038546
  67 H :    0.038700
  68 H :    0.037265
  69 H :    0.060358
  70 H :    0.042155
  71 H :    0.026356
  72 H :    0.053151
  73 H :    0.017885
  74 H :    0.036018
  75 H :    0.023713
  76 H :    0.030155
  77 H :    0.031014
  78 H :    0.038208
  79 H :    0.026536
  80 H :    0.031149
  81 H :    0.031625
  82 H :    0.024384
  83 H :    0.033973
  84 H :    0.036544
  85 H :    0.055556
  86 H :    0.051458
  87 H :    0.054574
  88 H :    0.052557
  89 H :    0.041899
  90 H :    0.050898
  91 H :    0.028776
  92 H :    0.063941
  93 H :    0.038968
  94 H :    0.038661
  95 H :    0.036894
  96 H :    0.034650
  97 H :    0.060647

  Mayer bond orders larger than 0.100000
B(  0-C ,  1-S ) :   1.1612 B(  0-C ,  4-C ) :   1.5716 B(  0-C , 63-H ) :   0.9721
B(  1-S ,  2-C ) :   1.1585 B(  2-C ,  3-C ) :   1.5560 B(  2-C , 13-C ) :   1.0762
B(  3-C ,  4-C ) :   1.3184 B(  3-C , 10-C ) :   1.0170 B(  4-C ,  5-C ) :   0.9777
B(  5-C ,  6-C ) :   1.0338 B(  5-C ,  8-C ) :   1.0841 B(  5-C , 64-H ) :   0.8656
B(  6-C ,  7-N ) :   3.1170 B(  8-C ,  9-C ) :   1.0426 B(  8-C , 65-H ) :   0.9414
B(  8-C , 66-H ) :   0.9356 B(  9-C , 10-C ) :   1.0764 B(  9-C , 67-H ) :   0.9337
B(  9-C , 68-H ) :   0.9448 B( 10-C , 11-C ) :   1.0196 B( 10-C , 69-H ) :   0.8517
B( 11-C , 12-N ) :   3.0797 B( 13-C , 14-S ) :   1.1154 B( 13-C , 17-C ) :   1.5132
B( 14-S , 15-C ) :   1.1300 B( 15-C , 16-C ) :   1.4687 B( 15-C , 20-C ) :   1.1452
B( 16-C , 17-C ) :   1.2698 B( 16-C , 18-C ) :   1.1115 B( 17-C , 70-H ) :   0.9985
B( 18-C , 19-N ) :   2.9949 B( 20-C , 21-C ) :   1.5983 B( 20-C , 71-H ) :   0.9481
B( 21-C , 22-C ) :   1.1924 B( 21-C , 72-H ) :   0.9373 B( 22-C , 23-N ) :   1.1410
B( 22-C , 29-C ) :   1.3812 B( 23-N , 24-C ) :   0.9463 B( 23-N , 26-C ) :   1.0862
B( 24-C , 25-C ) :   1.1168 B( 24-C , 73-H ) :   0.9496 B( 24-C , 74-H ) :   0.9232
B( 25-C , 75-H ) :   0.9665 B( 25-C , 76-H ) :   0.9671 B( 25-C , 77-H ) :   0.9626
B( 26-C , 27-O ) :   1.9530 B( 26-C , 28-C ) :   1.0233 B( 27-O , 84-H ) :   0.1301
B( 28-C , 29-C ) :   1.2413 B( 28-C , 35-C ) :   1.2942 B( 29-C , 30-C ) :   0.9598
B( 30-C , 31-O ) :   2.1545 B( 30-C , 32-N ) :   1.0206 B( 32-N , 33-C ) :   0.9405
B( 32-N , 35-C ) :   1.1922 B( 33-C , 34-C ) :   1.1225 B( 33-C , 78-H ) :   0.9287
B( 33-C , 79-H ) :   0.9496 B( 34-C , 80-H ) :   0.9638 B( 34-C , 81-H ) :   0.9678
B( 34-C , 82-H ) :   0.9680 B( 35-C , 36-C ) :   1.1364 B( 36-C , 37-C ) :   1.6078
B( 36-C , 83-H ) :   0.9602 B( 37-C , 38-N ) :   1.0943 B( 37-C , 84-H ) :   0.9331
B( 38-N , 39-C ) :   1.1208 B( 38-N , 43-C ) :   0.9555 B( 39-C , 40-C ) :   1.1417
B( 39-C , 41-C ) :   1.4923 B( 40-C , 85-H ) :   0.9168 B( 40-C , 86-H ) :   0.9285
B( 40-C , 87-H ) :   0.9189 B( 41-C , 42-C ) :   1.1670 B( 41-C , 48-C ) :   0.9721
B( 42-C , 43-C ) :   0.9829 B( 42-C , 45-C ) :   1.5116 B( 43-C , 44-O ) :   2.1401
B( 45-C , 46-C ) :   1.1324 B( 45-C , 47-N ) :   1.1184 B( 46-C , 88-H ) :   0.9281
B( 46-C , 89-H ) :   0.9243 B( 46-C , 90-H ) :   0.9268 B( 47-N , 48-C ) :   0.9818
B( 47-N , 50-C ) :   1.0108 B( 48-C , 49-O ) :   2.1337 B( 50-C , 51-S ) :   1.1526
B( 50-C , 54-C ) :   1.5487 B( 51-S , 52-C ) :   1.1638 B( 52-C , 53-C ) :   1.5787
B( 52-C , 91-H ) :   0.9712 B( 53-C , 54-C ) :   1.3104 B( 53-C , 60-C ) :   0.9833
B( 54-C , 55-C ) :   0.9887 B( 55-C , 56-C ) :   1.0372 B( 55-C , 58-C ) :   1.0816
B( 55-C , 92-H ) :   0.8309 B( 56-C , 57-N ) :   3.1036 B( 58-C , 59-C ) :   1.0450
B( 58-C , 93-H ) :   0.9406 B( 58-C , 94-H ) :   0.9336 B( 59-C , 60-C ) :   1.0837
B( 59-C , 95-H ) :   0.9356 B( 59-C , 96-H ) :   0.9453 B( 60-C , 61-C ) :   1.0318
B( 60-C , 97-H ) :   0.8724 B( 61-C , 62-N ) :   3.1154

-----------------------------------------------------------------------------
         ABSORPTION SPECTRUM VIA TRANSITION ELECTRIC DIPOLE MOMENTS
-----------------------------------------------------------------------------
State   Energy  Wavelength   fosc         T2         TX        TY        TZ
        (cm-1)    (nm)                  (au**2)     (au)      (au)      (au)
-----------------------------------------------------------------------------
   0   16706.7    598.6   1.074705448  21.17744  -0.19968  -4.51805  -0.85137
   1   23268.4    429.8   0.023730739   0.33575  -0.06312   0.07823  -0.57066
   2   26641.0    375.4   0.019548681   0.24157   0.10666  -0.47120  -0.09033
   3   27676.7    361.3   0.130373663   1.55078   0.07188   0.62480   1.07482
   4   28143.1    355.3   0.175597164   2.05410  -0.37034  -1.16060  -0.75496
   5   28271.1    353.7   0.389617944   4.53704   0.45814   1.75882   1.11073
   6   30116.5    332.0   0.006358277   0.06950  -0.06881  -0.15885  -0.19884
   7   30184.8    331.3   0.063029877   0.68744  -0.01916  -0.57104  -0.60082
   8   32704.7    305.8   0.103801794   1.04489   0.05374  -0.75952  -0.68200
   9   33348.2    299.9   0.167021029   1.64882  -0.36217  -1.11831  -0.51675
  10   33899.9    295.0   0.001201630   0.01167   0.06184   0.07038  -0.05378
  11   34632.5    288.7   0.331650692   3.15263   0.16268   1.29993   1.19848
  12   35463.4    282.0   0.015146583   0.14061   0.10863   0.26457   0.24251
  13   36227.3    276.0   0.369078906   3.35397  -0.26460  -0.89843  -1.57378
  14   37707.2    265.2   0.167797175   1.46500   0.14328   0.87373   0.82527
  15   38774.0    257.9   0.021354360   0.18131  -0.14954  -0.37997   0.12070
  16   38903.7    257.0   0.098675969   0.83502   0.38038   0.59658  -0.57829
  17   39075.3    255.9   0.004707878   0.03966  -0.14714  -0.11805   0.06386
  18   39431.8    253.6   0.004435502   0.03703  -0.08577  -0.09019   0.14677
  19   40047.2    249.7   0.002420426   0.01990  -0.02298   0.03501  -0.13470
  20   40133.3    249.2   0.154833310   1.27009  -0.13928   0.57486   0.95929

FINAL SINGLE POINT ENERGY     -3796.658476458373

DIPOLE MOMENT
-------------
                                X             Y             Z
Electronic contribution:      0.07140      -9.31117      -1.67715
Nuclear contribution   :     -0.65875      10.23375       2.83245
                        -----------------------------------------
Total Dipole Moment    :     -0.58735       0.92259       1.15530
                        -----------------------------------------
Magnitude (a.u.)       :      1.59087
Magnitude (Debye)      :      4.04367

Rotational constants in cm-1:     0.003869     0.000257     0.000248
Rotational constants in MHz :   115.990643     7.715712     7.433298

                             ****ORCA TERMINATED NORMALLY****
TOTAL RUN TIME: 0 days 0 hours 8 minutes 31 seconds 164 msec
