                         Program Version 4.2.0 -  RELEASE  -
|  1> # ORCA input file
|  2> # SCF done       -199.229799508705          0.000930414635
|  3> ! CAM-B3LYP def2-SVP def2/J RIJCOSX Grid4 TightSCF
|  4> %maxcore 5000
|  5> %tddft
|  6>     Mode sTDDFT
|  7>     Ethresh 5.0
|  8>     maxcore 5000
|  9> end
| 10>
| 11> %pal
| 12>   nprocs 6
| 13>   end
| 14> * xyz 0 1
| 15>    C        5.63585        -4.49183        -3.40220
| 16>    O        5.78753        -3.50612        -2.52064
| 17>    C        6.70884        -2.63585        -2.99230
| 18>    C        7.16207        -3.08854        -4.22243
| 19>    C        6.45690        -4.30224        -4.48517
| 20>    C        6.56003        -5.14911        -5.60537
| 21>    N        6.62443        -5.85554        -6.50332
| 22>    C        8.18143        -2.47225        -5.11208
| 23>    F        9.37123        -2.31506        -4.49585
| 24>    F        8.41595        -3.19103        -6.20951
| 25>    F        7.82179        -1.24087        -5.53075
| 26>    C        7.00005        -1.51517        -2.15239
| 27>    C        7.84065        -0.49501        -2.41988
| 28>    C        8.10499         0.58044        -1.52125
| 29>    S        9.22546         1.82566        -1.98822
| 30>    C        9.04231         2.65422        -0.47695
| 31>    C        8.12959         1.97339         0.34034
| 32>    C        7.61025         0.81421        -0.25477
| 33>    C        7.74008         2.36966         1.63065
| 34>    N        7.39376         2.65071         2.68865
| 35>    C        9.79522         3.82935        -0.24132
| 36>    C        9.79829         4.53665         0.92067
| 37>    C       10.60482         5.68437         1.10690
| 38>    N       10.65764         6.39039         2.28366
| 39>    C        9.95962         6.08279         3.51001
| 40>    C       10.64912         4.96546         4.28804
| 41>    C       11.55494         7.47043         2.21041
| 42>    O       11.74314         8.25257         3.11758
| 43>    C       12.09047         7.39883         0.86464
| 44>    C       11.47387         6.30810         0.20813
| 45>    C       11.97684         6.26357        -1.14792
| 46>    O       11.74804         5.51036        -2.07460
| 47>    N       12.87510         7.34009        -1.22092
| 48>    C       13.54844         7.67418        -2.45376
| 49>    C       12.91195         8.87966        -3.14133
| 50>    C       12.96326         8.01732        -0.02822
| 51>    C       13.83288         9.11732         0.19464
| 52>    C       14.00332         9.65295         1.42588
| 53>    C       14.85502        10.75602         1.75549
| 54>    C       15.12149        11.89754         0.97185
| 55>    C       14.60611        12.25678        -0.36949
| 56>    O       13.85289        11.68615        -1.09826
| 57>    O       15.15449        13.46790        -0.70859
| 58>    C       15.96182        13.94634         0.28961
| 59>    O       16.55063        14.97689         0.17802
| 60>    C       15.92301        12.96289         1.40231
| 61>    C       16.57054        12.98824         2.65163
| 62>    C       16.31238        11.83792         3.42263
| 63>    C       15.49875        10.79630         3.00789
| 64>    C       15.52290         9.76340         4.07468
| 65>    O       15.04524         8.67448         4.10268
| 66>    O       16.28383        10.26927         5.10447
| 67>    C       16.78208        11.50808         4.79437
| 68>    O       17.44572        12.14682         5.54911
| 69>    C       17.45991        13.99402         3.16747
| 70>    C       17.42028        15.31588         2.90857
| 71>    C       18.34767        16.25361         3.45152
| 72>    O       18.09397        17.56837         3.29973
| 73>    C       19.08626        18.27480         3.86212
| 74>    C       20.02364        17.40583         4.39568
| 75>    C       19.55395        16.09220         4.13320
| 76>    C       20.20568        14.88568         4.43810
| 77>    N       20.75982        13.90836         4.66311
| 78>    C       21.27443        17.80647         5.09632
| 79>    F       21.02211        18.59611         6.15927
| 80>    F       21.98563        16.77310         5.54421
| 81>    F       22.08953        18.52389         4.29716
| 82>    C       19.07137        19.71452         3.84829
| 83>    C       18.10515        20.42729         3.27425
| 84>    H        4.93496        -5.27214        -3.18039
| 85>    H        6.46024        -1.54222        -1.21641
| 86>    H        8.37522        -0.44537        -3.35468
| 87>    H        6.89969         0.17819         0.24161
| 88>    H       10.42148         4.15997        -1.06077
| 89>    H        9.18182         4.21998         1.74753
| 90>    H        8.92301         5.81774         3.28674
| 91>    H        9.97097         7.00197         4.10207
| 92>    H       10.67744         4.04568         3.70809
| 93>    H       10.10857         4.77669         5.21084
| 94>    H       11.66776         5.25661         4.53261
| 95>    H       13.45475         6.79191        -3.09349
| 96>    H       14.60887         7.85333        -2.25525
| 97>    H       11.86289         8.67868        -3.34452
| 98>    H       13.41658         9.06790        -4.08486
| 99>    H       12.98238         9.77220        -2.52448
|100>    H       14.39264         9.48817        -0.64891
|101>    H       13.50816         9.19218         2.27246
|102>    H       18.18146        13.62279         3.88307
|103>    H       16.65630        15.75361         2.28450
|104>    H       19.90860        20.18962         4.33745
|105>    H       17.27507        19.95197         2.77962
|106>    H       18.12685        21.50205         3.27666
|107> *
|108>
|109>                          ****END OF INPUT****

CARTESIAN COORDINATES (ANGSTROEM)
---------------------------------
  C      5.635850   -4.491830   -3.402200
  O      5.787530   -3.506120   -2.520640
  C      6.708840   -2.635850   -2.992300
  C      7.162070   -3.088540   -4.222430
  C      6.456900   -4.302240   -4.485170
  C      6.560030   -5.149110   -5.605370
  N      6.624430   -5.855540   -6.503320
  C      8.181430   -2.472250   -5.112080
  F      9.371230   -2.315060   -4.495850
  F      8.415950   -3.191030   -6.209510
  F      7.821790   -1.240870   -5.530750
  C      7.000050   -1.515170   -2.152390
  C      7.840650   -0.495010   -2.419880
  C      8.104990    0.580440   -1.521250
  S      9.225460    1.825660   -1.988220
  C      9.042310    2.654220   -0.476950
  C      8.129590    1.973390    0.340340
  C      7.610250    0.814210   -0.254770
  C      7.740080    2.369660    1.630650
  N      7.393760    2.650710    2.688650
  C      9.795220    3.829350   -0.241320
  C      9.798290    4.536650    0.920670
  C     10.604820    5.684370    1.106900
  N     10.657640    6.390390    2.283660
  C      9.959620    6.082790    3.510010
  C     10.649120    4.965460    4.288040
  C     11.554940    7.470430    2.210410
  O     11.743140    8.252570    3.117580
  C     12.090470    7.398830    0.864640
  C     11.473870    6.308100    0.208130
  C     11.976840    6.263570   -1.147920
  O     11.748040    5.510360   -2.074600
  N     12.875100    7.340090   -1.220920
  C     13.548440    7.674180   -2.453760
  C     12.911950    8.879660   -3.141330
  C     12.963260    8.017320   -0.028220
  C     13.832880    9.117320    0.194640
  C     14.003320    9.652950    1.425880
  C     14.855020   10.756020    1.755490
  C     15.121490   11.897540    0.971850
  C     14.606110   12.256780   -0.369490
  O     13.852890   11.686150   -1.098260
  O     15.154490   13.467900   -0.708590
  C     15.961820   13.946340    0.289610
  O     16.550630   14.976890    0.178020
  C     15.923010   12.962890    1.402310
  C     16.570540   12.988240    2.651630
  C     16.312380   11.837920    3.422630
  C     15.498750   10.796300    3.007890
  C     15.522900    9.763400    4.074680
  O     15.045240    8.674480    4.102680
  O     16.283830   10.269270    5.104470
  C     16.782080   11.508080    4.794370
  O     17.445720   12.146820    5.549110
  C     17.459910   13.994020    3.167470
  C     17.420280   15.315880    2.908570
  C     18.347670   16.253610    3.451520
  O     18.093970   17.568370    3.299730
  C     19.086260   18.274800    3.862120
  C     20.023640   17.405830    4.395680
  C     19.553950   16.092200    4.133200
  C     20.205680   14.885680    4.438100
  N     20.759820   13.908360    4.663110
  C     21.274430   17.806470    5.096320
  F     21.022110   18.596110    6.159270
  F     21.985630   16.773100    5.544210
  F     22.089530   18.523890    4.297160
  C     19.071370   19.714520    3.848290
  C     18.105150   20.427290    3.274250
  H      4.934960   -5.272140   -3.180390
  H      6.460240   -1.542220   -1.216410
  H      8.375220   -0.445370   -3.354680
  H      6.899690    0.178190    0.241610
  H     10.421480    4.159970   -1.060770
  H      9.181820    4.219980    1.747530
  H      8.923010    5.817740    3.286740
  H      9.970970    7.001970    4.102070
  H     10.677440    4.045680    3.708090
  H     10.108570    4.776690    5.210840
  H     11.667760    5.256610    4.532610
  H     13.454750    6.791910   -3.093490
  H     14.608870    7.853330   -2.255250
  H     11.862890    8.678680   -3.344520
  H     13.416580    9.067900   -4.084860
  H     12.982380    9.772200   -2.524480
  H     14.392640    9.488170   -0.648910
  H     13.508160    9.192180    2.272460
  H     18.181460   13.622790    3.883070
  H     16.656300   15.753610    2.284500
  H     19.908600   20.189620    4.337450
  H     17.275070   19.951970    2.779620
  H     18.126850   21.502050    3.276660

 Total Charge           Charge          ....    0
 Multiplicity           Mult            ....    1
 Number of Electrons    NEL             ....  490
 Basis Dimension        Dim             .... 1085

ORBITAL ENERGIES
----------------

  NO   OCC          E(Eh)            E(eV)
   0   2.0000     -88.988673     -2421.5049
   1   2.0000     -24.815729      -675.2703
   2   2.0000     -24.811335      -675.1507
   3   2.0000     -24.811095      -675.1442
   4   2.0000     -24.810301      -675.1226
   5   2.0000     -24.803474      -674.9368
   6   2.0000     -24.802402      -674.9077
   7   2.0000     -19.336175      -526.1641
   8   2.0000     -19.331164      -526.0277
   9   2.0000     -19.307315      -525.3788
  10   2.0000     -19.299176      -525.1573
  11   2.0000     -19.254836      -523.9507
  12   2.0000     -19.253934      -523.9262
  13   2.0000     -19.247708      -523.7568
  14   2.0000     -19.246488      -523.7236
  15   2.0000     -19.200170      -522.4632
  16   2.0000     -19.196809      -522.3717
  17   2.0000     -14.459959      -393.4755
  18   2.0000     -14.459093      -393.4519
  19   2.0000     -14.424014      -392.4974
  20   2.0000     -14.418148      -392.3378
  21   2.0000     -14.416536      -392.2939
  22   2.0000     -10.538358      -286.7633
  23   2.0000     -10.531757      -286.5837
  24   2.0000     -10.449301      -284.3399
  25   2.0000     -10.448989      -284.3315
  26   2.0000     -10.441374      -284.1242
  27   2.0000     -10.439881      -284.0836
  28   2.0000     -10.382018      -282.5091
  29   2.0000     -10.379727      -282.4467
  30   2.0000     -10.377872      -282.3962
  31   2.0000     -10.375329      -282.3271
  32   2.0000     -10.372065      -282.2382
  33   2.0000     -10.371555      -282.2244
  34   2.0000     -10.350911      -281.6626
  35   2.0000     -10.348750      -281.6038
  36   2.0000     -10.348711      -281.6027
  37   2.0000     -10.345060      -281.5034
  38   2.0000     -10.343712      -281.4667
  39   2.0000     -10.343235      -281.4537
  40   2.0000     -10.341522      -281.4071
  41   2.0000     -10.339114      -281.3416
  42   2.0000     -10.338257      -281.3183
  43   2.0000     -10.338133      -281.3149
  44   2.0000     -10.337376      -281.2943
  45   2.0000     -10.333394      -281.1859
  46   2.0000     -10.331894      -281.1451
  47   2.0000     -10.324940      -280.9559
  48   2.0000     -10.324354      -280.9400
  49   2.0000     -10.319803      -280.8161
  50   2.0000     -10.319670      -280.8125
  51   2.0000     -10.319092      -280.7968
  52   2.0000     -10.317573      -280.7554
  53   2.0000     -10.316474      -280.7255
  54   2.0000     -10.313935      -280.6564
  55   2.0000     -10.312023      -280.6044
  56   2.0000     -10.310707      -280.5686
  57   2.0000     -10.309230      -280.5284
  58   2.0000     -10.309053      -280.5236
  59   2.0000     -10.308932      -280.5203
  60   2.0000     -10.307404      -280.4787
  61   2.0000     -10.303468      -280.3716
  62   2.0000     -10.302233      -280.3380
  63   2.0000     -10.300218      -280.2832
  64   2.0000     -10.293550      -280.1017
  65   2.0000     -10.271345      -279.4975
  66   2.0000     -10.268923      -279.4316
  67   2.0000     -10.261724      -279.2357
  68   2.0000     -10.260696      -279.2077
  69   2.0000      -8.084271      -219.9842
  70   2.0000      -6.053321      -164.7192
  71   2.0000      -6.049230      -164.6079
  72   2.0000      -6.046719      -164.5396
  73   2.0000      -1.403537       -38.1922
  74   2.0000      -1.396517       -38.0012
  75   2.0000      -1.307656       -35.5831
  76   2.0000      -1.301611       -35.4186
  77   2.0000      -1.301212       -35.4078
  78   2.0000      -1.293347       -35.1938
  79   2.0000      -1.258891       -34.2562
  80   2.0000      -1.257820       -34.2270
  81   2.0000      -1.253164       -34.1003
  82   2.0000      -1.249109       -33.9900
  83   2.0000      -1.183043       -32.1922
  84   2.0000      -1.175272       -31.9808
  85   2.0000      -1.144398       -31.1407
  86   2.0000      -1.141180       -31.0531
  87   2.0000      -1.137562       -30.9546
  88   2.0000      -1.133976       -30.8571
  89   2.0000      -1.071305       -29.1517
  90   2.0000      -1.062539       -28.9132
  91   2.0000      -1.026597       -27.9351
  92   2.0000      -1.026019       -27.9194
  93   2.0000      -1.005075       -27.3495
  94   2.0000      -1.003477       -27.3060
  95   2.0000      -1.002430       -27.2775
  96   2.0000      -0.957788       -26.0627
  97   2.0000      -0.957339       -26.0505
  98   2.0000      -0.953500       -25.9461
  99   2.0000      -0.943926       -25.6855
 100   2.0000      -0.939575       -25.5671
 101   2.0000      -0.937432       -25.5088
 102   2.0000      -0.933334       -25.3973
 103   2.0000      -0.921913       -25.0865
 104   2.0000      -0.909324       -24.7440
 105   2.0000      -0.893545       -24.3146
 106   2.0000      -0.886411       -24.1205
 107   2.0000      -0.878077       -23.8937
 108   2.0000      -0.872263       -23.7355
 109   2.0000      -0.851192       -23.1621
 110   2.0000      -0.846088       -23.0232
 111   2.0000      -0.828157       -22.5353
 112   2.0000      -0.822497       -22.3813
 113   2.0000      -0.821514       -22.3545
 114   2.0000      -0.813862       -22.1463
 115   2.0000      -0.808553       -22.0018
 116   2.0000      -0.796909       -21.6850
 117   2.0000      -0.788144       -21.4465
 118   2.0000      -0.779952       -21.2236
 119   2.0000      -0.771164       -20.9844
 120   2.0000      -0.769786       -20.9469
 121   2.0000      -0.762115       -20.7382
 122   2.0000      -0.756175       -20.5766
 123   2.0000      -0.753200       -20.4956
 124   2.0000      -0.743668       -20.2362
 125   2.0000      -0.732625       -19.9357
 126   2.0000      -0.728969       -19.8362
 127   2.0000      -0.725741       -19.7484
 128   2.0000      -0.715835       -19.4789
 129   2.0000      -0.710051       -19.3215
 130   2.0000      -0.704279       -19.1644
 131   2.0000      -0.690784       -18.7972
 132   2.0000      -0.689907       -18.7733
 133   2.0000      -0.685609       -18.6564
 134   2.0000      -0.680814       -18.5259
 135   2.0000      -0.679187       -18.4816
 136   2.0000      -0.678184       -18.4543
 137   2.0000      -0.667980       -18.1767
 138   2.0000      -0.664231       -18.0746
 139   2.0000      -0.662355       -18.0236
 140   2.0000      -0.654028       -17.7970
 141   2.0000      -0.649960       -17.6863
 142   2.0000      -0.646328       -17.5875
 143   2.0000      -0.637479       -17.3467
 144   2.0000      -0.632479       -17.2106
 145   2.0000      -0.626402       -17.0453
 146   2.0000      -0.622281       -16.9331
 147   2.0000      -0.618568       -16.8321
 148   2.0000      -0.608885       -16.5686
 149   2.0000      -0.607245       -16.5240
 150   2.0000      -0.606426       -16.5017
 151   2.0000      -0.598324       -16.2812
 152   2.0000      -0.597618       -16.2620
 153   2.0000      -0.597184       -16.2502
 154   2.0000      -0.593402       -16.1473
 155   2.0000      -0.586683       -15.9644
 156   2.0000      -0.585795       -15.9403
 157   2.0000      -0.584831       -15.9141
 158   2.0000      -0.577516       -15.7150
 159   2.0000      -0.572872       -15.5886
 160   2.0000      -0.571508       -15.5515
 161   2.0000      -0.569384       -15.4937
 162   2.0000      -0.567991       -15.4558
 163   2.0000      -0.561870       -15.2893
 164   2.0000      -0.560397       -15.2492
 165   2.0000      -0.560243       -15.2450
 166   2.0000      -0.555656       -15.1202
 167   2.0000      -0.555206       -15.1079
 168   2.0000      -0.553391       -15.0585
 169   2.0000      -0.552147       -15.0247
 170   2.0000      -0.550631       -14.9834
 171   2.0000      -0.539871       -14.6906
 172   2.0000      -0.537038       -14.6135
 173   2.0000      -0.534369       -14.5409
 174   2.0000      -0.533821       -14.5260
 175   2.0000      -0.532571       -14.4920
 176   2.0000      -0.528443       -14.3797
 177   2.0000      -0.527701       -14.3595
 178   2.0000      -0.525602       -14.3024
 179   2.0000      -0.523760       -14.2522
 180   2.0000      -0.522721       -14.2240
 181   2.0000      -0.520167       -14.1545
 182   2.0000      -0.519610       -14.1393
 183   2.0000      -0.516963       -14.0673
 184   2.0000      -0.514232       -13.9930
 185   2.0000      -0.513495       -13.9729
 186   2.0000      -0.512574       -13.9479
 187   2.0000      -0.511777       -13.9262
 188   2.0000      -0.509946       -13.8763
 189   2.0000      -0.506161       -13.7733
 190   2.0000      -0.503339       -13.6965
 191   2.0000      -0.498340       -13.5605
 192   2.0000      -0.498223       -13.5573
 193   2.0000      -0.494234       -13.4488
 194   2.0000      -0.491314       -13.3693
 195   2.0000      -0.490501       -13.3472
 196   2.0000      -0.490358       -13.3433
 197   2.0000      -0.486635       -13.2420
 198   2.0000      -0.485118       -13.2007
 199   2.0000      -0.480045       -13.0627
 200   2.0000      -0.478760       -13.0277
 201   2.0000      -0.474238       -12.9047
 202   2.0000      -0.471147       -12.8206
 203   2.0000      -0.470725       -12.8091
 204   2.0000      -0.469911       -12.7869
 205   2.0000      -0.469074       -12.7642
 206   2.0000      -0.466025       -12.6812
 207   2.0000      -0.463676       -12.6173
 208   2.0000      -0.460009       -12.5175
 209   2.0000      -0.456413       -12.4196
 210   2.0000      -0.454939       -12.3795
 211   2.0000      -0.449889       -12.2421
 212   2.0000      -0.448522       -12.2049
 213   2.0000      -0.446141       -12.1401
 214   2.0000      -0.445704       -12.1282
 215   2.0000      -0.444794       -12.1034
 216   2.0000      -0.442327       -12.0363
 217   2.0000      -0.434617       -11.8265
 218   2.0000      -0.430293       -11.7089
 219   2.0000      -0.429771       -11.6947
 220   2.0000      -0.425848       -11.5879
 221   2.0000      -0.422208       -11.4889
 222   2.0000      -0.421449       -11.4682
 223   2.0000      -0.418999       -11.4015
 224   2.0000      -0.417678       -11.3656
 225   2.0000      -0.417089       -11.3496
 226   2.0000      -0.411376       -11.1941
 227   2.0000      -0.408269       -11.1096
 228   2.0000      -0.401430       -10.9235
 229   2.0000      -0.395586       -10.7644
 230   2.0000      -0.391289       -10.6475
 231   2.0000      -0.387282       -10.5385
 232   2.0000      -0.382731       -10.4146
 233   2.0000      -0.378108       -10.2889
 234   2.0000      -0.375504       -10.2180
 235   2.0000      -0.363797        -9.8994
 236   2.0000      -0.355346        -9.6695
 237   2.0000      -0.348974        -9.4961
 238   2.0000      -0.340918        -9.2769
 239   2.0000      -0.337332        -9.1793
 240   2.0000      -0.334691        -9.1074
 241   2.0000      -0.321775        -8.7559
 242   2.0000      -0.290386        -7.9018
 243   2.0000      -0.286648        -7.8001
 244   2.0000      -0.243688        -6.6311
 245   0.0000      -0.112007        -3.0479
 246   0.0000      -0.102959        -2.8017
 247   0.0000      -0.086095        -2.3428
 248   0.0000      -0.060632        -1.6499
 249   0.0000      -0.043393        -1.1808

MULLIKEN ATOMIC CHARGES
-----------------------
   0 C :    0.117003
   1 O :   -0.160599
   2 C :    0.142087
   3 C :   -0.132251
   4 C :   -0.098669
   5 C :   -0.185260
   6 N :    0.167750
   7 C :    0.540928
   8 F :   -0.166159
   9 F :   -0.131673
  10 F :   -0.165683
  11 C :   -0.000756
  12 C :    0.078193
  13 C :   -0.086961
  14 S :    0.198939
  15 C :   -0.065233
  16 C :   -0.079788
  17 C :    0.014565
  18 C :   -0.162481
  19 N :    0.119289
  20 C :    0.064168
  21 C :   -0.040085
  22 C :    0.143420
  23 N :   -0.255855
  24 C :    0.093675
  25 C :    0.007599
  26 C :    0.173248
  27 O :   -0.195147
  28 C :   -0.054726
  29 C :   -0.070723
  30 C :    0.167761
  31 O :   -0.213852
  32 N :   -0.254834
  33 C :    0.094580
  34 C :   -0.003736
  35 C :    0.097268
  36 C :    0.042383
  37 C :   -0.056240
  38 C :    0.046658
  39 C :   -0.068932
  40 C :    0.229103
  41 O :   -0.097298
  42 O :   -0.218832
  43 C :    0.229518
  44 O :   -0.101184
  45 C :   -0.071610
  46 C :    0.045876
  47 C :   -0.075002
  48 C :   -0.072731
  49 C :    0.239730
  50 O :   -0.085489
  51 O :   -0.227020
  52 C :    0.242209
  53 O :   -0.094475
  54 C :   -0.078601
  55 C :    0.050600
  56 C :    0.131659
  57 O :   -0.169300
  58 C :    0.101369
  59 C :   -0.086283
  60 C :   -0.080574
  61 C :   -0.225403
  62 N :    0.177608
  63 C :    0.514924
  64 F :   -0.164307
  65 F :   -0.132817
  66 F :   -0.163812
  67 C :   -0.027377
  68 C :    0.022557
  69 H :    0.032213
  70 H :    0.002784
  71 H :    0.002642
  72 H :   -0.000557
  73 H :    0.005830
  74 H :   -0.013607
  75 H :    0.037235
  76 H :    0.043158
  77 H :    0.015972
  78 H :    0.029785
  79 H :    0.031001
  80 H :    0.044061
  81 H :    0.021941
  82 H :    0.023955
  83 H :    0.022578
  84 H :    0.031997
  85 H :   -0.013742
  86 H :    0.051803
  87 H :    0.045598
  88 H :    0.015467
  89 H :    0.021566
  90 H :    0.037361
  91 H :    0.038051
Sum of atomic charges:   -0.0000000

LOEWDIN ATOMIC CHARGES
----------------------
   0 C :    0.082436
   1 O :    0.048970
   2 C :    0.056793
   3 C :   -0.112010
   4 C :   -0.095362
   5 C :   -0.040594
   6 N :   -0.033510
   7 C :    0.171788
   8 F :   -0.063277
   9 F :   -0.030424
  10 F :   -0.063596
  11 C :   -0.037601
  12 C :   -0.012893
  13 C :   -0.168601
  14 S :    0.500043
  15 C :   -0.143656
  16 C :   -0.099319
  17 C :   -0.017224
  18 C :   -0.025673
  19 N :   -0.056882
  20 C :    0.003127
  21 C :   -0.032955
  22 C :    0.082403
  23 N :    0.003476
  24 C :    0.037230
  25 C :   -0.058732
  26 C :    0.084580
  27 O :   -0.182755
  28 C :   -0.105302
  29 C :   -0.120562
  30 C :    0.079000
  31 O :   -0.203769
  32 N :    0.004220
  33 C :    0.036149
  34 C :   -0.063282
  35 C :    0.065998
  36 C :    0.001324
  37 C :    0.000187
  38 C :    0.026597
  39 C :   -0.047072
  40 C :    0.111134
  41 O :   -0.097425
  42 O :   -0.048889
  43 C :    0.107233
  44 O :   -0.095599
  45 C :   -0.044227
  46 C :    0.022880
  47 C :   -0.037759
  48 C :   -0.037537
  49 C :    0.108395
  50 O :   -0.080391
  51 O :   -0.052415
  52 C :    0.106870
  53 O :   -0.087479
  54 C :   -0.016937
  55 C :    0.003305
  56 C :    0.060876
  57 O :    0.047962
  58 C :    0.064236
  59 C :   -0.106104
  60 C :   -0.082530
  61 C :   -0.038301
  62 N :   -0.030272
  63 C :    0.169877
  64 F :   -0.064521
  65 F :   -0.032673
  66 F :   -0.065474
  67 C :   -0.043422
  68 C :   -0.000219
  69 H :    0.038747
  70 H :    0.040526
  71 H :    0.027970
  72 H :    0.039353
  73 H :    0.037880
  74 H :    0.035957
  75 H :    0.028140
  76 H :    0.038162
  77 H :    0.022632
  78 H :    0.034088
  79 H :    0.032378
  80 H :    0.037266
  81 H :    0.022556
  82 H :    0.030535
  83 H :    0.031148
  84 H :    0.025419
  85 H :    0.030108
  86 H :    0.044219
  87 H :    0.044608
  88 H :    0.041092
  89 H :    0.042023
  90 H :    0.030794
  91 H :    0.034532

  Mayer bond orders larger than 0.100000
B(  0-C ,  1-O ) :   1.1778 B(  0-C ,  4-C ) :   1.5164 B(  0-C , 69-H ) :   1.0135
B(  1-O ,  2-C ) :   1.1587 B(  2-C ,  3-C ) :   1.4982 B(  2-C , 11-C ) :   1.1312
B(  3-C ,  4-C ) :   1.2980 B(  3-C ,  7-C ) :   0.9265 B(  4-C ,  5-C ) :   1.0989
B(  5-C ,  6-N ) :   3.0515 B(  7-C ,  8-F ) :   1.1586 B(  7-C ,  9-F ) :   1.1847
B(  7-C , 10-F ) :   1.1513 B( 11-C , 12-C ) :   1.7068 B( 11-C , 70-H ) :   0.9484
B( 12-C , 13-C ) :   1.1180 B( 12-C , 71-H ) :   0.9440 B( 13-C , 14-S ) :   1.1330
B( 13-C , 17-C ) :   1.4669 B( 14-S , 15-C ) :   1.1567 B( 15-C , 16-C ) :   1.4127
B( 15-C , 20-C ) :   1.1602 B( 16-C , 17-C ) :   1.3203 B( 16-C , 18-C ) :   1.1195
B( 17-C , 72-H ) :   0.9997 B( 18-C , 19-N ) :   2.9688 B( 20-C , 21-C ) :   1.6070
B( 20-C , 73-H ) :   0.9208 B( 21-C , 22-C ) :   1.1744 B( 21-C , 74-H ) :   0.9472
B( 22-C , 23-N ) :   1.1720 B( 22-C , 29-C ) :   1.3165 B( 23-N , 24-C ) :   0.9372
B( 23-N , 26-C ) :   1.0561 B( 24-C , 25-C ) :   1.1237 B( 24-C , 75-H ) :   0.9479
B( 24-C , 76-H ) :   0.9273 B( 25-C , 77-H ) :   0.9676 B( 25-C , 78-H ) :   0.9674
B( 25-C , 79-H ) :   0.9637 B( 26-C , 27-O ) :   2.0511 B( 26-C , 28-C ) :   0.9704
B( 28-C , 29-C ) :   1.2653 B( 28-C , 35-C ) :   1.3496 B( 29-C , 30-C ) :   0.9885
B( 30-C , 31-O ) :   2.0149 B( 30-C , 32-N ) :   1.0704 B( 31-O , 73-H ) :   0.1197
B( 32-N , 33-C ) :   0.9401 B( 32-N , 35-C ) :   1.1569 B( 33-C , 34-C ) :   1.1206
B( 33-C , 80-H ) :   0.9286 B( 33-C , 81-H ) :   0.9495 B( 34-C , 82-H ) :   0.9612
B( 34-C , 83-H ) :   0.9661 B( 34-C , 84-H ) :   0.9641 B( 35-C , 36-C ) :   1.1689
B( 36-C , 37-C ) :   1.6364 B( 36-C , 85-H ) :   0.9530 B( 37-C , 38-C ) :   1.1152
B( 37-C , 86-H ) :   0.9235 B( 38-C , 39-C ) :   1.3156 B( 38-C , 48-C ) :   1.3179
B( 39-C , 40-C ) :   0.9093 B( 39-C , 45-C ) :   1.3593 B( 40-C , 41-O ) :   2.2153
B( 40-C , 42-O ) :   1.0586 B( 42-O , 43-C ) :   1.0598 B( 43-C , 44-O ) :   2.2419
B( 43-C , 45-C ) :   0.9018 B( 45-C , 46-C ) :   1.3222 B( 46-C , 47-C ) :   1.3195
B( 46-C , 54-C ) :   1.1280 B( 47-C , 48-C ) :   1.3706 B( 47-C , 52-C ) :   0.9053
B( 48-C , 49-C ) :   0.9043 B( 49-C , 50-O ) :   2.2530 B( 49-C , 51-O ) :   1.0484
B( 51-O , 52-C ) :   1.0640 B( 52-C , 53-O ) :   2.2339 B( 54-C , 55-C ) :   1.6726
B( 54-C , 87-H ) :   0.9352 B( 55-C , 56-C ) :   1.1844 B( 55-C , 88-H ) :   0.9337
B( 56-C , 57-O ) :   1.1528 B( 56-C , 60-C ) :   1.4327 B( 57-O , 58-C ) :   1.1631
B( 58-C , 59-C ) :   1.4647 B( 58-C , 67-C ) :   1.1328 B( 59-C , 60-C ) :   1.2998
B( 59-C , 63-C ) :   0.9254 B( 60-C , 61-C ) :   1.1364 B( 61-C , 62-N ) :   2.9827
B( 63-C , 64-F ) :   1.1688 B( 63-C , 65-F ) :   1.1915 B( 63-C , 66-F ) :   1.1754
B( 67-C , 68-C ) :   1.9189 B( 67-C , 89-H ) :   0.9411 B( 68-C , 90-H ) :   0.9605
B( 68-C , 91-H ) :   0.9424

-----------------------------------------------------------------------------
         ABSORPTION SPECTRUM VIA TRANSITION ELECTRIC DIPOLE MOMENTS
-----------------------------------------------------------------------------
State   Energy  Wavelength   fosc         T2         TX        TY        TZ
        (cm-1)    (nm)                  (au**2)     (au)      (au)      (au)
-----------------------------------------------------------------------------
   0   13403.5    746.1   1.102350418  27.07555  -3.08571  -4.16078  -0.49178
   1   15480.9    646.0   0.016656491   0.35421  -0.32297  -0.06303  -0.49591
   2   20489.5    488.1   0.004221336   0.06783   0.02097  -0.15790   0.20604
   3   23194.7    431.1   0.036063277   0.51186  -0.29489   0.02926  -0.65119
   4   24589.6    406.7   0.277709271   3.71805   0.65031   1.59221   0.87178
   5   24724.5    404.5   1.172308640  15.60957   1.75525   3.26701   1.36209
   6   25518.2    391.9   0.012151078   0.15676  -0.01345   0.23280   0.31998
   7   26459.2    377.9   0.231988274   2.88646   0.26427   1.24964   1.12028
   8   27264.3    366.8   0.002692544   0.03251   0.14844   0.10204  -0.00806
   9   29044.8    344.3   0.171416300   1.94294   0.14384   0.90327   1.05183
  10   30702.8    325.7   0.001252469   0.01343   0.02687   0.10468  -0.04183
  11   31203.1    320.5   0.007293137   0.07695  -0.07228  -0.22979   0.13755
  12   31476.3    317.7   0.004170115   0.04362  -0.05082  -0.11318   0.16800
  13   31744.8    315.0   0.039908719   0.41388  -0.11651  -0.57031   0.27396
  14   32690.6    305.9   0.150082735   1.51141   0.19271   0.80772   0.90657
  15   32988.7    303.1   0.059138442   0.59017  -0.27867  -0.65631  -0.28596
  16   33156.4    301.6   0.006361548   0.06316  -0.10108  -0.13860   0.18368
  17   33735.9    296.4   0.282848141   2.76017  -0.83428  -1.25112  -0.70629
  18   34465.8    290.1   0.013804072   0.13185  -0.22613   0.04726  -0.28016
  19   35628.5    280.7   0.003797346   0.03509   0.09151  -0.09012   0.13635
  20   35754.0    279.7   0.022448940   0.20670  -0.12770   0.10544   0.42341
  21   36084.9    277.1   0.012352987   0.11270   0.08343   0.25124   0.20645
  22   36220.5    276.1   0.042446871   0.38580   0.29564   0.53464   0.11209
  23   36506.4    273.9   0.027459886   0.24763   0.27734   0.29522  -0.28907
  24   37035.5    270.0   0.192027201   1.70695   0.01131  -0.84303  -0.99806
  25   37449.0    267.0   0.025933940   0.22798   0.02502  -0.34104   0.33324
  26   38202.1    261.8   0.023481340   0.20235  -0.07381  -0.42579  -0.12494
  27   38743.9    258.1   0.002886328   0.02453   0.03662   0.14701   0.03965
  28   39254.6    254.7   0.031350479   0.26292   0.17217   0.47828   0.06730
  29   40006.6    250.0   0.058499061   0.48139  -0.15919  -0.61872  -0.27061
  30   40228.4    248.6   0.007868506   0.06439   0.07493  -0.08527   0.22695

FINAL SINGLE POINT ENERGY     -3823.918849256251

DIPOLE MOMENT
-------------
                                X             Y             Z
Electronic contribution:     28.46666      -0.17718      -5.37814
Nuclear contribution   :    -30.38634       1.08445       5.18098
                        -----------------------------------------
Total Dipole Moment    :     -1.91968       0.90727      -0.19716
                        -----------------------------------------
Magnitude (a.u.)       :      2.13241
Magnitude (Debye)      :      5.42017

Rotational constants in cm-1:     0.003373     0.000213     0.000207
Rotational constants in MHz :   101.129689     6.377091     6.204460

                             ****ORCA TERMINATED NORMALLY****
TOTAL RUN TIME: 0 days 0 hours 8 minutes 5 seconds 902 msec
