                         Program Version 4.2.0 -  RELEASE  -
|  1> # ORCA input file
|  2> # SCF done        -90.564770458223          0.000430763124
|  3> ! CAM-B3LYP def2-SVP def2/J RIJCOSX Grid4 TightSCF
|  4> %maxcore 5000
|  5> %tddft
|  6>     Mode sTDDFT
|  7>     Ethresh 5.0
|  8>     maxcore 5000
|  9> end
| 10>
| 11> %pal
| 12>   nprocs 6
| 13>   end
| 14> * xyz 0 1
| 15>    C        1.19315        -0.66881         2.99592
| 16>    S       -0.09687        -1.03345         1.88379
| 17>    C        0.84532        -0.33269         0.64078
| 18>    C        2.04165         0.11660         1.14227
| 19>    N        2.20598        -0.08927         2.47871
| 20>    C        3.06994         0.75411         0.37382
| 21>    S        4.57582         1.28275         1.09422
| 22>    C        4.99842         1.82292        -0.53253
| 23>    N        4.05513         1.58240        -1.39781
| 24>    N        2.99667         0.99540        -0.89862
| 25>    C        6.24833         2.43576        -0.81923
| 26>    C        6.58314         2.84062        -2.06620
| 27>    C        7.81814         3.43300        -2.43435
| 28>    N        8.06183         3.79119        -3.74620
| 29>    C        9.31526         4.30504        -3.83058
| 30>    C       10.25875         4.83467        -4.70540
| 31>    C       11.38873         5.12108        -3.92975
| 32>    N       11.13702         4.78061        -2.61438
| 33>    C        9.88035         4.27648        -2.52895
| 34>    C        8.94234         3.73229        -1.65666
| 35>    C       12.64947         5.64555        -4.30751
| 36>    C       13.01421         5.99084        -5.56545
| 37>    C       14.31464         6.47341        -5.86404
| 38>    S       14.80521         6.89268        -7.50509
| 39>    C       16.37686         7.27330        -6.79445
| 40>    N       16.39756         7.07763        -5.50968
| 41>    N       15.27860         6.64293        -5.00149
| 42>    C       17.46637         7.72884        -7.58850
| 43>    C       18.68109         8.00838        -7.07516
| 44>    C       19.79161         8.45243        -7.84539
| 45>    S       19.69836         8.68533        -9.60080
| 46>    C       21.34365         9.16336        -9.57191
| 47>    C       21.83329         9.11840        -8.29997
| 48>    N       20.96070         8.72286        -7.36028
| 49>    H        1.11483        -0.92462         4.03330
| 50>    H        0.50325        -0.27807        -0.37148
| 51>    H        6.92804         2.55677         0.00961
| 52>    H        5.85500         2.69224        -2.85259
| 53>    H        7.40486         3.67063        -4.49779
| 54>    H       10.16377         4.99600        -5.75967
| 55>    H       11.79884         4.88766        -1.86500
| 56>    H        9.04044         3.56422        -0.60382
| 57>    H       13.38603         5.76634        -3.52413
| 58>    H       12.32796         5.89800        -6.39270
| 59>    H       17.27733         7.83731        -8.64821
| 60>    H       18.85741         7.89422        -6.01550
| 61>    H       21.84613         9.44425       -10.47502
| 62>    H       22.83749         9.36978        -8.00986
| 63> *
| 64>
| 65>                          ****END OF INPUT****

CARTESIAN COORDINATES (ANGSTROEM)
---------------------------------
  C      1.193150   -0.668810    2.995920
  S     -0.096870   -1.033450    1.883790
  C      0.845320   -0.332690    0.640780
  C      2.041650    0.116600    1.142270
  N      2.205980   -0.089270    2.478710
  C      3.069940    0.754110    0.373820
  S      4.575820    1.282750    1.094220
  C      4.998420    1.822920   -0.532530
  N      4.055130    1.582400   -1.397810
  N      2.996670    0.995400   -0.898620
  C      6.248330    2.435760   -0.819230
  C      6.583140    2.840620   -2.066200
  C      7.818140    3.433000   -2.434350
  N      8.061830    3.791190   -3.746200
  C      9.315260    4.305040   -3.830580
  C     10.258750    4.834670   -4.705400
  C     11.388730    5.121080   -3.929750
  N     11.137020    4.780610   -2.614380
  C      9.880350    4.276480   -2.528950
  C      8.942340    3.732290   -1.656660
  C     12.649470    5.645550   -4.307510
  C     13.014210    5.990840   -5.565450
  C     14.314640    6.473410   -5.864040
  S     14.805210    6.892680   -7.505090
  C     16.376860    7.273300   -6.794450
  N     16.397560    7.077630   -5.509680
  N     15.278600    6.642930   -5.001490
  C     17.466370    7.728840   -7.588500
  C     18.681090    8.008380   -7.075160
  C     19.791610    8.452430   -7.845390
  S     19.698360    8.685330   -9.600800
  C     21.343650    9.163360   -9.571910
  C     21.833290    9.118400   -8.299970
  N     20.960700    8.722860   -7.360280
  H      1.114830   -0.924620    4.033300
  H      0.503250   -0.278070   -0.371480
  H      6.928040    2.556770    0.009610
  H      5.855000    2.692240   -2.852590
  H      7.404860    3.670630   -4.497790
  H     10.163770    4.996000   -5.759670
  H     11.798840    4.887660   -1.865000
  H      9.040440    3.564220   -0.603820
  H     13.386030    5.766340   -3.524130
  H     12.327960    5.898000   -6.392700
  H     17.277330    7.837310   -8.648210
  H     18.857410    7.894220   -6.015500
  H     21.846130    9.444250  -10.475020
  H     22.837490    9.369780   -8.009860

 Total Charge           Charge          ....    0
 Multiplicity           Mult            ....    1
 Number of Electrons    NEL             ....  266
 Basis Dimension        Dim             ....  562

ORBITAL ENERGIES
----------------

  NO   OCC          E(Eh)            E(eV)
   0   2.0000     -88.968003     -2420.9424
   1   2.0000     -88.958934     -2420.6957
   2   2.0000     -88.956957     -2420.6419
   3   2.0000     -88.956260     -2420.6229
   4   2.0000     -14.457294      -393.4030
   5   2.0000     -14.457173      -393.3997
   6   2.0000     -14.424482      -392.5101
   7   2.0000     -14.423057      -392.4713
   8   2.0000     -14.420631      -392.4053
   9   2.0000     -14.417059      -392.3081
  10   2.0000     -14.414503      -392.2386
  11   2.0000     -14.399885      -391.8408
  12   2.0000     -10.331802      -281.1426
  13   2.0000     -10.329720      -281.0860
  14   2.0000     -10.328221      -281.0452
  15   2.0000     -10.328169      -281.0438
  16   2.0000     -10.326353      -280.9944
  17   2.0000     -10.325703      -280.9767
  18   2.0000     -10.312423      -280.6153
  19   2.0000     -10.304507      -280.3999
  20   2.0000     -10.304330      -280.3951
  21   2.0000     -10.301689      -280.3232
  22   2.0000     -10.295149      -280.1452
  23   2.0000     -10.293590      -280.1028
  24   2.0000     -10.293234      -280.0931
  25   2.0000     -10.292754      -280.0801
  26   2.0000     -10.288225      -279.9568
  27   2.0000     -10.285883      -279.8931
  28   2.0000     -10.284374      -279.8520
  29   2.0000     -10.283721      -279.8343
  30   2.0000     -10.276951      -279.6501
  31   2.0000     -10.276148      -279.6282
  32   2.0000     -10.265077      -279.3269
  33   2.0000     -10.264027      -279.2984
  34   2.0000      -8.064750      -219.4530
  35   2.0000      -8.055375      -219.1979
  36   2.0000      -8.052968      -219.1324
  37   2.0000      -8.052583      -219.1219
  38   2.0000      -6.033727      -164.1861
  39   2.0000      -6.029461      -164.0700
  40   2.0000      -6.027398      -164.0138
  41   2.0000      -6.024075      -163.9234
  42   2.0000      -6.021774      -163.8608
  43   2.0000      -6.021538      -163.8544
  44   2.0000      -6.020786      -163.8339
  45   2.0000      -6.018254      -163.7650
  46   2.0000      -6.017654      -163.7487
  47   2.0000      -6.017614      -163.7476
  48   2.0000      -6.015272      -163.6839
  49   2.0000      -6.015035      -163.6774
  50   2.0000      -1.126480       -30.6531
  51   2.0000      -1.123952       -30.5843
  52   2.0000      -1.089011       -29.6335
  53   2.0000      -1.069212       -29.0947
  54   2.0000      -1.055872       -28.7318
  55   2.0000      -1.052608       -28.6429
  56   2.0000      -0.937181       -25.5020
  57   2.0000      -0.929902       -25.3039
  58   2.0000      -0.915698       -24.9174
  59   2.0000      -0.907076       -24.6828
  60   2.0000      -0.896008       -24.3816
  61   2.0000      -0.885838       -24.1049
  62   2.0000      -0.884936       -24.0803
  63   2.0000      -0.878935       -23.9170
  64   2.0000      -0.872166       -23.7328
  65   2.0000      -0.861261       -23.4361
  66   2.0000      -0.845210       -22.9993
  67   2.0000      -0.827500       -22.5174
  68   2.0000      -0.809698       -22.0330
  69   2.0000      -0.786936       -21.4136
  70   2.0000      -0.755230       -20.5508
  71   2.0000      -0.733956       -19.9719
  72   2.0000      -0.710371       -19.3302
  73   2.0000      -0.703365       -19.1395
  74   2.0000      -0.693936       -18.8830
  75   2.0000      -0.692390       -18.8409
  76   2.0000      -0.681469       -18.5437
  77   2.0000      -0.680927       -18.5290
  78   2.0000      -0.665124       -18.0989
  79   2.0000      -0.653094       -17.7716
  80   2.0000      -0.645023       -17.5520
  81   2.0000      -0.627765       -17.0824
  82   2.0000      -0.621309       -16.9067
  83   2.0000      -0.612573       -16.6690
  84   2.0000      -0.596605       -16.2345
  85   2.0000      -0.589389       -16.0381
  86   2.0000      -0.581673       -15.8281
  87   2.0000      -0.569162       -15.4877
  88   2.0000      -0.558404       -15.1949
  89   2.0000      -0.551945       -15.0192
  90   2.0000      -0.539712       -14.6863
  91   2.0000      -0.534681       -14.5494
  92   2.0000      -0.531681       -14.4678
  93   2.0000      -0.527334       -14.3495
  94   2.0000      -0.523311       -14.2400
  95   2.0000      -0.519834       -14.1454
  96   2.0000      -0.518766       -14.1163
  97   2.0000      -0.510001       -13.8778
  98   2.0000      -0.502348       -13.6696
  99   2.0000      -0.500391       -13.6163
 100   2.0000      -0.500196       -13.6110
 101   2.0000      -0.494913       -13.4673
 102   2.0000      -0.490621       -13.3505
 103   2.0000      -0.485359       -13.2073
 104   2.0000      -0.479259       -13.0413
 105   2.0000      -0.473409       -12.8821
 106   2.0000      -0.468799       -12.7567
 107   2.0000      -0.456428       -12.4200
 108   2.0000      -0.453642       -12.3442
 109   2.0000      -0.450626       -12.2621
 110   2.0000      -0.443365       -12.0646
 111   2.0000      -0.440702       -11.9921
 112   2.0000      -0.430438       -11.7128
 113   2.0000      -0.422696       -11.5021
 114   2.0000      -0.408406       -11.1133
 115   2.0000      -0.387415       -10.5421
 116   2.0000      -0.376741       -10.2516
 117   2.0000      -0.376024       -10.2321
 118   2.0000      -0.370325       -10.0771
 119   2.0000      -0.361256        -9.8303
 120   2.0000      -0.357735        -9.7345
 121   2.0000      -0.355235        -9.6664
 122   2.0000      -0.352736        -9.5984
 123   2.0000      -0.349642        -9.5142
 124   2.0000      -0.339417        -9.2360
 125   2.0000      -0.339203        -9.2302
 126   2.0000      -0.315011        -8.5719
 127   2.0000      -0.310793        -8.4571
 128   2.0000      -0.310729        -8.4554
 129   2.0000      -0.290732        -7.9112
 130   2.0000      -0.286508        -7.7963
 131   2.0000      -0.267555        -7.2805
 132   2.0000      -0.220339        -5.9957
 133   0.0000      -0.061515        -1.6739
 134   0.0000      -0.038105        -1.0369
 135   0.0000      -0.011880        -0.3233
 136   0.0000       0.005844         0.1590
 137   0.0000       0.036324         0.9884

MULLIKEN ATOMIC CHARGES
-----------------------
   0 C :   -0.001975
   1 S :    0.105815
   2 C :   -0.105920
   3 C :    0.050800
   4 N :   -0.081133
   5 C :   -0.092029
   6 S :    0.118006
   7 C :   -0.086382
   8 N :   -0.076099
   9 N :   -0.041065
  10 C :    0.026555
  11 C :    0.022041
  12 C :    0.105541
  13 N :   -0.033292
  14 C :    0.115532
  15 C :   -0.166891
  16 C :    0.104544
  17 N :   -0.032755
  18 C :    0.116427
  19 C :   -0.168519
  20 C :    0.022583
  21 C :    0.029426
  22 C :   -0.092789
  23 S :    0.075154
  24 C :   -0.112876
  25 N :   -0.040246
  26 N :   -0.064875
  27 C :    0.052627
  28 C :    0.074084
  29 C :   -0.116146
  30 S :    0.086933
  31 C :   -0.071320
  32 C :    0.062968
  33 N :   -0.064602
  34 H :    0.042615
  35 H :    0.037215
  36 H :   -0.018770
  37 H :   -0.001666
  38 H :    0.123060
  39 H :   -0.033751
  40 H :    0.123512
  41 H :   -0.033100
  42 H :    0.000598
  43 H :   -0.019547
  44 H :   -0.005144
  45 H :    0.028446
  46 H :    0.033211
  47 H :    0.003198
Sum of atomic charges:    0.0000000

LOEWDIN ATOMIC CHARGES
----------------------
   0 C :   -0.125296
   1 S :    0.430070
   2 C :   -0.172700
   3 C :   -0.078025
   4 N :   -0.095895
   5 C :   -0.161144
   6 S :    0.400208
   7 C :   -0.144823
   8 N :   -0.097411
   9 N :   -0.079792
  10 C :   -0.072036
  11 C :    0.008272
  12 C :   -0.005073
  13 N :    0.072642
  14 C :   -0.018925
  15 C :   -0.085456
  16 C :   -0.007841
  17 N :    0.073439
  18 C :   -0.017464
  19 C :   -0.087352
  20 C :    0.011509
  21 C :   -0.076291
  22 C :   -0.141352
  23 S :    0.364428
  24 C :   -0.155248
  25 N :   -0.073120
  26 N :   -0.092588
  27 C :   -0.055742
  28 C :   -0.002942
  29 C :   -0.132617
  30 S :    0.400931
  31 C :   -0.197171
  32 C :   -0.036517
  33 N :   -0.090065
  34 H :    0.019894
  35 H :    0.035286
  36 H :    0.027380
  37 H :    0.036616
  38 H :    0.090822
  39 H :    0.023810
  40 H :    0.091118
  41 H :    0.024040
  42 H :    0.037299
  43 H :    0.027227
  44 H :    0.024392
  45 H :    0.051440
  46 H :    0.026888
  47 H :    0.025171

  Mayer bond orders larger than 0.100000
B(  0-C ,  1-S ) :   1.1631 B(  0-C ,  4-N ) :   1.7282 B(  0-C , 34-H ) :   0.9655
B(  1-S ,  2-C ) :   1.1665 B(  2-C ,  3-C ) :   1.5674 B(  2-C , 35-H ) :   0.9636
B(  3-C ,  4-N ) :   1.3994 B(  3-C ,  5-C ) :   1.0391 B(  5-C ,  6-S ) :   1.0983
B(  5-C ,  9-N ) :   1.7707 B(  6-S ,  7-C ) :   1.0800 B(  7-C ,  8-N ) :   1.6884
B(  7-C , 10-C ) :   1.1056 B(  8-N ,  9-N ) :   1.2075 B( 10-C , 11-C ) :   1.7047
B( 10-C , 36-H ) :   0.9523 B( 11-C , 12-C ) :   1.0985 B( 11-C , 37-H ) :   0.9689
B( 12-C , 13-N ) :   1.1710 B( 12-C , 19-C ) :   1.4020 B( 13-N , 14-C ) :   1.1693
B( 13-N , 38-H ) :   0.9368 B( 14-C , 15-C ) :   1.2654 B( 14-C , 18-C ) :   1.3051
B( 15-C , 16-C ) :   1.3962 B( 15-C , 39-H ) :   1.0306 B( 16-C , 17-N ) :   1.1690
B( 16-C , 20-C ) :   1.1045 B( 17-N , 18-C ) :   1.1726 B( 17-N , 40-H ) :   0.9367
B( 18-C , 19-C ) :   1.2607 B( 19-C , 41-H ) :   1.0310 B( 20-C , 21-C ) :   1.6931
B( 20-C , 42-H ) :   0.9689 B( 21-C , 22-C ) :   1.1171 B( 21-C , 43-H ) :   0.9532
B( 22-C , 23-S ) :   1.0853 B( 22-C , 26-N ) :   1.6740 B( 23-S , 24-C ) :   1.0737
B( 24-C , 25-N ) :   1.7063 B( 24-C , 27-C ) :   1.1119 B( 25-N , 26-N ) :   1.2180
B( 27-C , 28-C ) :   1.7061 B( 27-C , 44-H ) :   0.9439 B( 28-C , 29-C ) :   1.0929
B( 28-C , 45-H ) :   0.9847 B( 29-C , 30-S ) :   1.0985 B( 29-C , 33-N ) :   1.7053
B( 30-S , 31-C ) :   1.1693 B( 31-C , 32-C ) :   1.5665 B( 31-C , 46-H ) :   0.9702
B( 32-C , 33-N ) :   1.3594 B( 32-C , 47-H ) :   0.9943

-----------------------------------------------------------------------------
         ABSORPTION SPECTRUM VIA TRANSITION ELECTRIC DIPOLE MOMENTS
-----------------------------------------------------------------------------
State   Energy  Wavelength   fosc         T2         TX        TY        TZ
        (cm-1)    (nm)                  (au**2)     (au)      (au)      (au)
-----------------------------------------------------------------------------
   0   19999.8    500.0   2.672086819  43.98456   5.42080   2.55143  -2.84425
   1   26371.4    379.2   0.075278273   0.93975  -0.68468  -0.57306   0.37758
   2   30272.2    330.3   0.000363312   0.00395  -0.04253  -0.03728   0.02743
   3   31020.8    322.4   0.185190718   1.96536  -1.17589  -0.33900   0.68390
   4   31939.6    313.1   0.005450465   0.05618  -0.20669  -0.02900  -0.11232
   5   32486.9    307.8   0.000201535   0.00204   0.00369   0.04263  -0.01452
   6   32962.8    303.4   0.105082698   1.04950  -0.23451  -0.32092   0.94420
   7   35599.5    280.9   0.194361516   1.79739   1.15932   0.53104  -0.41395
   8   36261.2    275.8   0.138604849   1.25838   0.94651   0.46638  -0.38078
   9   38308.5    261.0   0.063956351   0.54962  -0.53715  -0.26177   0.43883
  10   38580.9    259.2   0.009356845   0.07984  -0.15630   0.21055   0.10527
  11   40172.8    248.9   0.015603249   0.12787   0.20161   0.15538  -0.25116

FINAL SINGLE POINT ENERGY     -2875.367538309045

DIPOLE MOMENT
-------------
                                X             Y             Z
Electronic contribution:    -13.47408      -6.47856       5.22035
Nuclear contribution   :     12.66417       6.21585      -5.72966
                        -----------------------------------------
Total Dipole Moment    :     -0.80990      -0.26271      -0.50930
                        -----------------------------------------
Magnitude (a.u.)       :      0.99214
Magnitude (Debye)      :      2.52183

Rotational constants in cm-1:     0.032985     0.000459     0.000454
Rotational constants in MHz :   988.867752    13.772096    13.603917

                             ****ORCA TERMINATED NORMALLY****
TOTAL RUN TIME: 0 days 0 hours 1 minutes 54 seconds 657 msec
