                         Program Version 4.2.0 -  RELEASE  -
|  1> # ORCA input file
|  2> # SCF done       -215.712278661709          0.000509566807
|  3> ! CAM-B3LYP def2-SVP def2/J RIJCOSX Grid4 TightSCF
|  4> %maxcore 5000
|  5> %tddft
|  6>     Mode sTDDFT
|  7>     Ethresh 5.0
|  8>     maxcore 5000
|  9> end
| 10>
| 11> %pal
| 12>   nprocs 6
| 13>   end
| 14> * xyz 0 1
| 15>    C        3.71945         1.86827         5.26250
| 16>    C        4.58726         2.92752         5.08334
| 17>    C        4.88839         3.13470         3.68919
| 18>    N        5.70678         4.09759         3.27214
| 19>    C        6.23397         4.86664         4.20083
| 20>    C        7.14828         5.93882         3.74018
| 21>    O        7.42819         6.10313         2.57051
| 22>    C        7.69625         6.79252         4.80891
| 23>    C        7.42050         6.62094         6.10500
| 24>    C        6.53661         5.55958         6.62522
| 25>    O        6.32041         5.42762         7.80860
| 26>    C        5.93514         4.67175         5.59074
| 27>    N        5.13421         3.72523         6.01675
| 28>    C        4.23550         2.22540         2.85257
| 29>    S        3.27157         1.13617         3.78480
| 30>    C        4.36261         2.21817         1.45112
| 31>    S        5.37946         3.38637         0.64774
| 32>    C        3.78194         1.38378         0.52295
| 33>    C        2.86483         0.24172         0.55528
| 34>    O        2.34469        -0.29393         1.50807
| 35>    N        2.71583        -0.12280        -0.77032
| 36>    C        1.85911        -1.20380        -1.20928
| 37>    C        0.46824        -0.69439        -1.57021
| 38>    C        3.44316         0.67494        -1.66461
| 39>    O        3.45747         0.51642        -2.85533
| 40>    C        4.13495         1.65905        -0.81036
| 41>    C        5.00377         2.72536        -0.94848
| 42>    C        5.56447         3.27601        -2.12357
| 43>    C        6.42841         4.32627        -2.07693
| 44>    C        7.03140         4.91346        -3.21221
| 45>    N        7.94035         5.94333        -3.13772
| 46>    C        8.46079         6.54678        -1.93314
| 47>    C        9.51428         5.66892        -1.26303
| 48>    C        8.40109         6.33200        -4.40653
| 49>    O        9.23565         7.19398        -4.58761
| 50>    C        7.67501         5.47850        -5.32641
| 51>    C        6.85550         4.61371        -4.56354
| 52>    C        6.14582         3.74602        -5.47934
| 53>    O        5.34045         2.85800        -5.30156
| 54>    N        6.58828         4.15518        -6.75295
| 55>    C        6.17382         3.45890        -7.94700
| 56>    C        7.24607         2.48535        -8.43134
| 57>    C        7.49597         5.18110        -6.67578
| 58>    C        8.10839         5.77984        -7.80965
| 59>    C        8.94583         6.83422        -7.70623
| 60>    C        9.63305         7.45195        -8.80803
| 61>    C       10.29464         6.77858        -9.85900
| 62>    C       10.47246         5.31338        -9.91857
| 63>    O       10.10752         4.47547        -9.14771
| 64>    S       11.41131         4.88683       -11.38842
| 65>    C       11.56983         6.59439       -11.90186
| 66>    O       12.11292         6.90854       -12.92010
| 67>    C       10.94022         7.46621       -10.89119
| 68>    C       10.98564         8.87424       -10.97861
| 69>    C       10.38885         9.53494        -9.88943
| 70>    C        9.75124         8.85064        -8.86534
| 71>    C        9.22932         9.85895        -7.90988
| 72>    O        8.53217         9.72667        -6.95563
| 73>    O        9.67890        11.08508        -8.34302
| 74>    C       10.39397        10.97368        -9.50915
| 75>    O       10.92534        11.90777       -10.02215
| 76>    C       11.61398         9.55574       -12.07673
| 77>    C       11.14988        10.69709       -12.62771
| 78>    C       11.76239        11.36075       -13.71814
| 79>    C       11.24262        12.47059       -14.39132
| 80>    C       12.11032        12.94465       -15.44370
| 81>    N       11.77473        14.01280       -16.18672
| 82>    C       10.62739        14.58224       -15.91450
| 83>    C       10.26011        15.77690       -16.72613
| 84>    O       10.96133        16.20537       -17.61439
| 85>    C        8.97539        16.40773       -16.36731
| 86>    C        8.15547        15.93717       -15.42373
| 87>    C        8.43442        14.72693       -14.62742
| 88>    O        7.64058        14.28438       -13.82713
| 89>    C        9.75243        14.08989       -14.88823
| 90>    N       10.06604        13.05463       -14.14464
| 91>    C       13.25699        12.18358       -15.55404
| 92>    S       13.28917        10.92476       -14.40959
| 93>    H        3.33536         1.50069         6.19283
| 94>    H        8.35285         7.58375         4.47266
| 95>    H        7.84498         7.26810         6.86083
| 96>    H        1.80279        -1.92572        -0.39119
| 97>    H        2.33102        -1.66371        -2.08092
| 98>    H        0.00157        -0.22685        -0.70600
| 99>    H       -0.15297        -1.52299        -1.89770
|100>    H        0.53427         0.03331        -2.37557
|101>    H        5.27997         2.82132        -3.06508
|102>    H        6.67902         4.74305        -1.10983
|103>    H        7.64015         6.75639        -1.24242
|104>    H        8.91320         7.49302        -2.24217
|105>    H        9.10114         4.69967        -0.99387
|106>    H        9.87001         6.15522        -0.35952
|107>    H       10.35565         5.51526        -1.93452
|108>    H        5.92165         4.18452        -8.72550
|109>    H        5.26981         2.90672        -7.67477
|110>    H        8.18049         3.00044        -8.64315
|111>    H        6.90668         1.98501        -9.33413
|112>    H        7.43308         1.73391        -7.66842
|113>    H        7.86223         5.37242        -8.77878
|114>    H        9.09063         7.30659        -6.74096
|115>    H       12.47084         9.06774       -12.52171
|116>    H       10.23628        11.16395       -12.28738
|117>    H        8.72848        17.29284       -16.93824
|118>    H        7.21603        16.42426       -15.19888
|119>    H       14.06190        12.31790       -16.24850
|120> *
|121>
|122>                          ****END OF INPUT****

CARTESIAN COORDINATES (ANGSTROEM)
---------------------------------
  C      3.719450    1.868270    5.262500
  C      4.587260    2.927520    5.083340
  C      4.888390    3.134700    3.689190
  N      5.706780    4.097590    3.272140
  C      6.233970    4.866640    4.200830
  C      7.148280    5.938820    3.740180
  O      7.428190    6.103130    2.570510
  C      7.696250    6.792520    4.808910
  C      7.420500    6.620940    6.105000
  C      6.536610    5.559580    6.625220
  O      6.320410    5.427620    7.808600
  C      5.935140    4.671750    5.590740
  N      5.134210    3.725230    6.016750
  C      4.235500    2.225400    2.852570
  S      3.271570    1.136170    3.784800
  C      4.362610    2.218170    1.451120
  S      5.379460    3.386370    0.647740
  C      3.781940    1.383780    0.522950
  C      2.864830    0.241720    0.555280
  O      2.344690   -0.293930    1.508070
  N      2.715830   -0.122800   -0.770320
  C      1.859110   -1.203800   -1.209280
  C      0.468240   -0.694390   -1.570210
  C      3.443160    0.674940   -1.664610
  O      3.457470    0.516420   -2.855330
  C      4.134950    1.659050   -0.810360
  C      5.003770    2.725360   -0.948480
  C      5.564470    3.276010   -2.123570
  C      6.428410    4.326270   -2.076930
  C      7.031400    4.913460   -3.212210
  N      7.940350    5.943330   -3.137720
  C      8.460790    6.546780   -1.933140
  C      9.514280    5.668920   -1.263030
  C      8.401090    6.332000   -4.406530
  O      9.235650    7.193980   -4.587610
  C      7.675010    5.478500   -5.326410
  C      6.855500    4.613710   -4.563540
  C      6.145820    3.746020   -5.479340
  O      5.340450    2.858000   -5.301560
  N      6.588280    4.155180   -6.752950
  C      6.173820    3.458900   -7.947000
  C      7.246070    2.485350   -8.431340
  C      7.495970    5.181100   -6.675780
  C      8.108390    5.779840   -7.809650
  C      8.945830    6.834220   -7.706230
  C      9.633050    7.451950   -8.808030
  C     10.294640    6.778580   -9.859000
  C     10.472460    5.313380   -9.918570
  O     10.107520    4.475470   -9.147710
  S     11.411310    4.886830  -11.388420
  C     11.569830    6.594390  -11.901860
  O     12.112920    6.908540  -12.920100
  C     10.940220    7.466210  -10.891190
  C     10.985640    8.874240  -10.978610
  C     10.388850    9.534940   -9.889430
  C      9.751240    8.850640   -8.865340
  C      9.229320    9.858950   -7.909880
  O      8.532170    9.726670   -6.955630
  O      9.678900   11.085080   -8.343020
  C     10.393970   10.973680   -9.509150
  O     10.925340   11.907770  -10.022150
  C     11.613980    9.555740  -12.076730
  C     11.149880   10.697090  -12.627710
  C     11.762390   11.360750  -13.718140
  C     11.242620   12.470590  -14.391320
  C     12.110320   12.944650  -15.443700
  N     11.774730   14.012800  -16.186720
  C     10.627390   14.582240  -15.914500
  C     10.260110   15.776900  -16.726130
  O     10.961330   16.205370  -17.614390
  C      8.975390   16.407730  -16.367310
  C      8.155470   15.937170  -15.423730
  C      8.434420   14.726930  -14.627420
  O      7.640580   14.284380  -13.827130
  C      9.752430   14.089890  -14.888230
  N     10.066040   13.054630  -14.144640
  C     13.256990   12.183580  -15.554040
  S     13.289170   10.924760  -14.409590
  H      3.335360    1.500690    6.192830
  H      8.352850    7.583750    4.472660
  H      7.844980    7.268100    6.860830
  H      1.802790   -1.925720   -0.391190
  H      2.331020   -1.663710   -2.080920
  H      0.001570   -0.226850   -0.706000
  H     -0.152970   -1.522990   -1.897700
  H      0.534270    0.033310   -2.375570
  H      5.279970    2.821320   -3.065080
  H      6.679020    4.743050   -1.109830
  H      7.640150    6.756390   -1.242420
  H      8.913200    7.493020   -2.242170
  H      9.101140    4.699670   -0.993870
  H      9.870010    6.155220   -0.359520
  H     10.355650    5.515260   -1.934520
  H      5.921650    4.184520   -8.725500
  H      5.269810    2.906720   -7.674770
  H      8.180490    3.000440   -8.643150
  H      6.906680    1.985010   -9.334130
  H      7.433080    1.733910   -7.668420
  H      7.862230    5.372420   -8.778780
  H      9.090630    7.306590   -6.740960
  H     12.470840    9.067740  -12.521710
  H     10.236280   11.163950  -12.287380
  H      8.728480   17.292840  -16.938240
  H      7.216030   16.424260  -15.198880
  H     14.061900   12.317900  -16.248500

 Total Charge           Charge          ....    0
 Multiplicity           Mult            ....    1
 Number of Electrons    NEL             ....  568
 Basis Dimension        Dim             .... 1243

ORBITAL ENERGIES
----------------

  NO   OCC          E(Eh)            E(eV)
   0   2.0000     -89.000571     -2421.8287
   1   2.0000     -88.998374     -2421.7689
   2   2.0000     -88.972560     -2421.0665
   3   2.0000     -88.957937     -2420.6685
   4   2.0000     -19.292135      -524.9657
   5   2.0000     -19.250561      -523.8344
   6   2.0000     -19.249942      -523.8175
   7   2.0000     -19.239512      -523.5338
   8   2.0000     -19.239409      -523.5309
   9   2.0000     -19.232069      -523.3312
  10   2.0000     -19.228538      -523.2351
  11   2.0000     -19.223484      -523.0976
  12   2.0000     -19.223454      -523.0968
  13   2.0000     -19.214039      -522.8406
  14   2.0000     -19.208722      -522.6959
  15   2.0000     -19.189954      -522.1852
  16   2.0000     -19.186849      -522.1007
  17   2.0000     -14.453624      -393.3031
  18   2.0000     -14.453029      -393.2869
  19   2.0000     -14.450881      -393.2285
  20   2.0000     -14.449964      -393.2035
  21   2.0000     -14.447584      -393.1388
  22   2.0000     -14.444570      -393.0567
  23   2.0000     -14.442456      -392.9992
  24   2.0000     -10.435151      -283.9549
  25   2.0000     -10.432088      -283.8716
  26   2.0000     -10.414364      -283.3893
  27   2.0000     -10.412768      -283.3458
  28   2.0000     -10.395228      -282.8685
  29   2.0000     -10.391701      -282.7725
  30   2.0000     -10.381385      -282.4918
  31   2.0000     -10.377721      -282.3921
  32   2.0000     -10.372934      -282.2619
  33   2.0000     -10.372773      -282.2575
  34   2.0000     -10.372338      -282.2457
  35   2.0000     -10.369534      -282.1694
  36   2.0000     -10.345085      -281.5041
  37   2.0000     -10.342506      -281.4339
  38   2.0000     -10.340445      -281.3778
  39   2.0000     -10.338881      -281.3352
  40   2.0000     -10.338207      -281.3169
  41   2.0000     -10.337965      -281.3103
  42   2.0000     -10.337722      -281.3037
  43   2.0000     -10.337189      -281.2892
  44   2.0000     -10.335647      -281.2473
  45   2.0000     -10.335291      -281.2376
  46   2.0000     -10.333615      -281.1919
  47   2.0000     -10.333145      -281.1792
  48   2.0000     -10.333085      -281.1775
  49   2.0000     -10.332643      -281.1655
  50   2.0000     -10.331562      -281.1361
  51   2.0000     -10.329979      -281.0930
  52   2.0000     -10.329613      -281.0831
  53   2.0000     -10.329207      -281.0720
  54   2.0000     -10.324973      -280.9568
  55   2.0000     -10.323758      -280.9237
  56   2.0000     -10.321963      -280.8749
  57   2.0000     -10.319554      -280.8093
  58   2.0000     -10.312227      -280.6100
  59   2.0000     -10.311509      -280.5904
  60   2.0000     -10.306282      -280.4482
  61   2.0000     -10.305707      -280.4325
  62   2.0000     -10.305564      -280.4287
  63   2.0000     -10.304241      -280.3926
  64   2.0000     -10.303704      -280.3780
  65   2.0000     -10.303380      -280.3692
  66   2.0000     -10.298708      -280.2421
  67   2.0000     -10.296060      -280.1700
  68   2.0000     -10.294206      -280.1196
  69   2.0000     -10.293892      -280.1110
  70   2.0000     -10.293831      -280.1094
  71   2.0000     -10.293296      -280.0948
  72   2.0000     -10.291202      -280.0378
  73   2.0000     -10.261062      -279.2177
  74   2.0000     -10.259823      -279.1840
  75   2.0000     -10.258072      -279.1363
  76   2.0000     -10.257394      -279.1179
  77   2.0000     -10.254999      -279.0527
  78   2.0000      -8.094082      -220.2512
  79   2.0000      -8.093049      -220.2231
  80   2.0000      -8.066174      -219.4917
  81   2.0000      -8.057332      -219.2512
  82   2.0000      -6.062973      -164.9819
  83   2.0000      -6.061681      -164.9467
  84   2.0000      -6.058327      -164.8554
  85   2.0000      -6.057647      -164.8370
  86   2.0000      -6.057518      -164.8334
  87   2.0000      -6.056707      -164.8114
  88   2.0000      -6.035724      -164.2404
  89   2.0000      -6.031251      -164.1187
  90   2.0000      -6.028119      -164.0334
  91   2.0000      -6.026168      -163.9804
  92   2.0000      -6.022928      -163.8922
  93   2.0000      -6.018369      -163.7681
  94   2.0000      -1.242031       -33.7974
  95   2.0000      -1.176132       -32.0042
  96   2.0000      -1.172044       -31.8929
  97   2.0000      -1.167998       -31.7828
  98   2.0000      -1.157302       -31.4918
  99   2.0000      -1.147779       -31.2326
 100   2.0000      -1.142998       -31.1026
 101   2.0000      -1.141449       -31.0604
 102   2.0000      -1.137259       -30.9464
 103   2.0000      -1.134186       -30.8628
 104   2.0000      -1.131571       -30.7916
 105   2.0000      -1.130035       -30.7498
 106   2.0000      -1.124684       -30.6042
 107   2.0000      -1.101642       -29.9772
 108   2.0000      -1.094713       -29.7887
 109   2.0000      -1.062065       -28.9003
 110   2.0000      -1.053597       -28.6698
 111   2.0000      -1.049432       -28.5565
 112   2.0000      -1.029285       -28.0083
 113   2.0000      -1.021753       -27.8033
 114   2.0000      -1.020925       -27.7808
 115   2.0000      -1.011856       -27.5340
 116   2.0000      -1.002574       -27.2814
 117   2.0000      -0.991376       -26.9767
 118   2.0000      -0.958557       -26.0837
 119   2.0000      -0.943506       -25.6741
 120   2.0000      -0.941408       -25.6170
 121   2.0000      -0.935046       -25.4439
 122   2.0000      -0.926249       -25.2045
 123   2.0000      -0.917894       -24.9772
 124   2.0000      -0.909488       -24.7484
 125   2.0000      -0.901032       -24.5183
 126   2.0000      -0.884836       -24.0776
 127   2.0000      -0.881027       -23.9740
 128   2.0000      -0.874599       -23.7990
 129   2.0000      -0.871283       -23.7088
 130   2.0000      -0.868820       -23.6418
 131   2.0000      -0.863860       -23.5068
 132   2.0000      -0.835092       -22.7240
 133   2.0000      -0.832186       -22.6449
 134   2.0000      -0.826022       -22.4772
 135   2.0000      -0.815785       -22.1986
 136   2.0000      -0.805605       -21.9216
 137   2.0000      -0.801790       -21.8178
 138   2.0000      -0.796666       -21.6784
 139   2.0000      -0.792222       -21.5575
 140   2.0000      -0.787805       -21.4373
 141   2.0000      -0.785105       -21.3638
 142   2.0000      -0.781292       -21.2600
 143   2.0000      -0.770218       -20.9587
 144   2.0000      -0.761785       -20.7292
 145   2.0000      -0.755667       -20.5628
 146   2.0000      -0.752567       -20.4784
 147   2.0000      -0.745722       -20.2921
 148   2.0000      -0.741082       -20.1659
 149   2.0000      -0.732495       -19.9322
 150   2.0000      -0.726227       -19.7616
 151   2.0000      -0.719985       -19.5918
 152   2.0000      -0.707842       -19.2614
 153   2.0000      -0.705197       -19.1894
 154   2.0000      -0.695110       -18.9149
 155   2.0000      -0.690044       -18.7771
 156   2.0000      -0.682760       -18.5788
 157   2.0000      -0.679167       -18.4811
 158   2.0000      -0.672852       -18.3092
 159   2.0000      -0.666563       -18.1381
 160   2.0000      -0.662525       -18.0282
 161   2.0000      -0.659860       -17.9557
 162   2.0000      -0.647456       -17.6182
 163   2.0000      -0.646902       -17.6031
 164   2.0000      -0.643808       -17.5189
 165   2.0000      -0.641231       -17.4488
 166   2.0000      -0.637211       -17.3394
 167   2.0000      -0.634139       -17.2558
 168   2.0000      -0.631375       -17.1806
 169   2.0000      -0.618911       -16.8414
 170   2.0000      -0.616641       -16.7796
 171   2.0000      -0.612068       -16.6552
 172   2.0000      -0.605267       -16.4701
 173   2.0000      -0.602008       -16.3815
 174   2.0000      -0.596374       -16.2282
 175   2.0000      -0.593135       -16.1400
 176   2.0000      -0.592559       -16.1243
 177   2.0000      -0.583882       -15.8882
 178   2.0000      -0.578618       -15.7450
 179   2.0000      -0.577394       -15.7117
 180   2.0000      -0.575515       -15.6606
 181   2.0000      -0.568405       -15.4671
 182   2.0000      -0.566463       -15.4142
 183   2.0000      -0.563581       -15.3358
 184   2.0000      -0.561659       -15.2835
 185   2.0000      -0.560239       -15.2449
 186   2.0000      -0.559038       -15.2122
 187   2.0000      -0.557355       -15.1664
 188   2.0000      -0.556166       -15.1340
 189   2.0000      -0.555675       -15.1207
 190   2.0000      -0.553697       -15.0669
 191   2.0000      -0.551910       -15.0182
 192   2.0000      -0.551146       -14.9975
 193   2.0000      -0.547705       -14.9038
 194   2.0000      -0.545721       -14.8498
 195   2.0000      -0.544388       -14.8136
 196   2.0000      -0.541823       -14.7438
 197   2.0000      -0.537507       -14.6263
 198   2.0000      -0.534977       -14.5575
 199   2.0000      -0.531938       -14.4748
 200   2.0000      -0.529019       -14.3953
 201   2.0000      -0.526553       -14.3282
 202   2.0000      -0.524568       -14.2742
 203   2.0000      -0.522649       -14.2220
 204   2.0000      -0.521867       -14.2007
 205   2.0000      -0.520770       -14.1709
 206   2.0000      -0.518317       -14.1041
 207   2.0000      -0.514960       -14.0128
 208   2.0000      -0.514376       -13.9969
 209   2.0000      -0.513734       -13.9794
 210   2.0000      -0.511282       -13.9127
 211   2.0000      -0.508514       -13.8374
 212   2.0000      -0.508215       -13.8292
 213   2.0000      -0.506607       -13.7855
 214   2.0000      -0.505940       -13.7673
 215   2.0000      -0.502047       -13.6614
 216   2.0000      -0.501674       -13.6512
 217   2.0000      -0.498273       -13.5587
 218   2.0000      -0.496002       -13.4969
 219   2.0000      -0.495191       -13.4748
 220   2.0000      -0.494993       -13.4695
 221   2.0000      -0.494173       -13.4471
 222   2.0000      -0.491352       -13.3704
 223   2.0000      -0.488055       -13.2807
 224   2.0000      -0.487247       -13.2587
 225   2.0000      -0.486516       -13.2388
 226   2.0000      -0.482739       -13.1360
 227   2.0000      -0.481073       -13.0907
 228   2.0000      -0.476535       -12.9672
 229   2.0000      -0.472695       -12.8627
 230   2.0000      -0.471097       -12.8192
 231   2.0000      -0.465349       -12.6628
 232   2.0000      -0.464743       -12.6463
 233   2.0000      -0.460527       -12.5316
 234   2.0000      -0.457529       -12.4500
 235   2.0000      -0.455403       -12.3922
 236   2.0000      -0.453532       -12.3412
 237   2.0000      -0.451156       -12.2766
 238   2.0000      -0.449838       -12.2407
 239   2.0000      -0.446340       -12.1455
 240   2.0000      -0.444927       -12.1071
 241   2.0000      -0.442993       -12.0544
 242   2.0000      -0.441771       -12.0212
 243   2.0000      -0.437528       -11.9057
 244   2.0000      -0.436803       -11.8860
 245   2.0000      -0.433347       -11.7920
 246   2.0000      -0.429447       -11.6858
 247   2.0000      -0.424891       -11.5619
 248   2.0000      -0.422101       -11.4860
 249   2.0000      -0.417899       -11.3716
 250   2.0000      -0.414143       -11.2694
 251   2.0000      -0.408483       -11.1154
 252   2.0000      -0.403945       -10.9919
 253   2.0000      -0.400635       -10.9018
 254   2.0000      -0.394962       -10.7475
 255   2.0000      -0.388924       -10.5832
 256   2.0000      -0.382463       -10.4073
 257   2.0000      -0.379697       -10.3321
 258   2.0000      -0.376650       -10.2492
 259   2.0000      -0.374679       -10.1955
 260   2.0000      -0.370594       -10.0844
 261   2.0000      -0.366936        -9.9848
 262   2.0000      -0.366456        -9.9718
 263   2.0000      -0.360616        -9.8129
 264   2.0000      -0.360471        -9.8089
 265   2.0000      -0.353980        -9.6323
 266   2.0000      -0.352760        -9.5991
 267   2.0000      -0.352006        -9.5786
 268   2.0000      -0.350159        -9.5283
 269   2.0000      -0.347254        -9.4492
 270   2.0000      -0.344964        -9.3869
 271   2.0000      -0.344125        -9.3641
 272   2.0000      -0.343784        -9.3548
 273   2.0000      -0.343219        -9.3395
 274   2.0000      -0.334921        -9.1137
 275   2.0000      -0.332269        -9.0415
 276   2.0000      -0.331554        -9.0220
 277   2.0000      -0.329619        -8.9694
 278   2.0000      -0.329303        -8.9608
 279   2.0000      -0.324605        -8.8329
 280   2.0000      -0.313038        -8.5182
 281   2.0000      -0.280070        -7.6211
 282   2.0000      -0.276601        -7.5267
 283   2.0000      -0.233849        -6.3633
 284   0.0000      -0.107787        -2.9330
 285   0.0000      -0.099284        -2.7017
 286   0.0000      -0.097984        -2.6663
 287   0.0000      -0.087251        -2.3742
 288   0.0000      -0.082748        -2.2517

MULLIKEN ATOMIC CHARGES
-----------------------
   0 C :   -0.145575
   1 C :    0.076388
   2 C :    0.013418
   3 N :    0.033751
   4 C :   -0.106892
   5 C :    0.144678
   6 O :   -0.115334
   7 C :   -0.023765
   8 C :   -0.008410
   9 C :    0.136133
  10 O :   -0.095492
  11 C :   -0.132515
  12 N :    0.069665
  13 C :   -0.169805
  14 S :    0.282545
  15 C :   -0.111537
  16 S :    0.174724
  17 C :   -0.023626
  18 C :    0.188077
  19 O :   -0.186644
  20 N :   -0.312989
  21 C :    0.132327
  22 C :   -0.008108
  23 C :    0.179313
  24 O :   -0.140426
  25 C :    0.044279
  26 C :   -0.130668
  27 C :    0.011593
  28 C :   -0.040654
  29 C :    0.146634
  30 N :   -0.254101
  31 C :    0.093091
  32 C :    0.009027
  33 C :    0.170637
  34 O :   -0.200935
  35 C :   -0.059242
  36 C :   -0.064201
  37 C :    0.153690
  38 O :   -0.190159
  39 N :   -0.255194
  40 C :    0.098203
  41 C :   -0.004392
  42 C :    0.094982
  43 C :    0.060540
  44 C :   -0.061897
  45 C :    0.039203
  46 C :    0.027303
  47 C :    0.033208
  48 O :   -0.116498
  49 S :    0.025771
  50 C :    0.036676
  51 O :   -0.133040
  52 C :    0.036229
  53 C :    0.046809
  54 C :   -0.090039
  55 C :   -0.058888
  56 C :    0.234609
  57 O :   -0.086165
  58 O :   -0.226420
  59 C :    0.228619
  60 O :   -0.093301
  61 C :   -0.064056
  62 C :    0.082657
  63 C :   -0.185468
  64 C :    0.042439
  65 C :    0.056052
  66 N :    0.068094
  67 C :   -0.128917
  68 C :    0.139886
  69 O :   -0.099343
  70 C :   -0.016430
  71 C :   -0.014468
  72 C :    0.140955
  73 O :   -0.102830
  74 C :   -0.117195
  75 N :    0.061817
  76 C :   -0.130546
  77 S :    0.210677
  78 H :    0.032707
  79 H :    0.017617
  80 H :    0.018917
  81 H :    0.031978
  82 H :    0.033042
  83 H :    0.022561
  84 H :    0.022479
  85 H :    0.033104
  86 H :    0.036670
  87 H :    0.003700
  88 H :    0.033918
  89 H :    0.043319
  90 H :    0.015532
  91 H :    0.027295
  92 H :    0.025401
  93 H :    0.018645
  94 H :    0.045395
  95 H :    0.025745
  96 H :    0.017641
  97 H :    0.027910
  98 H :   -0.024955
  99 H :    0.058737
 100 H :    0.023748
 101 H :    0.021530
 102 H :    0.016883
 103 H :    0.016936
 104 H :    0.035007
Sum of atomic charges:   -0.0000000

LOEWDIN ATOMIC CHARGES
----------------------
   0 C :   -0.180733
   1 C :   -0.052869
   2 C :   -0.051258
   3 N :   -0.010835
   4 C :   -0.040798
   5 C :    0.058132
   6 O :   -0.111469
   7 C :   -0.015803
   8 C :   -0.009867
   9 C :    0.056356
  10 O :   -0.093025
  11 C :   -0.044893
  12 N :    0.008010
  13 C :   -0.206005
  14 S :    0.590816
  15 C :   -0.145906
  16 S :    0.494204
  17 C :   -0.100397
  18 C :    0.082108
  19 O :   -0.184562
  20 N :   -0.034452
  21 C :    0.043308
  22 C :   -0.060019
  23 C :    0.090699
  24 O :   -0.143122
  25 C :   -0.082100
  26 C :   -0.136185
  27 C :    0.013885
  28 C :   -0.043270
  29 C :    0.075741
  30 N :    0.000998
  31 C :    0.037310
  32 C :   -0.059676
  33 C :    0.082737
  34 O :   -0.189492
  35 C :   -0.109934
  36 C :   -0.116116
  37 C :    0.077901
  38 O :   -0.185592
  39 N :    0.001886
  40 C :    0.036153
  41 C :   -0.064511
  42 C :    0.070509
  43 C :   -0.001307
  44 C :    0.003721
  45 C :    0.025153
  46 C :   -0.055597
  47 C :   -0.040589
  48 O :   -0.107921
  49 S :    0.310212
  50 C :   -0.044439
  51 O :   -0.114108
  52 C :   -0.054352
  53 C :    0.027728
  54 C :   -0.045218
  55 C :   -0.036856
  56 C :    0.106402
  57 O :   -0.080292
  58 O :   -0.054234
  59 C :    0.105297
  60 O :   -0.092288
  61 C :   -0.043600
  62 C :    0.017715
  63 C :   -0.182577
  64 C :   -0.041194
  65 C :   -0.054733
  66 N :    0.005417
  67 C :   -0.044276
  68 C :    0.056560
  69 O :   -0.096034
  70 C :   -0.014029
  71 C :   -0.013412
  72 C :    0.056142
  73 O :   -0.098227
  74 C :   -0.041382
  75 N :    0.004158
  76 C :   -0.173394
  77 S :    0.544301
  78 H :    0.036049
  79 H :    0.045350
  80 H :    0.046168
  81 H :    0.031972
  82 H :    0.033017
  83 H :    0.026883
  84 H :    0.030246
  85 H :    0.030107
  86 H :    0.048966
  87 H :    0.025539
  88 H :    0.027065
  89 H :    0.038220
  90 H :    0.022411
  91 H :    0.032968
  92 H :    0.030147
  93 H :    0.021120
  94 H :    0.038168
  95 H :    0.022853
  96 H :    0.028759
  97 H :    0.032100
  98 H :    0.027854
  99 H :    0.044637
 100 H :    0.027399
 101 H :    0.044167
 102 H :    0.045056
 103 H :    0.045139
 104 H :    0.037034

  Mayer bond orders larger than 0.100000
B(  0-C ,  1-C ) :   1.3664 B(  0-C , 13-C ) :   0.1142 B(  0-C , 14-S ) :   1.2146
B(  0-C , 78-H ) :   0.9750 B(  1-C ,  2-C ) :   1.1738 B(  1-C , 12-N ) :   1.3916
B(  2-C ,  3-N ) :   1.4227 B(  2-C , 13-C ) :   1.2786 B(  3-N ,  4-C ) :   1.7001
B(  4-C ,  5-C ) :   0.8973 B(  4-C , 11-C ) :   1.1019 B(  5-C ,  6-O ) :   2.2392
B(  5-C ,  7-C ) :   1.0227 B(  7-C ,  8-C ) :   1.6807 B(  7-C , 79-H ) :   0.9979
B(  8-C ,  9-C ) :   1.0188 B(  8-C , 80-H ) :   0.9977 B(  9-C , 10-O ) :   2.2618
B(  9-C , 11-C ) :   0.8923 B( 11-C , 12-N ) :   1.7377 B( 13-C , 14-S ) :   1.2205
B( 13-C , 15-C ) :   1.2387 B( 15-C , 16-S ) :   1.1548 B( 15-C , 17-C ) :   1.4764
B( 16-S , 26-C ) :   1.0635 B( 17-C , 18-C ) :   0.8987 B( 17-C , 25-C ) :   1.2667
B( 18-C , 19-O ) :   2.1457 B( 18-C , 20-N ) :   1.0999 B( 20-N , 21-C ) :   0.9192
B( 20-N , 23-C ) :   1.0463 B( 21-C , 22-C ) :   1.1279 B( 21-C , 81-H ) :   0.9411
B( 21-C , 82-H ) :   0.9412 B( 22-C , 83-H ) :   0.9682 B( 22-C , 84-H ) :   0.9700
B( 22-C , 85-H ) :   0.9690 B( 23-C , 24-O ) :   2.2112 B( 23-C , 25-C ) :   0.8863
B( 25-C , 26-C ) :   1.4857 B( 26-C , 27-C ) :   1.1832 B( 27-C , 28-C ) :   1.5596
B( 27-C , 86-H ) :   0.9599 B( 28-C , 29-C ) :   1.1629 B( 28-C , 87-H ) :   0.9561
B( 29-C , 30-N ) :   1.1638 B( 29-C , 36-C ) :   1.3423 B( 30-N , 31-C ) :   0.9429
B( 30-N , 33-C ) :   1.0598 B( 31-C , 32-C ) :   1.1216 B( 31-C , 88-H ) :   0.9498
B( 31-C , 89-H ) :   0.9285 B( 32-C , 90-H ) :   0.9678 B( 32-C , 91-H ) :   0.9673
B( 32-C , 92-H ) :   0.9637 B( 33-C , 34-O ) :   2.0425 B( 33-C , 35-C ) :   0.9745
B( 34-O , 99-H ) :   0.1027 B( 35-C , 36-C ) :   1.2587 B( 35-C , 42-C ) :   1.3508
B( 36-C , 37-C ) :   0.9810 B( 37-C , 38-O ) :   2.0628 B( 37-C , 39-N ) :   1.0500
B( 39-N , 40-C ) :   0.9445 B( 39-N , 42-C ) :   1.1664 B( 40-C , 41-C ) :   1.1174
B( 40-C , 93-H ) :   0.9503 B( 40-C , 94-H ) :   0.9285 B( 41-C , 95-H ) :   0.9632
B( 41-C , 96-H ) :   0.9663 B( 41-C , 97-H ) :   0.9615 B( 42-C , 43-C ) :   1.1772
B( 43-C , 44-C ) :   1.6693 B( 43-C , 98-H ) :   0.9502 B( 44-C , 45-C ) :   1.0877
B( 44-C , 99-H ) :   0.9141 B( 45-C , 46-C ) :   1.3526 B( 45-C , 55-C ) :   1.3266
B( 46-C , 47-C ) :   0.8431 B( 46-C , 52-C ) :   1.3113 B( 47-C , 48-O ) :   2.1483
B( 47-C , 49-S ) :   1.0303 B( 48-O , 49-S ) :   0.1049 B( 49-S , 50-C ) :   1.0348
B( 49-S , 51-O ) :   0.1040 B( 50-C , 51-O ) :   2.1497 B( 50-C , 52-C ) :   0.8542
B( 52-C , 53-C ) :   1.3656 B( 53-C , 54-C ) :   1.3072 B( 53-C , 61-C ) :   1.1160
B( 54-C , 55-C ) :   1.3756 B( 54-C , 59-C ) :   0.8990 B( 55-C , 56-C ) :   0.9032
B( 56-C , 57-O ) :   2.2536 B( 56-C , 58-O ) :   1.0510 B( 58-O , 59-C ) :   1.0580
B( 59-C , 60-O ) :   2.2625 B( 61-C , 62-C ) :   1.6476 B( 61-C ,100-H ) :   0.9419
B( 62-C , 63-C ) :   1.2124 B( 62-C ,101-H ) :   0.9614 B( 63-C , 64-C ) :   1.2982
B( 63-C , 76-C ) :   0.1185 B( 63-C , 77-S ) :   1.1877 B( 64-C , 65-C ) :   1.1724
B( 64-C , 75-N ) :   1.4395 B( 65-C , 66-N ) :   1.3864 B( 65-C , 76-C ) :   1.3791
B( 66-N , 67-C ) :   1.7467 B( 67-C , 68-C ) :   0.8893 B( 67-C , 74-C ) :   1.0951
B( 68-C , 69-O ) :   2.2607 B( 68-C , 70-C ) :   1.0195 B( 70-C , 71-C ) :   1.6833
B( 70-C ,102-H ) :   0.9975 B( 71-C , 72-C ) :   1.0175 B( 71-C ,103-H ) :   0.9973
B( 72-C , 73-O ) :   2.2555 B( 72-C , 74-C ) :   0.8893 B( 74-C , 75-N ) :   1.7215
B( 76-C , 77-S ) :   1.2323 B( 76-C ,104-H ) :   0.9740

-----------------------------------------------------------------------------
         ABSORPTION SPECTRUM VIA TRANSITION ELECTRIC DIPOLE MOMENTS
-----------------------------------------------------------------------------
State   Energy  Wavelength   fosc         T2         TX        TY        TZ
        (cm-1)    (nm)                  (au**2)     (au)      (au)      (au)
-----------------------------------------------------------------------------
   0   12820.6    780.0   0.914309247  23.47801  -1.31951  -1.21425   4.50139
   1   14332.2    697.7   0.092848291   2.13273   0.13478   0.64566  -1.30295
   2   16860.5    593.1   0.132239507   2.58206   0.73730   1.30891  -0.57027
   3   20239.1    494.1   0.005557054   0.09039  -0.28105  -0.03934  -0.09928
   4   20310.7    492.4   0.062196610   1.00813  -0.17835  -0.68495   0.71216
   5   21007.4    476.0   0.020031827   0.31392  -0.22262   0.46710   0.21489
   6   21412.8    467.0   0.115310373   1.77284   0.01396  -0.65660  -1.15824
   7   22415.0    446.1   0.544788778   8.00138  -0.48095  -1.81729   2.11365
   8   24040.0    416.0   0.016375428   0.22425  -0.00371  -0.44738   0.15521
   9   24732.5    404.3   0.001887995   0.02513  -0.12333   0.09900  -0.01095
  10   24821.6    402.9   0.028218511   0.37427  -0.41773   0.39998  -0.19945
  11   24913.9    401.4   0.009864531   0.13035   0.17420  -0.29672  -0.10935
  12   25765.9    388.1   0.000841661   0.01075   0.09684   0.01794  -0.03246
  13   25771.2    388.0   0.037817953   0.48310   0.40331   0.46637  -0.32085
  14   25966.4    385.1   0.000249840   0.00317   0.01170  -0.00526   0.05480
  15   26201.0    381.7   0.152577898   1.91712  -0.82532  -0.98142   0.52227
  16   26273.8    380.6   0.007433392   0.09314  -0.02617   0.05069   0.29981
  17   26361.0    379.3   0.026855502   0.33539  -0.42134  -0.15342   0.36650
  18   26747.0    373.9   0.002529824   0.03114  -0.06742   0.14102  -0.08189
  19   26763.7    373.6   0.005849054   0.07195   0.03100   0.11469  -0.24048
  20   26859.5    372.3   0.085139912   1.04355  -0.18837  -0.85953   0.51892
  21   27361.1    365.5   0.023354135   0.28100  -0.50380  -0.04577   0.15841
  22   27625.5    362.0   0.056469267   0.67294  -0.52255  -0.40892   0.48235
  23   29524.8    338.7   0.038374274   0.42789  -0.26242  -0.46117  -0.38256
  24   29610.4    337.7   0.052721034   0.58616  -0.17594  -0.24570   0.70345
  25   29703.7    336.7   0.007209171   0.07990   0.12269   0.23760  -0.09162
  26   30767.0    325.0   0.014621661   0.15645   0.32139   0.20018  -0.11441
  27   30859.2    324.1   0.020099872   0.21443  -0.39786  -0.18087   0.15305
  28   31004.8    322.5   0.067225897   0.71381   0.58484   0.56064  -0.23970
  29   31025.6    322.3   0.000840890   0.00892  -0.05202  -0.07715   0.01625
  30   31251.6    320.0   0.008776694   0.09246   0.13400   0.27295   0.00014
  31   31307.9    319.4   0.079791784   0.83903  -0.38235  -0.43245  -0.71122
  32   31687.6    315.6   0.085261427   0.88581  -0.38590  -0.66503   0.54279
  33   31890.6    313.6   0.014858831   0.15339   0.07002   0.31201  -0.22614
  34   32328.8    309.3   0.012087964   0.12309  -0.06805  -0.33319   0.08630
  35   32402.8    308.6   0.058129468   0.59059  -0.39943  -0.65647   0.01010
  36   32674.7    306.0   0.033898050   0.34154  -0.45997  -0.27182   0.23680
  37   33071.4    302.4   0.001711084   0.01703   0.02340  -0.11656   0.05385
  38   33205.1    301.2   0.010900288   0.10807  -0.11676  -0.07034   0.29915
  39   33501.2    298.5   0.021769819   0.21393   0.02561  -0.39629   0.23712
  40   33910.9    294.9   0.030624681   0.29731  -0.38336  -0.06059   0.38298
  41   34145.0    292.9   0.000028836   0.00028   0.00415   0.01613   0.00081
  42   34232.1    292.1   0.000819192   0.00788   0.02170   0.08084  -0.02953
  43   34265.8    291.8   0.018979456   0.18235   0.25777   0.26831  -0.20954
  44   34356.2    291.1   0.000484044   0.00464  -0.04358   0.04915   0.01799
  45   34484.5    290.0   0.022090562   0.21089  -0.04508   0.24625  -0.38499
  46   34555.0    289.4   0.014515748   0.13829   0.03680   0.05299  -0.36624
  47   35250.3    283.7   0.114453922   1.06891   0.55506   0.63180  -0.60137
  48   35673.4    280.3   0.001651755   0.01524  -0.05745  -0.04968  -0.09734
  49   36041.9    277.5   0.002504736   0.02288   0.02948  -0.14827  -0.00517
  50   36048.8    277.4   0.006047010   0.05522   0.17665  -0.15105   0.03469
  51   36210.9    276.2   0.213089293   1.93731   0.84160  -1.10410  -0.09985
  52   36229.0    276.0   0.111736006   1.01534  -0.53582  -0.22913  -0.82204
  53   36410.4    274.6   0.220491872   1.99362   0.61500   1.12458  -0.59221
  54   36417.2    274.6   0.025370059   0.22935   0.20112   0.36582  -0.23467
  55   36516.6    273.8   0.029126495   0.26259  -0.42436   0.25335   0.13536
  56   36625.8    273.0   0.038895716   0.34961   0.40031   0.41139   0.14184
  57   36748.3    272.1   0.114437359   1.02520  -0.87293   0.07066  -0.50813
  58   36992.6    270.3   0.016603942   0.14777  -0.32954   0.14889  -0.13039
  59   37170.9    269.0   0.005274701   0.04672   0.04272  -0.17651  -0.11719
  60   37415.1    267.3   0.003480601   0.03063   0.08854  -0.14559   0.03987
  61   37424.1    267.2   0.002104049   0.01851   0.13129   0.02628   0.02412
  62   37477.4    266.8   0.050150251   0.44053   0.03717   0.12207   0.65134
  63   37533.4    266.4   0.018778775   0.16471   0.34740  -0.11799  -0.17351
  64   37673.3    265.4   0.513323497   4.48573   0.97596   1.56181   1.04594
  65   38028.0    263.0   0.274517191   2.37652   0.69578  -1.28272   0.49702
  66   38094.8    262.5   0.206649648   1.78585  -1.08084  -0.78424  -0.05111
  67   38534.9    259.5   0.046838079   0.40015  -0.36015   0.48309   0.19252
  68   38567.1    259.3   0.036134534   0.30845  -0.00624   0.55495  -0.02092
  69   38814.3    257.6   0.004608924   0.03909  -0.05940  -0.10394   0.15735
  70   38903.1    257.0   0.007891610   0.06678   0.25696  -0.00715  -0.02654
  71   39003.1    256.4   0.004364387   0.03684   0.15931   0.08165  -0.06924
  72   39166.3    255.3   0.001173264   0.00986  -0.04339   0.04587  -0.07665
  73   39234.0    254.9   0.002139138   0.01795  -0.02996   0.11332   0.06489
  74   39266.9    254.7   0.035557677   0.29811   0.02680   0.51986   0.16476
  75   39352.7    254.1   0.014302489   0.11965  -0.19369  -0.17505   0.22692
  76   39766.1    251.5   0.018085298   0.14972   0.29336   0.20001  -0.15381
  77   39836.9    251.0   0.015607453   0.12898  -0.24317  -0.03283   0.26224
  78   39931.5    250.4   0.010110681   0.08336   0.19844   0.15575   0.14043
  79   40126.1    249.2   0.010309364   0.08458  -0.05576  -0.23466   0.16250

FINAL SINGLE POINT ENERGY     -5023.326368296712

DIPOLE MOMENT
-------------
                                X             Y             Z
Electronic contribution:     24.02788      32.84890     -16.45907
Nuclear contribution   :    -23.79055     -33.54303      16.77691
                        -----------------------------------------
Total Dipole Moment    :      0.23733      -0.69413       0.31785
                        -----------------------------------------
Magnitude (a.u.)       :      0.79948
Magnitude (Debye)      :      2.03212

Rotational constants in cm-1:     0.001520     0.000207     0.000195
Rotational constants in MHz :    45.570495     6.196084     5.834240

                             ****ORCA TERMINATED NORMALLY****
TOTAL RUN TIME: 0 days 0 hours 10 minutes 5 seconds 681 msec
