                         Program Version 4.2.0 -  RELEASE  -
|  1> # ORCA input file
|  2> # SCF done       -173.899944550210          0.000905507580
|  3> ! CAM-B3LYP def2-SVP def2/J RIJCOSX Grid4 TightSCF
|  4> %maxcore 5000
|  5> %tddft
|  6>     Mode sTDDFT
|  7>     Ethresh 5.0
|  8>     maxcore 5000
|  9> end
| 10>
| 11> %pal
| 12>   nprocs 6
| 13>   end
| 14> * xyz 0 1
| 15>    C        3.30409         3.25938        -5.60383
| 16>    C        2.84186         4.32707        -6.30917
| 17>    S        3.39393         4.28178        -7.94352
| 18>    C        4.26564         2.78971        -7.67674
| 19>   Cl        5.14429         2.04513        -8.91857
| 20>    C        4.12112         2.37921        -6.38499
| 21>    C        4.56884         1.25083        -5.56304
| 22>    O        5.20089         0.28127        -5.91299
| 23>    C        3.98855         1.51402        -4.20889
| 24>    C        3.21254         2.74413        -4.25243
| 25>    C        2.55061         3.36124        -3.22451
| 26>    C        1.84485         4.56626        -3.42762
| 27>    N        1.26343         5.54349        -3.57923
| 28>    C        2.50212         2.91174        -1.88963
| 29>    N        2.43886         2.60838        -0.78445
| 30>    C        4.06558         0.64769        -3.16053
| 31>    C        4.91618        -0.48636        -3.05726
| 32>    C        4.62642        -1.62313        -2.33427
| 33>    C        5.68683        -2.56499        -2.50334
| 34>    C        6.70875        -1.88689        -3.31462
| 35>    C        6.24540        -0.65090        -3.63684
| 36>    C        7.99631        -2.35974        -3.60340
| 37>    N        9.07477        -2.69262        -3.81442
| 38>    C        5.74940        -3.85455        -2.02543
| 39>    C        6.73857        -4.82924        -2.32040
| 40>    C        6.47885        -5.98016        -1.59904
| 41>    C        5.27105        -5.74686        -0.81719
| 42>    C        4.81290        -4.49634        -1.08528
| 43>    C        3.65801        -3.93245        -0.53082
| 44>    N        2.70171        -3.50367        -0.06108
| 45>    C        7.28241        -7.14570        -1.68888
| 46>    N        7.36064        -8.19291        -0.79968
| 47>    C        6.72218        -8.31882         0.49052
| 48>    C        7.20587        -7.26398         1.48006
| 49>    C        8.30233        -9.15231        -1.20761
| 50>    O        8.56199       -10.15506        -0.56639
| 51>    C        8.80574        -8.65878        -2.46746
| 52>    C        8.17068        -7.42740        -2.73238
| 53>    C        8.62262        -6.96129        -4.03085
| 54>    O        8.33375        -5.99832        -4.70190
| 55>    N        9.53980        -7.95081        -4.44996
| 56>    C       10.26941        -7.80823        -5.68739
| 57>    C       11.67735        -7.26737        -5.45350
| 58>    C        9.66502        -8.95834        -3.53343
| 59>    C       10.51937       -10.07456        -3.68596
| 60>    C       10.60532       -11.04600        -2.73805
| 61>    C       11.44498       -12.17556        -2.81760
| 62>    S       12.51977       -12.47360        -4.17167
| 63>    C       11.57240       -13.19154        -1.87760
| 64>    C       10.93245       -13.43215        -0.60427
| 65>    C       11.34917       -14.53712         0.01191
| 66>    S       12.62719       -15.40600        -0.91493
| 67>    N       12.05021       -16.76551        -1.25145
| 68>    O       13.92957       -15.24329        -0.31093
| 69>    C       12.50867       -14.17157        -2.24401
| 70>    C       13.12503       -13.94705        -3.44049
| 71>    C       14.08390       -14.80932        -4.05487
| 72>    C       14.88644       -14.72699        -5.18405
| 73>    C       15.07595       -13.64584        -6.17694
| 74>    O       15.17685       -13.85504        -7.35039
| 75>    O       15.14971       -12.39593        -5.68080
| 76>    C       15.51625       -15.99904        -5.22052
| 77>    N       15.14246       -16.73293        -4.21568
| 78>    O       14.25529       -16.02072        -3.49350
| 79>    H        2.21470         5.13509        -5.98835
| 80>    H        3.39867         0.79658        -2.31914
| 81>    H        3.71680        -1.81162        -1.79690
| 82>    H        6.78547         0.10426        -4.17317
| 83>    H        7.54923        -4.68683        -3.00632
| 84>    H        4.78677        -6.45264        -0.17044
| 85>    H        6.99446        -9.31517         0.85189
| 86>    H        5.63608        -8.28546         0.37429
| 87>    H        8.28282        -7.34011         1.61006
| 88>    H        6.72817        -7.42104         2.44315
| 89>    H        6.96938        -6.25978         1.13508
| 90>    H        9.70095        -7.09642        -6.29219
| 91>    H       10.29961        -8.76998        -6.20625
| 92>    H       11.62449        -6.28913        -4.98229
| 93>    H       12.19260        -7.16691        -6.40426
| 94>    H       12.25172        -7.93331        -4.81305
| 95>    H       11.12056       -10.14746        -4.58192
| 96>    H        9.99835       -10.97250        -1.84454
| 97>    H       10.18314       -12.75594        -0.22238
| 98>    H       11.01778       -14.92782         0.95312
| 99>    H       12.70653       -17.45744        -1.56625
|100>    H       15.13978       -12.35821        -4.71575
|101>    H       16.22145       -16.35820        -5.94130
|102> *
|103>
|104>                          ****END OF INPUT****

CARTESIAN COORDINATES (ANGSTROEM)
---------------------------------
  C      3.304090    3.259380   -5.603830
  C      2.841860    4.327070   -6.309170
  S      3.393930    4.281780   -7.943520
  C      4.265640    2.789710   -7.676740
  Cl     5.144290    2.045130   -8.918570
  C      4.121120    2.379210   -6.384990
  C      4.568840    1.250830   -5.563040
  O      5.200890    0.281270   -5.912990
  C      3.988550    1.514020   -4.208890
  C      3.212540    2.744130   -4.252430
  C      2.550610    3.361240   -3.224510
  C      1.844850    4.566260   -3.427620
  N      1.263430    5.543490   -3.579230
  C      2.502120    2.911740   -1.889630
  N      2.438860    2.608380   -0.784450
  C      4.065580    0.647690   -3.160530
  C      4.916180   -0.486360   -3.057260
  C      4.626420   -1.623130   -2.334270
  C      5.686830   -2.564990   -2.503340
  C      6.708750   -1.886890   -3.314620
  C      6.245400   -0.650900   -3.636840
  C      7.996310   -2.359740   -3.603400
  N      9.074770   -2.692620   -3.814420
  C      5.749400   -3.854550   -2.025430
  C      6.738570   -4.829240   -2.320400
  C      6.478850   -5.980160   -1.599040
  C      5.271050   -5.746860   -0.817190
  C      4.812900   -4.496340   -1.085280
  C      3.658010   -3.932450   -0.530820
  N      2.701710   -3.503670   -0.061080
  C      7.282410   -7.145700   -1.688880
  N      7.360640   -8.192910   -0.799680
  C      6.722180   -8.318820    0.490520
  C      7.205870   -7.263980    1.480060
  C      8.302330   -9.152310   -1.207610
  O      8.561990  -10.155060   -0.566390
  C      8.805740   -8.658780   -2.467460
  C      8.170680   -7.427400   -2.732380
  C      8.622620   -6.961290   -4.030850
  O      8.333750   -5.998320   -4.701900
  N      9.539800   -7.950810   -4.449960
  C     10.269410   -7.808230   -5.687390
  C     11.677350   -7.267370   -5.453500
  C      9.665020   -8.958340   -3.533430
  C     10.519370  -10.074560   -3.685960
  C     10.605320  -11.046000   -2.738050
  C     11.444980  -12.175560   -2.817600
  S     12.519770  -12.473600   -4.171670
  C     11.572400  -13.191540   -1.877600
  C     10.932450  -13.432150   -0.604270
  C     11.349170  -14.537120    0.011910
  S     12.627190  -15.406000   -0.914930
  N     12.050210  -16.765510   -1.251450
  O     13.929570  -15.243290   -0.310930
  C     12.508670  -14.171570   -2.244010
  C     13.125030  -13.947050   -3.440490
  C     14.083900  -14.809320   -4.054870
  C     14.886440  -14.726990   -5.184050
  C     15.075950  -13.645840   -6.176940
  O     15.176850  -13.855040   -7.350390
  O     15.149710  -12.395930   -5.680800
  C     15.516250  -15.999040   -5.220520
  N     15.142460  -16.732930   -4.215680
  O     14.255290  -16.020720   -3.493500
  H      2.214700    5.135090   -5.988350
  H      3.398670    0.796580   -2.319140
  H      3.716800   -1.811620   -1.796900
  H      6.785470    0.104260   -4.173170
  H      7.549230   -4.686830   -3.006320
  H      4.786770   -6.452640   -0.170440
  H      6.994460   -9.315170    0.851890
  H      5.636080   -8.285460    0.374290
  H      8.282820   -7.340110    1.610060
  H      6.728170   -7.421040    2.443150
  H      6.969380   -6.259780    1.135080
  H      9.700950   -7.096420   -6.292190
  H     10.299610   -8.769980   -6.206250
  H     11.624490   -6.289130   -4.982290
  H     12.192600   -7.166910   -6.404260
  H     12.251720   -7.933310   -4.813050
  H     11.120560  -10.147460   -4.581920
  H      9.998350  -10.972500   -1.844540
  H     10.183140  -12.755940   -0.222380
  H     11.017780  -14.927820    0.953120
  H     12.706530  -17.457440   -1.566250
  H     15.139780  -12.358210   -4.715750
  H     16.221450  -16.358200   -5.941300

 Total Charge           Charge          ....    0
 Multiplicity           Mult            ....    1
 Number of Electrons    NEL             ....  470
 Basis Dimension        Dim             .... 1027

ORBITAL ENERGIES
----------------

  NO   OCC          E(Eh)            E(eV)
   0   2.0000    -101.623942     -2765.3281
   1   2.0000     -89.142767     -2425.6980
   2   2.0000     -89.000755     -2421.8337
   3   2.0000     -88.999460     -2421.7984
   4   2.0000     -19.340329      -526.2771
   5   2.0000     -19.278240      -524.5876
   6   2.0000     -19.233439      -523.3685
   7   2.0000     -19.217594      -522.9373
   8   2.0000     -19.209662      -522.7215
   9   2.0000     -19.209044      -522.7047
  10   2.0000     -19.198109      -522.4071
  11   2.0000     -14.479358      -394.0034
  12   2.0000     -14.472142      -393.8070
  13   2.0000     -14.470776      -393.7698
  14   2.0000     -14.427996      -392.6057
  15   2.0000     -14.427321      -392.5874
  16   2.0000     -14.418473      -392.3466
  17   2.0000     -14.405133      -391.9836
  18   2.0000     -14.373184      -391.1142
  19   2.0000     -10.426406      -283.7169
  20   2.0000     -10.391733      -282.7734
  21   2.0000     -10.391339      -282.7627
  22   2.0000     -10.389017      -282.6995
  23   2.0000     -10.387410      -282.6558
  24   2.0000     -10.383935      -282.5612
  25   2.0000     -10.362153      -281.9685
  26   2.0000     -10.357735      -281.8483
  27   2.0000     -10.357420      -281.8397
  28   2.0000     -10.356696      -281.8200
  29   2.0000     -10.355635      -281.7912
  30   2.0000     -10.344932      -281.4999
  31   2.0000     -10.336735      -281.2769
  32   2.0000     -10.333779      -281.1964
  33   2.0000     -10.333271      -281.1826
  34   2.0000     -10.332471      -281.1608
  35   2.0000     -10.330339      -281.1028
  36   2.0000     -10.329450      -281.0786
  37   2.0000     -10.328969      -281.0655
  38   2.0000     -10.327757      -281.0326
  39   2.0000     -10.324256      -280.9373
  40   2.0000     -10.323649      -280.9208
  41   2.0000     -10.322699      -280.8949
  42   2.0000     -10.322572      -280.8915
  43   2.0000     -10.320598      -280.8378
  44   2.0000     -10.320460      -280.8340
  45   2.0000     -10.320074      -280.8235
  46   2.0000     -10.320027      -280.8222
  47   2.0000     -10.319894      -280.8186
  48   2.0000     -10.319821      -280.8166
  49   2.0000     -10.319337      -280.8034
  50   2.0000     -10.318229      -280.7733
  51   2.0000     -10.317330      -280.7488
  52   2.0000     -10.316137      -280.7164
  53   2.0000     -10.315480      -280.6985
  54   2.0000     -10.314938      -280.6837
  55   2.0000     -10.314066      -280.6600
  56   2.0000     -10.307925      -280.4929
  57   2.0000     -10.307584      -280.4836
  58   2.0000     -10.306928      -280.4658
  59   2.0000     -10.293397      -280.0976
  60   2.0000     -10.283215      -279.8205
  61   2.0000     -10.279099      -279.7085
  62   2.0000     -10.277366      -279.6613
  63   2.0000     -10.271935      -279.5136
  64   2.0000      -9.578707      -260.6499
  65   2.0000      -8.207754      -223.3443
  66   2.0000      -8.096495      -220.3168
  67   2.0000      -8.094139      -220.2527
  68   2.0000      -7.349362      -199.9863
  69   2.0000      -7.338746      -199.6974
  70   2.0000      -7.338173      -199.6818
  71   2.0000      -6.177204      -168.0903
  72   2.0000      -6.177125      -168.0881
  73   2.0000      -6.174762      -168.0238
  74   2.0000      -6.065864      -165.0606
  75   2.0000      -6.063713      -165.0020
  76   2.0000      -6.061243      -164.9348
  77   2.0000      -6.059416      -164.8851
  78   2.0000      -6.058753      -164.8670
  79   2.0000      -6.055838      -164.7877
  80   2.0000      -1.279381       -34.8137
  81   2.0000      -1.200731       -32.6735
  82   2.0000      -1.168587       -31.7989
  83   2.0000      -1.152126       -31.3509
  84   2.0000      -1.150709       -31.3124
  85   2.0000      -1.145382       -31.1674
  86   2.0000      -1.116599       -30.3842
  87   2.0000      -1.082343       -29.4521
  88   2.0000      -1.073657       -29.2157
  89   2.0000      -1.045873       -28.4597
  90   2.0000      -1.036778       -28.2122
  91   2.0000      -1.025647       -27.9093
  92   2.0000      -1.024317       -27.8731
  93   2.0000      -1.007628       -27.4189
  94   2.0000      -1.005850       -27.3706
  95   2.0000      -0.996057       -27.1041
  96   2.0000      -0.992541       -27.0084
  97   2.0000      -0.991292       -26.9744
  98   2.0000      -0.985839       -26.8261
  99   2.0000      -0.983841       -26.7717
 100   2.0000      -0.961851       -26.1733
 101   2.0000      -0.950819       -25.8731
 102   2.0000      -0.947405       -25.7802
 103   2.0000      -0.941265       -25.6131
 104   2.0000      -0.920820       -25.0568
 105   2.0000      -0.919766       -25.0281
 106   2.0000      -0.906794       -24.6751
 107   2.0000      -0.894062       -24.3287
 108   2.0000      -0.881812       -23.9953
 109   2.0000      -0.869710       -23.6660
 110   2.0000      -0.865137       -23.5416
 111   2.0000      -0.851725       -23.1766
 112   2.0000      -0.848197       -23.0806
 113   2.0000      -0.840253       -22.8644
 114   2.0000      -0.834934       -22.7197
 115   2.0000      -0.823897       -22.4194
 116   2.0000      -0.809826       -22.0365
 117   2.0000      -0.794695       -21.6247
 118   2.0000      -0.789589       -21.4858
 119   2.0000      -0.774484       -21.0748
 120   2.0000      -0.772366       -21.0171
 121   2.0000      -0.764523       -20.8037
 122   2.0000      -0.763016       -20.7627
 123   2.0000      -0.740303       -20.1447
 124   2.0000      -0.729564       -19.8524
 125   2.0000      -0.725563       -19.7436
 126   2.0000      -0.724311       -19.7095
 127   2.0000      -0.717828       -19.5331
 128   2.0000      -0.714791       -19.4505
 129   2.0000      -0.707618       -19.2553
 130   2.0000      -0.700708       -19.0672
 131   2.0000      -0.697477       -18.9793
 132   2.0000      -0.684841       -18.6355
 133   2.0000      -0.681079       -18.5331
 134   2.0000      -0.678932       -18.4747
 135   2.0000      -0.676256       -18.4019
 136   2.0000      -0.662997       -18.0411
 137   2.0000      -0.654046       -17.7975
 138   2.0000      -0.649389       -17.6708
 139   2.0000      -0.641698       -17.4615
 140   2.0000      -0.638805       -17.3828
 141   2.0000      -0.623587       -16.9687
 142   2.0000      -0.622592       -16.9416
 143   2.0000      -0.612592       -16.6695
 144   2.0000      -0.610905       -16.6236
 145   2.0000      -0.606193       -16.4954
 146   2.0000      -0.602860       -16.4047
 147   2.0000      -0.596973       -16.2445
 148   2.0000      -0.589391       -16.0381
 149   2.0000      -0.580838       -15.8054
 150   2.0000      -0.576290       -15.6817
 151   2.0000      -0.572909       -15.5896
 152   2.0000      -0.565377       -15.3847
 153   2.0000      -0.562975       -15.3193
 154   2.0000      -0.560712       -15.2577
 155   2.0000      -0.559429       -15.2228
 156   2.0000      -0.554010       -15.0754
 157   2.0000      -0.553652       -15.0656
 158   2.0000      -0.551175       -14.9982
 159   2.0000      -0.548713       -14.9312
 160   2.0000      -0.545061       -14.8319
 161   2.0000      -0.544210       -14.8087
 162   2.0000      -0.543238       -14.7822
 163   2.0000      -0.537507       -14.6263
 164   2.0000      -0.534195       -14.5362
 165   2.0000      -0.532610       -14.4931
 166   2.0000      -0.530135       -14.4257
 167   2.0000      -0.528050       -14.3690
 168   2.0000      -0.526354       -14.3228
 169   2.0000      -0.524264       -14.2659
 170   2.0000      -0.523503       -14.2452
 171   2.0000      -0.521896       -14.2015
 172   2.0000      -0.517648       -14.0859
 173   2.0000      -0.516768       -14.0620
 174   2.0000      -0.513188       -13.9646
 175   2.0000      -0.512201       -13.9377
 176   2.0000      -0.511369       -13.9151
 177   2.0000      -0.507458       -13.8086
 178   2.0000      -0.501546       -13.6478
 179   2.0000      -0.498898       -13.5757
 180   2.0000      -0.494622       -13.4593
 181   2.0000      -0.493026       -13.4159
 182   2.0000      -0.491666       -13.3789
 183   2.0000      -0.489384       -13.3168
 184   2.0000      -0.488490       -13.2925
 185   2.0000      -0.482143       -13.1198
 186   2.0000      -0.481339       -13.0979
 187   2.0000      -0.477405       -12.9908
 188   2.0000      -0.473616       -12.8877
 189   2.0000      -0.467870       -12.7314
 190   2.0000      -0.463624       -12.6159
 191   2.0000      -0.462325       -12.5805
 192   2.0000      -0.459273       -12.4974
 193   2.0000      -0.458397       -12.4736
 194   2.0000      -0.453975       -12.3533
 195   2.0000      -0.452104       -12.3024
 196   2.0000      -0.451671       -12.2906
 197   2.0000      -0.451071       -12.2743
 198   2.0000      -0.447335       -12.1726
 199   2.0000      -0.440701       -11.9921
 200   2.0000      -0.440457       -11.9855
 201   2.0000      -0.439464       -11.9584
 202   2.0000      -0.438460       -11.9311
 203   2.0000      -0.436397       -11.8750
 204   2.0000      -0.435888       -11.8611
 205   2.0000      -0.434519       -11.8239
 206   2.0000      -0.424785       -11.5590
 207   2.0000      -0.423364       -11.5203
 208   2.0000      -0.421096       -11.4586
 209   2.0000      -0.419140       -11.4054
 210   2.0000      -0.413503       -11.2520
 211   2.0000      -0.412603       -11.2275
 212   2.0000      -0.409903       -11.1540
 213   2.0000      -0.408417       -11.1136
 214   2.0000      -0.401512       -10.9257
 215   2.0000      -0.400373       -10.8947
 216   2.0000      -0.396353       -10.7853
 217   2.0000      -0.384889       -10.4734
 218   2.0000      -0.376207       -10.2371
 219   2.0000      -0.372391       -10.1333
 220   2.0000      -0.366076        -9.9614
 221   2.0000      -0.363500        -9.8913
 222   2.0000      -0.359371        -9.7790
 223   2.0000      -0.350585        -9.5399
 224   2.0000      -0.348172        -9.4742
 225   2.0000      -0.344985        -9.3875
 226   2.0000      -0.342753        -9.3268
 227   2.0000      -0.334191        -9.0938
 228   2.0000      -0.330806        -9.0017
 229   2.0000      -0.323373        -8.7994
 230   2.0000      -0.320975        -8.7342
 231   2.0000      -0.320881        -8.7316
 232   2.0000      -0.306750        -8.3471
 233   2.0000      -0.302230        -8.2241
 234   2.0000      -0.250980        -6.8295
 235   0.0000      -0.143561        -3.9065
 236   0.0000      -0.102677        -2.7940
 237   0.0000      -0.087611        -2.3840
 238   0.0000      -0.059448        -1.6176
 239   0.0000      -0.054598        -1.4857

MULLIKEN ATOMIC CHARGES
-----------------------
   0 C :    0.032015
   1 C :   -0.129449
   2 S :    0.193082
   3 C :   -0.168734
   4 Cl:    0.005636
   5 C :    0.074285
   6 C :    0.139514
   7 O :   -0.126117
   8 C :   -0.100728
   9 C :    0.295960
  10 C :   -0.318934
  11 C :   -0.193841
  12 N :    0.160194
  13 C :   -0.190595
  14 N :    0.169304
  15 C :   -0.026666
  16 C :    0.082312
  17 C :   -0.070984
  18 C :    0.091882
  19 C :   -0.110824
  20 C :    0.074164
  21 C :   -0.182576
  22 N :    0.140022
  23 C :    0.133664
  24 C :   -0.109927
  25 C :    0.037917
  26 C :   -0.029289
  27 C :   -0.090226
  28 C :   -0.187348
  29 N :    0.151822
  30 C :    0.142376
  31 N :   -0.251897
  32 C :    0.097016
  33 C :   -0.008194
  34 C :    0.166548
  35 O :   -0.225226
  36 C :   -0.078298
  37 C :   -0.043400
  38 C :    0.154785
  39 O :   -0.169490
  40 N :   -0.254932
  41 C :    0.092711
  42 C :    0.000804
  43 C :    0.149637
  44 C :   -0.032499
  45 C :    0.012016
  46 C :   -0.076799
  47 S :    0.145438
  48 C :    0.059358
  49 C :    0.069787
  50 C :    0.012993
  51 S :    0.647508
  52 N :   -0.400081
  53 O :   -0.456343
  54 C :    0.064967
  55 C :   -0.237986
  56 C :    0.188657
  57 C :   -0.185288
  58 C :    0.172936
  59 O :   -0.154138
  60 O :   -0.162918
  61 C :    0.048292
  62 N :    0.035241
  63 O :   -0.180873
  64 H :    0.056279
  65 H :    0.038438
  66 H :    0.015868
  67 H :    0.005275
  68 H :    0.028725
  69 H :   -0.009188
  70 H :    0.047125
  71 H :    0.028018
  72 H :    0.029585
  73 H :    0.029848
  74 H :    0.032302
  75 H :    0.052409
  76 H :    0.027509
  77 H :    0.041736
  78 H :    0.031318
  79 H :    0.012563
  80 H :   -0.012578
  81 H :    0.019516
  82 H :    0.035128
  83 H :    0.053423
  84 H :    0.133258
  85 H :    0.183115
  86 H :    0.032078
Sum of atomic charges:   -0.0000000

LOEWDIN ATOMIC CHARGES
----------------------
   0 C :   -0.059184
   1 C :   -0.147495
   2 S :    0.481231
   3 C :   -0.270258
   4 Cl:    0.196294
   5 C :   -0.118523
   6 C :    0.081496
   7 O :   -0.119740
   8 C :   -0.077370
   9 C :    0.070964
  10 C :   -0.127932
  11 C :   -0.015132
  12 N :   -0.045324
  13 C :   -0.025466
  14 N :   -0.036089
  15 C :    0.073542
  16 C :   -0.025371
  17 C :    0.020510
  18 C :    0.041187
  19 C :   -0.090169
  20 C :    0.077942
  21 C :   -0.030930
  22 N :   -0.056321
  23 C :    0.037052
  24 C :    0.011900
  25 C :   -0.032041
  26 C :    0.046605
  27 C :   -0.077034
  28 C :   -0.034264
  29 N :   -0.054953
  30 C :    0.065970
  31 N :    0.002280
  32 C :    0.035539
  33 C :   -0.060511
  34 C :    0.080972
  35 O :   -0.212279
  36 C :   -0.125174
  37 C :   -0.096303
  38 C :    0.086279
  39 O :   -0.162518
  40 N :    0.003764
  41 C :    0.037163
  42 C :   -0.059629
  43 C :    0.087682
  44 C :   -0.049031
  45 C :    0.018796
  46 C :   -0.155396
  47 S :    0.454609
  48 C :   -0.055997
  49 C :    0.002803
  50 C :   -0.116937
  51 S :    1.171207
  52 N :   -0.485351
  53 O :   -0.509184
  54 C :   -0.173746
  55 C :   -0.189765
  56 C :    0.032200
  57 C :   -0.146229
  58 C :    0.072440
  59 O :   -0.134802
  60 O :   -0.030666
  61 C :    0.007501
  62 N :   -0.012854
  63 O :    0.032096
  64 H :    0.038760
  65 H :    0.053595
  66 H :    0.040220
  67 H :    0.037911
  68 H :    0.039504
  69 H :    0.035699
  70 H :    0.038898
  71 H :    0.020790
  72 H :    0.033260
  73 H :    0.034651
  74 H :    0.024993
  75 H :    0.041354
  76 H :    0.024612
  77 H :    0.037053
  78 H :    0.034335
  79 H :    0.020637
  80 H :    0.026667
  81 H :    0.043532
  82 H :    0.050528
  83 H :    0.040896
  84 H :    0.047566
  85 H :    0.080747
  86 H :    0.043740

  Mayer bond orders larger than 0.100000
B(  0-C ,  1-C ) :   1.5440 B(  0-C ,  5-C ) :   1.2201 B(  0-C ,  9-C ) :   1.0014
B(  1-C ,  2-S ) :   1.1640 B(  1-C , 64-H ) :   0.9543 B(  2-S ,  3-C ) :   1.1539
B(  3-C ,  4-Cl) :   1.1335 B(  3-C ,  5-C ) :   1.4729 B(  5-C ,  6-C ) :   0.9529
B(  6-C ,  7-O ) :   2.2280 B(  6-C ,  8-C ) :   0.9323 B(  8-C ,  9-C ) :   1.0529
B(  8-C , 15-C ) :   1.6367 B(  9-C , 10-C ) :   1.6650 B( 10-C , 11-C ) :   1.1453
B( 10-C , 13-C ) :   1.1363 B( 11-C , 12-N ) :   2.9906 B( 13-C , 14-N ) :   2.9791
B( 15-C , 16-C ) :   1.0970 B( 15-C , 65-H ) :   0.9474 B( 16-C , 17-C ) :   1.5216
B( 16-C , 20-C ) :   1.0491 B( 17-C , 18-C ) :   1.1000 B( 17-C , 66-H ) :   1.0083
B( 18-C , 19-C ) :   1.1165 B( 18-C , 23-C ) :   1.4025 B( 19-C , 20-C ) :   1.6739
B( 19-C , 21-C ) :   1.0908 B( 20-C , 67-H ) :   1.0059 B( 21-C , 22-N ) :   2.9864
B( 23-C , 24-C ) :   1.1215 B( 23-C , 27-C ) :   1.0954 B( 24-C , 25-C ) :   1.5426
B( 24-C , 68-H ) :   0.9917 B( 25-C , 26-C ) :   1.0176 B( 25-C , 30-C ) :   1.0476
B( 26-C , 27-C ) :   1.6734 B( 26-C , 69-H ) :   1.0285 B( 27-C , 28-C ) :   1.0836
B( 28-C , 29-N ) :   2.9769 B( 30-C , 31-N ) :   1.1908 B( 30-C , 37-C ) :   1.3800
B( 31-N , 32-C ) :   0.9392 B( 31-N , 34-C ) :   1.0643 B( 32-C , 33-C ) :   1.1166
B( 32-C , 70-H ) :   0.9228 B( 32-C , 71-H ) :   0.9513 B( 33-C , 72-H ) :   0.9615
B( 33-C , 73-H ) :   0.9664 B( 33-C , 74-H ) :   0.9667 B( 34-C , 35-O ) :   1.9903
B( 34-C , 36-C ) :   1.0054 B( 35-O , 81-H ) :   0.1158 B( 36-C , 37-C ) :   1.2589
B( 36-C , 43-C ) :   1.2945 B( 37-C , 38-C ) :   0.9598 B( 38-C , 39-O ) :   2.1091
B( 38-C , 40-N ) :   1.0301 B( 40-N , 41-C ) :   0.9365 B( 40-N , 43-C ) :   1.1896
B( 41-C , 42-C ) :   1.1232 B( 41-C , 75-H ) :   0.9272 B( 41-C , 76-H ) :   0.9503
B( 42-C , 77-H ) :   0.9634 B( 42-C , 78-H ) :   0.9675 B( 42-C , 79-H ) :   0.9682
B( 43-C , 44-C ) :   1.1756 B( 44-C , 45-C ) :   1.5664 B( 44-C , 80-H ) :   0.9657
B( 45-C , 46-C ) :   1.1818 B( 45-C , 81-H ) :   0.9430 B( 46-C , 47-S ) :   1.0678
B( 46-C , 48-C ) :   1.4527 B( 46-C , 55-C ) :   0.1028 B( 47-S , 55-C ) :   1.1221
B( 48-C , 49-C ) :   1.0853 B( 48-C , 54-C ) :   1.2653 B( 49-C , 50-C ) :   1.7631
B( 49-C , 82-H ) :   0.9851 B( 50-C , 51-S ) :   0.8725 B( 50-C , 83-H ) :   0.9629
B( 51-S , 52-N ) :   1.6093 B( 51-S , 53-O ) :   1.6662 B( 51-S , 54-C ) :   0.6952
B( 52-N , 84-H ) :   0.9306 B( 54-C , 55-C ) :   1.6425 B( 55-C , 56-C ) :   1.1091
B( 56-C , 57-C ) :   1.4889 B( 56-C , 62-N ) :   0.1055 B( 56-C , 63-O ) :   1.1919
B( 57-C , 58-C ) :   0.8954 B( 57-C , 61-C ) :   1.2011 B( 58-C , 59-O ) :   2.2207
B( 58-C , 60-O ) :   1.2209 B( 60-O , 85-H ) :   0.9442 B( 61-C , 62-N ) :   1.7421
B( 61-C , 86-H ) :   0.9938 B( 62-N , 63-O ) :   1.0053

-----------------------------------------------------------------------------
         ABSORPTION SPECTRUM VIA TRANSITION ELECTRIC DIPOLE MOMENTS
-----------------------------------------------------------------------------
State   Energy  Wavelength   fosc         T2         TX        TY        TZ
        (cm-1)    (nm)                  (au**2)     (au)      (au)      (au)
-----------------------------------------------------------------------------
   0    8536.5   1171.4   0.518573697  19.99896   2.11991  -3.93762   0.01050
   1   16567.3    603.6   0.041090145   0.81651  -0.19714   0.80899  -0.35098
   2   17228.1    580.4   0.374034188   7.14741  -1.82759   1.71772   0.92562
   3   19973.7    500.7   0.015193938   0.25043   0.31127  -0.38832  -0.05242
   4   22573.9    443.0   0.536340682   7.82187   0.84555  -2.55545   0.75934
   5   23387.0    427.6   0.246153158   3.46503   1.19816  -1.42297   0.06787
   6   23648.7    422.9   0.025011552   0.34818  -0.26528   0.50329   0.15657
   7   23946.9    417.6   0.037234834   0.51189   0.35552  -0.61018   0.11479
   8   24741.0    404.2   0.050525523   0.67231   0.21638   0.48683  -0.62329
   9   25313.1    395.1   0.003969675   0.05163  -0.05405   0.22031   0.01303
  10   26879.8    372.0   0.048950146   0.59952   0.00818   0.58507  -0.50710
  11   27235.6    367.2   0.107131585   1.29496  -0.25820   1.08205  -0.23971
  12   28022.9    356.9   0.000217929   0.00256   0.01104  -0.04919  -0.00428
  13   28341.2    352.8   0.450862705   5.23723  -0.86003   2.03159  -0.60846
  14   29152.7    343.0   0.141285114   1.59549   0.80577  -0.96018  -0.15583
  15   29489.5    339.1   0.129542814   1.44618  -0.16812  -0.89175   0.78911
  16   29957.9    333.8   0.001651769   0.01815   0.06325  -0.10965   0.04613
  17   30229.2    330.8   0.082274938   0.89602  -0.21124  -0.41056   0.82634
  18   30955.6    323.0   0.149434333   1.58923  -0.15033   0.98524  -0.77197
  19   31182.8    320.7   0.063208607   0.66732  -0.03850  -0.54519   0.60713
  20   31510.9    317.4   0.089584071   0.93593  -0.61111   0.63107   0.40524
  21   32537.7    307.3   0.044687876   0.45215   0.48953  -0.18560  -0.42196
  22   32804.3    304.8   0.017598829   0.17662   0.29153  -0.24409  -0.17901
  23   32934.5    303.6   0.151226532   1.51165  -0.31731   0.99612  -0.64708
  24   33366.1    299.7   0.004892784   0.04828   0.01952   0.05367   0.21216
  25   33457.8    298.9   0.027101791   0.26667  -0.24456   0.32319  -0.32002
  26   33588.8    297.7   0.241708552   2.36904   0.02669   1.02739  -1.14577
  27   34188.2    292.5   0.032310312   0.31113   0.23277  -0.50638   0.02302
  28   34207.8    292.3   0.178351879   1.71644  -0.28452  -0.36138   1.22674
  29   34812.2    287.3   0.019407933   0.18354  -0.17383  -0.14662   0.36308
  30   34940.6    286.2   0.009255064   0.08720   0.18473  -0.00256   0.23037
  31   35024.3    285.5   0.048107650   0.45219   0.05208  -0.03870   0.66931
  32   35282.4    283.4   0.013970203   0.13035   0.27583   0.17595  -0.15268
  33   36268.0    275.7   0.007092911   0.06438  -0.08333   0.10183   0.21696
  34   36433.2    274.5   0.047709319   0.43110  -0.09303   0.39890  -0.51315
  35   37018.7    270.1   0.014022204   0.12470  -0.02468  -0.26435   0.23283
  36   37247.6    268.5   0.112845603   0.99738  -0.21053   0.75700  -0.61646
  37   37345.1    267.8   0.001641388   0.01447  -0.10611  -0.05417  -0.01661
  38   37526.1    266.5   0.003626120   0.03181   0.00157   0.17431  -0.03773
  39   37875.6    264.0   0.132566362   1.15226  -0.52075   0.93202   0.11146
  40   38045.9    262.8   0.507974412   4.39551   0.82461  -0.16188  -1.92076
  41   38276.1    261.3   0.183495622   1.57824   0.34176   0.43210  -1.12904
  42   38606.3    259.0   0.027024609   0.23045   0.34159  -0.13750  -0.30799
  43   39027.6    256.2   0.000790845   0.00667   0.00183  -0.02120   0.07886
  44   39534.9    252.9   0.079031172   0.65810  -0.03249   0.40791  -0.70047
  45   39790.5    251.3   0.016586493   0.13723  -0.04284  -0.35695  -0.08933
  46   39942.7    250.4   0.002197900   0.01812   0.05351  -0.09477   0.07919
  47   40215.4    248.7   0.063913296   0.52321   0.06511   0.08344   0.71555

FINAL SINGLE POINT ENERGY     -4343.847837066005

DIPOLE MOMENT
-------------
                                X             Y             Z
Electronic contribution:    -19.52708      44.62811     -29.24144
Nuclear contribution   :     19.56058     -44.33840      28.47262
                        -----------------------------------------
Total Dipole Moment    :      0.03350       0.28972      -0.76882
                        -----------------------------------------
Magnitude (a.u.)       :      0.82228
Magnitude (Debye)      :      2.09006

Rotational constants in cm-1:     0.002560     0.000290     0.000263
Rotational constants in MHz :    76.737266     8.681162     7.897171

                             ****ORCA TERMINATED NORMALLY****
TOTAL RUN TIME: 0 days 0 hours 8 minutes 13 seconds 401 msec
