                         Program Version 4.2.0 -  RELEASE  -
|  1> # ORCA input file
|  2> # SCF done       -212.122672655425          0.000423315028
|  3> ! CAM-B3LYP def2-SVP def2/J RIJCOSX Grid4 TightSCF
|  4> %maxcore 5000
|  5> %tddft
|  6>     Mode sTDDFT
|  7>     Ethresh 5.0
|  8>     maxcore 5000
|  9> end
| 10>
| 11> %pal
| 12>   nprocs 6
| 13>   end
| 14> * xyz 0 1
| 15>    C        1.35192         3.89605         4.16557
| 16>    C        0.16209         4.40209         4.61496
| 17>    C        0.02569         5.11833         5.82196
| 18>    N       -0.12868         5.71088         6.79233
| 19>    C       -1.06912         4.17805         3.96359
| 20>    N       -2.09104         3.98243         3.47902
| 21>    C        2.59960         3.85969         4.91614
| 22>    C        3.41587         2.81663         4.38620
| 23>    C        4.63751         2.52377         4.92148
| 24>    C        5.10851         3.27974         6.01864
| 25>    C        4.30410         4.33505         6.53970
| 26>    C        3.03974         4.61173         5.97160
| 27>    C        4.79132         5.08689         7.62810
| 28>    C        6.01229         4.80944         8.17975
| 29>    C        6.80260         3.76925         7.66797
| 30>    C        6.36032         3.02063         6.61118
| 31>    C        2.73469         2.19362         3.23674
| 32>    O        3.08905         1.24747         2.57691
| 33>    C        1.52652         3.04584         3.00237
| 34>    C        0.88991         3.01711         1.80715
| 35>    C        0.03462         4.00690         1.25161
| 36>    S        0.13346         5.71148         1.65251
| 37>    C       -0.91696         3.83741         0.27219
| 38>    C       -1.48007         2.70177        -0.47986
| 39>    O       -1.19210         1.53375        -0.45887
| 40>    N       -2.46604         3.27145        -1.27928
| 41>    C       -3.26158         2.50107        -2.21179
| 42>    C       -2.55618         2.36253        -3.55630
| 43>    C       -2.58937         4.64485        -1.13166
| 44>    O       -3.37782         5.33071        -1.73934
| 45>    C       -1.58594         5.01472        -0.11809
| 46>    C       -1.13503         6.15205         0.52919
| 47>    C       -1.50240         7.51494         0.43455
| 48>    C       -2.48745         7.98152        -0.37781
| 49>    C       -2.81486         9.35841        -0.43849
| 50>    N       -3.81608         9.87094        -1.22119
| 51>    C       -4.73633         9.11907        -2.04110
| 52>    C       -5.83730         8.47091        -1.20630
| 53>    C       -3.91420        11.27659        -1.10786
| 54>    O       -4.70626        11.94395        -1.73072
| 55>    C       -2.87692        11.62162        -0.15352
| 56>    C       -2.21401        10.43187         0.22530
| 57>    C       -1.16347        10.79159         1.14879
| 58>    O       -0.35295        10.12552         1.76485
| 59>    N       -1.24173        12.19231         1.24740
| 60>    C       -0.37839        12.88337         2.17586
| 61>    C        0.98462        13.19224         1.55933
| 62>    C       -2.26345        12.70305         0.47598
| 63>    C       -2.66558        14.05726         0.33489
| 64>    C       -1.89795        15.15908         0.53344
| 65>    C       -2.34582        16.49849         0.40599
| 66>    S       -1.14200        17.76613         0.47518
| 67>    C       -2.33080        19.03749         0.34383
| 68>    C       -3.58429        18.47748         0.21288
| 69>    C       -3.60556        17.06612         0.25646
| 70>    C       -4.98964        16.58205         0.16994
| 71>    O       -5.38777        15.44477         0.18777
| 72>    C       -5.86389        17.82323         0.07036
| 73>    C       -4.92775        19.00923        -0.07407
| 74>    O       -5.22828        20.12112        -0.42218
| 75>    C       -1.94082        20.40354         0.36447
| 76>    C       -2.68014        21.40688         0.90623
| 77>    C       -2.39453        22.82829         0.82167
| 78>    C       -1.52699        23.42589        -0.05382
| 79>    C       -1.30807        24.81811        -0.12214
| 80>    N       -1.07801        25.93856        -0.21836
| 81>    C       -0.74927        22.74282        -1.01269
| 82>    N       -0.09291        22.25418        -1.81824
| 83>    C       -3.25781        23.51373         1.77298
| 84>    C       -4.09566        22.54977         2.40386
| 85>    C       -3.79306        21.20914         1.88355
| 86>    O       -4.28002        20.16324         2.25382
| 87>    C       -5.01692        22.90264         3.34832
| 88>    C       -5.14725        24.26180         3.70942
| 89>    C       -4.30867        25.23188         3.08711
| 90>    C       -3.36234        24.83655         2.11432
| 91>    C       -4.44254        26.58460         3.46089
| 92>    C       -5.36077        26.96314         4.40220
| 93>    C       -6.18677        26.00761         5.01309
| 94>    C       -6.08288        24.68592         4.67358
| 95>    H        5.23872         1.72516         4.51307
| 96>    H        2.45272         5.42209         6.37526
| 97>    H        4.17754         5.88432         8.02037
| 98>    H        6.37601         5.38984         9.01433
| 99>    H        7.76372         3.56443         8.11514
|100>    H        6.96475         2.21879         6.21323
|101>    H        1.10013         2.16844         1.16283
|102>    H       -4.21584         3.01914        -2.33119
|103>    H       -3.42528         1.51695        -1.76658
|104>    H       -2.38426         3.34262        -3.99559
|105>    H       -3.17089         1.77819        -4.23478
|106>    H       -1.60110         1.85850        -3.42819
|107>    H       -0.95080         8.20185         1.06388
|108>    H       -3.04299         7.29343        -0.99832
|109>    H       -4.18969         8.36088        -2.60726
|110>    H       -5.17590         9.83872        -2.73731
|111>    H       -5.41909         7.75813        -0.49971
|112>    H       -6.52796         7.94593        -1.85969
|113>    H       -6.38612         9.23117        -0.65568
|114>    H       -0.23109        12.20925         3.02587
|115>    H       -0.88016        13.78716         2.52617
|116>    H        1.49482        12.26159         1.32502
|117>    H        1.59068        13.75388         2.26485
|118>    H        0.88637        13.76790         0.64129
|119>    H       -3.68556        14.17719        -0.00983
|120>    H       -0.84538        15.06531         0.75706
|121>    H       -6.44115        17.93525         0.99200
|122>    H       -6.58107        17.75599        -0.74920
|123>    H       -0.96882        20.62289        -0.05995
|124>    H       -5.64102        22.15283         3.81135
|125>    H       -2.73769        25.59303         1.66630
|126>    H       -3.80574        27.31685         2.98669
|127>    H       -5.45616        28.00175         4.68118
|128>    H       -6.90539        26.32406         5.75415
|129>    H       -6.71603        23.94574         5.14047
|130> *
|131>
|132>                          ****END OF INPUT****

CARTESIAN COORDINATES (ANGSTROEM)
---------------------------------
  C      1.351920    3.896050    4.165570
  C      0.162090    4.402090    4.614960
  C      0.025690    5.118330    5.821960
  N     -0.128680    5.710880    6.792330
  C     -1.069120    4.178050    3.963590
  N     -2.091040    3.982430    3.479020
  C      2.599600    3.859690    4.916140
  C      3.415870    2.816630    4.386200
  C      4.637510    2.523770    4.921480
  C      5.108510    3.279740    6.018640
  C      4.304100    4.335050    6.539700
  C      3.039740    4.611730    5.971600
  C      4.791320    5.086890    7.628100
  C      6.012290    4.809440    8.179750
  C      6.802600    3.769250    7.667970
  C      6.360320    3.020630    6.611180
  C      2.734690    2.193620    3.236740
  O      3.089050    1.247470    2.576910
  C      1.526520    3.045840    3.002370
  C      0.889910    3.017110    1.807150
  C      0.034620    4.006900    1.251610
  S      0.133460    5.711480    1.652510
  C     -0.916960    3.837410    0.272190
  C     -1.480070    2.701770   -0.479860
  O     -1.192100    1.533750   -0.458870
  N     -2.466040    3.271450   -1.279280
  C     -3.261580    2.501070   -2.211790
  C     -2.556180    2.362530   -3.556300
  C     -2.589370    4.644850   -1.131660
  O     -3.377820    5.330710   -1.739340
  C     -1.585940    5.014720   -0.118090
  C     -1.135030    6.152050    0.529190
  C     -1.502400    7.514940    0.434550
  C     -2.487450    7.981520   -0.377810
  C     -2.814860    9.358410   -0.438490
  N     -3.816080    9.870940   -1.221190
  C     -4.736330    9.119070   -2.041100
  C     -5.837300    8.470910   -1.206300
  C     -3.914200   11.276590   -1.107860
  O     -4.706260   11.943950   -1.730720
  C     -2.876920   11.621620   -0.153520
  C     -2.214010   10.431870    0.225300
  C     -1.163470   10.791590    1.148790
  O     -0.352950   10.125520    1.764850
  N     -1.241730   12.192310    1.247400
  C     -0.378390   12.883370    2.175860
  C      0.984620   13.192240    1.559330
  C     -2.263450   12.703050    0.475980
  C     -2.665580   14.057260    0.334890
  C     -1.897950   15.159080    0.533440
  C     -2.345820   16.498490    0.405990
  S     -1.142000   17.766130    0.475180
  C     -2.330800   19.037490    0.343830
  C     -3.584290   18.477480    0.212880
  C     -3.605560   17.066120    0.256460
  C     -4.989640   16.582050    0.169940
  O     -5.387770   15.444770    0.187770
  C     -5.863890   17.823230    0.070360
  C     -4.927750   19.009230   -0.074070
  O     -5.228280   20.121120   -0.422180
  C     -1.940820   20.403540    0.364470
  C     -2.680140   21.406880    0.906230
  C     -2.394530   22.828290    0.821670
  C     -1.526990   23.425890   -0.053820
  C     -1.308070   24.818110   -0.122140
  N     -1.078010   25.938560   -0.218360
  C     -0.749270   22.742820   -1.012690
  N     -0.092910   22.254180   -1.818240
  C     -3.257810   23.513730    1.772980
  C     -4.095660   22.549770    2.403860
  C     -3.793060   21.209140    1.883550
  O     -4.280020   20.163240    2.253820
  C     -5.016920   22.902640    3.348320
  C     -5.147250   24.261800    3.709420
  C     -4.308670   25.231880    3.087110
  C     -3.362340   24.836550    2.114320
  C     -4.442540   26.584600    3.460890
  C     -5.360770   26.963140    4.402200
  C     -6.186770   26.007610    5.013090
  C     -6.082880   24.685920    4.673580
  H      5.238720    1.725160    4.513070
  H      2.452720    5.422090    6.375260
  H      4.177540    5.884320    8.020370
  H      6.376010    5.389840    9.014330
  H      7.763720    3.564430    8.115140
  H      6.964750    2.218790    6.213230
  H      1.100130    2.168440    1.162830
  H     -4.215840    3.019140   -2.331190
  H     -3.425280    1.516950   -1.766580
  H     -2.384260    3.342620   -3.995590
  H     -3.170890    1.778190   -4.234780
  H     -1.601100    1.858500   -3.428190
  H     -0.950800    8.201850    1.063880
  H     -3.042990    7.293430   -0.998320
  H     -4.189690    8.360880   -2.607260
  H     -5.175900    9.838720   -2.737310
  H     -5.419090    7.758130   -0.499710
  H     -6.527960    7.945930   -1.859690
  H     -6.386120    9.231170   -0.655680
  H     -0.231090   12.209250    3.025870
  H     -0.880160   13.787160    2.526170
  H      1.494820   12.261590    1.325020
  H      1.590680   13.753880    2.264850
  H      0.886370   13.767900    0.641290
  H     -3.685560   14.177190   -0.009830
  H     -0.845380   15.065310    0.757060
  H     -6.441150   17.935250    0.992000
  H     -6.581070   17.755990   -0.749200
  H     -0.968820   20.622890   -0.059950
  H     -5.641020   22.152830    3.811350
  H     -2.737690   25.593030    1.666300
  H     -3.805740   27.316850    2.986690
  H     -5.456160   28.001750    4.681180
  H     -6.905390   26.324060    5.754150
  H     -6.716030   23.945740    5.140470

 Total Charge           Charge          ....    0
 Multiplicity           Mult            ....    1
 Number of Electrons    NEL             ....  558
 Basis Dimension        Dim             .... 1303

ORBITAL ENERGIES
----------------

  NO   OCC          E(Eh)            E(eV)
   0   2.0000     -88.987812     -2421.4815
   1   2.0000     -88.986308     -2421.4405
   2   2.0000     -19.223947      -523.1102
   3   2.0000     -19.220393      -523.0135
   4   2.0000     -19.220041      -523.0039
   5   2.0000     -19.219557      -522.9907
   6   2.0000     -19.218525      -522.9626
   7   2.0000     -19.216501      -522.9076
   8   2.0000     -19.195656      -522.3404
   9   2.0000     -19.192688      -522.2596
  10   2.0000     -14.462528      -393.5454
  11   2.0000     -14.457543      -393.4098
  12   2.0000     -14.454689      -393.3321
  13   2.0000     -14.420597      -392.4044
  14   2.0000     -14.419467      -392.3736
  15   2.0000     -14.417808      -392.3285
  16   2.0000     -14.416922      -392.3044
  17   2.0000     -10.406033      -283.1626
  18   2.0000     -10.402274      -283.0603
  19   2.0000     -10.377176      -282.3773
  20   2.0000     -10.376344      -282.3547
  21   2.0000     -10.372879      -282.2604
  22   2.0000     -10.371822      -282.2316
  23   2.0000     -10.371507      -282.2230
  24   2.0000     -10.371024      -282.2099
  25   2.0000     -10.350591      -281.6539
  26   2.0000     -10.346859      -281.5523
  27   2.0000     -10.346027      -281.5297
  28   2.0000     -10.345355      -281.5114
  29   2.0000     -10.343103      -281.4501
  30   2.0000     -10.342775      -281.4412
  31   2.0000     -10.342360      -281.4299
  32   2.0000     -10.340099      -281.3684
  33   2.0000     -10.339943      -281.3641
  34   2.0000     -10.331776      -281.1419
  35   2.0000     -10.327184      -281.0170
  36   2.0000     -10.326789      -281.0062
  37   2.0000     -10.322420      -280.8873
  38   2.0000     -10.321148      -280.8527
  39   2.0000     -10.320242      -280.8281
  40   2.0000     -10.319364      -280.8042
  41   2.0000     -10.311863      -280.6001
  42   2.0000     -10.310353      -280.5590
  43   2.0000     -10.308870      -280.5186
  44   2.0000     -10.308807      -280.5169
  45   2.0000     -10.308357      -280.5046
  46   2.0000     -10.306872      -280.4642
  47   2.0000     -10.306856      -280.4638
  48   2.0000     -10.304674      -280.4044
  49   2.0000     -10.304505      -280.3998
  50   2.0000     -10.303911      -280.3837
  51   2.0000     -10.303793      -280.3805
  52   2.0000     -10.301982      -280.3312
  53   2.0000     -10.301878      -280.3283
  54   2.0000     -10.301660      -280.3224
  55   2.0000     -10.301331      -280.3135
  56   2.0000     -10.301206      -280.3101
  57   2.0000     -10.299566      -280.2654
  58   2.0000     -10.299333      -280.2591
  59   2.0000     -10.299254      -280.2569
  60   2.0000     -10.298701      -280.2419
  61   2.0000     -10.298413      -280.2341
  62   2.0000     -10.297745      -280.2159
  63   2.0000     -10.297222      -280.2017
  64   2.0000     -10.294315      -280.1226
  65   2.0000     -10.290502      -280.0188
  66   2.0000     -10.289932      -280.0033
  67   2.0000     -10.289523      -279.9922
  68   2.0000     -10.289296      -279.9860
  69   2.0000     -10.288809      -279.9727
  70   2.0000     -10.288198      -279.9561
  71   2.0000     -10.287709      -279.9428
  72   2.0000     -10.287465      -279.9362
  73   2.0000     -10.286941      -279.9219
  74   2.0000     -10.281206      -279.7658
  75   2.0000     -10.268149      -279.4105
  76   2.0000     -10.266790      -279.3736
  77   2.0000     -10.265628      -279.3419
  78   2.0000     -10.262961      -279.2694
  79   2.0000     -10.257658      -279.1251
  80   2.0000      -8.083192      -219.9548
  81   2.0000      -8.080976      -219.8945
  82   2.0000      -6.052289      -164.6911
  83   2.0000      -6.050346      -164.6383
  84   2.0000      -6.048153      -164.5786
  85   2.0000      -6.046004      -164.5201
  86   2.0000      -6.045683      -164.5114
  87   2.0000      -6.043104      -164.4412
  88   2.0000      -1.167899       -31.7802
  89   2.0000      -1.144621       -31.1467
  90   2.0000      -1.140277       -31.0285
  91   2.0000      -1.136966       -30.9384
  92   2.0000      -1.135906       -30.9096
  93   2.0000      -1.135729       -30.9048
  94   2.0000      -1.130041       -30.7500
  95   2.0000      -1.128957       -30.7205
  96   2.0000      -1.066671       -29.0256
  97   2.0000      -1.059384       -28.8273
  98   2.0000      -1.057819       -28.7847
  99   2.0000      -1.025637       -27.9090
 100   2.0000      -1.021096       -27.7854
 101   2.0000      -1.016815       -27.6689
 102   2.0000      -1.011620       -27.5276
 103   2.0000      -1.002866       -27.2894
 104   2.0000      -1.000290       -27.2193
 105   2.0000      -0.997559       -27.1449
 106   2.0000      -0.995645       -27.0929
 107   2.0000      -0.976219       -26.5643
 108   2.0000      -0.973616       -26.4934
 109   2.0000      -0.935100       -25.4454
 110   2.0000      -0.932474       -25.3739
 111   2.0000      -0.931993       -25.3608
 112   2.0000      -0.930471       -25.3194
 113   2.0000      -0.924056       -25.1449
 114   2.0000      -0.920390       -25.0451
 115   2.0000      -0.913130       -24.8475
 116   2.0000      -0.901016       -24.5179
 117   2.0000      -0.899046       -24.4643
 118   2.0000      -0.886183       -24.1143
 119   2.0000      -0.884238       -24.0613
 120   2.0000      -0.882623       -24.0174
 121   2.0000      -0.878398       -23.9024
 122   2.0000      -0.871229       -23.7073
 123   2.0000      -0.847368       -23.0581
 124   2.0000      -0.841709       -22.9041
 125   2.0000      -0.835028       -22.7223
 126   2.0000      -0.832393       -22.6506
 127   2.0000      -0.830049       -22.5868
 128   2.0000      -0.828092       -22.5335
 129   2.0000      -0.821468       -22.3533
 130   2.0000      -0.810733       -22.0612
 131   2.0000      -0.802260       -21.8306
 132   2.0000      -0.787107       -21.4183
 133   2.0000      -0.777536       -21.1578
 134   2.0000      -0.766002       -20.8440
 135   2.0000      -0.763781       -20.7835
 136   2.0000      -0.760987       -20.7075
 137   2.0000      -0.754614       -20.5341
 138   2.0000      -0.748819       -20.3764
 139   2.0000      -0.735744       -20.0206
 140   2.0000      -0.726976       -19.7820
 141   2.0000      -0.719454       -19.5773
 142   2.0000      -0.711287       -19.3551
 143   2.0000      -0.708607       -19.2822
 144   2.0000      -0.707701       -19.2575
 145   2.0000      -0.705339       -19.1933
 146   2.0000      -0.702415       -19.1137
 147   2.0000      -0.702000       -19.1024
 148   2.0000      -0.698580       -19.0093
 149   2.0000      -0.688107       -18.7243
 150   2.0000      -0.683575       -18.6010
 151   2.0000      -0.681448       -18.5431
 152   2.0000      -0.674134       -18.3441
 153   2.0000      -0.673154       -18.3175
 154   2.0000      -0.659711       -17.9516
 155   2.0000      -0.652768       -17.7627
 156   2.0000      -0.647025       -17.6064
 157   2.0000      -0.638411       -17.3720
 158   2.0000      -0.635159       -17.2836
 159   2.0000      -0.630289       -17.1510
 160   2.0000      -0.624719       -16.9995
 161   2.0000      -0.614325       -16.7166
 162   2.0000      -0.611919       -16.6512
 163   2.0000      -0.609247       -16.5785
 164   2.0000      -0.608125       -16.5479
 165   2.0000      -0.601370       -16.3641
 166   2.0000      -0.595611       -16.2074
 167   2.0000      -0.587195       -15.9784
 168   2.0000      -0.585722       -15.9383
 169   2.0000      -0.585349       -15.9282
 170   2.0000      -0.578781       -15.7494
 171   2.0000      -0.576056       -15.6753
 172   2.0000      -0.570733       -15.5304
 173   2.0000      -0.568673       -15.4744
 174   2.0000      -0.565689       -15.3932
 175   2.0000      -0.564267       -15.3545
 176   2.0000      -0.561315       -15.2742
 177   2.0000      -0.559508       -15.2250
 178   2.0000      -0.556067       -15.1314
 179   2.0000      -0.551346       -15.0029
 180   2.0000      -0.551041       -14.9946
 181   2.0000      -0.549716       -14.9585
 182   2.0000      -0.548105       -14.9147
 183   2.0000      -0.545487       -14.8435
 184   2.0000      -0.541535       -14.7359
 185   2.0000      -0.538880       -14.6637
 186   2.0000      -0.537296       -14.6206
 187   2.0000      -0.535212       -14.5639
 188   2.0000      -0.533329       -14.5126
 189   2.0000      -0.531133       -14.4529
 190   2.0000      -0.527535       -14.3550
 191   2.0000      -0.525638       -14.3033
 192   2.0000      -0.523229       -14.2378
 193   2.0000      -0.522421       -14.2158
 194   2.0000      -0.519562       -14.1380
 195   2.0000      -0.518757       -14.1161
 196   2.0000      -0.517567       -14.0837
 197   2.0000      -0.516827       -14.0636
 198   2.0000      -0.515392       -14.0245
 199   2.0000      -0.515296       -14.0219
 200   2.0000      -0.513864       -13.9829
 201   2.0000      -0.511666       -13.9231
 202   2.0000      -0.511359       -13.9148
 203   2.0000      -0.509583       -13.8664
 204   2.0000      -0.508222       -13.8294
 205   2.0000      -0.504033       -13.7154
 206   2.0000      -0.501817       -13.6551
 207   2.0000      -0.500662       -13.6237
 208   2.0000      -0.499679       -13.5970
 209   2.0000      -0.497157       -13.5283
 210   2.0000      -0.492587       -13.4040
 211   2.0000      -0.490159       -13.3379
 212   2.0000      -0.487987       -13.2788
 213   2.0000      -0.487111       -13.2550
 214   2.0000      -0.486343       -13.2341
 215   2.0000      -0.480045       -13.0627
 216   2.0000      -0.474736       -12.9182
 217   2.0000      -0.474432       -12.9099
 218   2.0000      -0.470646       -12.8069
 219   2.0000      -0.469641       -12.7796
 220   2.0000      -0.467754       -12.7282
 221   2.0000      -0.467000       -12.7077
 222   2.0000      -0.466598       -12.6968
 223   2.0000      -0.465706       -12.6725
 224   2.0000      -0.461392       -12.5551
 225   2.0000      -0.458058       -12.4644
 226   2.0000      -0.455766       -12.4020
 227   2.0000      -0.454059       -12.3556
 228   2.0000      -0.450990       -12.2721
 229   2.0000      -0.450622       -12.2620
 230   2.0000      -0.448831       -12.2133
 231   2.0000      -0.447960       -12.1896
 232   2.0000      -0.446034       -12.1372
 233   2.0000      -0.444511       -12.0958
 234   2.0000      -0.444153       -12.0860
 235   2.0000      -0.443379       -12.0650
 236   2.0000      -0.442235       -12.0338
 237   2.0000      -0.438631       -11.9358
 238   2.0000      -0.437141       -11.8952
 239   2.0000      -0.436320       -11.8729
 240   2.0000      -0.435482       -11.8501
 241   2.0000      -0.434321       -11.8185
 242   2.0000      -0.431139       -11.7319
 243   2.0000      -0.429841       -11.6966
 244   2.0000      -0.429329       -11.6826
 245   2.0000      -0.427059       -11.6209
 246   2.0000      -0.426105       -11.5949
 247   2.0000      -0.424582       -11.5535
 248   2.0000      -0.421684       -11.4746
 249   2.0000      -0.421359       -11.4658
 250   2.0000      -0.416997       -11.3471
 251   2.0000      -0.411700       -11.2029
 252   2.0000      -0.408660       -11.1202
 253   2.0000      -0.407322       -11.0838
 254   2.0000      -0.390512       -10.6264
 255   2.0000      -0.387220       -10.5368
 256   2.0000      -0.377915       -10.2836
 257   2.0000      -0.376816       -10.2537
 258   2.0000      -0.371454       -10.1078
 259   2.0000      -0.362816        -9.8727
 260   2.0000      -0.355801        -9.6818
 261   2.0000      -0.354739        -9.6529
 262   2.0000      -0.351542        -9.5659
 263   2.0000      -0.350597        -9.5402
 264   2.0000      -0.349185        -9.5018
 265   2.0000      -0.345938        -9.4134
 266   2.0000      -0.339478        -9.2377
 267   2.0000      -0.338682        -9.2160
 268   2.0000      -0.338185        -9.2025
 269   2.0000      -0.333978        -9.0880
 270   2.0000      -0.323776        -8.8104
 271   2.0000      -0.320430        -8.7194
 272   2.0000      -0.319130        -8.6840
 273   2.0000      -0.318510        -8.6671
 274   2.0000      -0.302684        -8.2365
 275   2.0000      -0.299591        -8.1523
 276   2.0000      -0.295228        -8.0336
 277   2.0000      -0.289326        -7.8730
 278   2.0000      -0.240332        -6.5398
 279   0.0000      -0.116085        -3.1588
 280   0.0000      -0.102491        -2.7889
 281   0.0000      -0.085298        -2.3211
 282   0.0000      -0.063592        -1.7304
 283   0.0000      -0.060516        -1.6467

MULLIKEN ATOMIC CHARGES
-----------------------
   0 C :    0.242182
   1 C :   -0.312921
   2 C :   -0.177889
   3 N :    0.161674
   4 C :   -0.194830
   5 N :    0.173636
   6 C :    0.039638
   7 C :    0.009718
   8 C :   -0.078604
   9 C :    0.095003
  10 C :    0.093606
  11 C :   -0.077104
  12 C :   -0.016822
  13 C :    0.036128
  14 C :    0.037859
  15 C :   -0.015325
  16 C :    0.143307
  17 O :   -0.129609
  18 C :   -0.122833
  19 C :    0.045941
  20 C :   -0.214242
  21 S :    0.198976
  22 C :    0.092694
  23 C :    0.189385
  24 O :   -0.149572
  25 N :   -0.307370
  26 C :    0.135239
  27 C :   -0.010158
  28 C :    0.212903
  29 O :   -0.180427
  30 C :    0.012838
  31 C :   -0.136341
  32 C :    0.069609
  33 C :   -0.021819
  34 C :    0.140856
  35 N :   -0.264009
  36 C :    0.096154
  37 C :    0.005005
  38 C :    0.151251
  39 O :   -0.168475
  40 C :   -0.025064
  41 C :   -0.067325
  42 C :    0.167230
  43 O :   -0.219319
  44 N :   -0.264384
  45 C :    0.108374
  46 C :   -0.000057
  47 C :    0.088290
  48 C :   -0.014476
  49 C :    0.051389
  50 C :   -0.136914
  51 S :    0.183472
  52 C :   -0.162253
  53 C :    0.081536
  54 C :    0.008541
  55 C :    0.037207
  56 O :   -0.139756
  57 C :    0.057113
  58 C :    0.043474
  59 O :   -0.143686
  60 C :    0.005663
  61 C :   -0.058321
  62 C :    0.300378
  63 C :   -0.335406
  64 C :   -0.183094
  65 N :    0.151737
  66 C :   -0.201970
  67 N :    0.163053
  68 C :    0.055483
  69 C :   -0.012617
  70 C :    0.169397
  71 O :   -0.157068
  72 C :   -0.073023
  73 C :    0.097803
  74 C :    0.096105
  75 C :   -0.081634
  76 C :   -0.018691
  77 C :    0.036613
  78 C :    0.036015
  79 C :   -0.015021
  80 H :   -0.009006
  81 H :   -0.003384
  82 H :   -0.009759
  83 H :   -0.003375
  84 H :   -0.004185
  85 H :   -0.015573
  86 H :    0.046415
  87 H :    0.034106
  88 H :    0.034998
  89 H :    0.024900
  90 H :    0.026197
  91 H :    0.029997
  92 H :    0.000137
  93 H :   -0.003093
  94 H :    0.036839
  95 H :    0.042028
  96 H :    0.021183
  97 H :    0.025544
  98 H :    0.027330
  99 H :    0.036584
 100 H :    0.026413
 101 H :    0.035062
 102 H :    0.022832
 103 H :    0.021205
 104 H :    0.039086
 105 H :   -0.031347
 106 H :    0.077304
 107 H :    0.062509
 108 H :    0.030052
 109 H :   -0.013643
 110 H :   -0.008415
 111 H :   -0.008516
 112 H :   -0.003994
 113 H :   -0.003980
 114 H :   -0.016497
Sum of atomic charges:   -0.0000000

LOEWDIN ATOMIC CHARGES
----------------------
   0 C :    0.058827
   1 C :   -0.132909
   2 C :   -0.018417
   3 N :   -0.044066
   4 C :   -0.032339
   5 N :   -0.044706
   6 C :   -0.023299
   7 C :   -0.057828
   8 C :    0.034828
   9 C :   -0.008294
  10 C :   -0.004546
  11 C :    0.017848
  12 C :   -0.005852
  13 C :   -0.011330
  14 C :   -0.011474
  15 C :   -0.008331
  16 C :    0.084391
  17 O :   -0.130881
  18 C :   -0.075725
  19 C :    0.050600
  20 C :   -0.150911
  21 S :    0.499564
  22 C :   -0.056214
  23 C :    0.091935
  24 O :   -0.148984
  25 N :   -0.027847
  26 C :    0.044830
  27 C :   -0.059573
  28 C :    0.098390
  29 O :   -0.166498
  30 C :   -0.088469
  31 C :   -0.117379
  32 C :   -0.001614
  33 C :   -0.015173
  34 C :    0.084027
  35 N :   -0.000120
  36 C :    0.036843
  37 C :   -0.058830
  38 C :    0.082722
  39 O :   -0.173166
  40 C :   -0.100289
  41 C :   -0.122721
  42 C :    0.079942
  43 O :   -0.206082
  44 N :    0.000181
  45 C :    0.036740
  46 C :   -0.062985
  47 C :    0.062066
  48 C :    0.010083
  49 C :   -0.049067
  50 C :   -0.118529
  51 S :    0.481903
  52 C :   -0.161575
  53 C :   -0.051508
  54 C :   -0.093737
  55 C :    0.083112
  56 O :   -0.120781
  57 C :   -0.065325
  58 C :    0.085382
  59 O :   -0.126045
  60 C :    0.042710
  61 C :   -0.065653
  62 C :    0.075326
  63 C :   -0.132089
  64 C :   -0.016809
  65 N :   -0.049793
  66 C :   -0.022519
  67 N :   -0.048018
  68 C :   -0.023909
  69 C :   -0.052379
  70 C :    0.093923
  71 O :   -0.139946
  72 C :    0.035506
  73 C :   -0.007703
  74 C :   -0.004913
  75 C :    0.020250
  76 C :   -0.005058
  77 C :   -0.012090
  78 C :   -0.011569
  79 C :   -0.008786
  80 H :    0.040419
  81 H :    0.039401
  82 H :    0.034676
  83 H :    0.033731
  84 H :    0.033305
  85 H :    0.032558
  86 H :    0.059851
  87 H :    0.033219
  88 H :    0.034457
  89 H :    0.027425
  90 H :    0.031820
  91 H :    0.029248
  92 H :    0.036013
  93 H :    0.033436
  94 H :    0.028636
  95 H :    0.037220
  96 H :    0.024482
  97 H :    0.032407
  98 H :    0.030650
  99 H :    0.036097
 100 H :    0.025104
 101 H :    0.034506
 102 H :    0.030310
 103 H :    0.019417
 104 H :    0.049027
 105 H :    0.027920
 106 H :    0.070425
 107 H :    0.058904
 108 H :    0.046064
 109 H :    0.038942
 110 H :    0.039106
 111 H :    0.034997
 112 H :    0.033568
 113 H :    0.033219
 114 H :    0.032165

  Mayer bond orders larger than 0.100000
B(  0-C ,  1-C ) :   1.6725 B(  0-C ,  6-C ) :   1.0034 B(  0-C , 18-C ) :   1.0202
B(  1-C ,  2-C ) :   1.1364 B(  1-C ,  4-C ) :   1.1504 B(  2-C ,  3-N ) :   2.9933
B(  4-C ,  5-N ) :   3.0194 B(  6-C ,  7-C ) :   1.2148 B(  6-C , 11-C ) :   1.4560
B(  7-C ,  8-C ) :   1.4709 B(  7-C , 16-C ) :   0.9207 B(  8-C ,  9-C ) :   1.1887
B(  8-C , 80-H ) :   1.0160 B(  9-C , 10-C ) :   1.2566 B(  9-C , 15-C ) :   1.2422
B( 10-C , 11-C ) :   1.2051 B( 10-C , 12-C ) :   1.2411 B( 11-C , 81-H ) :   0.9948
B( 12-C , 13-C ) :   1.4889 B( 12-C , 82-H ) :   0.9980 B( 13-C , 14-C ) :   1.2604
B( 13-C , 83-H ) :   0.9894 B( 14-C , 15-C ) :   1.4900 B( 14-C , 84-H ) :   0.9886
B( 15-C , 85-H ) :   0.9982 B( 16-C , 17-O ) :   2.2880 B( 16-C , 18-C ) :   0.9222
B( 18-C , 19-C ) :   1.6899 B( 19-C , 20-C ) :   1.1016 B( 19-C , 86-H ) :   0.9454
B( 20-C , 21-S ) :   1.1218 B( 20-C , 22-C ) :   1.5011 B( 21-S , 31-C ) :   1.1531
B( 22-C , 23-C ) :   0.8822 B( 22-C , 30-C ) :   1.2928 B( 23-C , 24-O ) :   2.2012
B( 23-C , 25-N ) :   1.0658 B( 25-N , 26-C ) :   0.9155 B( 25-N , 28-C ) :   1.0973
B( 26-C , 27-C ) :   1.1272 B( 26-C , 87-H ) :   0.9411 B( 26-C , 88-H ) :   0.9409
B( 27-C , 89-H ) :   0.9683 B( 27-C , 90-H ) :   0.9703 B( 27-C , 91-H ) :   0.9691
B( 28-C , 29-O ) :   2.0839 B( 28-C , 30-C ) :   0.8994 B( 30-C , 31-C ) :   1.4532
B( 31-C , 32-C ) :   1.1509 B( 32-C , 33-C ) :   1.5972 B( 32-C , 92-H ) :   0.9294
B( 33-C , 34-C ) :   1.1652 B( 33-C , 93-H ) :   0.9441 B( 34-C , 35-N ) :   1.1836
B( 34-C , 41-C ) :   1.3061 B( 35-N , 36-C ) :   0.9386 B( 35-N , 38-C ) :   1.0220
B( 36-C , 37-C ) :   1.1214 B( 36-C , 94-H ) :   0.9488 B( 36-C , 95-H ) :   0.9281
B( 37-C , 96-H ) :   0.9677 B( 37-C , 97-H ) :   0.9679 B( 37-C , 98-H ) :   0.9649
B( 38-C , 39-O ) :   2.1633 B( 38-C , 40-C ) :   0.9613 B( 40-C , 41-C ) :   1.2575
B( 40-C , 47-C ) :   1.3503 B( 41-C , 42-C ) :   0.9960 B( 42-C , 43-O ) :   1.9991
B( 42-C , 44-N ) :   1.0705 B( 43-O , 92-H ) :   0.1201 B( 44-N , 45-C ) :   0.9415
B( 44-N , 47-C ) :   1.1641 B( 45-C , 46-C ) :   1.1159 B( 45-C , 99-H ) :   0.9306
B( 45-C ,100-H ) :   0.9499 B( 46-C ,101-H ) :   0.9592 B( 46-C ,102-H ) :   0.9688
B( 46-C ,103-H ) :   0.9631 B( 47-C , 48-C ) :   1.1743 B( 48-C , 49-C ) :   1.6064
B( 48-C ,104-H ) :   0.9263 B( 49-C , 50-C ) :   1.1581 B( 49-C ,105-H ) :   0.9479
B( 50-C , 51-S ) :   1.1719 B( 50-C , 54-C ) :   1.4108 B( 51-S , 52-C ) :   1.1173
B( 52-C , 53-C ) :   1.4850 B( 52-C , 60-C ) :   1.1231 B( 53-C , 54-C ) :   1.2657
B( 53-C , 58-C ) :   0.9056 B( 54-C , 55-C ) :   0.9375 B( 55-C , 56-O ) :   2.1722
B( 55-C , 57-C ) :   1.0026 B( 57-C , 58-C ) :   0.9968 B( 57-C ,106-H ) :   0.8888
B( 57-C ,107-H ) :   0.9041 B( 58-C , 59-O ) :   2.2400 B( 60-C , 61-C ) :   1.6601
B( 60-C ,108-H ) :   0.9337 B( 61-C , 62-C ) :   1.0648 B( 61-C , 70-C ) :   0.9273
B( 62-C , 63-C ) :   1.6499 B( 62-C , 68-C ) :   0.9961 B( 63-C , 64-C ) :   1.1432
B( 63-C , 66-C ) :   1.1401 B( 64-C , 65-N ) :   2.9668 B( 66-C , 67-N ) :   2.9893
B( 68-C , 69-C ) :   1.2127 B( 68-C , 75-C ) :   1.4468 B( 69-C , 70-C ) :   0.9526
B( 69-C , 72-C ) :   1.4709 B( 70-C , 71-O ) :   2.1970 B( 72-C , 73-C ) :   1.1834
B( 72-C ,109-H ) :   1.0150 B( 73-C , 74-C ) :   1.2538 B( 73-C , 79-C ) :   1.2419
B( 74-C , 75-C ) :   1.2087 B( 74-C , 76-C ) :   1.2400 B( 75-C ,110-H ) :   0.9895
B( 76-C , 77-C ) :   1.4913 B( 76-C ,111-H ) :   0.9971 B( 77-C , 78-C ) :   1.2579
B( 77-C ,112-H ) :   0.9886 B( 78-C , 79-C ) :   1.4905 B( 78-C ,113-H ) :   0.9891
B( 79-C ,114-H ) :   0.9976

-----------------------------------------------------------------------------
         ABSORPTION SPECTRUM VIA TRANSITION ELECTRIC DIPOLE MOMENTS
-----------------------------------------------------------------------------
State   Energy  Wavelength   fosc         T2         TX        TY        TZ
        (cm-1)    (nm)                  (au**2)     (au)      (au)      (au)
-----------------------------------------------------------------------------
   0   12516.0    799.0   1.069069852  28.12013  -0.51957   5.27625  -0.10683
   1   17169.0    582.4   0.220450156   4.22709  -0.71624  -1.57934  -1.10443
   2   20020.9    499.5   0.061450283   1.01045  -0.43698   0.07782  -0.90191
   3   22510.6    444.2   0.134848367   1.97213   0.37603   1.28980   0.40885
   4   23632.4    423.1   0.279590880   3.89485  -0.62294   1.22202  -1.41896
   5   24521.9    407.8   0.003913507   0.05254  -0.18886  -0.12957  -0.00901
   6   25012.3    399.8   0.034945289   0.45995   0.52124  -0.41857  -0.11428
   7   25251.3    396.0   0.231608968   3.01958   1.12015  -0.71146   1.12191
   8   25581.3    390.9   0.031899988   0.41053  -0.04279  -0.63903  -0.01835
   9   25819.8    387.3   0.014679528   0.18717   0.02321   0.29332   0.31717
  10   26346.9    379.6   0.198670155   2.48244  -0.03663   1.57246  -0.09195
  11   26951.7    371.0   0.018608340   0.22730  -0.27673   0.32121   0.21804
  12   27072.5    369.4   0.011297788   0.13739   0.27925  -0.24156   0.03247
  13   27572.9    362.7   0.239024863   2.85388   0.85967  -1.44787  -0.13607
  14   27624.2    362.0   0.049898626   0.59467   0.61125   0.15018   0.44552
  15   28305.7    353.3   0.107209635   1.24691   0.61314  -0.67861  -0.64068
  16   28543.2    350.3   0.036112726   0.41652  -0.01128  -0.55791  -0.32423
  17   28845.0    346.7   0.055322682   0.63141  -0.70198   0.22020  -0.30023
  18   28898.3    346.0   0.020526589   0.23384   0.20680  -0.43626   0.02753
  19   29349.5    340.7   0.115434262   1.29482   0.05991   1.07215   0.37647
  20   30496.4    327.9   0.000057384   0.00062  -0.00080  -0.01288  -0.02128
  21   31810.0    314.4   0.174558203   1.80656   0.76669   0.03365   1.10346
  22   32136.3    311.2   0.335652857   3.43850  -1.17371   0.71831   1.24295
  23   32310.0    309.5   0.273702789   2.78880   1.15912  -1.04083  -0.60158
  24   32599.4    306.8   0.126119448   1.27364  -0.11274  -1.06303  -0.36181
  25   32735.8    305.5   0.298580429   3.00272  -1.54223   0.59397   0.52101
  26   32785.0    305.0   0.430496319   4.32285   1.59974  -0.15409   1.31907
  27   33149.7    301.7   0.011274238   0.11197  -0.07638   0.32241   0.04670
  28   33228.2    300.9   0.181351265   1.79676   1.10827  -0.14249   0.74040
  29   33448.2    299.0   0.005710630   0.05621  -0.07504   0.15610   0.16188
  30   33749.9    296.3   0.028588956   0.27887   0.23105  -0.33944   0.33206
  31   33923.0    294.8   0.015366511   0.14913  -0.24628  -0.24390  -0.17025
  32   34148.6    292.8   0.050193630   0.48389  -0.46775  -0.04621  -0.51281
  33   34283.9    291.7   0.003321333   0.03189  -0.05331  -0.04365  -0.16476
  34   34492.1    289.9   0.050119088   0.47836   0.51609  -0.26172   0.37884
  35   34700.1    288.2   0.030556753   0.28990   0.40940  -0.33015   0.11532
  36   35034.3    285.4   0.022732686   0.21362  -0.30850  -0.03642  -0.34223
  37   35240.5    283.8   0.037703237   0.35222   0.35351  -0.35793   0.31486
  38   35343.8    282.9   0.195564041   1.82159   1.18753   0.29070   0.57171
  39   35575.1    281.1   0.103568490   0.95842  -0.65799   0.41208  -0.59637
  40   35866.9    278.8   0.110875347   1.01769  -0.90959   0.19483   0.39036
  41   36000.9    277.8   0.120064910   1.09794   0.37067  -0.31689  -0.92743
  42   36275.6    275.7   0.047524688   0.43130  -0.03900   0.43890   0.48698
  43   36806.0    271.7   0.021559722   0.19284   0.39701   0.15896   0.09979
  44   36930.5    270.8   0.073011299   0.65085   0.69876   0.32796   0.23457
  45   36979.2    270.4   0.006472406   0.05762   0.21993  -0.04796  -0.08338
  46   37138.9    269.3   0.069638300   0.61730  -0.62124   0.11969   0.46587
  47   37659.4    265.5   0.013047644   0.11406   0.24624   0.23035   0.01906
  48   37691.7    265.3   0.068257651   0.59619  -0.44423  -0.20785   0.59636
  49   37810.4    264.5   0.032364132   0.28179   0.19289   0.44824   0.20896
  50   37882.5    264.0   0.032622351   0.28350  -0.40650   0.27674   0.20414
  51   37999.2    263.2   0.028530903   0.24718  -0.34015   0.19944   0.30283
  52   38459.8    260.0   0.067456440   0.57742   0.43547   0.57994  -0.22684
  53   38583.1    259.2   0.121837962   1.03959   0.92509  -0.32208  -0.28296
  54   38680.8    258.5   0.157607583   1.34140  -0.21101   1.12943  -0.14581
  55   38907.9    257.0   0.046401970   0.39262   0.44901  -0.35329   0.25728
  56   38985.0    256.5   0.016098747   0.13595   0.17112  -0.32458  -0.03622
  57   39153.9    255.4   0.007442858   0.06258   0.07401   0.00659   0.23887
  58   39586.0    252.6   0.001931370   0.01606  -0.00774  -0.00810   0.12624
  59   39805.1    251.2   0.042905889   0.35486   0.01779   0.42046   0.42161
  60   40216.6    248.7   0.039869534   0.32637   0.39677  -0.18524   0.36692

FINAL SINGLE POINT ENERGY     -4198.714263606677

DIPOLE MOMENT
-------------
                                X             Y             Z
Electronic contribution:      8.72957      19.68411       4.53604
Nuclear contribution   :     -7.46524     -19.72068      -2.34331
                        -----------------------------------------
Total Dipole Moment    :      1.26434      -0.03658       2.19273
                        -----------------------------------------
Magnitude (a.u.)       :      2.53140
Magnitude (Debye)      :      6.43430

Rotational constants in cm-1:     0.001259     0.000215     0.000195
Rotational constants in MHz :    37.731591     6.450428     5.833876

                             ****ORCA TERMINATED NORMALLY****
TOTAL RUN TIME: 0 days 0 hours 12 minutes 13 seconds 748 msec
