                         Program Version 4.2.0 -  RELEASE  -
|  1> # ORCA input file
|  2> # SCF done       -156.123527918922          0.000787490734
|  3> ! CAM-B3LYP def2-SVP def2/J RIJCOSX Grid4 TightSCF
|  4> %maxcore 5000
|  5> %tddft
|  6>     Mode sTDDFT
|  7>     Ethresh 5.0
|  8>     maxcore 5000
|  9> end
| 10>
| 11> %pal
| 12>   nprocs 6
| 13>   end
| 14> * xyz 0 1
| 15>    C        0.72264        -0.91613         2.58750
| 16>    N        1.14266         0.22760         3.19205
| 17>    C        2.04316         0.30737         4.31449
| 18>    C        3.48463         0.02414         3.89920
| 19>    C        0.63815         1.37256         2.53634
| 20>    O        0.87779         2.50932         2.90026
| 21>    C       -0.15247         0.83666         1.45692
| 22>    C       -0.07386        -0.59246         1.52609
| 23>    C       -0.87199        -1.13550         0.44539
| 24>    O       -1.11687        -2.26950         0.09914
| 25>    N       -1.38297         0.00496        -0.20653
| 26>    C       -2.21177        -0.11737        -1.38086
| 27>    C       -1.42186         0.12425        -2.66516
| 28>    C       -0.95924         1.17687         0.38103
| 29>    C       -1.32846         2.46528        -0.09041
| 30>    C       -0.92546         3.61016         0.51089
| 31>    C       -1.29024         4.88624         0.00506
| 32>    S       -0.87219         6.38506         0.83327
| 33>    C       -1.68742         7.19427        -0.49949
| 34>    N       -2.16389         6.35064        -1.37940
| 35>    N       -1.94898         5.09867        -1.10118
| 36>    C       -1.80217         8.60410        -0.58617
| 37>    C       -2.37021         9.20685        -1.66025
| 38>    C       -2.53662        10.59606        -1.82415
| 39>    S       -2.09773        11.78626        -0.60780
| 40>    C       -2.62104        13.15256        -1.56153
| 41>    C       -3.10715        12.68978        -2.78090
| 42>    C       -3.05978        11.27626        -2.91255
| 43>    N       -3.57768        11.01332        -4.15038
| 44>    C       -3.90177        12.23084        -4.68890
| 45>    N       -3.64126        13.23911        -3.91646
| 46>    C       -2.53980        14.47250        -1.07090
| 47>    C       -2.92556        15.54422        -1.80929
| 48>    C       -2.87983        16.86876        -1.30823
| 49>    S       -3.34230        18.25871        -2.28741
| 50>    C       -2.98251        19.21998        -0.85706
| 51>    N       -2.57766        18.48564         0.14552
| 52>    N       -2.51969        17.21127        -0.09864
| 53>    C       -3.13847        20.63060        -0.82821
| 54>    C       -2.93768        21.34294         0.30779
| 55>    C       -3.09949        22.75018         0.37648
| 56>    N       -2.91965        23.47936         1.53122
| 57>    C       -2.48836        22.96947         2.80976
| 58>    C       -0.98543        22.70287         2.83822
| 59>    C       -3.15981        24.84964         1.33540
| 60>    O       -3.06794        25.67736         2.22102
| 61>    C       -3.51859        24.95339        -0.06124
| 62>    C       -3.47133        23.64466        -0.62046
| 63>    C       -3.82800        23.74654        -2.01402
| 64>    O       -3.92384        22.91840        -2.90027
| 65>    N       -4.06476        25.12017        -2.21235
| 66>    C       -4.50079        25.61768        -3.49388
| 67>    C       -6.01103        25.83825        -3.53388
| 68>    C       -3.89031        25.84431        -1.05660
| 69>    C       -4.06650        27.26645        -0.98134
| 70>    C       -3.91616        27.95662         0.15113
| 71>    H        1.01532        -1.87957         2.96216
| 72>    H        1.72172        -0.40061         5.08441
| 73>    H        1.96027         1.32527         4.70512
| 74>    H        3.57607        -0.97792         3.48553
| 75>    H        4.14043         0.10734         4.76125
| 76>    H        3.80462         0.74127         3.14719
| 77>    H       -3.05558         0.57440        -1.30729
| 78>    H       -2.59301        -1.14268        -1.37338
| 79>    H       -1.00214         1.12759        -2.68256
| 80>    H       -2.07433         0.00289        -3.52548
| 81>    H       -0.60887        -0.59392        -2.74093
| 82>    H       -1.95652         2.53908        -0.96585
| 83>    H       -0.30797         3.58516         1.39781
| 84>    H       -1.41587         9.19019         0.23461
| 85>    H       -2.72603         8.57617        -2.46435
| 86>    H       -3.69722        10.11189        -4.57987
| 87>    H       -4.33304        12.32387        -5.66662
| 88>    H       -2.16230        14.62210        -0.06974
| 89>    H       -3.29147        15.39850        -2.81489
| 90>    H       -3.43255        21.11854        -1.74678
| 91>    H       -2.65246        20.80829         1.20177
| 92>    H       -3.04789        22.06107         3.04951
| 93>    H       -2.73825        23.74280         3.54179
| 94>    H       -0.70616        21.96845         2.08629
| 95>    H       -0.69734        22.32867         3.81661
| 96>    H       -0.44165        23.62403         2.64330
| 97>    H       -4.22427        24.85157        -4.22397
| 98>    H       -3.96525        26.54055        -3.73280
| 99>    H       -6.52554        24.90195        -3.33222
|100>    H       -6.30676        26.19280        -4.51770
|101>    H       -6.31841        26.56929        -2.78901
|102>    H       -4.33075        27.77493        -1.89845
|103>    H       -3.65455        27.47133         1.07650
|104>    H       -4.05269        29.02404         0.17506
|105> *
|106>
|107>                          ****END OF INPUT****

CARTESIAN COORDINATES (ANGSTROEM)
---------------------------------
  C      0.722640   -0.916130    2.587500
  N      1.142660    0.227600    3.192050
  C      2.043160    0.307370    4.314490
  C      3.484630    0.024140    3.899200
  C      0.638150    1.372560    2.536340
  O      0.877790    2.509320    2.900260
  C     -0.152470    0.836660    1.456920
  C     -0.073860   -0.592460    1.526090
  C     -0.871990   -1.135500    0.445390
  O     -1.116870   -2.269500    0.099140
  N     -1.382970    0.004960   -0.206530
  C     -2.211770   -0.117370   -1.380860
  C     -1.421860    0.124250   -2.665160
  C     -0.959240    1.176870    0.381030
  C     -1.328460    2.465280   -0.090410
  C     -0.925460    3.610160    0.510890
  C     -1.290240    4.886240    0.005060
  S     -0.872190    6.385060    0.833270
  C     -1.687420    7.194270   -0.499490
  N     -2.163890    6.350640   -1.379400
  N     -1.948980    5.098670   -1.101180
  C     -1.802170    8.604100   -0.586170
  C     -2.370210    9.206850   -1.660250
  C     -2.536620   10.596060   -1.824150
  S     -2.097730   11.786260   -0.607800
  C     -2.621040   13.152560   -1.561530
  C     -3.107150   12.689780   -2.780900
  C     -3.059780   11.276260   -2.912550
  N     -3.577680   11.013320   -4.150380
  C     -3.901770   12.230840   -4.688900
  N     -3.641260   13.239110   -3.916460
  C     -2.539800   14.472500   -1.070900
  C     -2.925560   15.544220   -1.809290
  C     -2.879830   16.868760   -1.308230
  S     -3.342300   18.258710   -2.287410
  C     -2.982510   19.219980   -0.857060
  N     -2.577660   18.485640    0.145520
  N     -2.519690   17.211270   -0.098640
  C     -3.138470   20.630600   -0.828210
  C     -2.937680   21.342940    0.307790
  C     -3.099490   22.750180    0.376480
  N     -2.919650   23.479360    1.531220
  C     -2.488360   22.969470    2.809760
  C     -0.985430   22.702870    2.838220
  C     -3.159810   24.849640    1.335400
  O     -3.067940   25.677360    2.221020
  C     -3.518590   24.953390   -0.061240
  C     -3.471330   23.644660   -0.620460
  C     -3.828000   23.746540   -2.014020
  O     -3.923840   22.918400   -2.900270
  N     -4.064760   25.120170   -2.212350
  C     -4.500790   25.617680   -3.493880
  C     -6.011030   25.838250   -3.533880
  C     -3.890310   25.844310   -1.056600
  C     -4.066500   27.266450   -0.981340
  C     -3.916160   27.956620    0.151130
  H      1.015320   -1.879570    2.962160
  H      1.721720   -0.400610    5.084410
  H      1.960270    1.325270    4.705120
  H      3.576070   -0.977920    3.485530
  H      4.140430    0.107340    4.761250
  H      3.804620    0.741270    3.147190
  H     -3.055580    0.574400   -1.307290
  H     -2.593010   -1.142680   -1.373380
  H     -1.002140    1.127590   -2.682560
  H     -2.074330    0.002890   -3.525480
  H     -0.608870   -0.593920   -2.740930
  H     -1.956520    2.539080   -0.965850
  H     -0.307970    3.585160    1.397810
  H     -1.415870    9.190190    0.234610
  H     -2.726030    8.576170   -2.464350
  H     -3.697220   10.111890   -4.579870
  H     -4.333040   12.323870   -5.666620
  H     -2.162300   14.622100   -0.069740
  H     -3.291470   15.398500   -2.814890
  H     -3.432550   21.118540   -1.746780
  H     -2.652460   20.808290    1.201770
  H     -3.047890   22.061070    3.049510
  H     -2.738250   23.742800    3.541790
  H     -0.706160   21.968450    2.086290
  H     -0.697340   22.328670    3.816610
  H     -0.441650   23.624030    2.643300
  H     -4.224270   24.851570   -4.223970
  H     -3.965250   26.540550   -3.732800
  H     -6.525540   24.901950   -3.332220
  H     -6.306760   26.192800   -4.517700
  H     -6.318410   26.569290   -2.789010
  H     -4.330750   27.774930   -1.898450
  H     -3.654550   27.471330    1.076500
  H     -4.052690   29.024040    0.175060

 Total Charge           Charge          ....    0
 Multiplicity           Mult            ....    1
 Number of Electrons    NEL             ....  418
 Basis Dimension        Dim             ....  966

ORBITAL ENERGIES
----------------

  NO   OCC          E(Eh)            E(eV)
   0   2.0000     -88.967311     -2420.9236
   1   2.0000     -88.966125     -2420.8913
   2   2.0000     -88.962523     -2420.7933
   3   2.0000     -19.186644      -522.0951
   4   2.0000     -19.186275      -522.0851
   5   2.0000     -19.181656      -521.9594
   6   2.0000     -19.181368      -521.9515
   7   2.0000     -14.484541      -394.1444
   8   2.0000     -14.449591      -393.1933
   9   2.0000     -14.448055      -393.1516
  10   2.0000     -14.446150      -393.0997
  11   2.0000     -14.444961      -393.0674
  12   2.0000     -14.435288      -392.8042
  13   2.0000     -14.430521      -392.6744
  14   2.0000     -14.429995      -392.6601
  15   2.0000     -14.427046      -392.5799
  16   2.0000     -14.407551      -392.0494
  17   2.0000     -10.368246      -282.1343
  18   2.0000     -10.367659      -282.1183
  19   2.0000     -10.367640      -282.1178
  20   2.0000     -10.365232      -282.0523
  21   2.0000     -10.354476      -281.7596
  22   2.0000     -10.338686      -281.3299
  23   2.0000     -10.336750      -281.2773
  24   2.0000     -10.333857      -281.1985
  25   2.0000     -10.332064      -281.1497
  26   2.0000     -10.331469      -281.1336
  27   2.0000     -10.330627      -281.1107
  28   2.0000     -10.330222      -281.0996
  29   2.0000     -10.325063      -280.9592
  30   2.0000     -10.324452      -280.9426
  31   2.0000     -10.313818      -280.6533
  32   2.0000     -10.313317      -280.6396
  33   2.0000     -10.306156      -280.4448
  34   2.0000     -10.304617      -280.4029
  35   2.0000     -10.303835      -280.3816
  36   2.0000     -10.301787      -280.3259
  37   2.0000     -10.300064      -280.2790
  38   2.0000     -10.299589      -280.2661
  39   2.0000     -10.293188      -280.0919
  40   2.0000     -10.290053      -280.0066
  41   2.0000     -10.288060      -279.9524
  42   2.0000     -10.287557      -279.9387
  43   2.0000     -10.286904      -279.9209
  44   2.0000     -10.284695      -279.8608
  45   2.0000     -10.282717      -279.8069
  46   2.0000     -10.281125      -279.7636
  47   2.0000     -10.273757      -279.5632
  48   2.0000     -10.262856      -279.2665
  49   2.0000     -10.260877      -279.2127
  50   2.0000     -10.257747      -279.1275
  51   2.0000     -10.255298      -279.0609
  52   2.0000     -10.254985      -279.0523
  53   2.0000     -10.254249      -279.0323
  54   2.0000     -10.253432      -279.0101
  55   2.0000     -10.251654      -278.9617
  56   2.0000      -8.063691      -219.4242
  57   2.0000      -8.060936      -219.3492
  58   2.0000      -8.058880      -219.2933
  59   2.0000      -6.032352      -164.1487
  60   2.0000      -6.030307      -164.0930
  61   2.0000      -6.029012      -164.0578
  62   2.0000      -6.027493      -164.0164
  63   2.0000      -6.026284      -163.9835
  64   2.0000      -6.026025      -163.9765
  65   2.0000      -6.024201      -163.9268
  66   2.0000      -6.022890      -163.8912
  67   2.0000      -6.021267      -163.8470
  68   2.0000      -1.136188       -30.9173
  69   2.0000      -1.131954       -30.8020
  70   2.0000      -1.129460       -30.7342
  71   2.0000      -1.126838       -30.6628
  72   2.0000      -1.126680       -30.6585
  73   2.0000      -1.119933       -30.4749
  74   2.0000      -1.119333       -30.4586
  75   2.0000      -1.057546       -28.7773
  76   2.0000      -1.056517       -28.7493
  77   2.0000      -1.048904       -28.5421
  78   2.0000      -1.047886       -28.5144
  79   2.0000      -0.988783       -26.9062
  80   2.0000      -0.981407       -26.7055
  81   2.0000      -0.944740       -25.7077
  82   2.0000      -0.938904       -25.5489
  83   2.0000      -0.924816       -25.1655
  84   2.0000      -0.921618       -25.0785
  85   2.0000      -0.919873       -25.0310
  86   2.0000      -0.916447       -24.9378
  87   2.0000      -0.891514       -24.2593
  88   2.0000      -0.888253       -24.1706
  89   2.0000      -0.881976       -23.9998
  90   2.0000      -0.874804       -23.8046
  91   2.0000      -0.866281       -23.5727
  92   2.0000      -0.862437       -23.4681
  93   2.0000      -0.855847       -23.2888
  94   2.0000      -0.834635       -22.7116
  95   2.0000      -0.815835       -22.2000
  96   2.0000      -0.813862       -22.1463
  97   2.0000      -0.810075       -22.0433
  98   2.0000      -0.800969       -21.7955
  99   2.0000      -0.792233       -21.5577
 100   2.0000      -0.777917       -21.1682
 101   2.0000      -0.771649       -20.9976
 102   2.0000      -0.756484       -20.5850
 103   2.0000      -0.754589       -20.5334
 104   2.0000      -0.752417       -20.4743
 105   2.0000      -0.722260       -19.6537
 106   2.0000      -0.717978       -19.5372
 107   2.0000      -0.713256       -19.4087
 108   2.0000      -0.712056       -19.3760
 109   2.0000      -0.705339       -19.1933
 110   2.0000      -0.703690       -19.1484
 111   2.0000      -0.703139       -19.1334
 112   2.0000      -0.691295       -18.8111
 113   2.0000      -0.685840       -18.6627
 114   2.0000      -0.674497       -18.3540
 115   2.0000      -0.666399       -18.1336
 116   2.0000      -0.652831       -17.7644
 117   2.0000      -0.648122       -17.6363
 118   2.0000      -0.646434       -17.5904
 119   2.0000      -0.641342       -17.4518
 120   2.0000      -0.618584       -16.8325
 121   2.0000      -0.607833       -16.5400
 122   2.0000      -0.605122       -16.4662
 123   2.0000      -0.601587       -16.3700
 124   2.0000      -0.597030       -16.2460
 125   2.0000      -0.589915       -16.0524
 126   2.0000      -0.580370       -15.7927
 127   2.0000      -0.578676       -15.7466
 128   2.0000      -0.577032       -15.7018
 129   2.0000      -0.576314       -15.6823
 130   2.0000      -0.572113       -15.5680
 131   2.0000      -0.566822       -15.4240
 132   2.0000      -0.561504       -15.2793
 133   2.0000      -0.557939       -15.1823
 134   2.0000      -0.554123       -15.0785
 135   2.0000      -0.548668       -14.9300
 136   2.0000      -0.544429       -14.8147
 137   2.0000      -0.542824       -14.7710
 138   2.0000      -0.542529       -14.7630
 139   2.0000      -0.535768       -14.5790
 140   2.0000      -0.531352       -14.4588
 141   2.0000      -0.526101       -14.3159
 142   2.0000      -0.525956       -14.3120
 143   2.0000      -0.524891       -14.2830
 144   2.0000      -0.522498       -14.2179
 145   2.0000      -0.520862       -14.1734
 146   2.0000      -0.515715       -14.0333
 147   2.0000      -0.513636       -13.9767
 148   2.0000      -0.512194       -13.9375
 149   2.0000      -0.511475       -13.9179
 150   2.0000      -0.508475       -13.8363
 151   2.0000      -0.504158       -13.7188
 152   2.0000      -0.500762       -13.6264
 153   2.0000      -0.497190       -13.5292
 154   2.0000      -0.494865       -13.4660
 155   2.0000      -0.491912       -13.3856
 156   2.0000      -0.489957       -13.3324
 157   2.0000      -0.483876       -13.1669
 158   2.0000      -0.475775       -12.9465
 159   2.0000      -0.472259       -12.8508
 160   2.0000      -0.470915       -12.8142
 161   2.0000      -0.468258       -12.7419
 162   2.0000      -0.465917       -12.6782
 163   2.0000      -0.465689       -12.6720
 164   2.0000      -0.462384       -12.5821
 165   2.0000      -0.459914       -12.5149
 166   2.0000      -0.457608       -12.4522
 167   2.0000      -0.456466       -12.4211
 168   2.0000      -0.454953       -12.3799
 169   2.0000      -0.453512       -12.3407
 170   2.0000      -0.449631       -12.2351
 171   2.0000      -0.449503       -12.2316
 172   2.0000      -0.443745       -12.0749
 173   2.0000      -0.441951       -12.0261
 174   2.0000      -0.440444       -11.9851
 175   2.0000      -0.436121       -11.8674
 176   2.0000      -0.434710       -11.8290
 177   2.0000      -0.430472       -11.7137
 178   2.0000      -0.429405       -11.6847
 179   2.0000      -0.428502       -11.6601
 180   2.0000      -0.421996       -11.4831
 181   2.0000      -0.421047       -11.4573
 182   2.0000      -0.418968       -11.4007
 183   2.0000      -0.415790       -11.3142
 184   2.0000      -0.403106       -10.9691
 185   2.0000      -0.400469       -10.8973
 186   2.0000      -0.396756       -10.7963
 187   2.0000      -0.386815       -10.5258
 188   2.0000      -0.381764       -10.3883
 189   2.0000      -0.375678       -10.2227
 190   2.0000      -0.372050       -10.1240
 191   2.0000      -0.361823        -9.8457
 192   2.0000      -0.358322        -9.7504
 193   2.0000      -0.346917        -9.4401
 194   2.0000      -0.342080        -9.3085
 195   2.0000      -0.341897        -9.3035
 196   2.0000      -0.340992        -9.2789
 197   2.0000      -0.325143        -8.8476
 198   2.0000      -0.324646        -8.8341
 199   2.0000      -0.320215        -8.7135
 200   2.0000      -0.319019        -8.6809
 201   2.0000      -0.314537        -8.5590
 202   2.0000      -0.313185        -8.5222
 203   2.0000      -0.308553        -8.3961
 204   2.0000      -0.307675        -8.3723
 205   2.0000      -0.296181        -8.0595
 206   2.0000      -0.252509        -6.8711
 207   2.0000      -0.240208        -6.5364
 208   2.0000      -0.228119        -6.2074
 209   0.0000      -0.088272        -2.4020
 210   0.0000      -0.072459        -1.9717
 211   0.0000      -0.054945        -1.4951
 212   0.0000      -0.015331        -0.4172
 213   0.0000      -0.001717        -0.0467

MULLIKEN ATOMIC CHARGES
-----------------------
   0 C :    0.036529
   1 N :   -0.256842
   2 C :    0.113032
   3 C :   -0.002819
   4 C :    0.171139
   5 O :   -0.215952
   6 C :   -0.100523
   7 C :    0.006188
   8 C :    0.160310
   9 O :   -0.186256
  10 N :   -0.267565
  11 C :    0.098373
  12 C :    0.002575
  13 C :    0.161101
  14 C :   -0.033518
  15 C :    0.082293
  16 C :   -0.120605
  17 S :    0.116658
  18 C :   -0.091581
  19 N :   -0.071089
  20 N :   -0.041360
  21 C :    0.028064
  22 C :    0.012886
  23 C :   -0.182655
  24 S :    0.141811
  25 C :   -0.176008
  26 C :    0.066880
  27 C :    0.142045
  28 N :   -0.058561
  29 C :    0.132140
  30 N :   -0.097229
  31 C :    0.042064
  32 C :    0.049796
  33 C :   -0.098156
  34 S :    0.118111
  35 C :   -0.114356
  36 N :   -0.046799
  37 N :   -0.050997
  38 C :    0.073539
  39 C :   -0.028537
  40 C :    0.141094
  41 N :   -0.260410
  42 C :    0.099843
  43 C :    0.003171
  44 C :    0.160197
  45 O :   -0.208642
  46 C :   -0.062123
  47 C :   -0.063582
  48 C :    0.159888
  49 O :   -0.212281
  50 N :   -0.260119
  51 C :    0.100672
  52 C :    0.004662
  53 C :    0.105557
  54 C :   -0.034792
  55 C :    0.011544
  56 H :    0.014194
  57 H :    0.017908
  58 H :    0.041623
  59 H :    0.014245
  60 H :    0.023579
  61 H :    0.030548
  62 H :    0.025544
  63 H :    0.041177
  64 H :    0.019660
  65 H :    0.022218
  66 H :    0.027964
  67 H :    0.000944
  68 H :    0.012512
  69 H :   -0.006074
  70 H :    0.003722
  71 H :    0.138722
  72 H :    0.022520
  73 H :    0.001713
  74 H :    0.006291
  75 H :    0.010707
  76 H :    0.000420
  77 H :    0.026259
  78 H :    0.041170
  79 H :    0.021331
  80 H :    0.021966
  81 H :    0.026087
  82 H :    0.041365
  83 H :    0.022475
  84 H :    0.028788
  85 H :    0.020762
  86 H :    0.016133
  87 H :   -0.020871
  88 H :    0.056218
  89 H :    0.029371
Sum of atomic charges:   -0.0000000

LOEWDIN ATOMIC CHARGES
----------------------
   0 C :    0.088005
   1 N :    0.000106
   2 C :    0.038151
   3 C :   -0.060793
   4 C :    0.076871
   5 O :   -0.207709
   6 C :   -0.130533
   7 C :   -0.127216
   8 C :    0.081591
   9 O :   -0.191080
  10 N :   -0.007526
  11 C :    0.035672
  12 C :   -0.061255
  13 C :    0.083500
  14 C :   -0.022226
  15 C :   -0.001237
  16 C :   -0.160711
  17 S :    0.395841
  18 C :   -0.141444
  19 N :   -0.094179
  20 N :   -0.071031
  21 C :   -0.081614
  22 C :    0.003868
  23 C :   -0.209180
  24 S :    0.450581
  25 C :   -0.170279
  26 C :   -0.054030
  27 C :   -0.018068
  28 N :    0.055732
  29 C :    0.068253
  30 N :   -0.118434
  31 C :   -0.003108
  32 C :   -0.046767
  33 C :   -0.145674
  34 S :    0.398961
  35 C :   -0.157550
  36 N :   -0.073972
  37 N :   -0.082617
  38 C :   -0.008331
  39 C :   -0.018485
  40 C :    0.073227
  41 N :    0.000008
  42 C :    0.036198
  43 C :   -0.060620
  44 C :    0.080283
  45 O :   -0.202294
  46 C :   -0.125296
  47 C :   -0.120892
  48 C :    0.079776
  49 O :   -0.204348
  50 N :   -0.000073
  51 C :    0.035929
  52 C :   -0.061084
  53 C :    0.079128
  54 C :   -0.055032
  55 C :    0.022941
  56 H :    0.032161
  57 H :    0.024347
  58 H :    0.035966
  59 H :    0.022213
  60 H :    0.030084
  61 H :    0.031572
  62 H :    0.024260
  63 H :    0.036851
  64 H :    0.023663
  65 H :    0.030337
  66 H :    0.031226
  67 H :    0.035919
  68 H :    0.037920
  69 H :    0.026642
  70 H :    0.038286
  71 H :    0.097308
  72 H :    0.024412
  73 H :    0.037800
  74 H :    0.035790
  75 H :    0.036921
  76 H :    0.036137
  77 H :    0.024758
  78 H :    0.036491
  79 H :    0.024374
  80 H :    0.030418
  81 H :    0.030711
  82 H :    0.036710
  83 H :    0.022569
  84 H :    0.031926
  85 H :    0.029538
  86 H :    0.022390
  87 H :    0.028773
  88 H :    0.032649
  89 H :    0.028945

  Mayer bond orders larger than 0.100000
B(  0-C ,  1-N ) :   1.1864 B(  0-C ,  7-C ) :   1.4607 B(  0-C , 56-H ) :   0.9906
B(  1-N ,  2-C ) :   0.9441 B(  1-N ,  4-C ) :   1.0586 B(  2-C ,  3-C ) :   1.1176
B(  2-C , 57-H ) :   0.9537 B(  2-C , 58-H ) :   0.9347 B(  3-C , 59-H ) :   0.9695
B(  3-C , 60-H ) :   0.9688 B(  3-C , 61-H ) :   0.9674 B(  4-C ,  5-O ) :   2.0202
B(  4-C ,  6-C ) :   1.0047 B(  5-O , 68-H ) :   0.1091 B(  6-C ,  7-C ) :   1.2029
B(  6-C , 13-C ) :   1.3808 B(  7-C ,  8-C ) :   0.9478 B(  8-C ,  9-O ) :   2.1759
B(  8-C , 10-N ) :   1.0208 B( 10-N , 11-C ) :   0.9470 B( 10-N , 13-C ) :   1.1575
B( 11-C , 12-C ) :   1.1202 B( 11-C , 62-H ) :   0.9502 B( 11-C , 63-H ) :   0.9285
B( 12-C , 64-H ) :   0.9688 B( 12-C , 65-H ) :   0.9679 B( 12-C , 66-H ) :   0.9639
B( 13-C , 14-C ) :   1.1269 B( 14-C , 15-C ) :   1.6673 B( 14-C , 67-H ) :   0.9706
B( 15-C , 16-C ) :   1.1045 B( 15-C , 68-H ) :   0.9272 B( 16-C , 17-S ) :   1.0856
B( 16-C , 20-N ) :   1.6700 B( 17-S , 18-C ) :   1.0994 B( 18-C , 19-N ) :   1.6459
B( 18-C , 21-C ) :   1.1259 B( 19-N , 20-N ) :   1.2345 B( 21-C , 22-C ) :   1.6563
B( 21-C , 69-H ) :   0.9563 B( 22-C , 23-C ) :   1.1816 B( 22-C , 70-H ) :   0.9804
B( 23-C , 24-S ) :   1.0806 B( 23-C , 25-C ) :   0.1166 B( 23-C , 27-C ) :   1.3765
B( 24-S , 25-C ) :   1.1277 B( 25-C , 26-C ) :   1.3728 B( 25-C , 31-C ) :   1.1521
B( 26-C , 27-C ) :   1.2596 B( 26-C , 30-N ) :   1.3187 B( 27-C , 28-N ) :   1.1837
B( 28-N , 29-C ) :   1.1640 B( 28-N , 71-H ) :   0.9293 B( 29-C , 30-N ) :   1.7136
B( 29-C , 72-H ) :   0.9787 B( 31-C , 32-C ) :   1.6874 B( 31-C , 73-H ) :   0.9682
B( 32-C , 33-C ) :   1.1110 B( 32-C , 74-H ) :   0.9399 B( 33-C , 34-S ) :   1.0984
B( 33-C , 37-N ) :   1.6585 B( 34-S , 35-C ) :   1.0938 B( 35-C , 36-N ) :   1.6568
B( 35-C , 38-C ) :   1.1084 B( 36-N , 37-N ) :   1.2400 B( 38-C , 39-C ) :   1.6586
B( 38-C , 75-H ) :   0.9289 B( 39-C , 40-C ) :   1.1305 B( 39-C , 76-H ) :   0.9695
B( 40-C , 41-N ) :   1.1563 B( 40-C , 47-C ) :   1.3552 B( 41-N , 42-C ) :   0.9465
B( 41-N , 44-C ) :   1.0578 B( 42-C , 43-C ) :   1.1200 B( 42-C , 77-H ) :   0.9498
B( 42-C , 78-H ) :   0.9283 B( 43-C , 79-H ) :   0.9690 B( 43-C , 80-H ) :   0.9682
B( 43-C , 81-H ) :   0.9639 B( 44-C , 45-O ) :   2.0481 B( 44-C , 46-C ) :   0.9806
B( 46-C , 47-C ) :   1.2376 B( 46-C , 53-C ) :   1.3773 B( 47-C , 48-C ) :   0.9904
B( 48-C , 49-O ) :   2.0289 B( 48-C , 50-N ) :   1.0556 B( 49-O , 75-H ) :   0.1062
B( 50-N , 51-C ) :   0.9494 B( 50-N , 53-C ) :   1.1655 B( 51-C , 52-C ) :   1.1183
B( 51-C , 82-H ) :   0.9285 B( 51-C , 83-H ) :   0.9505 B( 52-C , 84-H ) :   0.9643
B( 52-C , 85-H ) :   0.9684 B( 52-C , 86-H ) :   0.9689 B( 53-C , 54-C ) :   1.1260
B( 54-C , 55-C ) :   1.8888 B( 54-C , 87-H ) :   0.9532 B( 55-C , 88-H ) :   0.9264
B( 55-C , 89-H ) :   0.9447

-----------------------------------------------------------------------------
         ABSORPTION SPECTRUM VIA TRANSITION ELECTRIC DIPOLE MOMENTS
-----------------------------------------------------------------------------
State   Energy  Wavelength   fosc         T2         TX        TY        TZ
        (cm-1)    (nm)                  (au**2)     (au)      (au)      (au)
-----------------------------------------------------------------------------
   0   16390.3    610.1   2.326473587  46.72896   1.11406  -6.67431   0.97029
   1   19222.9    520.2   0.141180262   2.41786   0.66617  -1.16897   0.77948
   2   21850.5    457.7   0.308623497   4.64990   0.62524   1.54041   1.37336
   3   22963.5    435.5   0.006957772   0.09975  -0.01699  -0.26498  -0.17101
   4   24927.9    401.2   0.114480788   1.51190  -0.44591   0.26361  -1.11515
   5   27056.9    369.6   0.038883175   0.47311   0.05954   0.48367  -0.48541
   6   27776.5    360.0   0.001192436   0.01413   0.01803   0.01296  -0.11679
   7   27822.9    359.4   0.000099660   0.00118   0.01468   0.02155  -0.02234
   8   28132.5    355.5   0.026026402   0.30457  -0.16318   0.52298  -0.06657
   9   28496.6    350.9   0.004009443   0.04632  -0.16206  -0.02076  -0.14009
  10   28690.6    348.5   0.000234540   0.00269   0.03611  -0.00452  -0.03697
  11   30136.3    331.8   0.004090698   0.04469  -0.06465  -0.19381  -0.05428
  12   30639.7    326.4   0.004158391   0.04468  -0.07453   0.16674   0.10642
  13   31112.3    321.4   0.001979443   0.02095   0.03638   0.13728  -0.02784
  14   31527.9    317.2   0.072512244   0.75717  -0.22776  -0.42760  -0.72281
  15   32264.3    309.9   0.116077489   1.18441   0.36213  -0.75749   0.69244
  16   32880.2    304.1   0.140661198   1.40836  -0.05506  -1.14673  -0.30057
  17   33739.6    296.4   0.035510256   0.34649   0.20637  -0.53863  -0.11736
  18   34282.4    291.7   0.109125344   1.04792   0.22723   0.37348   0.92564
  19   34544.6    289.5   0.006279218   0.05984   0.19258   0.11950  -0.09204
  20   35159.8    284.4   0.270298327   2.53089   0.30647  -1.51544   0.37471
  21   36182.8    276.4   0.004529218   0.04121   0.17412  -0.03163  -0.09946
  22   36526.8    273.8   0.001346637   0.01214   0.03578   0.06700   0.07980
  23   37263.6    268.4   0.284046451   2.50946   0.33104   1.29876   0.84444
  24   37789.7    264.6   0.001094463   0.00953  -0.01202  -0.03254   0.09128
  25   37899.2    263.9   0.023863074   0.20729  -0.24425  -0.09869  -0.37133
  26   38655.8    258.7   0.131560869   1.12044  -0.32750  -0.90168  -0.44739
  27   39385.2    253.9   0.009038842   0.07555   0.09267  -0.16941   0.19562
  28   39898.8    250.6   0.026693176   0.22025  -0.15720   0.40617  -0.17483
  29   40200.3    248.8   0.013569082   0.11112   0.06675  -0.27520  -0.17588

FINAL SINGLE POINT ENERGY     -3546.278699574957

DIPOLE MOMENT
-------------
                                X             Y             Z
Electronic contribution:     -6.60488     -14.47142      -6.86700
Nuclear contribution   :      6.40669      14.49672       5.53730
                        -----------------------------------------
Total Dipole Moment    :     -0.19820       0.02531      -1.32970
                        -----------------------------------------
Magnitude (a.u.)       :      1.34462
Magnitude (Debye)      :      3.41776

Rotational constants in cm-1:     0.004097     0.000223     0.000212
Rotational constants in MHz :   122.830388     6.682025     6.364893

                             ****ORCA TERMINATED NORMALLY****
TOTAL RUN TIME: 0 days 0 hours 7 minutes 57 seconds 213 msec
