                         Program Version 4.2.0 -  RELEASE  -
|  1> # ORCA input file
|  2> # SCF done       -184.768175391412          0.000972629216
|  3> ! CAM-B3LYP def2-SVP def2/J RIJCOSX Grid4 TightSCF
|  4> %maxcore 5000
|  5> %tddft
|  6>     Mode sTDDFT
|  7>     Ethresh 5.0
|  8>     maxcore 5000
|  9> end
| 10>
| 11> %pal
| 12>   nprocs 6
| 13>   end
| 14> * xyz 0 1
| 15>    C      -10.64880        -2.66285        -0.06198
| 16>    C      -11.44633        -3.02824        -1.11516
| 17>    C      -12.20325        -4.21918        -1.16275
| 18>    N      -12.83986        -5.16761        -1.27149
| 19>    C      -11.63855        -2.27587        -2.29286
| 20>    N      -11.84927        -1.71686        -3.27358
| 21>    C      -10.48455        -3.39354         1.18198
| 22>    C       -9.61484        -2.66353         2.03868
| 23>    C       -9.28062        -3.10174         3.29898
| 24>    C       -9.84409        -4.30140         3.73767
| 25>    C      -10.70828        -5.02653         2.87943
| 26>    C      -11.03521        -4.59158         1.60084
| 27>    S      -11.27532        -6.47540         3.64331
| 28>    C      -10.37792        -6.10069         5.07714
| 29>    C       -9.67898        -4.94785         4.99363
| 30>    C       -9.19873        -1.42569         1.37964
| 31>    O       -8.44049        -0.57635         1.79924
| 32>    C       -9.86686        -1.43762         0.03958
| 33>    C       -9.64756        -0.53112        -0.94607
| 34>    C       -8.97125         0.71631        -0.82944
| 35>    C       -8.13865         1.26828        -1.90199
| 36>    N       -7.60634         2.42646        -1.62878
| 37>    C       -8.05090         2.75084        -0.38957
| 38>    C       -8.92182         1.69167         0.15063
| 39>    C       -9.44050         2.10345         1.42079
| 40>    S      -10.72090         1.25283         2.13375
| 41>    C       -8.84486         3.36199         1.69817
| 42>    C       -8.00731         3.75950         0.53983
| 43>    N       -7.53683         5.02051         0.68925
| 44>    C       -8.02131         5.45208         1.81633
| 45>    C       -8.84797         4.47711         2.53048
| 46>    C       -9.40770         4.72307         3.79721
| 47>    S       -9.52067         6.36564         4.41537
| 48>    C      -10.07615         5.77999         5.93625
| 49>    C      -10.42515         6.36503         7.15719
| 50>    C      -10.73288         5.41637         8.10002
| 51>    C      -11.18551         5.74100         9.48764
| 52>    O      -11.75885         6.77874         9.69324
| 53>    O      -10.94262         4.85747        10.43298
| 54>    S      -10.63995         3.78511         7.49320
| 55>    C      -10.15531         4.38088         5.94826
| 56>    C       -9.79898         3.77250         4.73727
| 57>    C       -9.64842         2.33796         4.59561
| 58>    C      -10.62296         1.34562         4.01095
| 59>    N      -10.14799         0.03532         4.29503
| 60>    C       -8.99884         0.16925         4.87437
| 61>    C       -8.66610         1.58777         5.12377
| 62>    C       -7.43777         1.69228         5.88866
| 63>    S       -6.70983         3.12963         6.28067
| 64>    C       -7.06384         0.35469         6.14401
| 65>    C       -7.95696        -0.57374         5.47487
| 66>    N       -7.53123        -1.83077         5.59995
| 67>    C       -6.39722        -1.76813         6.30120
| 68>    C       -6.04201        -0.45374         6.69868
| 69>    C       -4.91574        -0.07899         7.47639
| 70>    C       -4.82648         0.99736         8.30214
| 71>    C       -5.85540         1.88139         8.80102
| 72>    C       -7.15478         1.52512         9.08110
| 73>    C       -8.13180         2.41403         9.53538
| 74>    N       -9.00515         3.09775         9.84452
| 75>    C       -7.65408         0.21235         8.95214
| 76>    N       -8.09774        -0.84603         8.93010
| 77>    C       -5.20751         3.12260         9.19535
| 78>    C       -3.80148         2.92949         9.16547
| 79>    C       -3.50540         1.55890         8.70022
| 80>    O       -2.42883         1.01768         8.60866
| 81>    C       -2.91987         3.92511         9.51027
| 82>    C       -3.44735         5.16429         9.88906
| 83>    C       -4.85164         5.34740         9.90272
| 84>    C       -5.74522         4.33917         9.56565
| 85>    S       -5.27250         6.95966        10.38592
| 86>    C       -3.60177         7.36602        10.56951
| 87>    C       -2.76146         6.34810        10.28139
| 88>    H       -8.61772        -2.54599         3.94327
| 89>    H      -11.69372        -5.17640         0.98039
| 90>    H      -10.43443        -6.78092         5.90470
| 91>    H       -9.06711        -4.54129         5.77788
| 92>    H       -9.96729        -0.76599        -1.95491
| 93>    H       -7.93924         0.77678        -2.83806
| 94>    H       -7.80301         6.44333         2.17334
| 95>    H      -10.44356         7.41870         7.36418
| 96>    H      -10.31128         4.13248        10.18948
| 97>    H      -11.66216         1.49420         4.30818
| 98>    H       -5.86649        -2.66946         6.54755
| 99>    H       -4.01473        -0.67181         7.35805
|100>    H       -1.85472         3.75508         9.48671
|101>    H       -6.80709         4.52264         9.57626
|102>    H       -3.34903         8.35930        10.88594
|103>    H       -1.69043         6.41796        10.33862
|104> *
|105>
|106>                          ****END OF INPUT****

CARTESIAN COORDINATES (ANGSTROEM)
---------------------------------
  C    -10.648800   -2.662850   -0.061980
  C    -11.446330   -3.028240   -1.115160
  C    -12.203250   -4.219180   -1.162750
  N    -12.839860   -5.167610   -1.271490
  C    -11.638550   -2.275870   -2.292860
  N    -11.849270   -1.716860   -3.273580
  C    -10.484550   -3.393540    1.181980
  C     -9.614840   -2.663530    2.038680
  C     -9.280620   -3.101740    3.298980
  C     -9.844090   -4.301400    3.737670
  C    -10.708280   -5.026530    2.879430
  C    -11.035210   -4.591580    1.600840
  S    -11.275320   -6.475400    3.643310
  C    -10.377920   -6.100690    5.077140
  C     -9.678980   -4.947850    4.993630
  C     -9.198730   -1.425690    1.379640
  O     -8.440490   -0.576350    1.799240
  C     -9.866860   -1.437620    0.039580
  C     -9.647560   -0.531120   -0.946070
  C     -8.971250    0.716310   -0.829440
  C     -8.138650    1.268280   -1.901990
  N     -7.606340    2.426460   -1.628780
  C     -8.050900    2.750840   -0.389570
  C     -8.921820    1.691670    0.150630
  C     -9.440500    2.103450    1.420790
  S    -10.720900    1.252830    2.133750
  C     -8.844860    3.361990    1.698170
  C     -8.007310    3.759500    0.539830
  N     -7.536830    5.020510    0.689250
  C     -8.021310    5.452080    1.816330
  C     -8.847970    4.477110    2.530480
  C     -9.407700    4.723070    3.797210
  S     -9.520670    6.365640    4.415370
  C    -10.076150    5.779990    5.936250
  C    -10.425150    6.365030    7.157190
  C    -10.732880    5.416370    8.100020
  C    -11.185510    5.741000    9.487640
  O    -11.758850    6.778740    9.693240
  O    -10.942620    4.857470   10.432980
  S    -10.639950    3.785110    7.493200
  C    -10.155310    4.380880    5.948260
  C     -9.798980    3.772500    4.737270
  C     -9.648420    2.337960    4.595610
  C    -10.622960    1.345620    4.010950
  N    -10.147990    0.035320    4.295030
  C     -8.998840    0.169250    4.874370
  C     -8.666100    1.587770    5.123770
  C     -7.437770    1.692280    5.888660
  S     -6.709830    3.129630    6.280670
  C     -7.063840    0.354690    6.144010
  C     -7.956960   -0.573740    5.474870
  N     -7.531230   -1.830770    5.599950
  C     -6.397220   -1.768130    6.301200
  C     -6.042010   -0.453740    6.698680
  C     -4.915740   -0.078990    7.476390
  C     -4.826480    0.997360    8.302140
  C     -5.855400    1.881390    8.801020
  C     -7.154780    1.525120    9.081100
  C     -8.131800    2.414030    9.535380
  N     -9.005150    3.097750    9.844520
  C     -7.654080    0.212350    8.952140
  N     -8.097740   -0.846030    8.930100
  C     -5.207510    3.122600    9.195350
  C     -3.801480    2.929490    9.165470
  C     -3.505400    1.558900    8.700220
  O     -2.428830    1.017680    8.608660
  C     -2.919870    3.925110    9.510270
  C     -3.447350    5.164290    9.889060
  C     -4.851640    5.347400    9.902720
  C     -5.745220    4.339170    9.565650
  S     -5.272500    6.959660   10.385920
  C     -3.601770    7.366020   10.569510
  C     -2.761460    6.348100   10.281390
  H     -8.617720   -2.545990    3.943270
  H    -11.693720   -5.176400    0.980390
  H    -10.434430   -6.780920    5.904700
  H     -9.067110   -4.541290    5.777880
  H     -9.967290   -0.765990   -1.954910
  H     -7.939240    0.776780   -2.838060
  H     -7.803010    6.443330    2.173340
  H    -10.443560    7.418700    7.364180
  H    -10.311280    4.132480   10.189480
  H    -11.662160    1.494200    4.308180
  H     -5.866490   -2.669460    6.547550
  H     -4.014730   -0.671810    7.358050
  H     -1.854720    3.755080    9.486710
  H     -6.807090    4.522640    9.576260
  H     -3.349030    8.359300   10.885940
  H     -1.690430    6.417960   10.338620

 Total Charge           Charge          ....    0
 Multiplicity           Mult            ....    1
 Number of Electrons    NEL             ....  530
 Basis Dimension        Dim             .... 1126

ORBITAL ENERGIES
----------------

  NO   OCC          E(Eh)            E(eV)
   0   2.0000     -89.007887     -2422.0277
   1   2.0000     -88.996308     -2421.7127
   2   2.0000     -88.987513     -2421.4733
   3   2.0000     -88.965870     -2420.8844
   4   2.0000     -88.962958     -2420.8052
   5   2.0000     -88.894936     -2418.9542
   6   2.0000     -19.236873      -523.4619
   7   2.0000     -19.231643      -523.3196
   8   2.0000     -19.204414      -522.5787
   9   2.0000     -19.190041      -522.1876
  10   2.0000     -14.462543      -393.5458
  11   2.0000     -14.450787      -393.2259
  12   2.0000     -14.433818      -392.7641
  13   2.0000     -14.433132      -392.7455
  14   2.0000     -14.428527      -392.6202
  15   2.0000     -14.416303      -392.2876
  16   2.0000     -14.402165      -391.9028
  17   2.0000     -14.396712      -391.7544
  18   2.0000     -10.404921      -283.1323
  19   2.0000     -10.401818      -283.0479
  20   2.0000     -10.381983      -282.5081
  21   2.0000     -10.378371      -282.4098
  22   2.0000     -10.378059      -282.4013
  23   2.0000     -10.374533      -282.3054
  24   2.0000     -10.365719      -282.0656
  25   2.0000     -10.364055      -282.0203
  26   2.0000     -10.361986      -281.9640
  27   2.0000     -10.360415      -281.9212
  28   2.0000     -10.356499      -281.8147
  29   2.0000     -10.356071      -281.8030
  30   2.0000     -10.352188      -281.6974
  31   2.0000     -10.349178      -281.6154
  32   2.0000     -10.344190      -281.4797
  33   2.0000     -10.344113      -281.4776
  34   2.0000     -10.343415      -281.4586
  35   2.0000     -10.343375      -281.4575
  36   2.0000     -10.341266      -281.4002
  37   2.0000     -10.338965      -281.3375
  38   2.0000     -10.338785      -281.3326
  39   2.0000     -10.336853      -281.2801
  40   2.0000     -10.335277      -281.2372
  41   2.0000     -10.333135      -281.1789
  42   2.0000     -10.333083      -281.1775
  43   2.0000     -10.331917      -281.1458
  44   2.0000     -10.331716      -281.1403
  45   2.0000     -10.331068      -281.1226
  46   2.0000     -10.330273      -281.1010
  47   2.0000     -10.325453      -280.9699
  48   2.0000     -10.322259      -280.8830
  49   2.0000     -10.316208      -280.7183
  50   2.0000     -10.312802      -280.6256
  51   2.0000     -10.311144      -280.5805
  52   2.0000     -10.311058      -280.5782
  53   2.0000     -10.310247      -280.5561
  54   2.0000     -10.309067      -280.5240
  55   2.0000     -10.306972      -280.4670
  56   2.0000     -10.306954      -280.4665
  57   2.0000     -10.306140      -280.4443
  58   2.0000     -10.300548      -280.2922
  59   2.0000     -10.299292      -280.2580
  60   2.0000     -10.298944      -280.2485
  61   2.0000     -10.298766      -280.2437
  62   2.0000     -10.296592      -280.1845
  63   2.0000     -10.296397      -280.1792
  64   2.0000     -10.292959      -280.0856
  65   2.0000     -10.292883      -280.0836
  66   2.0000     -10.289375      -279.9881
  67   2.0000     -10.285283      -279.8768
  68   2.0000     -10.284240      -279.8484
  69   2.0000     -10.282516      -279.8015
  70   2.0000     -10.282287      -279.7953
  71   2.0000     -10.277494      -279.6648
  72   2.0000     -10.275850      -279.6201
  73   2.0000      -8.102357      -220.4763
  74   2.0000      -8.091501      -220.1809
  75   2.0000      -8.082252      -219.9293
  76   2.0000      -8.062182      -219.3831
  77   2.0000      -8.059216      -219.3024
  78   2.0000      -7.989956      -217.4178
  79   2.0000      -6.071759      -165.2210
  80   2.0000      -6.067668      -165.1096
  81   2.0000      -6.063976      -165.0092
  82   2.0000      -6.061091      -164.9307
  83   2.0000      -6.057042      -164.8205
  84   2.0000      -6.052916      -164.7082
  85   2.0000      -6.051758      -164.6767
  86   2.0000      -6.047440      -164.5592
  87   2.0000      -6.044081      -164.4678
  88   2.0000      -6.031671      -164.1301
  89   2.0000      -6.028723      -164.0499
  90   2.0000      -6.027386      -164.0135
  91   2.0000      -6.024457      -163.9338
  92   2.0000      -6.023866      -163.9177
  93   2.0000      -6.020893      -163.8368
  94   2.0000      -5.958964      -162.1517
  95   2.0000      -5.957708      -162.1175
  96   2.0000      -5.949983      -161.9073
  97   2.0000      -1.171657       -31.8824
  98   2.0000      -1.146644       -31.2018
  99   2.0000      -1.126984       -30.6668
 100   2.0000      -1.119899       -30.4740
 101   2.0000      -1.104753       -30.0618
 102   2.0000      -1.085613       -29.5410
 103   2.0000      -1.084212       -29.5029
 104   2.0000      -1.047937       -28.5158
 105   2.0000      -1.043464       -28.3941
 106   2.0000      -1.033631       -28.1265
 107   2.0000      -1.025747       -27.9120
 108   2.0000      -1.015140       -27.6234
 109   2.0000      -1.014082       -27.5946
 110   2.0000      -1.008386       -27.4396
 111   2.0000      -1.007798       -27.4236
 112   2.0000      -0.994061       -27.0498
 113   2.0000      -0.992247       -27.0004
 114   2.0000      -0.984211       -26.7817
 115   2.0000      -0.977924       -26.6107
 116   2.0000      -0.960321       -26.1317
 117   2.0000      -0.949973       -25.8501
 118   2.0000      -0.933219       -25.3942
 119   2.0000      -0.931632       -25.3510
 120   2.0000      -0.926116       -25.2009
 121   2.0000      -0.922752       -25.1094
 122   2.0000      -0.919048       -25.0086
 123   2.0000      -0.901359       -24.5272
 124   2.0000      -0.900118       -24.4935
 125   2.0000      -0.881325       -23.9821
 126   2.0000      -0.877049       -23.8657
 127   2.0000      -0.875368       -23.8200
 128   2.0000      -0.868353       -23.6291
 129   2.0000      -0.860090       -23.4042
 130   2.0000      -0.848283       -23.0830
 131   2.0000      -0.841407       -22.8959
 132   2.0000      -0.827737       -22.5239
 133   2.0000      -0.824327       -22.4311
 134   2.0000      -0.822632       -22.3850
 135   2.0000      -0.819137       -22.2899
 136   2.0000      -0.817257       -22.2387
 137   2.0000      -0.811928       -22.0937
 138   2.0000      -0.788396       -21.4534
 139   2.0000      -0.778325       -21.1793
 140   2.0000      -0.767649       -20.8888
 141   2.0000      -0.766825       -20.8664
 142   2.0000      -0.750229       -20.4148
 143   2.0000      -0.748813       -20.3762
 144   2.0000      -0.745026       -20.2732
 145   2.0000      -0.732825       -19.9412
 146   2.0000      -0.722704       -19.6658
 147   2.0000      -0.711689       -19.3660
 148   2.0000      -0.706097       -19.2139
 149   2.0000      -0.701511       -19.0891
 150   2.0000      -0.695786       -18.9333
 151   2.0000      -0.694812       -18.9068
 152   2.0000      -0.690701       -18.7949
 153   2.0000      -0.684208       -18.6183
 154   2.0000      -0.682908       -18.5829
 155   2.0000      -0.670997       -18.2588
 156   2.0000      -0.666201       -18.1283
 157   2.0000      -0.663972       -18.0676
 158   2.0000      -0.659681       -17.9508
 159   2.0000      -0.656750       -17.8711
 160   2.0000      -0.645810       -17.5734
 161   2.0000      -0.643066       -17.4987
 162   2.0000      -0.631164       -17.1748
 163   2.0000      -0.628398       -17.0996
 164   2.0000      -0.623009       -16.9529
 165   2.0000      -0.618154       -16.8208
 166   2.0000      -0.614212       -16.7136
 167   2.0000      -0.609704       -16.5909
 168   2.0000      -0.608190       -16.5497
 169   2.0000      -0.596905       -16.2426
 170   2.0000      -0.595881       -16.2148
 171   2.0000      -0.594133       -16.1672
 172   2.0000      -0.588001       -16.0003
 173   2.0000      -0.581477       -15.8228
 174   2.0000      -0.578157       -15.7324
 175   2.0000      -0.571477       -15.5507
 176   2.0000      -0.566216       -15.4075
 177   2.0000      -0.563498       -15.3335
 178   2.0000      -0.561024       -15.2662
 179   2.0000      -0.555583       -15.1182
 180   2.0000      -0.552409       -15.0318
 181   2.0000      -0.549528       -14.9534
 182   2.0000      -0.548087       -14.9142
 183   2.0000      -0.544500       -14.8166
 184   2.0000      -0.542818       -14.7708
 185   2.0000      -0.540745       -14.7144
 186   2.0000      -0.538543       -14.6545
 187   2.0000      -0.534634       -14.5481
 188   2.0000      -0.532244       -14.4831
 189   2.0000      -0.531798       -14.4710
 190   2.0000      -0.527529       -14.3548
 191   2.0000      -0.524895       -14.2831
 192   2.0000      -0.522627       -14.2214
 193   2.0000      -0.518982       -14.1222
 194   2.0000      -0.517946       -14.0940
 195   2.0000      -0.515837       -14.0366
 196   2.0000      -0.514805       -14.0086
 197   2.0000      -0.513179       -13.9643
 198   2.0000      -0.509662       -13.8686
 199   2.0000      -0.508966       -13.8497
 200   2.0000      -0.503661       -13.7053
 201   2.0000      -0.501912       -13.6577
 202   2.0000      -0.500013       -13.6060
 203   2.0000      -0.497348       -13.5335
 204   2.0000      -0.494953       -13.4684
 205   2.0000      -0.489825       -13.3288
 206   2.0000      -0.487970       -13.2783
 207   2.0000      -0.486912       -13.2496
 208   2.0000      -0.484850       -13.1934
 209   2.0000      -0.479084       -13.0365
 210   2.0000      -0.478609       -13.0236
 211   2.0000      -0.474777       -12.9193
 212   2.0000      -0.472029       -12.8446
 213   2.0000      -0.468825       -12.7574
 214   2.0000      -0.463754       -12.6194
 215   2.0000      -0.459030       -12.4908
 216   2.0000      -0.456914       -12.4333
 217   2.0000      -0.456426       -12.4200
 218   2.0000      -0.454575       -12.3696
 219   2.0000      -0.453680       -12.3452
 220   2.0000      -0.450703       -12.2642
 221   2.0000      -0.447884       -12.1875
 222   2.0000      -0.445635       -12.1263
 223   2.0000      -0.441720       -12.0198
 224   2.0000      -0.440317       -11.9816
 225   2.0000      -0.439633       -11.9630
 226   2.0000      -0.438436       -11.9305
 227   2.0000      -0.433590       -11.7986
 228   2.0000      -0.430865       -11.7244
 229   2.0000      -0.429439       -11.6856
 230   2.0000      -0.428389       -11.6571
 231   2.0000      -0.425588       -11.5808
 232   2.0000      -0.424743       -11.5579
 233   2.0000      -0.423765       -11.5312
 234   2.0000      -0.420726       -11.4485
 235   2.0000      -0.419554       -11.4167
 236   2.0000      -0.413746       -11.2586
 237   2.0000      -0.400705       -10.9037
 238   2.0000      -0.399459       -10.8698
 239   2.0000      -0.396271       -10.7831
 240   2.0000      -0.392998       -10.6940
 241   2.0000      -0.389175       -10.5900
 242   2.0000      -0.385098       -10.4790
 243   2.0000      -0.383692       -10.4408
 244   2.0000      -0.374836       -10.1998
 245   2.0000      -0.374120       -10.1803
 246   2.0000      -0.371482       -10.1085
 247   2.0000      -0.366519        -9.9735
 248   2.0000      -0.358096        -9.7443
 249   2.0000      -0.354746        -9.6531
 250   2.0000      -0.347482        -9.4555
 251   2.0000      -0.344808        -9.3827
 252   2.0000      -0.338321        -9.2062
 253   2.0000      -0.335996        -9.1429
 254   2.0000      -0.327476        -8.9111
 255   2.0000      -0.322931        -8.7874
 256   2.0000      -0.321381        -8.7452
 257   2.0000      -0.316088        -8.6012
 258   2.0000      -0.308054        -8.3826
 259   2.0000      -0.299167        -8.1408
 260   2.0000      -0.294417        -8.0115
 261   2.0000      -0.290952        -7.9172
 262   2.0000      -0.286754        -7.8030
 263   2.0000      -0.280521        -7.6334
 264   2.0000      -0.263792        -7.1781
 265   0.0000      -0.156992        -4.2720
 266   0.0000      -0.148731        -4.0472
 267   0.0000      -0.093201        -2.5361
 268   0.0000      -0.088345        -2.4040
 269   0.0000      -0.066611        -1.8126

MULLIKEN ATOMIC CHARGES
-----------------------
   0 C :    0.303924
   1 C :   -0.339638
   2 C :   -0.182899
   3 N :    0.165242
   4 C :   -0.191843
   5 N :    0.161067
   6 C :    0.019966
   7 C :    0.001127
   8 C :    0.006262
   9 C :    0.092126
  10 C :   -0.089207
  11 C :   -0.034889
  12 S :    0.138614
  13 C :   -0.046913
  14 C :    0.041301
  15 C :    0.158711
  16 O :   -0.158034
  17 C :   -0.045464
  18 C :   -0.078474
  19 C :    0.030797
  20 C :    0.071892
  21 N :   -0.006210
  22 C :    0.017550
  23 C :    0.012512
  24 C :    0.000904
  25 S :    0.183974
  26 C :   -0.019731
  27 C :    0.009182
  28 N :    0.004590
  29 C :    0.065111
  30 C :    0.027814
  31 C :   -0.132665
  32 S :    0.164280
  33 C :    0.020163
  34 C :   -0.005921
  35 C :   -0.172243
  36 C :    0.197009
  37 O :   -0.189281
  38 O :   -0.166395
  39 S :    0.217026
  40 C :   -0.087509
  41 C :    0.126648
  42 C :   -0.231288
  43 C :    0.018199
  44 N :   -0.114388
  45 C :    0.063248
  46 C :    0.079404
  47 C :   -0.010613
  48 S :   -0.196166
  49 C :   -0.023563
  50 C :   -0.035838
  51 N :   -0.078610
  52 C :    0.047801
  53 C :   -0.006566
  54 C :    0.042688
  55 C :   -0.122396
  56 C :    0.276500
  57 C :   -0.364867
  58 C :   -0.086235
  59 N :    0.087158
  60 C :   -0.201642
  61 N :    0.173067
  62 C :    0.035149
  63 C :    0.003446
  64 C :    0.135532
  65 O :   -0.145775
  66 C :   -0.076881
  67 C :    0.112047
  68 C :   -0.090041
  69 C :   -0.033615
  70 S :    0.130449
  71 C :   -0.049868
  72 C :    0.024734
  73 H :   -0.054772
  74 H :   -0.007190
  75 H :    0.042000
  76 H :    0.011618
  77 H :    0.032282
  78 H :    0.025884
  79 H :    0.035520
  80 H :    0.013475
  81 H :    0.176382
  82 H :    0.077724
  83 H :   -0.019474
  84 H :    0.017391
  85 H :   -0.012143
  86 H :   -0.019686
  87 H :    0.036291
  88 H :   -0.006847
Sum of atomic charges:   -0.0000000

LOEWDIN ATOMIC CHARGES
----------------------
   0 C :    0.070712
   1 C :   -0.127481
   2 C :   -0.018131
   3 N :   -0.038274
   4 C :   -0.022167
   5 N :   -0.045526
   6 C :   -0.025915
   7 C :   -0.058694
   8 C :    0.054889
   9 C :   -0.025696
  10 C :   -0.141252
  11 C :   -0.012797
  12 S :    0.428067
  13 C :   -0.145999
  14 C :   -0.041996
  15 C :    0.080177
  16 O :   -0.145359
  17 C :   -0.038825
  18 C :    0.030871
  19 C :   -0.017613
  20 C :    0.095596
  21 N :   -0.056929
  22 C :    0.031251
  23 C :   -0.019665
  24 C :   -0.076564
  25 S :    0.490444
  26 C :   -0.056618
  27 C :    0.056671
  28 N :   -0.042546
  29 C :    0.099831
  30 C :   -0.014049
  31 C :   -0.166542
  32 S :    0.443822
  33 C :   -0.171520
  34 C :   -0.039771
  35 C :   -0.187352
  36 C :    0.051083
  37 O :   -0.166005
  38 O :   -0.027666
  39 S :    0.482856
  40 C :   -0.191841
  41 C :   -0.020615
  42 C :   -0.069397
  43 C :   -0.037729
  44 N :   -0.151113
  45 C :    0.035979
  46 C :    0.003951
  47 C :   -0.143829
  48 S :    0.011658
  49 C :   -0.056530
  50 C :   -0.027571
  51 N :   -0.094959
  52 C :    0.039626
  53 C :   -0.087123
  54 C :    0.084901
  55 C :   -0.097333
  56 C :    0.085780
  57 C :   -0.165526
  58 C :    0.055497
  59 N :   -0.080180
  60 C :   -0.022739
  61 N :   -0.055383
  62 C :   -0.016296
  63 C :   -0.050053
  64 C :    0.084533
  65 O :   -0.146049
  66 C :    0.021378
  67 C :   -0.036267
  68 C :   -0.146065
  69 C :   -0.017497
  70 S :    0.422252
  71 C :   -0.152384
  72 C :   -0.057514
  73 H :    0.037841
  74 H :    0.039983
  75 H :    0.030420
  76 H :    0.043688
  77 H :    0.050877
  78 H :    0.034540
  79 H :    0.031953
  80 H :    0.046361
  81 H :    0.036529
  82 H :    0.038496
  83 H :    0.017744
  84 H :    0.046939
  85 H :    0.040071
  86 H :    0.034254
  87 H :    0.028354
  88 H :    0.035070

  Mayer bond orders larger than 0.100000
B(  0-C ,  1-C ) :   1.6408 B(  0-C ,  6-C ) :   1.0310 B(  0-C , 17-C ) :   1.0268
B(  1-C ,  2-C ) :   1.1424 B(  1-C ,  4-C ) :   1.1429 B(  2-C ,  3-N ) :   2.9733
B(  4-C ,  5-N ) :   2.9695 B(  6-C ,  7-C ) :   1.2264 B(  6-C , 11-C ) :   1.3960
B(  7-C ,  8-C ) :   1.3885 B(  7-C , 15-C ) :   0.9708 B(  8-C ,  9-C ) :   1.2835
B(  8-C , 73-H ) :   0.9870 B(  9-C , 10-C ) :   1.2724 B(  9-C , 14-C ) :   1.1857
B( 10-C , 11-C ) :   1.3281 B( 10-C , 12-S ) :   1.1062 B( 11-C , 74-H ) :   0.9839
B( 12-S , 13-C ) :   1.1152 B( 13-C , 14-C ) :   1.6177 B( 13-C , 75-H ) :   0.9680
B( 14-C , 76-H ) :   0.9976 B( 15-C , 16-O ) :   2.1705 B( 15-C , 17-C ) :   0.9247
B( 17-C , 18-C ) :   1.7130 B( 18-C , 19-C ) :   1.0758 B( 18-C , 77-H ) :   0.9266
B( 19-C , 20-C ) :   1.0308 B( 19-C , 23-C ) :   1.4956 B( 20-C , 21-N ) :   1.7011
B( 20-C , 78-H ) :   0.9948 B( 21-N , 22-C ) :   1.2845 B( 22-C , 23-C ) :   1.0713
B( 22-C , 27-C ) :   1.5170 B( 23-C , 24-C ) :   1.0868 B( 23-C , 26-C ) :   0.1037
B( 24-C , 25-S ) :   1.3343 B( 24-C , 26-C ) :   1.1995 B( 25-S , 43-C ) :   0.9082
B( 26-C , 27-C ) :   1.0323 B( 26-C , 30-C ) :   1.3903 B( 27-C , 28-N ) :   1.2952
B( 28-N , 29-C ) :   1.7044 B( 29-C , 30-C ) :   1.0387 B( 29-C , 79-H ) :   0.9868
B( 30-C , 31-C ) :   1.2223 B( 31-C , 32-S ) :   1.0737 B( 31-C , 41-C ) :   1.4555
B( 32-S , 33-C ) :   1.0798 B( 33-C , 34-C ) :   1.2350 B( 33-C , 40-C ) :   1.3785
B( 34-C , 35-C ) :   1.5519 B( 34-C , 80-H ) :   1.0140 B( 35-C , 36-C ) :   0.8901
B( 35-C , 39-S ) :   1.1261 B( 36-C , 37-O ) :   2.1650 B( 36-C , 38-O ) :   1.3035
B( 38-O , 81-H ) :   0.8819 B( 39-S , 40-C ) :   1.0965 B( 40-C , 41-C ) :   1.3646
B( 41-C , 42-C ) :   0.9296 B( 42-C , 43-C ) :   0.9242 B( 42-C , 46-C ) :   1.7674
B( 43-C , 44-N ) :   1.0933 B( 43-C , 82-H ) :   0.9105 B( 44-N , 45-C ) :   1.6553
B( 45-C , 46-C ) :   1.0378 B( 45-C , 50-C ) :   1.1457 B( 46-C , 47-C ) :   0.9914
B( 47-C , 48-S ) :   1.5594 B( 47-C , 49-C ) :   1.1499 B( 49-C , 50-C ) :   1.2354
B( 49-C , 53-C ) :   1.2299 B( 50-C , 51-N ) :   1.4138 B( 51-N , 52-C ) :   1.4663
B( 51-N , 73-H ) :   0.1320 B( 52-C , 53-C ) :   1.2519 B( 52-C , 83-H ) :   0.9999
B( 53-C , 54-C ) :   1.0924 B( 54-C , 55-C ) :   1.6477 B( 54-C , 84-H ) :   0.9523
B( 55-C , 56-C ) :   1.0521 B( 55-C , 64-C ) :   0.9393 B( 56-C , 57-C ) :   1.5863
B( 56-C , 62-C ) :   1.0213 B( 57-C , 58-C ) :   1.1788 B( 57-C , 60-C ) :   1.1612
B( 58-C , 59-N ) :   2.8152 B( 59-N , 81-H ) :   0.1788 B( 60-C , 61-N ) :   3.0020
B( 62-C , 63-C ) :   1.2766 B( 62-C , 69-C ) :   1.4086 B( 63-C , 64-C ) :   0.9172
B( 63-C , 66-C ) :   1.4224 B( 64-C , 65-O ) :   2.2773 B( 66-C , 67-C ) :   1.2502
B( 66-C , 85-H ) :   1.0167 B( 67-C , 68-C ) :   1.3061 B( 67-C , 72-C ) :   1.1712
B( 68-C , 69-C ) :   1.3215 B( 68-C , 70-S ) :   1.0921 B( 69-C , 86-H ) :   0.9873
B( 70-S , 71-C ) :   1.1237 B( 71-C , 72-C ) :   1.6310 B( 71-C , 87-H ) :   0.9685
B( 72-C , 88-H ) :   0.9997

-----------------------------------------------------------------------------
         ABSORPTION SPECTRUM VIA TRANSITION ELECTRIC DIPOLE MOMENTS
-----------------------------------------------------------------------------
State   Energy  Wavelength   fosc         T2         TX        TY        TZ
        (cm-1)    (nm)                  (au**2)     (au)      (au)      (au)
-----------------------------------------------------------------------------
   0    8193.8   1220.4   0.049966416   2.00755  -0.74081   0.18889  -1.19292
   1    9013.0   1109.5   0.021775527   0.79538   0.60611  -0.47743   0.44729
   2   11091.6    901.6   0.002831693   0.08405   0.14811  -0.03947   0.24608
   3   11564.8    864.7   0.000461803   0.01315   0.09876  -0.02499   0.05261
   4   12878.5    776.5   0.007009524   0.17918  -0.13890  -0.14044  -0.37439
   5   14130.8    707.7   0.001693192   0.03945  -0.08805  -0.01989  -0.17691
   6   14719.2    679.4   0.013703447   0.30649   0.05450   0.20259   0.51233
   7   15254.8    655.5   0.049465449   1.06751   0.18297   0.58844   0.82931
   8   16202.3    617.2   0.459192934   9.33029   0.37987  -1.58571  -2.58292
   9   17273.4    578.9   0.041330490   0.78771  -0.35929  -0.81128  -0.02092
  10   17970.5    556.5   0.000384452   0.00704  -0.00160  -0.07904   0.02817
  11   18425.3    542.7   0.037866781   0.67658  -0.20796   0.67775   0.41711
  12   18532.7    539.6   0.005318607   0.09448  -0.30422  -0.03890  -0.02037
  13   18703.3    534.7   0.009423161   0.16586  -0.00426  -0.32191  -0.24944
  14   18811.8    531.6   0.021594158   0.37790  -0.08334   0.39668  -0.46218
  15   19352.2    516.7   0.070710684   1.20290  -0.27697  -0.22215  -1.03771
  16   19665.7    508.5   0.027964564   0.46814   0.25903  -0.18256   0.60639
  17   20083.4    497.9   0.031742743   0.52033  -0.35020  -0.38235  -0.50150
  18   20282.6    493.0   0.214293714   3.47826   0.13954   1.26680   1.36162
  19   21281.4    469.9   0.052215000   0.80774  -0.14805  -0.69417  -0.55131
  20   21508.2    464.9   0.040395073   0.61830  -0.02469  -0.43984  -0.65133
  21   21629.0    462.3   0.119814213   1.82367   0.40870   1.28665  -0.03415
  22   22146.6    451.5   0.039627999   0.58908  -0.04437  -0.42972  -0.63439
  23   22512.8    444.2   0.018147361   0.26538  -0.04815  -0.03098  -0.51195
  24   22600.8    442.5   0.049030294   0.71420  -0.16817   0.65664  -0.50472
  25   23062.7    433.6   0.026428888   0.37726  -0.16345  -0.53223  -0.25939
  26   23233.2    430.4   0.018652602   0.26431  -0.02635  -0.29036  -0.42344
  27   23475.4    426.0   0.033674508   0.47224  -0.02633  -0.47026  -0.50041
  28   23662.3    422.6   0.018644323   0.25940   0.03730  -0.36744   0.35071
  29   23945.4    417.6   0.031203998   0.42901   0.04905   0.62601   0.18631
  30   24431.6    409.3   0.000910937   0.01227  -0.01589  -0.09642  -0.05221
  31   24859.6    402.3   0.011854242   0.15698   0.17348  -0.35300   0.04774
  32   25146.4    397.7   0.093641856   1.22594   0.38366   0.17452   1.02386
  33   25538.1    391.6   0.034525851   0.44507   0.00716   0.54270   0.38794
  34   25882.7    386.4   0.041239142   0.52454  -0.07838   0.67157   0.25958
  35   26233.1    381.2   0.016202562   0.20333   0.02948   0.38684   0.22982
  36   26450.3    378.1   0.010737008   0.13364   0.10853  -0.24085  -0.25269
  37   26659.6    375.1   0.011684271   0.14429  -0.25918  -0.09396   0.26131
  38   26719.6    374.3   0.130065740   1.60254  -0.58324  -1.07418  -0.32941
  39   26936.5    371.2   0.024499082   0.29942   0.09493   0.09129   0.53111
  40   27025.7    370.0   0.245284654   2.98792  -0.00792   1.16121  -1.28041
  41   27352.5    365.6   0.044690359   0.53789   0.34600   0.22754   0.60531
  42   27739.8    360.5   0.139289258   1.65306   0.25884   0.37704   1.20163
  43   28311.9    353.2   0.024632150   0.28642   0.31393  -0.40642   0.15066
  44   28437.4    351.7   0.019556842   0.22640  -0.09865  -0.30296  -0.35339
  45   28758.0    347.7   0.011044379   0.12643  -0.16812   0.27653  -0.14731
  46   28887.6    346.2   0.007194812   0.08199  -0.20806  -0.02158  -0.19555
  47   29085.8    343.8   0.115003579   1.30169   0.78618   0.33517   0.75582
  48   29247.8    341.9   0.007661715   0.08624  -0.16570   0.07532  -0.23046
  49   29357.9    340.6   0.058917639   0.66069   0.60124   0.46129   0.29395
  50   29590.7    337.9   0.027849769   0.30984   0.47142  -0.28735  -0.07094
  51   29652.7    337.2   0.007041659   0.07818   0.05109   0.20070   0.18785
  52   29873.3    334.7   0.057883215   0.63789  -0.45352  -0.63634  -0.16519
  53   30190.1    331.2   0.096655503   1.05399  -0.49484  -0.22531  -0.87084
  54   30253.4    330.5   0.039807969   0.43318  -0.06431  -0.32609   0.56808
  55   30376.6    329.2   0.009999341   0.10837   0.14191   0.09031  -0.28297
  56   30490.3    328.0   0.042787869   0.46199  -0.18008   0.43987  -0.48588
  57   30664.8    326.1   0.055695997   0.59794  -0.64932  -0.37128  -0.19614
  58   30862.0    324.0   0.002003419   0.02137  -0.11493   0.06741   0.06016
  59   30925.5    323.4   0.087112649   0.92734  -0.57998  -0.75556  -0.14177
  60   31286.9    319.6   0.018160692   0.19109  -0.11562   0.05986   0.41730
  61   31524.3    317.2   0.014971687   0.15635  -0.11957   0.26727   0.26574
  62   31731.5    315.1   0.125248758   1.29945  -0.62373  -0.88075   0.36699
  63   31974.5    312.7   0.021242279   0.21871  -0.13368   0.06256  -0.44376
  64   32019.5    312.3   0.048497985   0.49864   0.29101  -0.04331   0.64193
  65   32154.9    311.0   0.012575818   0.12876  -0.24933   0.08611  -0.24326
  66   32322.3    309.4   0.078006477   0.79452  -0.52396  -0.60559  -0.39147
  67   32356.4    309.1   0.188382177   1.91670   1.15312   0.72131   0.25831
  68   32458.3    308.1   0.108154208   1.09697   0.44042   0.69788  -0.64495
  69   32514.8    307.6   0.068304355   0.69158  -0.14062   0.30012  -0.76272
  70   32674.7    306.0   0.006300817   0.06348   0.00106  -0.12878   0.21656
  71   32771.0    305.1   0.099830468   1.00288   0.00628   0.61549  -0.78994
  72   32856.5    304.4   0.426717745   4.27559  -0.51094  -0.04619  -2.00310
  73   33368.3    299.7   0.078511595   0.77460   0.86443  -0.05405   0.15632
  74   33501.2    298.5   0.022392757   0.22005   0.27042  -0.19977   0.32713
  75   33628.0    297.4   0.116516144   1.14067  -1.02140  -0.13356  -0.28209
  76   33859.6    295.3   0.034099164   0.33154  -0.20737  -0.53665   0.02332
  77   34141.0    292.9   0.127078731   1.22538   0.19736   0.90414   0.60743
  78   34334.2    291.3   0.025760771   0.24701  -0.05191  -0.46555   0.16605
  79   34345.7    291.2   0.009057849   0.08682   0.05176   0.13528  -0.25660
  80   34563.2    289.3   0.040998955   0.39051  -0.03140  -0.61882  -0.08114
  81   34690.4    288.3   0.044385201   0.42122  -0.05545  -0.47020  -0.44390
  82   34848.2    287.0   0.012550775   0.11857  -0.20112   0.18142  -0.21262
  83   35122.7    284.7   0.002207605   0.02069   0.10314  -0.09779  -0.02218
  84   35242.2    283.8   0.036850969   0.34424  -0.42095   0.39195   0.11584
  85   35581.4    281.0   0.013565746   0.12552  -0.01298  -0.28441  -0.21085
  86   35637.9    280.6   0.003649869   0.03372   0.01453  -0.16059   0.08784
  87   36066.3    277.3   0.065561000   0.59844  -0.03899  -0.42257  -0.64680
  88   36354.5    275.1   0.035107381   0.31792   0.33412   0.29763   0.34307
  89   36418.3    274.6   0.027528067   0.24885  -0.02789  -0.42721  -0.25604
  90   36522.4    273.8   0.130720736   1.17831   0.78530   0.56913   0.48756
  91   36578.0    273.4   0.024497261   0.22048  -0.30520  -0.35579   0.02730
  92   36673.2    272.7   0.044076638   0.39567  -0.11471  -0.61781   0.02870
  93   36736.8    272.2   0.016132095   0.14457  -0.06762  -0.35763  -0.10998
  94   36788.8    271.8   0.028893234   0.25856  -0.44497  -0.07946   0.23291
  95   36953.0    270.6   0.077037237   0.68632   0.37989   0.55870   0.47944
  96   36996.6    270.3   0.043045922   0.38304  -0.16802  -0.57424  -0.15830
  97   37120.5    269.4   0.063601007   0.56406   0.68679   0.28192   0.11356
  98   37457.2    267.0   0.113103296   0.99407  -0.46556  -0.72027   0.50846
  99   37491.0    266.7   0.022232809   0.19523  -0.25991  -0.32436  -0.14989
 100   37600.1    266.0   0.008720148   0.07635   0.21661  -0.07775  -0.15293
 101   37752.5    264.9   0.027357544   0.23856   0.21715   0.32898  -0.28842
 102   37842.2    264.3   0.103572950   0.90104  -0.16391  -0.21058   0.91095
 103   37890.3    263.9   0.124846076   1.08473  -0.51085  -0.90428   0.07768
 104   37983.9    263.3   0.019945492   0.17287  -0.11434   0.24980   0.31208
 105   38152.1    262.1   0.062993862   0.54357  -0.73521  -0.04103   0.03686
 106   38209.3    261.7   0.384674557   3.31437   1.33800   1.15029  -0.44826
 107   38311.4    261.0   0.032695470   0.28095  -0.30649  -0.42599   0.07448
 108   38613.7    259.0   0.271476927   2.31455   0.77331   1.11288  -0.69140
 109   38632.6    258.8   0.195404054   1.66516  -0.16657   1.27922  -0.03156
 110   38904.4    257.0   0.088339305   0.74753   0.13560  -0.80308  -0.29019
 111   39126.0    255.6   0.032822447   0.27617  -0.10189   0.25829   0.44618
 112   39611.4    252.5   0.006673825   0.05547   0.15701   0.09703  -0.14629
 113   39660.8    252.1   0.026539720   0.22030  -0.13152   0.10783   0.43746
 114   39780.8    251.4   0.079690580   0.65949   0.12561  -0.42943   0.67772
 115   40258.9    248.4   0.119755343   0.97928  -0.26812   0.16066   0.93893

FINAL SINGLE POINT ENERGY     -5229.007738556426

DIPOLE MOMENT
-------------
                                X             Y             Z
Electronic contribution:    -12.43799       3.89465     -12.45522
Nuclear contribution   :     13.42409      -2.42183      10.94276
                        -----------------------------------------
Total Dipole Moment    :      0.98611       1.47283      -1.51246
                        -----------------------------------------
Magnitude (a.u.)       :      2.33006
Magnitude (Debye)      :      5.92253

Rotational constants in cm-1:     0.001435     0.000594     0.000524
Rotational constants in MHz :    43.014198    17.808520    15.696290

                             ****ORCA TERMINATED NORMALLY****
TOTAL RUN TIME: 0 days 0 hours 15 minutes 59 seconds 854 msec
