                         Program Version 4.2.0 -  RELEASE  -
|  1> # ORCA input file
|  2> # SCF done       -211.831431443144          0.000937471135
|  3> ! CAM-B3LYP def2-SVP def2/J RIJCOSX Grid4 TightSCF
|  4> %maxcore 5000
|  5> %tddft
|  6>     Mode sTDDFT
|  7>     Ethresh 5.0
|  8>     maxcore 5000
|  9> end
| 10>
| 11> %pal
| 12>   nprocs 6
| 13>   end
| 14> * xyz 0 1
| 15>    C        5.06946        -0.60472        -9.42488
| 16>    C        3.95991        -0.34447       -10.18052
| 17>    F        3.94297        -0.70037       -11.47515
| 18>    C        2.82324         0.28687        -9.65463
| 19>    C        2.82005         0.65675        -8.33872
| 20>    C        3.93678         0.41130        -7.51282
| 21>    C        5.08463        -0.22990        -8.06696
| 22>    C        6.21776        -0.48282        -7.26137
| 23>    C        6.20440        -0.10615        -5.94363
| 24>    C        5.04712         0.51862        -5.39177
| 25>    C        3.93989         0.77721        -6.14941
| 26>    C        5.25498         0.76353        -3.95793
| 27>    O        4.52520         1.30501        -3.16757
| 28>    C        6.57104         0.10834        -3.64360
| 29>    C        7.21572        -0.23467        -4.90429
| 30>    C        8.54215        -0.49312        -5.10387
| 31>    C        9.52330        -0.47878        -4.09311
| 32>    N       10.36862        -0.47851        -3.31587
| 33>    C        9.10811        -0.76675        -6.37000
| 34>    N        9.62053        -1.00485        -7.36787
| 35>    C        6.85071        -0.19580        -2.36636
| 36>    C        7.89290        -1.05494        -1.83468
| 37>    C        8.74601        -0.58577        -0.82448
| 38>    C        8.72020         0.81228        -0.34536
| 39>    O        8.00349         1.69101        -0.71799
| 40>    S        9.98180         1.01750         0.90851
| 41>    C       10.55094        -0.68132         0.77105
| 42>    O       11.43749        -1.13061         1.42884
| 43>    C        9.73716        -1.37181        -0.25441
| 44>    C        9.95482        -2.69365        -0.66022
| 45>    C        9.10476        -3.16858        -1.66620
| 46>    C        8.10100        -2.38474        -2.23314
| 47>    C        7.29366        -3.09213        -3.25349
| 48>    O        6.36983        -2.67120        -3.88724
| 49>    S        7.91159        -4.75761        -3.44727
| 50>    C        9.19177        -4.54353        -2.20043
| 51>    O        9.95607        -5.40535        -1.89895
| 52>    C       10.99752        -3.52669        -0.06667
| 53>    C       10.89780        -4.01888         1.23641
| 54>    N       11.82092        -4.78803         1.76748
| 55>    C       12.85719        -5.10342         1.00530
| 56>    N       13.06554        -4.67728        -0.22878
| 57>    C       12.15813        -3.88783        -0.75655
| 58>    C       13.85138        -6.02505         1.59614
| 59>    C       13.57019        -7.38019         1.76230
| 60>    C       12.31158        -8.02195         1.31514
| 61>    O       11.37115        -7.51154         0.79434
| 62>    S       12.40685        -9.77756         1.68956
| 63>    C       14.05066        -9.65819         2.38923
| 64>    O       14.66989       -10.59185         2.80089
| 65>    C       14.48299        -8.24519         2.34901
| 66>    C       15.74454        -7.82429         2.79649
| 67>    C       16.03258        -6.46386         2.60675
| 68>    C       15.10300        -5.59723         2.03059
| 69>    C       15.53423        -4.18484         1.94478
| 70>    O       14.91733        -3.24899         1.54802
| 71>    S       17.21065        -4.06513         2.58873
| 72>    C       17.29739        -5.80335         3.00132
| 73>    O       18.26385        -6.29720         3.50562
| 74>    C       16.62586        -8.76263         3.46977
| 75>    C       17.90930        -9.06600         3.22212
| 76>    C       18.68803        -9.82265         4.26197
| 77>    O       18.22482       -10.43448         5.19030
| 78>    C       20.09758        -9.57428         3.92913
| 79>    C       21.21422        -9.92111         4.63609
| 80>    C       22.48365        -9.54143         4.14936
| 81>    C       22.57268        -8.79460         2.93687
| 82>    C       23.84244        -8.40867         2.46415
| 83>    C       24.95785        -8.75939         3.17316
| 84>    C       24.89078        -9.49546         4.36511
| 85>    C       23.66707        -9.87742         4.83939
| 86>    F       26.16943        -8.39309         2.72414
| 87>    C       21.40170        -8.45180         2.22359
| 88>    C       20.18070        -8.84353         2.70696
| 89>    C       18.83774        -8.64986         2.17953
| 90>    C       18.51552        -8.29228         0.90151
| 91>    C       17.20026        -8.29261         0.39531
| 92>    N       16.14664        -8.30702        -0.06006
| 93>    C       19.46802        -7.94050        -0.08094
| 94>    N       20.19988        -7.63374        -0.90883
| 95>    H        5.92705        -1.09030        -9.86361
| 96>    H        1.97734         0.46520       -10.29939
| 97>    H        1.95625         1.14323        -7.91161
| 98>    H        7.06466        -0.98341        -7.70300
| 99>    H        3.07521         1.25211        -5.71072
|100>    H        6.19247         0.25456        -1.62779
|101>    H       10.04509        -3.79660         1.86368
|102>    H       12.35936        -3.52519        -1.75518
|103>    H       16.18482        -9.28103         4.31792
|104>    H       21.12783       -10.47687         5.55770
|105>    H       23.93242        -7.84386         1.54949
|106>    H       25.80511        -9.74260         4.88087
|107>    H       23.59015       -10.44396         5.75503
|108>    H       21.49730        -7.87483         1.31750
|109> *
|110>
|111>                          ****END OF INPUT****

CARTESIAN COORDINATES (ANGSTROEM)
---------------------------------
  C      5.069460   -0.604720   -9.424880
  C      3.959910   -0.344470  -10.180520
  F      3.942970   -0.700370  -11.475150
  C      2.823240    0.286870   -9.654630
  C      2.820050    0.656750   -8.338720
  C      3.936780    0.411300   -7.512820
  C      5.084630   -0.229900   -8.066960
  C      6.217760   -0.482820   -7.261370
  C      6.204400   -0.106150   -5.943630
  C      5.047120    0.518620   -5.391770
  C      3.939890    0.777210   -6.149410
  C      5.254980    0.763530   -3.957930
  O      4.525200    1.305010   -3.167570
  C      6.571040    0.108340   -3.643600
  C      7.215720   -0.234670   -4.904290
  C      8.542150   -0.493120   -5.103870
  C      9.523300   -0.478780   -4.093110
  N     10.368620   -0.478510   -3.315870
  C      9.108110   -0.766750   -6.370000
  N      9.620530   -1.004850   -7.367870
  C      6.850710   -0.195800   -2.366360
  C      7.892900   -1.054940   -1.834680
  C      8.746010   -0.585770   -0.824480
  C      8.720200    0.812280   -0.345360
  O      8.003490    1.691010   -0.717990
  S      9.981800    1.017500    0.908510
  C     10.550940   -0.681320    0.771050
  O     11.437490   -1.130610    1.428840
  C      9.737160   -1.371810   -0.254410
  C      9.954820   -2.693650   -0.660220
  C      9.104760   -3.168580   -1.666200
  C      8.101000   -2.384740   -2.233140
  C      7.293660   -3.092130   -3.253490
  O      6.369830   -2.671200   -3.887240
  S      7.911590   -4.757610   -3.447270
  C      9.191770   -4.543530   -2.200430
  O      9.956070   -5.405350   -1.898950
  C     10.997520   -3.526690   -0.066670
  C     10.897800   -4.018880    1.236410
  N     11.820920   -4.788030    1.767480
  C     12.857190   -5.103420    1.005300
  N     13.065540   -4.677280   -0.228780
  C     12.158130   -3.887830   -0.756550
  C     13.851380   -6.025050    1.596140
  C     13.570190   -7.380190    1.762300
  C     12.311580   -8.021950    1.315140
  O     11.371150   -7.511540    0.794340
  S     12.406850   -9.777560    1.689560
  C     14.050660   -9.658190    2.389230
  O     14.669890  -10.591850    2.800890
  C     14.482990   -8.245190    2.349010
  C     15.744540   -7.824290    2.796490
  C     16.032580   -6.463860    2.606750
  C     15.103000   -5.597230    2.030590
  C     15.534230   -4.184840    1.944780
  O     14.917330   -3.248990    1.548020
  S     17.210650   -4.065130    2.588730
  C     17.297390   -5.803350    3.001320
  O     18.263850   -6.297200    3.505620
  C     16.625860   -8.762630    3.469770
  C     17.909300   -9.066000    3.222120
  C     18.688030   -9.822650    4.261970
  O     18.224820  -10.434480    5.190300
  C     20.097580   -9.574280    3.929130
  C     21.214220   -9.921110    4.636090
  C     22.483650   -9.541430    4.149360
  C     22.572680   -8.794600    2.936870
  C     23.842440   -8.408670    2.464150
  C     24.957850   -8.759390    3.173160
  C     24.890780   -9.495460    4.365110
  C     23.667070   -9.877420    4.839390
  F     26.169430   -8.393090    2.724140
  C     21.401700   -8.451800    2.223590
  C     20.180700   -8.843530    2.706960
  C     18.837740   -8.649860    2.179530
  C     18.515520   -8.292280    0.901510
  C     17.200260   -8.292610    0.395310
  N     16.146640   -8.307020   -0.060060
  C     19.468020   -7.940500   -0.080940
  N     20.199880   -7.633740   -0.908830
  H      5.927050   -1.090300   -9.863610
  H      1.977340    0.465200  -10.299390
  H      1.956250    1.143230   -7.911610
  H      7.064660   -0.983410   -7.703000
  H      3.075210    1.252110   -5.710720
  H      6.192470    0.254560   -1.627790
  H     10.045090   -3.796600    1.863680
  H     12.359360   -3.525190   -1.755180
  H     16.184820   -9.281030    4.317920
  H     21.127830  -10.476870    5.557700
  H     23.932420   -7.843860    1.549490
  H     25.805110   -9.742600    4.880870
  H     23.590150  -10.443960    5.755030
  H     21.497300   -7.874830    1.317500

 Total Charge           Charge          ....    0
 Multiplicity           Mult            ....    1
 Number of Electrons    NEL             ....  566
 Basis Dimension        Dim             .... 1206

ORBITAL ENERGIES
----------------

  NO   OCC          E(Eh)            E(eV)
   0   2.0000     -88.966785     -2420.9093
   1   2.0000     -88.963764     -2420.8271
   2   2.0000     -88.957653     -2420.6608
   3   2.0000     -88.954107     -2420.5643
   4   2.0000     -24.793596      -674.6681
   5   2.0000     -24.789352      -674.5526
   6   2.0000     -19.259364      -524.0739
   7   2.0000     -19.258065      -524.0386
   8   2.0000     -19.257442      -524.0216
   9   2.0000     -19.255834      -523.9779
  10   2.0000     -19.251327      -523.8552
  11   2.0000     -19.249137      -523.7957
  12   2.0000     -19.248992      -523.7917
  13   2.0000     -19.246864      -523.7338
  14   2.0000     -19.228056      -523.2220
  15   2.0000     -19.221982      -523.0567
  16   2.0000     -14.436478      -392.8365
  17   2.0000     -14.430111      -392.6633
  18   2.0000     -14.427064      -392.5804
  19   2.0000     -14.423731      -392.4897
  20   2.0000     -14.418834      -392.3564
  21   2.0000     -14.417701      -392.3256
  22   2.0000     -10.423372      -283.6344
  23   2.0000     -10.419697      -283.5344
  24   2.0000     -10.418565      -283.5036
  25   2.0000     -10.418059      -283.4898
  26   2.0000     -10.415172      -283.4112
  27   2.0000     -10.410245      -283.2772
  28   2.0000     -10.409364      -283.2532
  29   2.0000     -10.408386      -283.2266
  30   2.0000     -10.378325      -282.4086
  31   2.0000     -10.378221      -282.4058
  32   2.0000     -10.373544      -282.2785
  33   2.0000     -10.372123      -282.2398
  34   2.0000     -10.361642      -281.9546
  35   2.0000     -10.358615      -281.8722
  36   2.0000     -10.358551      -281.8705
  37   2.0000     -10.355225      -281.7800
  38   2.0000     -10.354155      -281.7509
  39   2.0000     -10.350727      -281.6576
  40   2.0000     -10.350402      -281.6488
  41   2.0000     -10.347178      -281.5610
  42   2.0000     -10.345810      -281.5238
  43   2.0000     -10.344280      -281.4822
  44   2.0000     -10.342794      -281.4417
  45   2.0000     -10.342290      -281.4280
  46   2.0000     -10.339324      -281.3473
  47   2.0000     -10.337172      -281.2887
  48   2.0000     -10.334922      -281.2275
  49   2.0000     -10.333894      -281.1996
  50   2.0000     -10.332352      -281.1576
  51   2.0000     -10.332303      -281.1563
  52   2.0000     -10.332104      -281.1508
  53   2.0000     -10.331884      -281.1449
  54   2.0000     -10.331859      -281.1442
  55   2.0000     -10.331038      -281.1218
  56   2.0000     -10.329400      -281.0773
  57   2.0000     -10.325524      -280.9718
  58   2.0000     -10.324813      -280.9525
  59   2.0000     -10.317697      -280.7588
  60   2.0000     -10.317589      -280.7559
  61   2.0000     -10.315966      -280.7117
  62   2.0000     -10.311529      -280.5910
  63   2.0000     -10.311282      -280.5842
  64   2.0000     -10.310791      -280.5709
  65   2.0000     -10.310254      -280.5563
  66   2.0000     -10.309786      -280.5435
  67   2.0000     -10.309716      -280.5416
  68   2.0000     -10.309140      -280.5260
  69   2.0000     -10.306187      -280.4456
  70   2.0000     -10.306028      -280.4413
  71   2.0000     -10.304810      -280.4081
  72   2.0000     -10.303701      -280.3780
  73   2.0000     -10.303273      -280.3663
  74   2.0000     -10.301459      -280.3170
  75   2.0000     -10.301152      -280.3086
  76   2.0000     -10.298475      -280.2358
  77   2.0000     -10.297539      -280.2103
  78   2.0000     -10.295456      -280.1536
  79   2.0000     -10.292729      -280.0794
  80   2.0000      -8.065925      -219.4850
  81   2.0000      -8.062878      -219.4021
  82   2.0000      -8.056894      -219.2392
  83   2.0000      -8.053321      -219.1420
  84   2.0000      -6.034762      -164.2142
  85   2.0000      -6.031761      -164.1325
  86   2.0000      -6.031484      -164.1250
  87   2.0000      -6.028433      -164.0420
  88   2.0000      -6.027024      -164.0036
  89   2.0000      -6.025733      -163.9685
  90   2.0000      -6.023943      -163.9198
  91   2.0000      -6.022466      -163.8796
  92   2.0000      -6.022197      -163.8723
  93   2.0000      -6.018891      -163.7823
  94   2.0000      -6.017967      -163.7572
  95   2.0000      -6.014369      -163.6593
  96   2.0000      -1.309374       -35.6299
  97   2.0000      -1.305042       -35.5120
  98   2.0000      -1.184849       -32.2414
  99   2.0000      -1.182625       -32.1809
 100   2.0000      -1.180576       -32.1251
 101   2.0000      -1.178336       -32.0641
 102   2.0000      -1.176469       -32.0134
 103   2.0000      -1.173622       -31.9359
 104   2.0000      -1.172207       -31.8974
 105   2.0000      -1.169473       -31.8230
 106   2.0000      -1.144773       -31.1508
 107   2.0000      -1.138620       -30.9834
 108   2.0000      -1.096214       -29.8295
 109   2.0000      -1.041780       -28.3483
 110   2.0000      -1.032394       -28.0929
 111   2.0000      -1.031475       -28.0679
 112   2.0000      -1.023215       -27.8431
 113   2.0000      -1.015189       -27.6247
 114   2.0000      -1.010012       -27.4838
 115   2.0000      -1.007698       -27.4208
 116   2.0000      -1.003179       -27.2979
 117   2.0000      -0.988355       -26.8945
 118   2.0000      -0.988132       -26.8884
 119   2.0000      -0.982218       -26.7275
 120   2.0000      -0.981730       -26.7142
 121   2.0000      -0.971640       -26.4397
 122   2.0000      -0.957017       -26.0417
 123   2.0000      -0.944621       -25.7044
 124   2.0000      -0.939642       -25.5690
 125   2.0000      -0.934888       -25.4396
 126   2.0000      -0.928513       -25.2661
 127   2.0000      -0.921710       -25.0810
 128   2.0000      -0.909241       -24.7417
 129   2.0000      -0.901895       -24.5418
 130   2.0000      -0.896626       -24.3984
 131   2.0000      -0.891112       -24.2484
 132   2.0000      -0.883912       -24.0525
 133   2.0000      -0.867365       -23.6022
 134   2.0000      -0.866820       -23.5874
 135   2.0000      -0.857581       -23.3360
 136   2.0000      -0.856095       -23.2955
 137   2.0000      -0.844625       -22.9834
 138   2.0000      -0.839290       -22.8382
 139   2.0000      -0.815616       -22.1940
 140   2.0000      -0.812288       -22.1035
 141   2.0000      -0.806306       -21.9407
 142   2.0000      -0.802558       -21.8387
 143   2.0000      -0.785475       -21.3739
 144   2.0000      -0.775350       -21.0983
 145   2.0000      -0.769186       -20.9306
 146   2.0000      -0.762714       -20.7545
 147   2.0000      -0.757764       -20.6198
 148   2.0000      -0.750660       -20.4265
 149   2.0000      -0.741734       -20.1836
 150   2.0000      -0.734535       -19.9877
 151   2.0000      -0.728757       -19.8305
 152   2.0000      -0.721694       -19.6383
 153   2.0000      -0.719547       -19.5799
 154   2.0000      -0.714450       -19.4412
 155   2.0000      -0.713129       -19.4052
 156   2.0000      -0.702241       -19.1089
 157   2.0000      -0.696265       -18.9463
 158   2.0000      -0.689487       -18.7619
 159   2.0000      -0.679431       -18.4883
 160   2.0000      -0.674948       -18.3663
 161   2.0000      -0.674045       -18.3417
 162   2.0000      -0.665760       -18.1163
 163   2.0000      -0.650946       -17.7131
 164   2.0000      -0.645793       -17.5729
 165   2.0000      -0.645041       -17.5525
 166   2.0000      -0.641619       -17.4593
 167   2.0000      -0.639361       -17.3979
 168   2.0000      -0.635975       -17.3058
 169   2.0000      -0.635378       -17.2895
 170   2.0000      -0.633522       -17.2390
 171   2.0000      -0.632383       -17.2080
 172   2.0000      -0.627209       -17.0672
 173   2.0000      -0.622369       -16.9355
 174   2.0000      -0.620816       -16.8933
 175   2.0000      -0.612575       -16.6690
 176   2.0000      -0.612126       -16.6568
 177   2.0000      -0.607717       -16.5368
 178   2.0000      -0.604370       -16.4457
 179   2.0000      -0.591423       -16.0934
 180   2.0000      -0.584804       -15.9133
 181   2.0000      -0.584052       -15.8929
 182   2.0000      -0.580549       -15.7975
 183   2.0000      -0.576587       -15.6897
 184   2.0000      -0.575450       -15.6588
 185   2.0000      -0.572601       -15.5813
 186   2.0000      -0.569522       -15.4975
 187   2.0000      -0.566434       -15.4135
 188   2.0000      -0.564983       -15.3740
 189   2.0000      -0.563667       -15.3382
 190   2.0000      -0.561968       -15.2919
 191   2.0000      -0.560538       -15.2530
 192   2.0000      -0.558190       -15.1891
 193   2.0000      -0.557038       -15.1578
 194   2.0000      -0.555602       -15.1187
 195   2.0000      -0.553751       -15.0683
 196   2.0000      -0.552007       -15.0209
 197   2.0000      -0.551186       -14.9985
 198   2.0000      -0.550105       -14.9691
 199   2.0000      -0.547942       -14.9103
 200   2.0000      -0.544001       -14.8030
 201   2.0000      -0.543035       -14.7767
 202   2.0000      -0.542658       -14.7665
 203   2.0000      -0.539136       -14.6706
 204   2.0000      -0.535264       -14.5653
 205   2.0000      -0.532926       -14.5017
 206   2.0000      -0.532516       -14.4905
 207   2.0000      -0.530561       -14.4373
 208   2.0000      -0.528170       -14.3722
 209   2.0000      -0.527578       -14.3561
 210   2.0000      -0.526970       -14.3396
 211   2.0000      -0.523254       -14.2385
 212   2.0000      -0.521001       -14.1771
 213   2.0000      -0.519720       -14.1423
 214   2.0000      -0.517329       -14.0772
 215   2.0000      -0.514105       -13.9895
 216   2.0000      -0.513356       -13.9691
 217   2.0000      -0.512316       -13.9408
 218   2.0000      -0.509928       -13.8758
 219   2.0000      -0.509369       -13.8606
 220   2.0000      -0.506447       -13.7811
 221   2.0000      -0.503823       -13.7097
 222   2.0000      -0.501518       -13.6470
 223   2.0000      -0.499521       -13.5927
 224   2.0000      -0.493963       -13.4414
 225   2.0000      -0.493168       -13.4198
 226   2.0000      -0.488791       -13.3007
 227   2.0000      -0.487279       -13.2595
 228   2.0000      -0.487195       -13.2572
 229   2.0000      -0.484973       -13.1968
 230   2.0000      -0.479568       -13.0497
 231   2.0000      -0.478470       -13.0198
 232   2.0000      -0.477183       -12.9848
 233   2.0000      -0.476225       -12.9587
 234   2.0000      -0.470039       -12.7904
 235   2.0000      -0.469287       -12.7700
 236   2.0000      -0.465883       -12.6773
 237   2.0000      -0.462388       -12.5822
 238   2.0000      -0.459114       -12.4931
 239   2.0000      -0.457620       -12.4525
 240   2.0000      -0.450996       -12.2722
 241   2.0000      -0.450729       -12.2650
 242   2.0000      -0.444682       -12.1004
 243   2.0000      -0.444411       -12.0931
 244   2.0000      -0.439578       -11.9615
 245   2.0000      -0.438130       -11.9221
 246   2.0000      -0.436556       -11.8793
 247   2.0000      -0.433157       -11.7868
 248   2.0000      -0.430998       -11.7281
 249   2.0000      -0.427490       -11.6326
 250   2.0000      -0.421232       -11.4623
 251   2.0000      -0.416671       -11.3382
 252   2.0000      -0.408881       -11.1262
 253   2.0000      -0.400794       -10.9062
 254   2.0000      -0.397001       -10.8030
 255   2.0000      -0.392467       -10.6796
 256   2.0000      -0.390299       -10.6206
 257   2.0000      -0.389455       -10.5976
 258   2.0000      -0.386462       -10.5162
 259   2.0000      -0.385849       -10.4995
 260   2.0000      -0.379740       -10.3333
 261   2.0000      -0.379373       -10.3233
 262   2.0000      -0.377448       -10.2709
 263   2.0000      -0.371100       -10.0982
 264   2.0000      -0.369793       -10.0626
 265   2.0000      -0.366334        -9.9684
 266   2.0000      -0.365291        -9.9401
 267   2.0000      -0.362629        -9.8676
 268   2.0000      -0.357534        -9.7290
 269   2.0000      -0.356747        -9.7076
 270   2.0000      -0.355921        -9.6851
 271   2.0000      -0.352522        -9.5926
 272   2.0000      -0.350112        -9.5270
 273   2.0000      -0.346490        -9.4285
 274   2.0000      -0.344053        -9.3622
 275   2.0000      -0.341733        -9.2990
 276   2.0000      -0.331114        -9.0101
 277   2.0000      -0.327278        -8.9057
 278   2.0000      -0.324804        -8.8384
 279   2.0000      -0.320292        -8.7156
 280   2.0000      -0.317535        -8.6406
 281   2.0000      -0.307432        -8.3657
 282   2.0000      -0.302108        -8.2208
 283   0.0000      -0.114159        -3.1064
 284   0.0000      -0.106867        -2.9080
 285   0.0000      -0.103670        -2.8210
 286   0.0000      -0.097703        -2.6586
 287   0.0000      -0.071206        -1.9376

MULLIKEN ATOMIC CHARGES
-----------------------
   0 C :   -0.095782
   1 C :    0.303768
   2 F :   -0.185309
   3 C :   -0.026876
   4 C :   -0.007878
   5 C :    0.104629
   6 C :    0.103051
   7 C :   -0.083132
   8 C :    0.049271
   9 C :    0.010059
  10 C :   -0.077992
  11 C :    0.140634
  12 O :   -0.122544
  13 C :   -0.080027
  14 C :    0.309907
  15 C :   -0.349893
  16 C :   -0.175954
  17 N :    0.160105
  18 C :   -0.192589
  19 N :    0.170902
  20 C :    0.001373
  21 C :   -0.051928
  22 C :    0.081123
  23 C :    0.044413
  24 O :   -0.119451
  25 S :    0.036699
  26 C :    0.041383
  27 O :   -0.097837
  28 C :    0.060499
  29 C :    0.010358
  30 C :    0.061883
  31 C :    0.062980
  32 C :    0.038619
  33 O :   -0.131778
  34 S :    0.039754
  35 C :    0.035215
  36 O :   -0.092352
  37 C :   -0.090127
  38 C :    0.099719
  39 N :   -0.053194
  40 C :   -0.135820
  41 N :   -0.035924
  42 C :    0.106389
  43 C :    0.086907
  44 C :    0.070039
  45 C :    0.053472
  46 O :   -0.100948
  47 S :    0.027217
  48 C :    0.044589
  49 O :   -0.119763
  50 C :    0.072884
  51 C :   -0.054140
  52 C :    0.071734
  53 C :    0.054403
  54 C :    0.049258
  55 O :   -0.096497
  56 S :    0.029714
  57 C :    0.036313
  58 O :   -0.135043
  59 C :   -0.007001
  60 C :   -0.075318
  61 C :    0.139284
  62 O :   -0.125415
  63 C :    0.006686
  64 C :   -0.072234
  65 C :    0.098326
  66 C :    0.099786
  67 C :   -0.094608
  68 C :    0.303018
  69 C :   -0.029323
  70 C :   -0.005194
  71 F :   -0.186588
  72 C :   -0.076882
  73 C :    0.046930
  74 C :    0.310059
  75 C :   -0.341946
  76 C :   -0.178041
  77 N :    0.159725
  78 C :   -0.183922
  79 N :    0.165034
  80 H :    0.000702
  81 H :    0.007930
  82 H :   -0.005524
  83 H :   -0.001371
  84 H :   -0.007304
  85 H :    0.048093
  86 H :    0.000255
  87 H :    0.012738
  88 H :    0.048558
  89 H :   -0.008991
  90 H :    0.000445
  91 H :    0.006253
  92 H :   -0.006907
  93 H :   -0.003736
Sum of atomic charges:   -0.0000000

LOEWDIN ATOMIC CHARGES
----------------------
   0 C :   -0.039756
   1 C :    0.095064
   2 F :   -0.060102
   3 C :   -0.031703
   4 C :    0.006354
   5 C :   -0.014827
   6 C :    0.005100
   7 C :    0.020656
   8 C :   -0.014962
   9 C :   -0.057273
  10 C :    0.039870
  11 C :    0.089367
  12 O :   -0.123929
  13 C :   -0.051943
  14 C :    0.079327
  15 C :   -0.133130
  16 C :   -0.012585
  17 N :   -0.056295
  18 C :   -0.019408
  19 N :   -0.037772
  20 C :    0.060411
  21 C :    0.021166
  22 C :   -0.038043
  23 C :   -0.043685
  24 O :   -0.098464
  25 S :    0.320785
  26 C :   -0.041715
  27 O :   -0.090413
  28 C :   -0.036816
  29 C :    0.041756
  30 C :   -0.042416
  31 C :   -0.048681
  32 C :   -0.047965
  33 O :   -0.114898
  34 S :    0.322224
  35 C :   -0.043294
  36 O :   -0.084821
  37 C :   -0.067705
  38 C :    0.072593
  39 N :   -0.067541
  40 C :    0.027701
  41 N :   -0.059520
  42 C :    0.079369
  43 C :    0.044158
  44 C :   -0.028500
  45 C :   -0.037490
  46 O :   -0.091822
  47 S :    0.314355
  48 C :   -0.042737
  49 O :   -0.100663
  50 C :   -0.038225
  51 C :    0.020939
  52 C :   -0.050070
  53 C :   -0.036414
  54 C :   -0.039496
  55 O :   -0.087735
  56 S :    0.314612
  57 C :   -0.046374
  58 O :   -0.117110
  59 C :    0.061678
  60 C :   -0.053876
  61 C :    0.089333
  62 O :   -0.125813
  63 C :   -0.057271
  64 C :    0.039022
  65 C :   -0.015816
  66 C :    0.004962
  67 C :   -0.040464
  68 C :    0.094109
  69 C :   -0.033580
  70 C :    0.005985
  71 F :   -0.061165
  72 C :    0.019451
  73 C :   -0.013549
  74 C :    0.079192
  75 C :   -0.130952
  76 C :   -0.014020
  77 N :   -0.049707
  78 C :   -0.018442
  79 N :   -0.040207
  80 H :    0.044416
  81 H :    0.043720
  82 H :    0.037252
  83 H :    0.040670
  84 H :    0.041710
  85 H :    0.056139
  86 H :    0.025526
  87 H :    0.030768
  88 H :    0.056251
  89 H :    0.041079
  90 H :    0.044138
  91 H :    0.042990
  92 H :    0.036719
  93 H :    0.040242

  Mayer bond orders larger than 0.100000
B(  0-C ,  1-C ) :   1.4418 B(  0-C ,  6-C ) :   1.2003 B(  0-C , 80-H ) :   1.0062
B(  1-C ,  2-F ) :   1.0941 B(  1-C ,  3-C ) :   1.2526 B(  3-C ,  4-C ) :   1.4648
B(  3-C , 81-H ) :   0.9921 B(  4-C ,  5-C ) :   1.2315 B(  4-C , 82-H ) :   0.9970
B(  5-C ,  6-C ) :   1.2495 B(  5-C , 10-C ) :   1.1990 B(  6-C ,  7-C ) :   1.2137
B(  7-C ,  8-C ) :   1.4484 B(  7-C , 83-H ) :   0.9928 B(  8-C ,  9-C ) :   1.2163
B(  8-C , 14-C ) :   1.0133 B(  9-C , 10-C ) :   1.4613 B(  9-C , 11-C ) :   0.9245
B( 10-C , 84-H ) :   1.0153 B( 11-C , 12-O ) :   2.2887 B( 11-C , 13-C ) :   0.9159
B( 13-C , 14-C ) :   0.9824 B( 13-C , 20-C ) :   1.8386 B( 14-C , 15-C ) :   1.6695
B( 15-C , 16-C ) :   1.1777 B( 15-C , 18-C ) :   1.1285 B( 16-C , 17-N ) :   2.9852
B( 18-C , 19-N ) :   2.9909 B( 20-C , 21-C ) :   0.9926 B( 20-C , 85-H ) :   0.9095
B( 21-C , 22-C ) :   1.4020 B( 21-C , 31-C ) :   1.3747 B( 22-C , 23-C ) :   0.8377
B( 22-C , 28-C ) :   1.3260 B( 23-C , 24-O ) :   2.1626 B( 23-C , 25-S ) :   1.0420
B( 24-O , 25-S ) :   0.1087 B( 25-S , 26-C ) :   1.0230 B( 25-S , 27-O ) :   0.1093
B( 26-C , 27-O ) :   2.2035 B( 26-C , 28-C ) :   0.8299 B( 28-C , 29-C ) :   1.4134
B( 29-C , 30-C ) :   1.4301 B( 29-C , 37-C ) :   0.9668 B( 30-C , 31-C ) :   1.3076
B( 30-C , 35-C ) :   0.8312 B( 31-C , 32-C ) :   0.8345 B( 32-C , 33-O ) :   2.1559
B( 32-C , 34-S ) :   1.0511 B( 33-O , 34-S ) :   0.1100 B( 34-S , 35-C ) :   1.0157
B( 34-S , 36-O ) :   0.1074 B( 35-C , 36-O ) :   2.2047 B( 37-C , 38-C ) :   1.3588
B( 37-C , 40-C ) :   0.1005 B( 37-C , 42-C ) :   1.3546 B( 38-C , 39-N ) :   1.5531
B( 38-C , 86-H ) :   0.9873 B( 39-N , 40-C ) :   1.5312 B( 40-C , 41-N ) :   1.5455
B( 40-C , 43-C ) :   0.8709 B( 41-N , 42-C ) :   1.5508 B( 42-C , 87-H ) :   0.9867
B( 43-C , 44-C ) :   1.4586 B( 43-C , 53-C ) :   1.4782 B( 44-C , 45-C ) :   0.8268
B( 44-C , 50-C ) :   1.3238 B( 45-C , 46-O ) :   2.2024 B( 45-C , 47-S ) :   1.0237
B( 46-O , 47-S ) :   0.1084 B( 47-S , 48-C ) :   1.0418 B( 47-S , 49-O ) :   0.1086
B( 48-C , 49-O ) :   2.1658 B( 48-C , 50-C ) :   0.8378 B( 50-C , 51-C ) :   1.4015
B( 51-C , 52-C ) :   1.3827 B( 51-C , 59-C ) :   0.9899 B( 52-C , 53-C ) :   1.2976
B( 52-C , 57-C ) :   0.8350 B( 53-C , 54-C ) :   0.8312 B( 54-C , 55-O ) :   2.2069
B( 54-C , 56-S ) :   1.0146 B( 55-O , 56-S ) :   0.1065 B( 56-S , 57-C ) :   1.0508
B( 56-S , 58-O ) :   0.1099 B( 57-C , 58-O ) :   2.1537 B( 59-C , 60-C ) :   1.8399
B( 59-C , 88-H ) :   0.9105 B( 60-C , 61-C ) :   0.9178 B( 60-C , 74-C ) :   0.9812
B( 61-C , 62-O ) :   2.2872 B( 61-C , 63-C ) :   0.9240 B( 63-C , 64-C ) :   1.4633
B( 63-C , 73-C ) :   1.2164 B( 64-C , 65-C ) :   1.1988 B( 64-C , 89-H ) :   1.0143
B( 65-C , 66-C ) :   1.2500 B( 65-C , 70-C ) :   1.2331 B( 66-C , 67-C ) :   1.1993
B( 66-C , 72-C ) :   1.2136 B( 67-C , 68-C ) :   1.4439 B( 67-C , 90-H ) :   1.0057
B( 68-C , 69-C ) :   1.2511 B( 68-C , 71-F ) :   1.0924 B( 69-C , 70-C ) :   1.4633
B( 69-C , 91-H ) :   0.9929 B( 70-C , 92-H ) :   0.9967 B( 72-C , 73-C ) :   1.4519
B( 72-C , 93-H ) :   0.9924 B( 73-C , 74-C ) :   1.0106 B( 74-C , 75-C ) :   1.6766
B( 75-C , 76-C ) :   1.1718 B( 75-C , 78-C ) :   1.1246 B( 76-C , 77-N ) :   2.9870
B( 78-C , 79-N ) :   2.9894

-----------------------------------------------------------------------------
         ABSORPTION SPECTRUM VIA TRANSITION ELECTRIC DIPOLE MOMENTS
-----------------------------------------------------------------------------
State   Energy  Wavelength   fosc         T2         TX        TY        TZ
        (cm-1)    (nm)                  (au**2)     (au)      (au)      (au)
-----------------------------------------------------------------------------
   0   22969.4    435.4   0.007408993   0.10619   0.09295   0.30996   0.03843
   1   24715.4    404.6   0.007946183   0.10584   0.03367   0.29182   0.13983
   2   25467.6    392.7   0.012778342   0.16518   0.32077   0.20759   0.13854
   3   26409.0    378.7   0.013773143   0.17169   0.30997   0.13615   0.23890
   4   26716.8    374.3   0.012532352   0.15443  -0.17413  -0.27420   0.22117
   5   27309.8    366.2   0.098391454   1.18608  -0.33421   0.31478  -0.98757
   6   27690.1    361.1   0.011689442   0.13898  -0.01676  -0.19953  -0.31446
   7   27815.3    359.5   0.026821480   0.31745  -0.33734   0.40967   0.18926
   8   28056.5    356.4   0.057953625   0.68002   0.74727  -0.09902  -0.33438
   9   28323.2    353.1   0.051386036   0.59728   0.43609  -0.25898   0.58312
  10   28417.7    351.9   0.120009188   1.39028   0.96499  -0.15987   0.65842
  11   29060.1    344.1   0.102003099   1.15556  -0.80388   0.44226  -0.56012
  12   29097.7    343.7   0.025735200   0.29117   0.53038   0.06351  -0.07638
  13   29283.9    341.5   0.129351079   1.45418  -0.84842   0.28750  -0.80729
  14   29646.9    337.3   0.049140430   0.54568  -0.57656   0.09564  -0.45178
  15   29799.2    335.6   0.037490461   0.41418   0.44497   0.03085   0.46393
  16   30270.6    330.4   0.101603807   1.10501   1.00094  -0.28319  -0.15141
  17   30764.2    325.1   0.049478685   0.52948   0.71809  -0.11282   0.03315
  18   31153.7    321.0   0.004195167   0.04433   0.08884  -0.17478   0.07676
  19   31535.7    317.1   0.001624263   0.01696   0.00319   0.08958  -0.09446
  20   31597.1    316.5   0.033466145   0.34869   0.53330  -0.13477   0.21473
  21   31674.7    315.7   0.112884730   1.17327  -0.59939   0.53360  -0.72751
  22   32023.4    312.3   0.018433183   0.18950   0.15236  -0.40741   0.01746
  23   32215.0    310.4   0.017473933   0.17857  -0.06214  -0.40787  -0.09137
  24   32522.8    307.5   0.040135801   0.40627  -0.14084   0.61697  -0.07609
  25   32789.5    305.0   0.087960388   0.88314   0.87509  -0.23861  -0.24581
  26   33186.4    301.3   0.062937165   0.62434  -0.71261   0.27847  -0.19743
  27   33382.1    299.6   0.148977736   1.46921  -0.86958   0.45702  -0.71006
  28   33453.4    298.9   0.066253917   0.65200   0.61269  -0.20760   0.48323
  29   33811.2    295.8   0.044593693   0.43420  -0.52528   0.03276  -0.39649
  30   33975.6    294.3   0.017436254   0.16895   0.31582  -0.21729   0.14830
  31   34025.2    293.9   0.193027068   1.86764  -1.08727   0.20307  -0.80264
  32   34097.7    293.3   0.031825354   0.30727  -0.39272  -0.22080  -0.32294
  33   34142.1    292.9   0.076073583   0.73353   0.69233  -0.08074   0.49769
  34   34469.1    290.1   0.365815861   3.49389  -1.23194   0.10578  -1.40179
  35   34553.5    289.4   0.511739839   4.87565   1.61422  -0.18875   1.49477
  36   34774.0    287.6   0.022803315   0.21588   0.44254   0.07219  -0.12179
  37   34832.2    287.1   0.453337013   4.28466  -1.93942   0.38825  -0.61039
  38   34929.3    286.3   0.017540422   0.16532  -0.10464   0.04976   0.38974
  39   35077.4    285.1   0.004954062   0.04650   0.18213   0.10937  -0.03692
  40   35325.2    283.1   0.143083233   1.33346   1.06171  -0.30677   0.33484
  41   35408.7    282.4   0.004300301   0.03998  -0.06446   0.09615   0.16304
  42   35635.1    280.6   0.023390503   0.21609  -0.11148  -0.24362   0.37988
  43   35916.4    278.4   0.204461926   1.87411   1.11817  -0.36412   0.70088
  44   36087.3    277.1   0.002601222   0.02373   0.12543   0.01834  -0.08752
  45   36338.8    275.2   0.007018017   0.06358  -0.05023  -0.17333   0.17611
  46   36541.4    273.7   0.131122433   1.18132  -0.99564   0.18969  -0.39249
  47   36813.0    271.6   0.060716664   0.54298  -0.26865  -0.52853  -0.43757
  48   36831.9    271.5   0.002895432   0.02588  -0.14606   0.02746   0.06159
  49   37066.6    269.8   0.173626665   1.54209  -0.52553  -0.97260  -0.56564
  50   37116.5    269.4   0.055941522   0.49618   0.37242   0.39901  -0.44528
  51   37461.2    266.9   0.003103428   0.02727  -0.15080  -0.04393  -0.05101
  52   37660.7    265.5   0.031601988   0.27625   0.52028  -0.02960   0.06843
  53   37729.5    265.0   0.033641074   0.29354   0.04795  -0.30955   0.44206
  54   37977.3    263.3   0.003717935   0.03223   0.14346  -0.10747   0.01004
  55   38178.7    261.9   0.001849068   0.01594  -0.01785  -0.04731  -0.11570
  56   38329.9    260.9   0.012045028   0.10345  -0.07401  -0.03656   0.31087
  57   38455.9    260.0   0.066111046   0.56596   0.63284  -0.40249  -0.05901
  58   38588.9    259.1   0.068893892   0.58775   0.15085  -0.17298   0.73149
  59   38734.6    258.2   0.004827849   0.04103   0.15680  -0.05345   0.11658
  60   38941.7    256.8   0.001223336   0.01034  -0.00065   0.07153   0.07228
  61   38983.1    256.5   0.007515733   0.06347   0.18741   0.05233   0.16003
  62   39186.6    255.2   0.010705180   0.08994  -0.27935  -0.02523   0.10612
  63   39280.5    254.6   0.030165254   0.25282   0.45526  -0.21083   0.03326
  64   39491.2    253.2   0.063882319   0.53254  -0.70154   0.10973  -0.16837
  65   39546.8    252.9   0.110014623   0.91583  -0.83590   0.44105  -0.15026
  66   39623.3    252.4   0.112884674   0.93791  -0.92932   0.19095   0.19447
  67   39866.2    250.8   0.037141183   0.30671   0.07616  -0.09115   0.54093
  68   40013.1    249.9   0.224987344   1.85111   0.33763  -0.60736   1.16971
  69   40134.8    249.2   0.019116317   0.15680  -0.39175   0.00230   0.05770
  70   40180.5    248.9   0.007999415   0.06554  -0.21992   0.03886  -0.12516

FINAL SINGLE POINT ENERGY     -5087.050086136324

DIPOLE MOMENT
-------------
                                X             Y             Z
Electronic contribution:     -1.04865       0.08976       3.26725
Nuclear contribution   :     -0.50174       0.38273      -2.66351
                        -----------------------------------------
Total Dipole Moment    :     -1.55039       0.47249       0.60373
                        -----------------------------------------
Magnitude (a.u.)       :      1.72958
Magnitude (Debye)      :      4.39625

Rotational constants in cm-1:     0.001929     0.000241     0.000239
Rotational constants in MHz :    57.820436     7.231362     7.172982

                             ****ORCA TERMINATED NORMALLY****
TOTAL RUN TIME: 0 days 0 hours 21 minutes 0 seconds 200 msec
