                         Program Version 4.2.0 -  RELEASE  -
|  1> # ORCA input file
|  2> # SCF done       -202.053836829161          0.000872096992
|  3> ! CAM-B3LYP def2-SVP def2/J RIJCOSX Grid4 TightSCF
|  4> %maxcore 5000
|  5> %tddft
|  6>     Mode sTDDFT
|  7>     Ethresh 5.0
|  8>     maxcore 5000
|  9> end
| 10>
| 11> %pal
| 12>   nprocs 6
| 13>   end
| 14> * xyz 0 1
| 15>    C        9.95389         5.19892       -15.16362
| 16>    C       10.86192         5.89912       -15.90772
| 17>    F       10.43322         6.65875       -16.93396
| 18>    C       12.23786         5.85992       -15.64637
| 19>    C       12.69176         5.09360       -14.60900
| 20>    C       11.79984         4.35037       -13.80934
| 21>    C       10.40376         4.40539       -14.09057
| 22>    C        9.48814         3.67569       -13.29629
| 23>    C        9.95817         2.91421       -12.26208
| 24>    C       11.35636         2.84950       -11.99485
| 25>    C       12.26020         3.55028       -12.73885
| 26>    C       11.59369         1.93345       -10.85938
| 27>    O       12.64860         1.67164       -10.32395
| 28>    C       10.26576         1.34963       -10.55015
| 29>    C        9.26422         2.10172       -11.26655
| 30>    C        7.95255         2.25527       -10.89287
| 31>    C        7.42152         1.69253        -9.71495
| 32>    N        6.98266         1.29993        -8.72912
| 33>    C        7.03376         3.07401       -11.57573
| 34>    N        6.24526         3.71674       -12.10861
| 35>    C       10.17800         0.22651        -9.77725
| 36>    C        9.15240        -0.73201        -9.71294
| 37>    S        7.94269        -0.96550       -10.97038
| 38>    C        7.23813        -2.31238       -10.14733
| 39>    C        7.87445        -2.57170        -8.98334
| 40>    C        8.97546        -1.70217        -8.73501
| 41>    C        9.56994        -2.05695        -7.49437
| 42>    C        8.89333        -3.10854        -6.94247
| 43>    C        7.74742        -3.52486        -7.84352
| 44>    C        9.16027        -3.75630        -5.68527
| 45>    C        8.29510        -4.70394        -5.18218
| 46>    C        8.53467        -5.29711        -3.92730
| 47>    C        7.80055        -6.22598        -3.20501
| 48>    C        6.52429        -6.87176        -3.63120
| 49>    C        6.65548        -8.40491        -3.69438
| 50>    N        5.68601        -8.93124        -4.63637
| 51>    C        5.35683        -6.42729        -2.73183
| 52>    N        4.08381        -6.87591        -3.27746
| 53>    C        8.50899        -6.43967        -1.96396
| 54>    C        8.22635        -7.19287        -0.88525
| 55>    C        9.12075        -7.22262         0.31061
| 56>    C       10.36150        -6.40172         0.18336
| 57>    C       10.62105        -5.63552        -0.89087
| 58>    C        9.72272        -5.60640        -1.98509
| 59>    C        9.72332        -4.91446        -3.17608
| 60>    C       10.61297        -3.96265        -3.72929
| 61>    C       10.33481        -3.40492        -4.93175
| 62>    C        9.38947        -8.66548         0.65270
| 63>    C       10.52262        -9.30778         0.35612
| 64>    C       10.77911       -10.67458         0.68157
| 65>    S        9.63900       -11.66628         1.55479
| 66>    C       10.69673       -13.04218         1.54202
| 67>    C       11.85142       -12.75912         0.90680
| 68>    C       11.91039       -11.41831         0.40671
| 69>    C       13.15074       -11.24318        -0.26169
| 70>    C       13.89822       -12.38691        -0.16160
| 71>    C       13.12723       -13.46158         0.58068
| 72>    C       15.15272       -12.57409        -0.79256
| 73>    C       16.11490       -13.50875        -0.54498
| 74>    C       17.07241       -13.89663        -1.61624
| 75>    O       17.26078       -13.32335        -2.66464
| 76>    C       17.68001       -15.16018        -1.14961
| 77>    C       18.52813       -16.00287        -1.80747
| 78>    C       18.96841       -17.18072        -1.16191
| 79>    C       18.51623       -17.46522         0.15967
| 80>    C       18.95345       -18.64444         0.79299
| 81>    C       19.80241       -19.48693         0.13076
| 82>    C       20.26035       -19.22422        -1.16730
| 83>    C       19.84443       -18.08430        -1.79736
| 84>    F       20.22109       -20.61392         0.73475
| 85>    C       17.64446       -16.56908         0.82165
| 86>    C       17.23726       -15.43356         0.17717
| 87>    C       16.38648       -14.32980         0.60999
| 88>    C       16.13894       -13.97503         1.91244
| 89>    C       15.58548       -12.72630         2.26498
| 90>    N       15.17673       -11.69991         2.57699
| 91>    C       16.49887       -14.76380         3.02180
| 92>    N       16.74656       -15.38775         3.95328
| 93>    H        8.90087         5.25565       -15.39119
| 94>    H       12.90728         6.43369       -16.26751
| 95>    H       13.74758         5.04743       -14.38784
| 96>    H        8.43681         3.72915       -13.53180
| 97>    H       13.31518         3.49610       -12.51527
| 98>    H       11.06529        -0.00285        -9.19400
| 99>    H        6.39952        -2.80789       -10.59574
|100>    H       10.41416        -1.54471        -7.07272
|101>    H        6.78392        -3.41125        -7.34278
|102>    H        7.84337        -4.56524        -8.16089
|103>    H        7.41354        -4.99011        -5.73485
|104>    H        6.29650        -6.54684        -4.65130
|105>    H        6.55260        -8.82516        -2.68051
|106>    H        7.65574        -8.66119        -4.06052
|107>    H        4.75543        -8.66617        -4.32439
|108>    H        5.73750        -9.94370        -4.66937
|109>    H        5.41293        -5.33119        -2.61356
|110>    H        5.46250        -6.87093        -1.73861
|111>    H        3.91335        -6.42570        -4.17160
|112>    H        3.32497        -6.61978        -2.65458
|113>    H        7.34569        -7.81625        -0.83100
|114>    H        8.53564        -6.80864         1.14971
|115>    H       11.03707        -6.43881         1.02454
|116>    H       11.51798        -5.03491        -0.93628
|117>    H       11.50279        -3.68607        -3.18302
|118>    H       11.01299        -2.68028        -5.35201
|119>    H        8.58391        -9.19822         1.14090
|120>    H       11.32619        -8.78973        -0.15011
|121>    H       10.37227       -13.94811         2.01361
|122>    H       13.46918       -10.33893        -0.74834
|123>    H       13.62409       -13.80695         1.48635
|124>    H       12.97025       -14.33298        -0.06093
|125>    H       15.34000       -11.95026        -1.66211
|126>    H       18.86172       -15.77484        -2.80871
|127>    H       18.62428       -18.87660         1.79382
|128>    H       20.92984       -19.92526        -1.63988
|129>    H       20.18404       -17.86040        -2.79741
|130>    H       17.31119       -16.80851         1.81943
|131> *
|132>
|133>                          ****END OF INPUT****

CARTESIAN COORDINATES (ANGSTROEM)
---------------------------------
  C      9.953890    5.198920  -15.163620
  C     10.861920    5.899120  -15.907720
  F     10.433220    6.658750  -16.933960
  C     12.237860    5.859920  -15.646370
  C     12.691760    5.093600  -14.609000
  C     11.799840    4.350370  -13.809340
  C     10.403760    4.405390  -14.090570
  C      9.488140    3.675690  -13.296290
  C      9.958170    2.914210  -12.262080
  C     11.356360    2.849500  -11.994850
  C     12.260200    3.550280  -12.738850
  C     11.593690    1.933450  -10.859380
  O     12.648600    1.671640  -10.323950
  C     10.265760    1.349630  -10.550150
  C      9.264220    2.101720  -11.266550
  C      7.952550    2.255270  -10.892870
  C      7.421520    1.692530   -9.714950
  N      6.982660    1.299930   -8.729120
  C      7.033760    3.074010  -11.575730
  N      6.245260    3.716740  -12.108610
  C     10.178000    0.226510   -9.777250
  C      9.152400   -0.732010   -9.712940
  S      7.942690   -0.965500  -10.970380
  C      7.238130   -2.312380  -10.147330
  C      7.874450   -2.571700   -8.983340
  C      8.975460   -1.702170   -8.735010
  C      9.569940   -2.056950   -7.494370
  C      8.893330   -3.108540   -6.942470
  C      7.747420   -3.524860   -7.843520
  C      9.160270   -3.756300   -5.685270
  C      8.295100   -4.703940   -5.182180
  C      8.534670   -5.297110   -3.927300
  C      7.800550   -6.225980   -3.205010
  C      6.524290   -6.871760   -3.631200
  C      6.655480   -8.404910   -3.694380
  N      5.686010   -8.931240   -4.636370
  C      5.356830   -6.427290   -2.731830
  N      4.083810   -6.875910   -3.277460
  C      8.508990   -6.439670   -1.963960
  C      8.226350   -7.192870   -0.885250
  C      9.120750   -7.222620    0.310610
  C     10.361500   -6.401720    0.183360
  C     10.621050   -5.635520   -0.890870
  C      9.722720   -5.606400   -1.985090
  C      9.723320   -4.914460   -3.176080
  C     10.612970   -3.962650   -3.729290
  C     10.334810   -3.404920   -4.931750
  C      9.389470   -8.665480    0.652700
  C     10.522620   -9.307780    0.356120
  C     10.779110  -10.674580    0.681570
  S      9.639000  -11.666280    1.554790
  C     10.696730  -13.042180    1.542020
  C     11.851420  -12.759120    0.906800
  C     11.910390  -11.418310    0.406710
  C     13.150740  -11.243180   -0.261690
  C     13.898220  -12.386910   -0.161600
  C     13.127230  -13.461580    0.580680
  C     15.152720  -12.574090   -0.792560
  C     16.114900  -13.508750   -0.544980
  C     17.072410  -13.896630   -1.616240
  O     17.260780  -13.323350   -2.664640
  C     17.680010  -15.160180   -1.149610
  C     18.528130  -16.002870   -1.807470
  C     18.968410  -17.180720   -1.161910
  C     18.516230  -17.465220    0.159670
  C     18.953450  -18.644440    0.792990
  C     19.802410  -19.486930    0.130760
  C     20.260350  -19.224220   -1.167300
  C     19.844430  -18.084300   -1.797360
  F     20.221090  -20.613920    0.734750
  C     17.644460  -16.569080    0.821650
  C     17.237260  -15.433560    0.177170
  C     16.386480  -14.329800    0.609990
  C     16.138940  -13.975030    1.912440
  C     15.585480  -12.726300    2.264980
  N     15.176730  -11.699910    2.576990
  C     16.498870  -14.763800    3.021800
  N     16.746560  -15.387750    3.953280
  H      8.900870    5.255650  -15.391190
  H     12.907280    6.433690  -16.267510
  H     13.747580    5.047430  -14.387840
  H      8.436810    3.729150  -13.531800
  H     13.315180    3.496100  -12.515270
  H     11.065290   -0.002850   -9.194000
  H      6.399520   -2.807890  -10.595740
  H     10.414160   -1.544710   -7.072720
  H      6.783920   -3.411250   -7.342780
  H      7.843370   -4.565240   -8.160890
  H      7.413540   -4.990110   -5.734850
  H      6.296500   -6.546840   -4.651300
  H      6.552600   -8.825160   -2.680510
  H      7.655740   -8.661190   -4.060520
  H      4.755430   -8.666170   -4.324390
  H      5.737500   -9.943700   -4.669370
  H      5.412930   -5.331190   -2.613560
  H      5.462500   -6.870930   -1.738610
  H      3.913350   -6.425700   -4.171600
  H      3.324970   -6.619780   -2.654580
  H      7.345690   -7.816250   -0.831000
  H      8.535640   -6.808640    1.149710
  H     11.037070   -6.438810    1.024540
  H     11.517980   -5.034910   -0.936280
  H     11.502790   -3.686070   -3.183020
  H     11.012990   -2.680280   -5.352010
  H      8.583910   -9.198220    1.140900
  H     11.326190   -8.789730   -0.150110
  H     10.372270  -13.948110    2.013610
  H     13.469180  -10.338930   -0.748340
  H     13.624090  -13.806950    1.486350
  H     12.970250  -14.332980   -0.060930
  H     15.340000  -11.950260   -1.662110
  H     18.861720  -15.774840   -2.808710
  H     18.624280  -18.876600    1.793820
  H     20.929840  -19.925260   -1.639880
  H     20.184040  -17.860400   -2.797410
  H     17.311190  -16.808510    1.819430

 Total Charge           Charge          ....    0
 Multiplicity           Mult            ....    1
 Number of Electrons    NEL             ....  542
 Basis Dimension        Dim             .... 1290

ORBITAL ENERGIES
----------------

  NO   OCC          E(Eh)            E(eV)
   0   2.0000     -88.961717     -2420.7714
   1   2.0000     -88.955333     -2420.5977
   2   2.0000     -24.786521      -674.4755
   3   2.0000     -24.778805      -674.2656
   4   2.0000     -19.213263      -522.8195
   5   2.0000     -19.201729      -522.5056
   6   2.0000     -14.417021      -392.3071
   7   2.0000     -14.414588      -392.2409
   8   2.0000     -14.405016      -391.9804
   9   2.0000     -14.400665      -391.8620
  10   2.0000     -14.394142      -391.6845
  11   2.0000     -14.360401      -390.7664
  12   2.0000     -10.370185      -282.1871
  13   2.0000     -10.365262      -282.0531
  14   2.0000     -10.361906      -281.9618
  15   2.0000     -10.354113      -281.7497
  16   2.0000     -10.343961      -281.4735
  17   2.0000     -10.341095      -281.3955
  18   2.0000     -10.330220      -281.0996
  19   2.0000     -10.329198      -281.0718
  20   2.0000     -10.319523      -280.8085
  21   2.0000     -10.316376      -280.7229
  22   2.0000     -10.315628      -280.7025
  23   2.0000     -10.313673      -280.6493
  24   2.0000     -10.311657      -280.5944
  25   2.0000     -10.307924      -280.4929
  26   2.0000     -10.307564      -280.4831
  27   2.0000     -10.306860      -280.4639
  28   2.0000     -10.306447      -280.4527
  29   2.0000     -10.305539      -280.4280
  30   2.0000     -10.304570      -280.4016
  31   2.0000     -10.303627      -280.3759
  32   2.0000     -10.303418      -280.3703
  33   2.0000     -10.301765      -280.3253
  34   2.0000     -10.301072      -280.3064
  35   2.0000     -10.300586      -280.2932
  36   2.0000     -10.300495      -280.2907
  37   2.0000     -10.299010      -280.2503
  38   2.0000     -10.298635      -280.2401
  39   2.0000     -10.298417      -280.2342
  40   2.0000     -10.297673      -280.2139
  41   2.0000     -10.296163      -280.1728
  42   2.0000     -10.295692      -280.1600
  43   2.0000     -10.295094      -280.1438
  44   2.0000     -10.294402      -280.1249
  45   2.0000     -10.292637      -280.0769
  46   2.0000     -10.292518      -280.0736
  47   2.0000     -10.290789      -280.0266
  48   2.0000     -10.290730      -280.0250
  49   2.0000     -10.290690      -280.0239
  50   2.0000     -10.290411      -280.0163
  51   2.0000     -10.290232      -280.0115
  52   2.0000     -10.290080      -280.0073
  53   2.0000     -10.289736      -279.9980
  54   2.0000     -10.289010      -279.9782
  55   2.0000     -10.288686      -279.9694
  56   2.0000     -10.287074      -279.9255
  57   2.0000     -10.286083      -279.8986
  58   2.0000     -10.284002      -279.8419
  59   2.0000     -10.283486      -279.8279
  60   2.0000     -10.282531      -279.8019
  61   2.0000     -10.282373      -279.7976
  62   2.0000     -10.281489      -279.7735
  63   2.0000     -10.280267      -279.7403
  64   2.0000     -10.279449      -279.7180
  65   2.0000     -10.279423      -279.7173
  66   2.0000     -10.277918      -279.6764
  67   2.0000     -10.277194      -279.6567
  68   2.0000     -10.275925      -279.6221
  69   2.0000     -10.275836      -279.6197
  70   2.0000     -10.273097      -279.5452
  71   2.0000     -10.271532      -279.5026
  72   2.0000     -10.269600      -279.4500
  73   2.0000     -10.267525      -279.3935
  74   2.0000     -10.266536      -279.3666
  75   2.0000     -10.265808      -279.3468
  76   2.0000     -10.264878      -279.3215
  77   2.0000     -10.264413      -279.3089
  78   2.0000      -8.057167      -219.2467
  79   2.0000      -8.050407      -219.0627
  80   2.0000      -6.026546      -163.9907
  81   2.0000      -6.022199      -163.8724
  82   2.0000      -6.020008      -163.8127
  83   2.0000      -6.019375      -163.7955
  84   2.0000      -6.015553      -163.6915
  85   2.0000      -6.012226      -163.6010
  86   2.0000      -1.301414       -35.4133
  87   2.0000      -1.293256       -35.1913
  88   2.0000      -1.128488       -30.7077
  89   2.0000      -1.116467       -30.3806
  90   2.0000      -1.019693       -27.7473
  91   2.0000      -1.008945       -27.4548
  92   2.0000      -1.005199       -27.3529
  93   2.0000      -1.000829       -27.2339
  94   2.0000      -0.999931       -27.2095
  95   2.0000      -0.994186       -27.0532
  96   2.0000      -0.990127       -26.9427
  97   2.0000      -0.987361       -26.8675
  98   2.0000      -0.981175       -26.6991
  99   2.0000      -0.976973       -26.5848
 100   2.0000      -0.975254       -26.5380
 101   2.0000      -0.966785       -26.3076
 102   2.0000      -0.954395       -25.9704
 103   2.0000      -0.948291       -25.8043
 104   2.0000      -0.941723       -25.6256
 105   2.0000      -0.936565       -25.4852
 106   2.0000      -0.926290       -25.2056
 107   2.0000      -0.918228       -24.9863
 108   2.0000      -0.908895       -24.7323
 109   2.0000      -0.899605       -24.4795
 110   2.0000      -0.893189       -24.3049
 111   2.0000      -0.888005       -24.1639
 112   2.0000      -0.886129       -24.1128
 113   2.0000      -0.879285       -23.9266
 114   2.0000      -0.872489       -23.7416
 115   2.0000      -0.870133       -23.6775
 116   2.0000      -0.869240       -23.6532
 117   2.0000      -0.845695       -23.0125
 118   2.0000      -0.839806       -22.8523
 119   2.0000      -0.836113       -22.7518
 120   2.0000      -0.835609       -22.7381
 121   2.0000      -0.831407       -22.6237
 122   2.0000      -0.824804       -22.4440
 123   2.0000      -0.819534       -22.3007
 124   2.0000      -0.818144       -22.2628
 125   2.0000      -0.797541       -21.7022
 126   2.0000      -0.792146       -21.5554
 127   2.0000      -0.782442       -21.2913
 128   2.0000      -0.766426       -20.8555
 129   2.0000      -0.765023       -20.8173
 130   2.0000      -0.760427       -20.6923
 131   2.0000      -0.755912       -20.5694
 132   2.0000      -0.748234       -20.3605
 133   2.0000      -0.737695       -20.0737
 134   2.0000      -0.728914       -19.8348
 135   2.0000      -0.725389       -19.7389
 136   2.0000      -0.718007       -19.5380
 137   2.0000      -0.709688       -19.3116
 138   2.0000      -0.708208       -19.2713
 139   2.0000      -0.700548       -19.0629
 140   2.0000      -0.697532       -18.9808
 141   2.0000      -0.693833       -18.8801
 142   2.0000      -0.682114       -18.5613
 143   2.0000      -0.679707       -18.4958
 144   2.0000      -0.678130       -18.4528
 145   2.0000      -0.669900       -18.2289
 146   2.0000      -0.667454       -18.1624
 147   2.0000      -0.662075       -18.0160
 148   2.0000      -0.658116       -17.9082
 149   2.0000      -0.647954       -17.6317
 150   2.0000      -0.637057       -17.3352
 151   2.0000      -0.635570       -17.2947
 152   2.0000      -0.631123       -17.1737
 153   2.0000      -0.630095       -17.1457
 154   2.0000      -0.626884       -17.0584
 155   2.0000      -0.624398       -16.9907
 156   2.0000      -0.621037       -16.8993
 157   2.0000      -0.615632       -16.7522
 158   2.0000      -0.610062       -16.6006
 159   2.0000      -0.608957       -16.5706
 160   2.0000      -0.600999       -16.3540
 161   2.0000      -0.599545       -16.3144
 162   2.0000      -0.595732       -16.2107
 163   2.0000      -0.591546       -16.0968
 164   2.0000      -0.581543       -15.8246
 165   2.0000      -0.577379       -15.7113
 166   2.0000      -0.568912       -15.4809
 167   2.0000      -0.567769       -15.4498
 168   2.0000      -0.564612       -15.3639
 169   2.0000      -0.560905       -15.2630
 170   2.0000      -0.559737       -15.2312
 171   2.0000      -0.559083       -15.2134
 172   2.0000      -0.558524       -15.1982
 173   2.0000      -0.551135       -14.9971
 174   2.0000      -0.549535       -14.9536
 175   2.0000      -0.549017       -14.9395
 176   2.0000      -0.548380       -14.9222
 177   2.0000      -0.548011       -14.9121
 178   2.0000      -0.547602       -14.9010
 179   2.0000      -0.542493       -14.7620
 180   2.0000      -0.542188       -14.7537
 181   2.0000      -0.536357       -14.5950
 182   2.0000      -0.533900       -14.5281
 183   2.0000      -0.531962       -14.4754
 184   2.0000      -0.525015       -14.2864
 185   2.0000      -0.524326       -14.2676
 186   2.0000      -0.524142       -14.2626
 187   2.0000      -0.523120       -14.2348
 188   2.0000      -0.519840       -14.1456
 189   2.0000      -0.519652       -14.1404
 190   2.0000      -0.517030       -14.0691
 191   2.0000      -0.515510       -14.0277
 192   2.0000      -0.514654       -14.0044
 193   2.0000      -0.510306       -13.8861
 194   2.0000      -0.506034       -13.7699
 195   2.0000      -0.503528       -13.7017
 196   2.0000      -0.502592       -13.6762
 197   2.0000      -0.502162       -13.6645
 198   2.0000      -0.500077       -13.6078
 199   2.0000      -0.494607       -13.4590
 200   2.0000      -0.492621       -13.4049
 201   2.0000      -0.491699       -13.3798
 202   2.0000      -0.489015       -13.3068
 203   2.0000      -0.486892       -13.2490
 204   2.0000      -0.483005       -13.1432
 205   2.0000      -0.482342       -13.1252
 206   2.0000      -0.481657       -13.1066
 207   2.0000      -0.477518       -12.9939
 208   2.0000      -0.474276       -12.9057
 209   2.0000      -0.473603       -12.8874
 210   2.0000      -0.472726       -12.8635
 211   2.0000      -0.471949       -12.8424
 212   2.0000      -0.470986       -12.8162
 213   2.0000      -0.466273       -12.6879
 214   2.0000      -0.463899       -12.6233
 215   2.0000      -0.462911       -12.5964
 216   2.0000      -0.457799       -12.4574
 217   2.0000      -0.456873       -12.4321
 218   2.0000      -0.452646       -12.3171
 219   2.0000      -0.449836       -12.2407
 220   2.0000      -0.448736       -12.2107
 221   2.0000      -0.446909       -12.1610
 222   2.0000      -0.445359       -12.1188
 223   2.0000      -0.443882       -12.0786
 224   2.0000      -0.443090       -12.0571
 225   2.0000      -0.439008       -11.9460
 226   2.0000      -0.438530       -11.9330
 227   2.0000      -0.437691       -11.9102
 228   2.0000      -0.436584       -11.8800
 229   2.0000      -0.430882       -11.7249
 230   2.0000      -0.428990       -11.6734
 231   2.0000      -0.428716       -11.6660
 232   2.0000      -0.428139       -11.6503
 233   2.0000      -0.424992       -11.5646
 234   2.0000      -0.424139       -11.5414
 235   2.0000      -0.418404       -11.3854
 236   2.0000      -0.416905       -11.3446
 237   2.0000      -0.416405       -11.3310
 238   2.0000      -0.415293       -11.3007
 239   2.0000      -0.411961       -11.2100
 240   2.0000      -0.409804       -11.1513
 241   2.0000      -0.407941       -11.1007
 242   2.0000      -0.405159       -11.0249
 243   2.0000      -0.402681       -10.9575
 244   2.0000      -0.401811       -10.9338
 245   2.0000      -0.397693       -10.8218
 246   2.0000      -0.391395       -10.6504
 247   2.0000      -0.387151       -10.5349
 248   2.0000      -0.385641       -10.4938
 249   2.0000      -0.381940       -10.3931
 250   2.0000      -0.378399       -10.2968
 251   2.0000      -0.377474       -10.2716
 252   2.0000      -0.372228       -10.1289
 253   2.0000      -0.368361       -10.0236
 254   2.0000      -0.350616        -9.5407
 255   2.0000      -0.348174        -9.4743
 256   2.0000      -0.336971        -9.1694
 257   2.0000      -0.333302        -9.0696
 258   2.0000      -0.324883        -8.8405
 259   2.0000      -0.321909        -8.7596
 260   2.0000      -0.316161        -8.6032
 261   2.0000      -0.314615        -8.5611
 262   2.0000      -0.305446        -8.3116
 263   2.0000      -0.301646        -8.2082
 264   2.0000      -0.294433        -8.0119
 265   2.0000      -0.293526        -7.9873
 266   2.0000      -0.289042        -7.8652
 267   2.0000      -0.284086        -7.7304
 268   2.0000      -0.267719        -7.2850
 269   2.0000      -0.262360        -7.1392
 270   2.0000      -0.225381        -6.1329
 271   0.0000      -0.097700        -2.6585
 272   0.0000      -0.089936        -2.4473
 273   0.0000      -0.067556        -1.8383
 274   0.0000      -0.056904        -1.5484
 275   0.0000      -0.044681        -1.2158

MULLIKEN ATOMIC CHARGES
-----------------------
   0 C :   -0.097815
   1 C :    0.301470
   2 F :   -0.193760
   3 C :   -0.031938
   4 C :   -0.011270
   5 C :    0.099850
   6 C :    0.101658
   7 C :   -0.086924
   8 C :    0.040866
   9 C :    0.009271
  10 C :   -0.084528
  11 C :    0.141175
  12 O :   -0.152086
  13 C :   -0.147249
  14 C :    0.257593
  15 C :   -0.322532
  16 C :   -0.211960
  17 N :    0.168701
  18 C :   -0.173770
  19 N :    0.144159
  20 C :    0.021575
  21 C :   -0.159662
  22 S :    0.128895
  23 C :   -0.130815
  24 C :   -0.053328
  25 C :    0.176818
  26 C :   -0.056850
  27 C :   -0.127445
  28 C :    0.290185
  29 C :    0.156753
  30 C :   -0.140625
  31 C :    0.065600
  32 C :   -0.021242
  33 C :   -0.054498
  34 C :    0.155711
  35 N :   -0.224448
  36 C :    0.140096
  37 N :   -0.217076
  38 C :    0.093712
  39 C :   -0.117594
  40 C :    0.180502
  41 C :   -0.065724
  42 C :    0.018507
  43 C :   -0.000171
  44 C :    0.036473
  45 C :    0.002383
  46 C :   -0.024645
  47 C :   -0.113288
  48 C :    0.041169
  49 C :   -0.106130
  50 S :    0.106212
  51 C :   -0.151916
  52 C :   -0.060570
  53 C :    0.110200
  54 C :    0.015300
  55 C :   -0.133800
  56 C :    0.310365
  57 C :    0.033887
  58 C :   -0.137517
  59 C :    0.144610
  60 O :   -0.141686
  61 C :    0.006944
  62 C :   -0.078793
  63 C :    0.099575
  64 C :    0.100853
  65 C :   -0.096504
  66 C :    0.303819
  67 C :   -0.034140
  68 C :   -0.007519
  69 F :   -0.190254
  70 C :   -0.086107
  71 C :    0.044209
  72 C :    0.265093
  73 C :   -0.349748
  74 C :   -0.224826
  75 N :    0.177146
  76 C :   -0.169019
  77 N :    0.154433
  78 H :   -0.003535
  79 H :    0.001647
  80 H :   -0.010386
  81 H :   -0.005708
  82 H :   -0.013604
  83 H :    0.020097
  84 H :    0.021274
  85 H :   -0.017098
  86 H :    0.042726
  87 H :    0.040237
  88 H :   -0.034974
  89 H :   -0.030164
  90 H :   -0.031714
  91 H :   -0.000504
  92 H :    0.079668
  93 H :    0.081878
  94 H :   -0.000004
  95 H :   -0.019883
  96 H :    0.102293
  97 H :    0.098036
  98 H :   -0.006379
  99 H :    0.041659
 100 H :   -0.004068
 101 H :   -0.034728
 102 H :   -0.037324
 103 H :   -0.031089
 104 H :    0.004312
 105 H :    0.001446
 106 H :    0.016774
 107 H :   -0.006688
 108 H :    0.049722
 109 H :    0.033189
 110 H :    0.022013
 111 H :   -0.011569
 112 H :   -0.003277
 113 H :    0.004566
 114 H :   -0.009057
 115 H :   -0.005780
Sum of atomic charges:   -0.0000000

LOEWDIN ATOMIC CHARGES
----------------------
   0 C :   -0.043111
   1 C :    0.091833
   2 F :   -0.067869
   3 C :   -0.039814
   4 C :    0.003441
   5 C :   -0.019813
   6 C :    0.002776
   7 C :    0.007973
   8 C :   -0.014984
   9 C :   -0.057690
  10 C :    0.031110
  11 C :    0.081255
  12 O :   -0.154531
  13 C :   -0.110823
  14 C :    0.062001
  15 C :   -0.145958
  16 C :   -0.034282
  17 N :   -0.054991
  18 C :   -0.018706
  19 N :   -0.059215
  20 C :    0.059739
  21 C :   -0.195758
  22 S :    0.447652
  23 C :   -0.148809
  24 C :   -0.052165
  25 C :   -0.005012
  26 C :   -0.026882
  27 C :    0.020144
  28 C :   -0.012062
  29 C :   -0.033727
  30 C :   -0.002895
  31 C :   -0.022760
  32 C :   -0.023794
  33 C :   -0.040214
  34 C :    0.031172
  35 N :   -0.129961
  36 C :    0.026052
  37 N :   -0.104173
  38 C :   -0.018232
  39 C :    0.068524
  40 C :   -0.030932
  41 C :   -0.035285
  42 C :   -0.016505
  43 C :   -0.037554
  44 C :   -0.029322
  45 C :   -0.007448
  46 C :   -0.021492
  47 C :   -0.011855
  48 C :   -0.035113
  49 C :   -0.158268
  50 S :    0.432340
  51 C :   -0.179576
  52 C :   -0.039822
  53 C :   -0.064068
  54 C :    0.051675
  55 C :   -0.035636
  56 C :   -0.009207
  57 C :    0.069536
  58 C :   -0.096158
  59 C :    0.082327
  60 O :   -0.144788
  61 C :   -0.059359
  62 C :    0.034367
  63 C :   -0.019125
  64 C :    0.003183
  65 C :   -0.042579
  66 C :    0.093279
  67 C :   -0.037477
  68 C :    0.005028
  69 F :   -0.064874
  70 C :    0.009272
  71 C :   -0.017461
  72 C :    0.067705
  73 C :   -0.142399
  74 C :   -0.025597
  75 N :   -0.048255
  76 C :   -0.020757
  77 N :   -0.052203
  78 H :    0.042489
  79 H :    0.040828
  80 H :    0.034936
  81 H :    0.038534
  82 H :    0.038590
  83 H :    0.048920
  84 H :    0.028086
  85 H :    0.027102
  86 H :    0.051813
  87 H :    0.050715
  88 H :    0.023721
  89 H :    0.023617
  90 H :   -0.005919
  91 H :    0.017896
  92 H :    0.034975
  93 H :    0.049888
  94 H :    0.005216
  95 H :    0.011918
  96 H :    0.056948
  97 H :    0.058197
  98 H :    0.025019
  99 H :    0.063749
 100 H :    0.026917
 101 H :    0.030607
 102 H :    0.027841
 103 H :    0.025970
 104 H :    0.019388
 105 H :    0.037072
 106 H :    0.025368
 107 H :    0.034104
 108 H :    0.048329
 109 H :    0.048516
 110 H :    0.048491
 111 H :    0.039716
 112 H :    0.042813
 113 H :    0.042077
 114 H :    0.035797
 115 H :    0.038719

  Mayer bond orders larger than 0.100000
B(  0-C ,  1-C ) :   1.4403 B(  0-C ,  6-C ) :   1.2041 B(  0-C , 78-H ) :   1.0065
B(  1-C ,  2-F ) :   1.0853 B(  1-C ,  3-C ) :   1.2569 B(  3-C ,  4-C ) :   1.4595
B(  3-C , 79-H ) :   0.9929 B(  4-C ,  5-C ) :   1.2356 B(  4-C , 80-H ) :   0.9968
B(  5-C ,  6-C ) :   1.2585 B(  5-C , 10-C ) :   1.1895 B(  6-C ,  7-C ) :   1.1995
B(  7-C ,  8-C ) :   1.4679 B(  7-C , 81-H ) :   0.9952 B(  8-C ,  9-C ) :   1.2195
B(  8-C , 14-C ) :   0.9976 B(  9-C , 10-C ) :   1.4764 B(  9-C , 11-C ) :   0.9175
B( 10-C , 82-H ) :   1.0151 B( 11-C , 12-O ) :   2.2639 B( 11-C , 13-C ) :   0.9533
B( 13-C , 14-C ) :   1.0548 B( 13-C , 20-C ) :   1.5959 B( 14-C , 15-C ) :   1.6429
B( 15-C , 16-C ) :   1.1549 B( 15-C , 18-C ) :   1.1384 B( 16-C , 17-N ) :   3.0280
B( 18-C , 19-N ) :   2.9849 B( 20-C , 21-C ) :   1.1817 B( 20-C , 83-H ) :   0.9452
B( 21-C , 22-S ) :   1.0891 B( 21-C , 25-C ) :   1.3493 B( 22-S , 23-C ) :   1.1517
B( 23-C , 24-C ) :   1.5761 B( 23-C , 84-H ) :   0.9764 B( 24-C , 25-C ) :   1.2847
B( 24-C , 28-C ) :   0.9831 B( 25-C , 26-C ) :   1.0919 B( 26-C , 27-C ) :   1.6411
B( 26-C , 85-H ) :   0.9968 B( 27-C , 28-C ) :   1.0566 B( 27-C , 29-C ) :   1.0443
B( 28-C , 86-H ) :   0.8673 B( 28-C , 87-H ) :   0.8750 B( 29-C , 30-C ) :   1.5141
B( 29-C , 46-C ) :   1.1101 B( 30-C , 31-C ) :   1.1236 B( 30-C , 88-H ) :   0.9900
B( 31-C , 32-C ) :   1.5002 B( 31-C , 44-C ) :   1.1115 B( 32-C , 33-C ) :   1.0311
B( 32-C , 38-C ) :   1.0811 B( 33-C , 34-C ) :   1.0259 B( 33-C , 36-C ) :   1.0443
B( 33-C , 89-H ) :   0.8755 B( 34-C , 35-N ) :   1.1087 B( 34-C , 90-H ) :   0.9236
B( 34-C , 91-H ) :   0.9468 B( 35-N , 92-H ) :   0.9433 B( 35-N , 93-H ) :   0.9668
B( 36-C , 37-N ) :   1.0820 B( 36-C , 94-H ) :   0.9469 B( 36-C , 95-H ) :   0.9311
B( 37-N , 92-H ) :   0.1003 B( 37-N , 96-H ) :   0.9623 B( 37-N , 97-H ) :   0.9669
B( 38-C , 39-C ) :   1.6784 B( 38-C , 43-C ) :   1.0487 B( 39-C , 40-C ) :   0.9715
B( 39-C , 98-H ) :   0.9565 B( 40-C , 41-C ) :   1.0037 B( 40-C , 47-C ) :   0.9575
B( 40-C , 99-H ) :   0.8461 B( 41-C , 42-C ) :   1.7121 B( 41-C ,100-H ) :   0.9741
B( 42-C , 43-C ) :   1.1231 B( 42-C ,101-H ) :   0.9920 B( 43-C , 44-C ) :   1.4524
B( 44-C , 45-C ) :   1.1333 B( 45-C , 46-C ) :   1.6229 B( 45-C ,102-H ) :   0.9900
B( 46-C ,103-H ) :   0.9869 B( 47-C , 48-C ) :   1.8223 B( 47-C ,104-H ) :   0.9700
B( 48-C , 49-C ) :   1.1278 B( 48-C ,105-H ) :   0.9553 B( 49-C , 50-S ) :   1.1342
B( 49-C , 53-C ) :   1.4114 B( 50-S , 51-C ) :   1.1152 B( 51-C , 52-C ) :   1.6213
B( 51-C ,106-H ) :   0.9763 B( 52-C , 53-C ) :   1.2472 B( 52-C , 56-C ) :   0.9931
B( 53-C , 54-C ) :   1.0838 B( 54-C , 55-C ) :   1.5897 B( 54-C ,107-H ) :   1.0094
B( 55-C , 56-C ) :   1.0298 B( 55-C , 57-C ) :   1.1308 B( 56-C ,108-H ) :   0.8656
B( 56-C ,109-H ) :   0.8799 B( 57-C , 58-C ) :   1.6063 B( 57-C ,110-H ) :   0.9523
B( 58-C , 59-C ) :   0.9380 B( 58-C , 72-C ) :   1.0546 B( 59-C , 60-O ) :   2.2741
B( 59-C , 61-C ) :   0.9191 B( 61-C , 62-C ) :   1.4746 B( 61-C , 71-C ) :   1.2169
B( 62-C , 63-C ) :   1.1910 B( 62-C ,111-H ) :   1.0146 B( 63-C , 64-C ) :   1.2572
B( 63-C , 68-C ) :   1.2349 B( 64-C , 65-C ) :   1.2035 B( 64-C , 70-C ) :   1.2008
B( 65-C , 66-C ) :   1.4399 B( 65-C ,112-H ) :   1.0063 B( 66-C , 67-C ) :   1.2569
B( 66-C , 69-F ) :   1.0889 B( 67-C , 68-C ) :   1.4601 B( 67-C ,113-H ) :   0.9930
B( 68-C ,114-H ) :   0.9968 B( 70-C , 71-C ) :   1.4632 B( 70-C ,115-H ) :   0.9958
B( 71-C , 72-C ) :   0.9966 B( 72-C , 73-C ) :   1.6418 B( 73-C , 74-C ) :   1.1607
B( 73-C , 76-C ) :   1.1361 B( 74-C , 75-N ) :   3.0148 B( 76-C , 77-N ) :   2.9882

-----------------------------------------------------------------------------
         ABSORPTION SPECTRUM VIA TRANSITION ELECTRIC DIPOLE MOMENTS
-----------------------------------------------------------------------------
State   Energy  Wavelength   fosc         T2         TX        TY        TZ
        (cm-1)    (nm)                  (au**2)     (au)      (au)      (au)
-----------------------------------------------------------------------------
   0   14200.0    704.2   0.116654500   2.70451  -0.64792  -1.40874   0.54786
   1   17026.0    587.3   0.048654636   0.94078  -0.92669   0.15883   0.23832
   2   18182.6    550.0   0.954556728  17.28307   0.86041  -2.96864   2.78028
   3   20476.2    488.4   0.749033320  12.04280  -2.70685   2.14030  -0.36722
   4   21590.5    463.2   0.459353824   7.00422  -0.71020  -2.16019   1.35404
   5   24903.5    401.6   0.108053253   1.42841  -0.16422  -0.14887   1.17443
   6   25828.5    387.2   0.038047348   0.48496  -0.53047  -0.39839  -0.21175
   7   26806.8    373.0   0.111080018   1.36417   0.31556   0.65567  -0.91361
   8   26891.3    371.9   0.018515141   0.22667   0.42067  -0.21870  -0.04331
   9   27131.1    368.6   0.007020213   0.08518   0.01974  -0.20640   0.20541
  10   27271.1    366.7   0.053960528   0.65140  -0.44030   0.61151  -0.28913
  11   27555.8    362.9   0.011900225   0.14217   0.11180  -0.35476   0.06182
  12   27811.8    359.6   0.020480733   0.24243  -0.20945  -0.44511   0.02097
  13   27868.8    358.8   0.055069722   0.65053  -0.29199  -0.28399   0.69615
  14   27885.7    358.6   0.113224730   1.33670   0.15166   0.75297  -0.86414
  15   28251.3    354.0   0.005457825   0.06360  -0.06779   0.23376  -0.06602
  16   28483.1    351.1   0.157099716   1.81578   0.71083   0.71554  -0.89359
  17   29270.3    341.6   0.085508475   0.96174  -0.84046   0.33596   0.37750
  18   29998.0    333.4   0.073148830   0.80277   0.18001   0.54622  -0.68703
  19   30321.0    329.8   0.407789195   4.42760   1.42233  -1.15950  -1.02963
  20   31171.3    320.8   0.071886512   0.75922   0.37672  -0.75822   0.20591
  21   31495.6    317.5   0.250048286   2.61366   0.34392  -0.64556   1.44175
  22   31836.5    314.1   0.001549959   0.01603  -0.11781  -0.04527  -0.00999
  23   32028.8    312.2   0.279445920   2.87232  -1.28023  -0.77009   0.80018
  24   32921.7    303.8   0.252702361   2.52698  -0.79586   1.17859   0.71029
  25   33117.1    302.0   0.555030644   5.51747   1.02557   1.13172  -1.78463
  26   33251.4    300.7   0.042574344   0.42152  -0.55987   0.16658  -0.28340
  27   33292.0    300.4   0.044605374   0.44109   0.08636  -0.44311   0.48712
  28   33490.1    298.6   0.024902750   0.24480  -0.00912   0.18818  -0.45750
  29   34080.6    293.4   0.048127310   0.46490   0.10783   0.39468  -0.54543
  30   34373.9    290.9   0.465679171   4.45999   1.27650  -1.46381  -0.82934
  31   34515.8    289.7   0.067915359   0.64778   0.30281  -0.73598  -0.12005
  32   34679.4    288.4   0.248874227   2.36257  -0.92665  -0.76216   0.96073
  33   35285.9    283.4   0.018930194   0.17662   0.20583   0.29175  -0.22166
  34   35628.5    280.7   0.017586462   0.16250  -0.01179   0.08014  -0.39489
  35   36103.5    277.0   0.022822152   0.20811   0.13498   0.42469  -0.09761
  36   36513.2    273.9   0.147222254   1.32739   0.79681  -0.69332   0.46022
  37   36635.3    273.0   0.132287029   1.18876   0.64564  -0.38622   0.78914
  38   36893.5    271.1   0.138950975   1.23990  -0.61521   0.80751   0.45755
  39   37075.7    269.7   0.087320657   0.77536  -0.52820  -0.23022   0.66586
  40   37459.9    267.0   0.003003486   0.02640  -0.07929  -0.05738   0.12968
  41   37505.9    266.6   0.023375985   0.20519  -0.32221  -0.26059  -0.18292
  42   37616.9    265.8   0.037497046   0.32816  -0.13169  -0.55631   0.03658
  43   37811.0    264.5   0.000226206   0.00197   0.00733   0.02895   0.03283
  44   37966.2    263.4   0.237854615   2.06248  -0.74044  -0.69185   1.01763
  45   38411.4    260.3   0.072820304   0.62412  -0.74096   0.03630  -0.27163
  46   38763.1    258.0   0.003783216   0.03213  -0.04560   0.11497  -0.12974
  47   39003.4    256.4   0.003979163   0.03359   0.01252  -0.18233  -0.01362
  48   39270.1    254.6   0.202813789   1.70025   0.13155   0.26857  -1.26918
  49   39306.4    254.4   0.122125713   1.02287  -0.39476   0.74359  -0.56045
  50   39690.9    251.9   0.056795328   0.47108   0.04283   0.27837  -0.62591
  51   39743.4    251.6   0.062185890   0.51511  -0.68545   0.15275  -0.14811
  52   40220.0    248.6   0.001582345   0.01295   0.10776   0.03604   0.00641

FINAL SINGLE POINT ENERGY     -4008.459466741194

DIPOLE MOMENT
-------------
                                X             Y             Z
Electronic contribution:     45.29220      15.64046     -26.64970
Nuclear contribution   :    -45.63558     -18.61735      26.79244
                        -----------------------------------------
Total Dipole Moment    :     -0.34338      -2.97689       0.14274
                        -----------------------------------------
Magnitude (a.u.)       :      3.00003
Magnitude (Debye)      :      7.62547

Rotational constants in cm-1:     0.001156     0.000169     0.000153
Rotational constants in MHz :    34.662575     5.065355     4.585340

                             ****ORCA TERMINATED NORMALLY****
TOTAL RUN TIME: 0 days 0 hours 12 minutes 17 seconds 845 msec
