                         Program Version 4.2.0 -  RELEASE  -
|  1> # ORCA input file
|  2> # SCF done       -171.273904330666          0.000515885917
|  3> ! CAM-B3LYP def2-SVP def2/J RIJCOSX Grid4 TightSCF
|  4> %maxcore 5000
|  5> %tddft
|  6>     Mode sTDDFT
|  7>     Ethresh 5.0
|  8>     maxcore 5000
|  9> end
| 10>
| 11> %pal
| 12>   nprocs 6
| 13>   end
| 14> * xyz 0 1
| 15>    C      -11.19159        -2.76384        -9.29289
| 16>    C      -10.58761        -3.78998        -8.59424
| 17>    C      -10.02675        -4.93005        -9.20249
| 18>    N       -9.55665        -5.88207        -9.64154
| 19>    C      -10.43570        -3.87225        -7.20112
| 20>    N      -10.25683        -4.03460        -6.07549
| 21>    C      -11.32063        -2.70845       -10.74976
| 22>    C      -12.00429        -1.51820       -11.09684
| 23>    C      -12.27221        -1.16708       -12.39559
| 24>    C      -11.84258        -2.03347       -13.40800
| 25>    C      -11.16265        -3.21994       -13.05294
| 26>    C      -10.89299        -3.57582       -11.73579
| 27>    S      -10.71655        -4.14508       -14.45598
| 28>    C      -11.43922        -2.93766       -15.48492
| 29>    C      -11.98785        -1.89655       -14.81613
| 30>   Br      -11.40021        -3.16462       -17.34749
| 31>    C      -12.33739        -0.77305        -9.86225
| 32>    O      -12.93063         0.28789        -9.80467
| 33>    C      -11.79873        -1.58021        -8.75558
| 34>    C      -11.86062        -1.21883        -7.41962
| 35>    C      -12.44958        -0.06592        -6.92595
| 36>    C      -12.43466         0.25802        -5.57742
| 37>    C      -12.98250         1.40165        -4.96388
| 38>    C      -12.78326         1.46096        -3.60999
| 39>    C      -12.06987         0.36423        -3.09872
| 40>    S      -11.66530        -0.75495        -4.38024
| 41>    C      -11.66530         0.10031        -1.79649
| 42>    C      -11.84861         0.86932        -0.63070
| 43>    C      -11.28781         0.31260         0.48465
| 44>    C      -10.64108        -0.92128         0.25242
| 45>    S      -10.77548        -1.35369        -1.43963
| 46>    C       -9.98109        -1.71524         1.16546
| 47>    C       -9.38299        -2.93516         0.83365
| 48>    O       -9.46785        -3.37425        -0.46847
| 49>    C       -8.84062        -4.55571        -0.50695
| 50>    C       -8.51710        -5.59736        -1.38050
| 51>    C       -8.81518        -5.73003        -2.83078
| 52>    O       -8.48954        -6.70877        -3.47563
| 53>    N       -9.47186        -4.67732        -3.34544
| 54>    C       -7.82527        -6.51901        -0.57000
| 55>    O       -7.71914        -6.07688         0.72664
| 56>    C       -8.34006        -4.88718         0.76595
| 57>    C       -8.68232        -3.85541         1.62971
| 58>    C       -7.30105        -7.77041        -0.94619
| 59>    C       -6.63147        -8.59073        -0.08918
| 60>    C       -6.14475        -9.87457        -0.41332
| 61>    S       -5.24871       -10.77481         0.81241
| 62>    C       -5.08698       -12.10789        -0.25886
| 63>    N       -4.51382       -13.28894        -0.09853
| 64>    C       -4.64385       -14.03214        -1.17303
| 65>    S       -5.52782       -13.23760        -2.51319
| 66>    C       -5.70398       -11.84918        -1.50337
| 67>    C       -6.29067       -10.59521        -1.58981
| 68>    C       -4.14180       -15.33493        -1.25115
| 69>    C       -4.26930       -16.22311        -2.28869
| 70>    C       -3.75425       -17.54742        -2.29851
| 71>    C       -4.03309       -18.24972        -3.42711
| 72>    C       -4.78568       -17.52233        -4.38181
| 73>    S       -5.11449       -15.90249        -3.78644
| 74>    C       -5.23920       -17.95052        -5.60726
| 75>    C       -5.04596       -19.23291        -6.19820
| 76>    C       -5.61721       -19.37599        -7.41342
| 77>    C       -6.31190       -18.21017        -7.88208
| 78>    S       -6.17885       -16.92655        -6.66779
| 79>    C       -6.97225       -18.05807        -9.03754
| 80>    H      -12.79390        -0.25144       -12.62634
| 81>    H      -10.36897        -4.49168       -11.52078
| 82>    H      -12.47388        -1.06512       -15.29326
| 83>    H      -11.40304        -1.88133        -6.69432
| 84>    H      -12.93019         0.61829        -7.60956
| 85>    H      -13.50314         2.14905        -5.53564
| 86>    H      -13.12945         2.26203        -2.98150
| 87>    H      -12.37818         1.80497        -0.63912
| 88>    H      -11.32004         0.75269         1.46570
| 89>    H       -9.91820        -1.39243         2.19290
| 90>    H       -9.72002        -3.88089        -2.78501
| 91>    H       -9.70330        -4.65165        -4.33338
| 92>    H       -8.47742        -3.75128         2.67438
| 93>    H       -7.47802        -8.03470        -1.97792
| 94>    H       -6.45816        -8.25406         0.92437
| 95>    H       -6.80802       -10.21998        -2.45257
| 96>    H       -3.60768       -15.66550        -0.37076
| 97>    H       -3.19809       -17.93149        -1.46183
| 98>    H       -3.72508       -19.26533        -3.59885
| 99>    H       -4.48863       -20.00260        -5.69466
|100>    H       -5.57988       -20.26953        -8.01089
|101>    H       -7.02947       -18.86353        -9.74838
|102>    H       -7.46063       -17.13529        -9.29181
|103> *
|104>
|105>                          ****END OF INPUT****

CARTESIAN COORDINATES (ANGSTROEM)
---------------------------------
  C    -11.191590   -2.763840   -9.292890
  C    -10.587610   -3.789980   -8.594240
  C    -10.026750   -4.930050   -9.202490
  N     -9.556650   -5.882070   -9.641540
  C    -10.435700   -3.872250   -7.201120
  N    -10.256830   -4.034600   -6.075490
  C    -11.320630   -2.708450  -10.749760
  C    -12.004290   -1.518200  -11.096840
  C    -12.272210   -1.167080  -12.395590
  C    -11.842580   -2.033470  -13.408000
  C    -11.162650   -3.219940  -13.052940
  C    -10.892990   -3.575820  -11.735790
  S    -10.716550   -4.145080  -14.455980
  C    -11.439220   -2.937660  -15.484920
  C    -11.987850   -1.896550  -14.816130
  Br   -11.400210   -3.164620  -17.347490
  C    -12.337390   -0.773050   -9.862250
  O    -12.930630    0.287890   -9.804670
  C    -11.798730   -1.580210   -8.755580
  C    -11.860620   -1.218830   -7.419620
  C    -12.449580   -0.065920   -6.925950
  C    -12.434660    0.258020   -5.577420
  C    -12.982500    1.401650   -4.963880
  C    -12.783260    1.460960   -3.609990
  C    -12.069870    0.364230   -3.098720
  S    -11.665300   -0.754950   -4.380240
  C    -11.665300    0.100310   -1.796490
  C    -11.848610    0.869320   -0.630700
  C    -11.287810    0.312600    0.484650
  C    -10.641080   -0.921280    0.252420
  S    -10.775480   -1.353690   -1.439630
  C     -9.981090   -1.715240    1.165460
  C     -9.382990   -2.935160    0.833650
  O     -9.467850   -3.374250   -0.468470
  C     -8.840620   -4.555710   -0.506950
  C     -8.517100   -5.597360   -1.380500
  C     -8.815180   -5.730030   -2.830780
  O     -8.489540   -6.708770   -3.475630
  N     -9.471860   -4.677320   -3.345440
  C     -7.825270   -6.519010   -0.570000
  O     -7.719140   -6.076880    0.726640
  C     -8.340060   -4.887180    0.765950
  C     -8.682320   -3.855410    1.629710
  C     -7.301050   -7.770410   -0.946190
  C     -6.631470   -8.590730   -0.089180
  C     -6.144750   -9.874570   -0.413320
  S     -5.248710  -10.774810    0.812410
  C     -5.086980  -12.107890   -0.258860
  N     -4.513820  -13.288940   -0.098530
  C     -4.643850  -14.032140   -1.173030
  S     -5.527820  -13.237600   -2.513190
  C     -5.703980  -11.849180   -1.503370
  C     -6.290670  -10.595210   -1.589810
  C     -4.141800  -15.334930   -1.251150
  C     -4.269300  -16.223110   -2.288690
  C     -3.754250  -17.547420   -2.298510
  C     -4.033090  -18.249720   -3.427110
  C     -4.785680  -17.522330   -4.381810
  S     -5.114490  -15.902490   -3.786440
  C     -5.239200  -17.950520   -5.607260
  C     -5.045960  -19.232910   -6.198200
  C     -5.617210  -19.375990   -7.413420
  C     -6.311900  -18.210170   -7.882080
  S     -6.178850  -16.926550   -6.667790
  C     -6.972250  -18.058070   -9.037540
  H    -12.793900   -0.251440  -12.626340
  H    -10.368970   -4.491680  -11.520780
  H    -12.473880   -1.065120  -15.293260
  H    -11.403040   -1.881330   -6.694320
  H    -12.930190    0.618290   -7.609560
  H    -13.503140    2.149050   -5.535640
  H    -13.129450    2.262030   -2.981500
  H    -12.378180    1.804970   -0.639120
  H    -11.320040    0.752690    1.465700
  H     -9.918200   -1.392430    2.192900
  H     -9.720020   -3.880890   -2.785010
  H     -9.703300   -4.651650   -4.333380
  H     -8.477420   -3.751280    2.674380
  H     -7.478020   -8.034700   -1.977920
  H     -6.458160   -8.254060    0.924370
  H     -6.808020  -10.219980   -2.452570
  H     -3.607680  -15.665500   -0.370760
  H     -3.198090  -17.931490   -1.461830
  H     -3.725080  -19.265330   -3.598850
  H     -4.488630  -20.002600   -5.694660
  H     -5.579880  -20.269530   -8.010890
  H     -7.029470  -18.863530   -9.748380
  H     -7.460630  -17.135290   -9.291810

 Total Charge           Charge          ....    0
 Multiplicity           Mult            ....    1
 Number of Electrons    NEL             ....  524
 Basis Dimension        Dim             .... 1071

ORBITAL ENERGIES
----------------

  NO   OCC          E(Eh)            E(eV)
   0   2.0000    -482.872971    -13139.6415
   1   2.0000     -88.961763     -2420.7727
   2   2.0000     -88.959670     -2420.7157
   3   2.0000     -88.955220     -2420.5946
   4   2.0000     -88.954408     -2420.5725
   5   2.0000     -88.951604     -2420.4962
   6   2.0000     -88.948374     -2420.4083
   7   2.0000     -88.943548     -2420.2770
   8   2.0000     -62.550695     -1702.0910
   9   2.0000     -56.384626     -1534.3037
  10   2.0000     -56.381945     -1534.2307
  11   2.0000     -56.381904     -1534.2296
  12   2.0000     -19.317717      -525.6618
  13   2.0000     -19.305267      -525.3230
  14   2.0000     -19.192246      -522.2476
  15   2.0000     -19.157493      -521.3019
  16   2.0000     -14.406377      -392.0174
  17   2.0000     -14.403887      -391.9497
  18   2.0000     -14.397021      -391.7629
  19   2.0000     -14.390800      -391.5936
  20   2.0000     -10.359365      -281.8927
  21   2.0000     -10.354837      -281.7695
  22   2.0000     -10.354017      -281.7471
  23   2.0000     -10.348174      -281.5881
  24   2.0000     -10.343510      -281.4612
  25   2.0000     -10.342404      -281.4311
  26   2.0000     -10.342387      -281.4307
  27   2.0000     -10.333995      -281.2023
  28   2.0000     -10.330025      -281.0943
  29   2.0000     -10.321611      -280.8653
  30   2.0000     -10.320397      -280.8323
  31   2.0000     -10.319446      -280.8064
  32   2.0000     -10.319011      -280.7946
  33   2.0000     -10.317839      -280.7627
  34   2.0000     -10.315506      -280.6992
  35   2.0000     -10.314760      -280.6789
  36   2.0000     -10.314125      -280.6616
  37   2.0000     -10.313773      -280.6520
  38   2.0000     -10.313554      -280.6461
  39   2.0000     -10.310934      -280.5748
  40   2.0000     -10.310558      -280.5645
  41   2.0000     -10.309211      -280.5279
  42   2.0000     -10.307119      -280.4710
  43   2.0000     -10.305553      -280.4284
  44   2.0000     -10.300653      -280.2950
  45   2.0000     -10.299886      -280.2741
  46   2.0000     -10.297565      -280.2110
  47   2.0000     -10.296112      -280.1714
  48   2.0000     -10.294119      -280.1172
  49   2.0000     -10.293860      -280.1102
  50   2.0000     -10.291203      -280.0379
  51   2.0000     -10.291129      -280.0359
  52   2.0000     -10.290260      -280.0122
  53   2.0000     -10.289491      -279.9913
  54   2.0000     -10.289430      -279.9896
  55   2.0000     -10.289201      -279.9834
  56   2.0000     -10.287783      -279.9448
  57   2.0000     -10.285864      -279.8926
  58   2.0000     -10.285559      -279.8843
  59   2.0000     -10.284397      -279.8527
  60   2.0000     -10.282016      -279.7879
  61   2.0000     -10.281688      -279.7789
  62   2.0000     -10.281121      -279.7635
  63   2.0000     -10.278668      -279.6968
  64   2.0000     -10.276357      -279.6339
  65   2.0000     -10.272181      -279.5202
  66   2.0000     -10.271238      -279.4946
  67   2.0000     -10.266436      -279.3639
  68   2.0000     -10.264796      -279.3193
  69   2.0000      -8.780129      -238.9195
  70   2.0000      -8.057328      -219.2510
  71   2.0000      -8.055702      -219.2068
  72   2.0000      -8.050428      -219.0633
  73   2.0000      -8.050295      -219.0597
  74   2.0000      -8.047461      -218.9825
  75   2.0000      -8.044519      -218.9025
  76   2.0000      -8.040199      -218.7849
  77   2.0000      -6.616349      -180.0400
  78   2.0000      -6.601889      -179.6465
  79   2.0000      -6.601736      -179.6424
  80   2.0000      -6.027127      -164.0065
  81   2.0000      -6.025405      -163.9596
  82   2.0000      -6.022729      -163.8868
  83   2.0000      -6.021130      -163.8433
  84   2.0000      -6.019946      -163.8111
  85   2.0000      -6.019661      -163.8033
  86   2.0000      -6.018439      -163.7700
  87   2.0000      -6.016901      -163.7282
  88   2.0000      -6.016723      -163.7233
  89   2.0000      -6.015971      -163.7029
  90   2.0000      -6.015787      -163.6979
  91   2.0000      -6.014310      -163.6577
  92   2.0000      -6.012983      -163.6216
  93   2.0000      -6.011956      -163.5936
  94   2.0000      -6.011753      -163.5881
  95   2.0000      -6.010201      -163.5459
  96   2.0000      -6.010007      -163.5406
  97   2.0000      -6.009147      -163.5172
  98   2.0000      -6.006061      -163.4332
  99   2.0000      -6.005343      -163.4137
 100   2.0000      -6.000788      -163.2897
 101   2.0000      -2.732224       -74.3476
 102   2.0000      -2.728174       -74.2374
 103   2.0000      -2.728059       -74.2343
 104   2.0000      -2.716560       -73.9214
 105   2.0000      -2.716545       -73.9209
 106   2.0000      -1.237470       -33.6733
 107   2.0000      -1.215479       -33.0749
 108   2.0000      -1.105332       -30.0776
 109   2.0000      -1.096607       -29.8402
 110   2.0000      -1.062864       -28.9220
 111   2.0000      -1.009152       -27.4604
 112   2.0000      -1.004750       -27.3406
 113   2.0000      -0.998462       -27.1695
 114   2.0000      -0.996875       -27.1264
 115   2.0000      -0.985395       -26.8140
 116   2.0000      -0.977874       -26.6093
 117   2.0000      -0.974667       -26.5220
 118   2.0000      -0.968197       -26.3460
 119   2.0000      -0.966676       -26.3046
 120   2.0000      -0.965245       -26.2656
 121   2.0000      -0.930533       -25.3211
 122   2.0000      -0.925256       -25.1775
 123   2.0000      -0.921881       -25.0857
 124   2.0000      -0.911017       -24.7900
 125   2.0000      -0.900037       -24.4912
 126   2.0000      -0.898684       -24.4544
 127   2.0000      -0.890368       -24.2281
 128   2.0000      -0.888300       -24.1719
 129   2.0000      -0.880554       -23.9611
 130   2.0000      -0.868251       -23.6263
 131   2.0000      -0.867396       -23.6030
 132   2.0000      -0.860757       -23.4224
 133   2.0000      -0.858321       -23.3561
 134   2.0000      -0.849207       -23.1081
 135   2.0000      -0.840271       -22.8649
 136   2.0000      -0.831875       -22.6365
 137   2.0000      -0.827002       -22.5039
 138   2.0000      -0.821534       -22.3551
 139   2.0000      -0.811751       -22.0889
 140   2.0000      -0.809203       -22.0195
 141   2.0000      -0.806409       -21.9435
 142   2.0000      -0.792070       -21.5533
 143   2.0000      -0.774199       -21.0670
 144   2.0000      -0.757614       -20.6157
 145   2.0000      -0.747001       -20.3269
 146   2.0000      -0.738690       -20.1008
 147   2.0000      -0.729069       -19.8390
 148   2.0000      -0.726084       -19.7577
 149   2.0000      -0.722076       -19.6487
 150   2.0000      -0.706038       -19.2123
 151   2.0000      -0.696518       -18.9532
 152   2.0000      -0.685032       -18.6407
 153   2.0000      -0.677897       -18.4465
 154   2.0000      -0.674121       -18.3438
 155   2.0000      -0.671667       -18.2770
 156   2.0000      -0.668649       -18.1949
 157   2.0000      -0.661855       -18.0100
 158   2.0000      -0.651897       -17.7390
 159   2.0000      -0.641653       -17.4603
 160   2.0000      -0.639896       -17.4125
 161   2.0000      -0.636873       -17.3302
 162   2.0000      -0.635230       -17.2855
 163   2.0000      -0.631844       -17.1934
 164   2.0000      -0.625628       -17.0242
 165   2.0000      -0.617110       -16.7924
 166   2.0000      -0.613452       -16.6929
 167   2.0000      -0.612482       -16.6665
 168   2.0000      -0.604319       -16.4444
 169   2.0000      -0.603487       -16.4217
 170   2.0000      -0.602241       -16.3878
 171   2.0000      -0.595314       -16.1993
 172   2.0000      -0.593253       -16.1432
 173   2.0000      -0.584419       -15.9028
 174   2.0000      -0.580585       -15.7985
 175   2.0000      -0.576452       -15.6861
 176   2.0000      -0.575254       -15.6534
 177   2.0000      -0.567986       -15.4557
 178   2.0000      -0.557255       -15.1637
 179   2.0000      -0.556114       -15.1326
 180   2.0000      -0.549570       -14.9546
 181   2.0000      -0.544638       -14.8204
 182   2.0000      -0.543394       -14.7865
 183   2.0000      -0.538443       -14.6518
 184   2.0000      -0.532832       -14.4991
 185   2.0000      -0.530901       -14.4465
 186   2.0000      -0.525253       -14.2929
 187   2.0000      -0.521652       -14.1949
 188   2.0000      -0.519208       -14.1284
 189   2.0000      -0.518832       -14.1181
 190   2.0000      -0.517305       -14.0766
 191   2.0000      -0.515952       -14.0398
 192   2.0000      -0.511220       -13.9110
 193   2.0000      -0.509321       -13.8593
 194   2.0000      -0.507647       -13.8138
 195   2.0000      -0.504412       -13.7258
 196   2.0000      -0.499209       -13.5842
 197   2.0000      -0.497890       -13.5483
 198   2.0000      -0.496068       -13.4987
 199   2.0000      -0.492251       -13.3948
 200   2.0000      -0.491857       -13.3841
 201   2.0000      -0.490318       -13.3422
 202   2.0000      -0.489083       -13.3086
 203   2.0000      -0.483048       -13.1444
 204   2.0000      -0.482677       -13.1343
 205   2.0000      -0.478347       -13.0165
 206   2.0000      -0.476877       -12.9765
 207   2.0000      -0.476201       -12.9581
 208   2.0000      -0.474639       -12.9156
 209   2.0000      -0.474098       -12.9009
 210   2.0000      -0.472726       -12.8635
 211   2.0000      -0.468195       -12.7402
 212   2.0000      -0.467417       -12.7191
 213   2.0000      -0.464755       -12.6466
 214   2.0000      -0.456215       -12.4142
 215   2.0000      -0.453114       -12.3299
 216   2.0000      -0.446504       -12.1500
 217   2.0000      -0.445555       -12.1242
 218   2.0000      -0.444869       -12.1055
 219   2.0000      -0.441123       -12.0036
 220   2.0000      -0.438435       -11.9304
 221   2.0000      -0.435387       -11.8475
 222   2.0000      -0.430913       -11.7257
 223   2.0000      -0.430360       -11.7107
 224   2.0000      -0.428036       -11.6475
 225   2.0000      -0.423986       -11.5373
 226   2.0000      -0.422617       -11.5000
 227   2.0000      -0.422003       -11.4833
 228   2.0000      -0.420952       -11.4547
 229   2.0000      -0.412194       -11.2164
 230   2.0000      -0.410016       -11.1571
 231   2.0000      -0.409372       -11.1396
 232   2.0000      -0.405882       -11.0446
 233   2.0000      -0.402929       -10.9643
 234   2.0000      -0.399092       -10.8598
 235   2.0000      -0.390064       -10.6142
 236   2.0000      -0.389841       -10.6081
 237   2.0000      -0.388823       -10.5804
 238   2.0000      -0.379359       -10.3229
 239   2.0000      -0.374235       -10.1834
 240   2.0000      -0.369882       -10.0650
 241   2.0000      -0.362662        -9.8685
 242   2.0000      -0.360972        -9.8225
 243   2.0000      -0.355983        -9.6868
 244   2.0000      -0.346360        -9.4249
 245   2.0000      -0.346016        -9.4156
 246   2.0000      -0.344781        -9.3820
 247   2.0000      -0.341411        -9.2903
 248   2.0000      -0.335544        -9.1306
 249   2.0000      -0.329572        -8.9681
 250   2.0000      -0.322897        -8.7865
 251   2.0000      -0.317025        -8.6267
 252   2.0000      -0.313670        -8.5354
 253   2.0000      -0.313024        -8.5178
 254   2.0000      -0.307706        -8.3731
 255   2.0000      -0.298073        -8.1110
 256   2.0000      -0.296472        -8.0674
 257   2.0000      -0.284108        -7.7310
 258   2.0000      -0.277043        -7.5387
 259   2.0000      -0.254278        -6.9192
 260   2.0000      -0.224183        -6.1003
 261   2.0000      -0.207086        -5.6351
 262   0.0000      -0.110567        -3.0087
 263   0.0000      -0.077945        -2.1210
 264   0.0000      -0.057125        -1.5544
 265   0.0000      -0.041358        -1.1254
 266   0.0000      -0.026410        -0.7187

MULLIKEN ATOMIC CHARGES
-----------------------
   0 C :    0.340274
   1 C :   -0.387999
   2 C :   -0.191835
   3 N :    0.136239
   4 C :   -0.148445
   5 N :    0.121050
   6 C :    0.011171
   7 C :   -0.007979
   8 C :   -0.080244
   9 C :    0.119391
  10 C :   -0.093820
  11 C :   -0.025013
  12 S :    0.177299
  13 C :   -0.123427
  14 C :    0.034430
  15 Br:    0.010708
  16 C :    0.135323
  17 O :   -0.169484
  18 C :   -0.097293
  19 C :   -0.041691
  20 C :   -0.021469
  21 C :    0.007938
  22 C :    0.018505
  23 C :    0.043029
  24 C :   -0.054824
  25 S :    0.087375
  26 C :   -0.010874
  27 C :    0.015712
  28 C :    0.045764
  29 C :   -0.033180
  30 S :    0.105198
  31 C :   -0.009145
  32 C :    0.167741
  33 O :   -0.242646
  34 C :    0.128488
  35 C :   -0.057646
  36 C :    0.070327
  37 O :   -0.221425
  38 N :   -0.078162
  39 C :    0.113807
  40 O :   -0.204695
  41 C :    0.227511
  42 C :   -0.122415
  43 C :   -0.058772
  44 C :    0.080026
  45 C :   -0.102475
  46 S :    0.133483
  47 C :   -0.071818
  48 N :   -0.049875
  49 C :   -0.081946
  50 S :    0.102033
  51 C :    0.016273
  52 C :   -0.025441
  53 C :    0.010999
  54 C :   -0.027620
  55 C :    0.032859
  56 C :    0.037074
  57 C :   -0.042224
  58 S :    0.073096
  59 C :   -0.061517
  60 C :    0.028704
  61 C :    0.059168
  62 C :   -0.072315
  63 S :    0.095795
  64 C :   -0.018730
  65 H :   -0.017531
  66 H :   -0.011423
  67 H :   -0.007152
  68 H :    0.005337
  69 H :    0.012488
  70 H :   -0.003467
  71 H :   -0.008664
  72 H :   -0.009600
  73 H :   -0.004874
  74 H :    0.002276
  75 H :    0.115739
  76 H :    0.120244
  77 H :    0.003031
  78 H :    0.029697
  79 H :   -0.004512
  80 H :    0.008368
  81 H :    0.001544
  82 H :   -0.009290
  83 H :   -0.011943
  84 H :   -0.008550
  85 H :   -0.006733
  86 H :    0.025231
  87 H :    0.029439
Sum of atomic charges:   -0.0000000

LOEWDIN ATOMIC CHARGES
----------------------
   0 C :    0.078308
   1 C :   -0.173560
   2 C :   -0.020203
   3 N :   -0.072696
   4 C :    0.020685
   5 N :   -0.072953
   6 C :   -0.018133
   7 C :   -0.046740
   8 C :    0.015029
   9 C :   -0.036674
  10 C :   -0.147229
  11 C :   -0.013745
  12 S :    0.425476
  13 C :   -0.276033
  14 C :   -0.071404
  15 Br:    0.126594
  16 C :    0.081189
  17 O :   -0.162541
  18 C :   -0.120133
  19 C :    0.043736
  20 C :   -0.079972
  21 C :   -0.101984
  22 C :   -0.053038
  23 C :   -0.007867
  24 C :   -0.203130
  25 S :    0.405905
  26 C :   -0.146459
  27 C :   -0.049227
  28 C :   -0.010965
  29 C :   -0.167549
  30 S :    0.415316
  31 C :   -0.032718
  32 C :    0.023945
  33 O :   -0.007083
  34 C :    0.025466
  35 C :   -0.118884
  36 C :    0.060539
  37 O :   -0.225541
  38 N :    0.005467
  39 C :    0.097026
  40 O :    0.003730
  41 C :    0.002089
  42 C :   -0.042982
  43 C :   -0.047366
  44 C :   -0.008244
  45 C :   -0.169076
  46 S :    0.423758
  47 C :   -0.185580
  48 N :   -0.111794
  49 C :   -0.112566
  50 S :    0.389419
  51 C :   -0.222070
  52 C :   -0.045203
  53 C :   -0.089383
  54 C :   -0.137086
  55 C :   -0.035145
  56 C :   -0.026129
  57 C :   -0.186035
  58 S :    0.373170
  59 C :   -0.165163
  60 C :   -0.027630
  61 C :   -0.021985
  62 C :   -0.140899
  63 S :    0.364050
  64 C :   -0.062225
  65 H :    0.037951
  66 H :    0.039668
  67 H :    0.037031
  68 H :    0.027200
  69 H :    0.037766
  70 H :    0.037161
  71 H :    0.034430
  72 H :    0.033242
  73 H :    0.036560
  74 H :    0.047954
  75 H :    0.064383
  76 H :    0.057397
  77 H :    0.041278
  78 H :    0.044400
  79 H :    0.030561
  80 H :    0.040937
  81 H :    0.046937
  82 H :    0.034988
  83 H :    0.032606
  84 H :    0.033421
  85 H :    0.035426
  86 H :    0.031004
  87 H :    0.029829

  Mayer bond orders larger than 0.100000
B(  0-C ,  1-C ) :   1.5305 B(  0-C ,  6-C ) :   0.9847 B(  0-C , 18-C ) :   1.1509
B(  1-C ,  2-C ) :   1.1527 B(  1-C ,  4-C ) :   1.1770 B(  2-C ,  3-N ) :   2.9613
B(  4-C ,  5-N ) :   2.8888 B(  5-N , 76-H ) :   0.1327 B(  6-C ,  7-C ) :   1.2788
B(  6-C , 11-C ) :   1.4253 B(  7-C ,  8-C ) :   1.4370 B(  7-C , 16-C ) :   0.9320
B(  8-C ,  9-C ) :   1.2336 B(  8-C , 65-H ) :   1.0157 B(  9-C , 10-C ) :   1.3219
B(  9-C , 14-C ) :   1.1594 B( 10-C , 11-C ) :   1.3148 B( 10-C , 12-S ) :   1.0817
B( 11-C , 66-H ) :   0.9785 B( 12-S , 13-C ) :   1.0861 B( 13-C , 14-C ) :   1.6213
B( 13-C , 15-Br) :   1.0112 B( 14-C , 67-H ) :   0.9998 B( 16-C , 17-O ) :   2.1834
B( 16-C , 18-C ) :   0.9750 B( 18-C , 19-C ) :   1.4184 B( 19-C , 20-C ) :   1.3210
B( 19-C , 68-H ) :   0.9415 B( 20-C , 21-C ) :   1.3555 B( 20-C , 69-H ) :   0.9803
B( 21-C , 22-C ) :   1.2208 B( 21-C , 25-S ) :   1.1010 B( 22-C , 23-C ) :   1.4898
B( 22-C , 70-H ) :   1.0014 B( 23-C , 24-C ) :   1.2643 B( 23-C , 71-H ) :   0.9947
B( 24-C , 25-S ) :   1.0456 B( 24-C , 26-C ) :   1.4064 B( 26-C , 27-C ) :   1.2354
B( 26-C , 30-S ) :   1.0814 B( 27-C , 28-C ) :   1.5367 B( 27-C , 72-H ) :   0.9957
B( 28-C , 29-C ) :   1.1911 B( 28-C , 73-H ) :   0.9993 B( 29-C , 30-S ) :   1.0414
B( 29-C , 31-C ) :   1.4889 B( 31-C , 32-C ) :   1.2597 B( 31-C , 74-H ) :   0.9648
B( 32-C , 33-O ) :   1.0495 B( 32-C , 42-C ) :   1.3186 B( 33-O , 34-C ) :   1.1327
B( 34-C , 35-C ) :   1.2175 B( 34-C , 41-C ) :   1.3145 B( 35-C , 36-C ) :   0.8784
B( 35-C , 39-C ) :   1.3694 B( 36-C , 37-O ) :   2.1025 B( 36-C , 38-N ) :   1.3627
B( 38-N , 75-H ) :   0.9376 B( 38-N , 76-H ) :   0.8802 B( 39-C , 40-O ) :   1.1172
B( 39-C , 43-C ) :   1.2519 B( 40-O , 41-C ) :   1.1266 B( 41-C , 42-C ) :   1.2838
B( 42-C , 77-H ) :   1.0311 B( 43-C , 44-C ) :   1.5790 B( 43-C , 78-H ) :   0.9318
B( 44-C , 45-C ) :   1.1563 B( 44-C , 79-H ) :   0.9689 B( 45-C , 46-S ) :   1.0764
B( 45-C , 52-C ) :   1.4633 B( 46-S , 47-C ) :   1.1045 B( 47-C , 48-N ) :   1.4359
B( 47-C , 51-C ) :   1.3016 B( 48-N , 49-C ) :   1.6049 B( 49-C , 50-S ) :   1.0556
B( 49-C , 53-C ) :   1.1828 B( 50-S , 51-C ) :   1.0680 B( 51-C , 52-C ) :   1.2993
B( 52-C , 80-H ) :   0.9988 B( 53-C , 54-C ) :   1.5410 B( 53-C , 81-H ) :   0.9715
B( 54-C , 55-C ) :   1.1423 B( 54-C , 58-S ) :   1.0494 B( 55-C , 56-C ) :   1.6064
B( 55-C , 82-H ) :   1.0000 B( 56-C , 57-C ) :   1.1712 B( 56-C , 83-H ) :   0.9917
B( 57-C , 58-S ) :   1.0299 B( 57-C , 59-C ) :   1.5561 B( 59-C , 60-C ) :   1.1471
B( 59-C , 63-S ) :   1.0582 B( 60-C , 61-C ) :   1.6658 B( 60-C , 84-H ) :   0.9922
B( 61-C , 62-C ) :   1.0778 B( 61-C , 85-H ) :   0.9927 B( 62-C , 63-S ) :   1.0059
B( 62-C , 64-C ) :   1.8672 B( 64-C , 86-H ) :   0.9509 B( 64-C , 87-H ) :   0.9410

-----------------------------------------------------------------------------
         ABSORPTION SPECTRUM VIA TRANSITION ELECTRIC DIPOLE MOMENTS
-----------------------------------------------------------------------------
State   Energy  Wavelength   fosc         T2         TX        TY        TZ
        (cm-1)    (nm)                  (au**2)     (au)      (au)      (au)
-----------------------------------------------------------------------------
   0    8293.2   1205.8   0.860189010  34.14667  -2.25374   4.01932  -3.59339
   1   14649.9    682.6   1.638460430  36.81947   0.70678  -4.21484  -4.30755
   2   16766.8    596.4   0.853533692  16.75893   0.37427  -3.32606  -2.35716
   3   19626.6    509.5   0.099891704   1.67556   0.45502   0.34910   1.16045
   4   20352.8    491.3   0.568458304   9.19496  -1.84979   2.40131  -0.08331
   5   21794.2    458.8   0.067678203   1.02231   0.79922  -0.35393   0.50823
   6   23145.4    432.1   0.223160472   3.17415  -0.90045   1.45214   0.50463
   7   24287.0    411.7   0.187624213   2.54326  -0.34047   0.18182  -1.54735
   8   25194.7    396.9   0.022365057   0.29224   0.35391  -0.31110  -0.26496
   9   26314.4    380.0   0.070607079   0.88335   0.27907   0.16340   0.88248
  10   26978.8    370.7   0.121886066   1.48733  -0.19984   0.54885   1.07058
  11   27147.6    368.4   0.002496798   0.03028  -0.03210   0.08455   0.14866
  12   27747.0    360.4   0.232603641   2.75979   0.79840  -0.87987   1.16111
  13   28125.0    355.6   0.000065456   0.00077  -0.00042   0.02734   0.00431
  14   28281.6    353.6   0.001252307   0.01458   0.03377   0.04713   0.10590
  15   28353.0    352.7   0.002807983   0.03260  -0.10590   0.14468   0.02138
  16   29239.8    342.0   0.007603425   0.08561   0.12467  -0.25040  -0.08582
  17   29540.4    338.5   0.047162294   0.52560  -0.42243   0.33927  -0.48171
  18   29879.9    334.7   0.128355792   1.41420  -0.28866  -0.00757  -1.15361
  19   30547.2    327.4   0.072950732   0.78620   0.02925   0.18368   0.86695
  20   31238.9    320.1   0.215281786   2.26876  -0.24380   0.12519  -1.48110
  21   31641.0    316.0   0.353178719   3.67468  -0.49647   0.45195  -1.79553
  22   31919.0    313.3   0.012297849   0.12684  -0.21008   0.10893   0.26616
  23   31926.8    313.2   0.001754686   0.01809   0.11176  -0.04923  -0.05639
  24   32586.5    306.9   0.009862253   0.09964  -0.17914   0.07554  -0.24868
  25   32875.0    304.2   0.084704352   0.84823   0.24895  -0.29803  -0.83513
  26   33230.1    300.9   0.002101205   0.02082  -0.02812   0.03096  -0.13809
  27   33389.9    299.5   0.027612701   0.27225  -0.02710   0.23849  -0.46329
  28   33561.9    298.0   0.128711873   1.26255  -0.39727   0.34786  -0.99183
  29   34042.7    293.7   0.031223829   0.30195  -0.24440   0.49124   0.03002
  30   34607.7    289.0   0.003371682   0.03207   0.09263  -0.14555  -0.04804
  31   35009.5    285.6   0.059921332   0.56347  -0.29370   0.52927  -0.44394
  32   35054.8    285.3   0.010364894   0.09734  -0.13664   0.23310  -0.15599
  33   35253.9    283.7   0.006493799   0.06064   0.00457   0.07114   0.23571
  34   35379.6    282.6   0.000413249   0.00385  -0.05048  -0.00612  -0.03549
  35   36299.8    275.5   0.020943751   0.18994  -0.08106   0.34586   0.25249
  36   36501.3    274.0   0.080182141   0.72318   0.39844  -0.71280   0.23736
  37   37235.0    268.6   0.165664031   1.46471   0.45091  -0.64077   0.92239
  38   37448.3    267.0   0.047143902   0.41445  -0.16476   0.58553   0.21085
  39   37765.7    264.8   0.075087392   0.65455   0.31469  -0.42208   0.61430
  40   38066.1    262.7   0.012582304   0.10882   0.01489   0.01843   0.32902
  41   38356.4    260.7   0.014048944   0.12058  -0.23949   0.22960  -0.10253
  42   38598.9    259.1   0.029401607   0.25077  -0.26650   0.26527  -0.33072
  43   38732.1    258.2   0.097195213   0.82613   0.37186   0.12393   0.82006
  44   39028.5    256.2   0.051205391   0.43193  -0.25644   0.60103  -0.07017
  45   39420.5    253.7   0.031716645   0.26487   0.12677  -0.42742  -0.25713
  46   39619.5    252.4   0.058192119   0.48354  -0.34651   0.18369  -0.57422

FINAL SINGLE POINT ENERGY     -7758.285968427931

DIPOLE MOMENT
-------------
                                X             Y             Z
Electronic contribution:    -24.51876      46.37843    -130.04358
Nuclear contribution   :     24.40617     -46.30303     132.85695
                        -----------------------------------------
Total Dipole Moment    :     -0.11260       0.07540       2.81337
                        -----------------------------------------
Magnitude (a.u.)       :      2.81663
Magnitude (Debye)      :      7.15930

Rotational constants in cm-1:     0.000612     0.000313     0.000209
Rotational constants in MHz :    18.346566     9.393017     6.269642

                             ****ORCA TERMINATED NORMALLY****
TOTAL RUN TIME: 0 days 0 hours 14 minutes 11 seconds 201 msec
