                         Program Version 4.2.0 -  RELEASE  -
|  1> # ORCA input file
|  2> # SCF done       -195.185376702433          0.004236955853
|  3> ! CAM-B3LYP def2-SVP def2/J RIJCOSX Grid4 TightSCF
|  4> %maxcore 5000
|  5> %tddft
|  6>     Mode sTDDFT
|  7>     Ethresh 5.0
|  8>     maxcore 5000
|  9> end
| 10>
| 11> %pal
| 12>   nprocs 6
| 13>   end
| 14> * xyz 0 1
| 15>    C      -17.70738        -9.72440         3.90577
| 16>    C      -16.52986       -10.24353         3.40830
| 17>    C      -16.05661       -11.54004         3.68374
| 18>    N      -15.61458       -12.58224         3.88240
| 19>    C      -15.65115        -9.58936         2.52958
| 20>    N      -14.88243        -9.16496         1.78688
| 21>    C      -18.68003       -10.46853         4.70396
| 22>    C      -19.80589        -9.63985         4.92996
| 23>    C      -20.90930       -10.06505         5.62628
| 24>    C      -20.90210       -11.37281         6.12763
| 25>    C      -19.76928       -12.18812         5.90540
| 26>    C      -18.65173       -11.75747         5.19867
| 27>    S      -19.96775       -13.76581         6.60855
| 28>    C      -21.55310       -13.31465         7.17870
| 29>    C      -21.91455       -12.04846         6.86417
| 30>   Br      -22.58200       -14.56057         8.13390
| 31>    C      -19.56727        -8.31829         4.30470
| 32>    O      -20.33181        -7.37195         4.31293
| 33>    C      -18.22838        -8.40405         3.69844
| 34>    C      -17.56823        -7.34976         3.08820
| 35>    C      -18.09409        -6.08565         2.87819
| 36>    C      -17.36410        -5.05468         2.30531
| 37>    C      -17.81242        -3.75127         2.01944
| 38>    C      -16.86199        -2.94139         1.45643
| 39>    C      -15.61861        -3.56998         1.28260
| 40>    S      -15.68744        -5.22744         1.84023
| 41>    C      -14.44102        -3.03616         0.77279
| 42>    C      -14.20679        -1.75658         0.24095
| 43>    C      -12.91507        -1.56036        -0.16239
| 44>    C      -12.05903        -2.66841         0.02499
| 45>    S      -12.97678        -3.98128         0.73853
| 46>    C      -10.70108        -2.62863        -0.23622
| 47>    C       -9.66538        -3.55056        -0.10689
| 48>    S       -8.05041        -2.85167        -0.17988
| 49>    C       -9.56410        -4.94920         0.07201
| 50>    C      -10.58014        -5.90742         0.00535
| 51>    C      -10.32145        -7.25511         0.13537
| 52>    O      -11.29332        -8.19077         0.07958
| 53>    C      -12.64591        -7.78053         0.03475
| 54>    C       -8.97027        -7.70574         0.31756
| 55>    O       -8.56131        -8.98980         0.42945
| 56>    C       -9.46564       -10.06107         0.61516
| 57>    C       -7.95507        -6.77710         0.34247
| 58>    C       -8.21869        -5.40443         0.20154
| 59>    C       -7.28297        -4.37658         0.07038
| 60>    N       -5.91795        -4.48873         0.06308
| 61>    C       -5.11714        -3.72478        -0.74740
| 62>    S       -3.59938        -3.11580        -0.17091
| 63>    C       -3.40986        -2.23164        -1.65152
| 64>    N       -2.23905        -1.48437        -1.81685
| 65>    O       -2.11537        -0.84459        -2.84447
| 66>    O       -1.42709        -1.52846        -0.90789
| 67>    C       -4.45412        -2.39814        -2.52435
| 68>    C       -5.43237        -3.27746        -2.03447
| 69>    C       -6.60122        -3.73500        -2.75982
| 70>    C       -7.01577        -5.01336        -2.66633
| 71>    C       -8.27991        -5.52467        -3.07299
| 72>    S       -9.58652        -4.41971        -3.32567
| 73>    C      -10.77206        -5.66622        -3.40285
| 74>    C      -10.17675        -6.91830        -3.23857
| 75>    C       -8.74769        -6.84448        -3.08454
| 76>    C       -8.02889        -8.06855        -2.98611
| 77>    C       -6.52875        -8.13095        -3.03152
| 78>    F       -5.99367        -7.30964        -3.95171
| 79>    F       -5.93327        -7.81683        -1.85718
| 80>    F       -6.07795        -9.35593        -3.33459
| 81>    C       -8.70713        -9.25738        -2.91207
| 82>    C      -10.11145        -9.30085        -2.94577
| 83>    C      -10.83531        -8.16180        -3.12813
| 84>    C      -12.14261        -5.27820        -3.60504
| 85>    C      -13.10727        -6.00864        -4.16315
| 86>    H      -21.75512        -9.41276         5.77929
| 87>    H      -17.81319       -12.41850         5.05612
| 88>    H      -22.85665       -11.60819         7.13691
| 89>    H      -16.55009        -7.51595         2.75488
| 90>    H      -19.11389        -5.88248         3.17038
| 91>    H      -18.82078        -3.44627         2.23501
| 92>    H      -17.02990        -1.91685         1.17646
| 93>    H      -14.98276        -1.01679         0.16608
| 94>    H      -12.55254        -0.64185        -0.58949
| 95>    H      -10.36134        -1.64485        -0.54483
| 96>    H      -11.58412        -5.58620        -0.19247
| 97>    H      -12.88681        -7.10313         0.85721
| 98>    H      -13.23262        -8.68898         0.14889
| 99>    H      -12.88394        -7.29808        -0.91757
|100>    H      -10.10038       -10.20879        -0.26075
|101>    H      -10.09332        -9.91303         1.49802
|102>    H       -8.82996       -10.93626         0.76229
|103>    H       -6.94477        -7.13784         0.44459
|104>    H       -5.48345        -5.12461         0.71843
|105>    H       -4.48171        -1.93410        -3.49333
|106>    H       -7.14202        -3.00906        -3.35080
|107>    H       -6.36838        -5.70639        -2.15506
|108>    H       -8.15828       -10.18243        -2.83340
|109>    H      -10.60714       -10.25452        -2.85415
|110>    H      -11.91089        -8.19977        -3.16750
|111>    H      -12.36261        -4.26176        -3.29874
|112>    H      -12.93787        -6.99403        -4.55961
|113>    H      -14.10362        -5.61595        -4.26875
|114> *
|115>
|116>                          ****END OF INPUT****

CARTESIAN COORDINATES (ANGSTROEM)
---------------------------------
  C    -17.707380   -9.724400    3.905770
  C    -16.529860  -10.243530    3.408300
  C    -16.056610  -11.540040    3.683740
  N    -15.614580  -12.582240    3.882400
  C    -15.651150   -9.589360    2.529580
  N    -14.882430   -9.164960    1.786880
  C    -18.680030  -10.468530    4.703960
  C    -19.805890   -9.639850    4.929960
  C    -20.909300  -10.065050    5.626280
  C    -20.902100  -11.372810    6.127630
  C    -19.769280  -12.188120    5.905400
  C    -18.651730  -11.757470    5.198670
  S    -19.967750  -13.765810    6.608550
  C    -21.553100  -13.314650    7.178700
  C    -21.914550  -12.048460    6.864170
  Br   -22.582000  -14.560570    8.133900
  C    -19.567270   -8.318290    4.304700
  O    -20.331810   -7.371950    4.312930
  C    -18.228380   -8.404050    3.698440
  C    -17.568230   -7.349760    3.088200
  C    -18.094090   -6.085650    2.878190
  C    -17.364100   -5.054680    2.305310
  C    -17.812420   -3.751270    2.019440
  C    -16.861990   -2.941390    1.456430
  C    -15.618610   -3.569980    1.282600
  S    -15.687440   -5.227440    1.840230
  C    -14.441020   -3.036160    0.772790
  C    -14.206790   -1.756580    0.240950
  C    -12.915070   -1.560360   -0.162390
  C    -12.059030   -2.668410    0.024990
  S    -12.976780   -3.981280    0.738530
  C    -10.701080   -2.628630   -0.236220
  C     -9.665380   -3.550560   -0.106890
  S     -8.050410   -2.851670   -0.179880
  C     -9.564100   -4.949200    0.072010
  C    -10.580140   -5.907420    0.005350
  C    -10.321450   -7.255110    0.135370
  O    -11.293320   -8.190770    0.079580
  C    -12.645910   -7.780530    0.034750
  C     -8.970270   -7.705740    0.317560
  O     -8.561310   -8.989800    0.429450
  C     -9.465640  -10.061070    0.615160
  C     -7.955070   -6.777100    0.342470
  C     -8.218690   -5.404430    0.201540
  C     -7.282970   -4.376580    0.070380
  N     -5.917950   -4.488730    0.063080
  C     -5.117140   -3.724780   -0.747400
  S     -3.599380   -3.115800   -0.170910
  C     -3.409860   -2.231640   -1.651520
  N     -2.239050   -1.484370   -1.816850
  O     -2.115370   -0.844590   -2.844470
  O     -1.427090   -1.528460   -0.907890
  C     -4.454120   -2.398140   -2.524350
  C     -5.432370   -3.277460   -2.034470
  C     -6.601220   -3.735000   -2.759820
  C     -7.015770   -5.013360   -2.666330
  C     -8.279910   -5.524670   -3.072990
  S     -9.586520   -4.419710   -3.325670
  C    -10.772060   -5.666220   -3.402850
  C    -10.176750   -6.918300   -3.238570
  C     -8.747690   -6.844480   -3.084540
  C     -8.028890   -8.068550   -2.986110
  C     -6.528750   -8.130950   -3.031520
  F     -5.993670   -7.309640   -3.951710
  F     -5.933270   -7.816830   -1.857180
  F     -6.077950   -9.355930   -3.334590
  C     -8.707130   -9.257380   -2.912070
  C    -10.111450   -9.300850   -2.945770
  C    -10.835310   -8.161800   -3.128130
  C    -12.142610   -5.278200   -3.605040
  C    -13.107270   -6.008640   -4.163150
  H    -21.755120   -9.412760    5.779290
  H    -17.813190  -12.418500    5.056120
  H    -22.856650  -11.608190    7.136910
  H    -16.550090   -7.515950    2.754880
  H    -19.113890   -5.882480    3.170380
  H    -18.820780   -3.446270    2.235010
  H    -17.029900   -1.916850    1.176460
  H    -14.982760   -1.016790    0.166080
  H    -12.552540   -0.641850   -0.589490
  H    -10.361340   -1.644850   -0.544830
  H    -11.584120   -5.586200   -0.192470
  H    -12.886810   -7.103130    0.857210
  H    -13.232620   -8.688980    0.148890
  H    -12.883940   -7.298080   -0.917570
  H    -10.100380  -10.208790   -0.260750
  H    -10.093320   -9.913030    1.498020
  H     -8.829960  -10.936260    0.762290
  H     -6.944770   -7.137840    0.444590
  H     -5.483450   -5.124610    0.718430
  H     -4.481710   -1.934100   -3.493330
  H     -7.142020   -3.009060   -3.350800
  H     -6.368380   -5.706390   -2.155060
  H     -8.158280  -10.182430   -2.833400
  H    -10.607140  -10.254520   -2.854150
  H    -11.910890   -8.199770   -3.167500
  H    -12.362610   -4.261760   -3.298740
  H    -12.937870   -6.994030   -4.559610
  H    -14.103620   -5.615950   -4.268750

 Total Charge           Charge          ....    0
 Multiplicity           Mult            ....    1
 Number of Electrons    NEL             ....  566
 Basis Dimension        Dim             .... 1176

ORBITAL ENERGIES
----------------

  NO   OCC          E(Eh)            E(eV)
   0   2.0000    -482.873647    -13139.6600
   1   2.0000     -88.988414     -2421.4978
   2   2.0000     -88.983839     -2421.3734
   3   2.0000     -88.978777     -2421.2356
   4   2.0000     -88.970369     -2421.0068
   5   2.0000     -88.960214     -2420.7305
   6   2.0000     -88.956409     -2420.6269
   7   2.0000     -62.551334     -1702.1083
   8   2.0000     -56.385265     -1534.3211
   9   2.0000     -56.382588     -1534.2482
  10   2.0000     -56.382545     -1534.2471
  11   2.0000     -24.806711      -675.0249
  12   2.0000     -24.803536      -674.9385
  13   2.0000     -24.802720      -674.9163
  14   2.0000     -19.261775      -524.1396
  15   2.0000     -19.252367      -523.8835
  16   2.0000     -19.239546      -523.5347
  17   2.0000     -19.239101      -523.5226
  18   2.0000     -19.191141      -522.2175
  19   2.0000     -14.651113      -398.6770
  20   2.0000     -14.492006      -394.3475
  21   2.0000     -14.400478      -391.8569
  22   2.0000     -14.391986      -391.6259
  23   2.0000     -10.522936      -286.3437
  24   2.0000     -10.372851      -282.2596
  25   2.0000     -10.369421      -282.1663
  26   2.0000     -10.359312      -281.8912
  27   2.0000     -10.352316      -281.7008
  28   2.0000     -10.347106      -281.5591
  29   2.0000     -10.343890      -281.4716
  30   2.0000     -10.341369      -281.4029
  31   2.0000     -10.336384      -281.2673
  32   2.0000     -10.323400      -280.9140
  33   2.0000     -10.323028      -280.9039
  34   2.0000     -10.322717      -280.8954
  35   2.0000     -10.320203      -280.8270
  36   2.0000     -10.317277      -280.7474
  37   2.0000     -10.317135      -280.7435
  38   2.0000     -10.316853      -280.7358
  39   2.0000     -10.315333      -280.6945
  40   2.0000     -10.314367      -280.6682
  41   2.0000     -10.313266      -280.6382
  42   2.0000     -10.312062      -280.6055
  43   2.0000     -10.311653      -280.5943
  44   2.0000     -10.308846      -280.5180
  45   2.0000     -10.308193      -280.5002
  46   2.0000     -10.307697      -280.4867
  47   2.0000     -10.307398      -280.4786
  48   2.0000     -10.305672      -280.4316
  49   2.0000     -10.305046      -280.4145
  50   2.0000     -10.303721      -280.3785
  51   2.0000     -10.302636      -280.3490
  52   2.0000     -10.299674      -280.2684
  53   2.0000     -10.298117      -280.2260
  54   2.0000     -10.297752      -280.2161
  55   2.0000     -10.297264      -280.2028
  56   2.0000     -10.297064      -280.1974
  57   2.0000     -10.296199      -280.1738
  58   2.0000     -10.293544      -280.1016
  59   2.0000     -10.292687      -280.0783
  60   2.0000     -10.289527      -279.9923
  61   2.0000     -10.288563      -279.9660
  62   2.0000     -10.288562      -279.9660
  63   2.0000     -10.287292      -279.9314
  64   2.0000     -10.286801      -279.9181
  65   2.0000     -10.286041      -279.8974
  66   2.0000     -10.285712      -279.8885
  67   2.0000     -10.284785      -279.8632
  68   2.0000     -10.283364      -279.8246
  69   2.0000     -10.282635      -279.8047
  70   2.0000     -10.282449      -279.7997
  71   2.0000     -10.281934      -279.7857
  72   2.0000     -10.271300      -279.4963
  73   2.0000     -10.263856      -279.2937
  74   2.0000     -10.262822      -279.2656
  75   2.0000      -8.780741      -238.9361
  76   2.0000      -8.084189      -219.9820
  77   2.0000      -8.078850      -219.8367
  78   2.0000      -8.073290      -219.6854
  79   2.0000      -8.065866      -219.4834
  80   2.0000      -8.056170      -219.2195
  81   2.0000      -8.052236      -219.1125
  82   2.0000      -6.616938      -180.0560
  83   2.0000      -6.602504      -179.6633
  84   2.0000      -6.602361      -179.6594
  85   2.0000      -6.053745      -164.7308
  86   2.0000      -6.049386      -164.6122
  87   2.0000      -6.048150      -164.5785
  88   2.0000      -6.045780      -164.5141
  89   2.0000      -6.044050      -164.4670
  90   2.0000      -6.042121      -164.4145
  91   2.0000      -6.040912      -164.3816
  92   2.0000      -6.038017      -164.3028
  93   2.0000      -6.036508      -164.2617
  94   2.0000      -6.035475      -164.2336
  95   2.0000      -6.031316      -164.1204
  96   2.0000      -6.027227      -164.0092
  97   2.0000      -6.025861      -163.9720
  98   2.0000      -6.021767      -163.8606
  99   2.0000      -6.021614      -163.8564
 100   2.0000      -6.017775      -163.7520
 101   2.0000      -6.017407      -163.7420
 102   2.0000      -6.013612      -163.6387
 103   2.0000      -2.732852       -74.3647
 104   2.0000      -2.728742       -74.2528
 105   2.0000      -2.728665       -74.2507
 106   2.0000      -2.717177       -73.9381
 107   2.0000      -2.717159       -73.9377
 108   2.0000      -1.394277       -37.9402
 109   2.0000      -1.320559       -35.9342
 110   2.0000      -1.295511       -35.2526
 111   2.0000      -1.294964       -35.2377
 112   2.0000      -1.172121       -31.8950
 113   2.0000      -1.148560       -31.2539
 114   2.0000      -1.139472       -31.0066
 115   2.0000      -1.104199       -30.0468
 116   2.0000      -1.100604       -29.9489
 117   2.0000      -1.018116       -27.7043
 118   2.0000      -1.012152       -27.5420
 119   2.0000      -1.011002       -27.5108
 120   2.0000      -1.004124       -27.3236
 121   2.0000      -0.997569       -27.1452
 122   2.0000      -0.996239       -27.1090
 123   2.0000      -0.984870       -26.7997
 124   2.0000      -0.976375       -26.5685
 125   2.0000      -0.968171       -26.3453
 126   2.0000      -0.953403       -25.9434
 127   2.0000      -0.944212       -25.6933
 128   2.0000      -0.927176       -25.2298
 129   2.0000      -0.924890       -25.1675
 130   2.0000      -0.914047       -24.8725
 131   2.0000      -0.904788       -24.6205
 132   2.0000      -0.896338       -24.3906
 133   2.0000      -0.889804       -24.2128
 134   2.0000      -0.882715       -24.0199
 135   2.0000      -0.876931       -23.8625
 136   2.0000      -0.871449       -23.7133
 137   2.0000      -0.867691       -23.6111
 138   2.0000      -0.862734       -23.4762
 139   2.0000      -0.858626       -23.3644
 140   2.0000      -0.857466       -23.3328
 141   2.0000      -0.856185       -23.2980
 142   2.0000      -0.843946       -22.9649
 143   2.0000      -0.839029       -22.8311
 144   2.0000      -0.832948       -22.6657
 145   2.0000      -0.820703       -22.3325
 146   2.0000      -0.811583       -22.0843
 147   2.0000      -0.808192       -21.9920
 148   2.0000      -0.800794       -21.7907
 149   2.0000      -0.788661       -21.4606
 150   2.0000      -0.784029       -21.3345
 151   2.0000      -0.778377       -21.1807
 152   2.0000      -0.769642       -20.9430
 153   2.0000      -0.752109       -20.4659
 154   2.0000      -0.738478       -20.0950
 155   2.0000      -0.733671       -19.9642
 156   2.0000      -0.726593       -19.7716
 157   2.0000      -0.725510       -19.7421
 158   2.0000      -0.714194       -19.4342
 159   2.0000      -0.712335       -19.3836
 160   2.0000      -0.706823       -19.2336
 161   2.0000      -0.699288       -19.0286
 162   2.0000      -0.688776       -18.7425
 163   2.0000      -0.682211       -18.5639
 164   2.0000      -0.678102       -18.4521
 165   2.0000      -0.677350       -18.4316
 166   2.0000      -0.676441       -18.4069
 167   2.0000      -0.670149       -18.2357
 168   2.0000      -0.664109       -18.0713
 169   2.0000      -0.656540       -17.8653
 170   2.0000      -0.650981       -17.7141
 171   2.0000      -0.648513       -17.6469
 172   2.0000      -0.641025       -17.4432
 173   2.0000      -0.639818       -17.4103
 174   2.0000      -0.635423       -17.2907
 175   2.0000      -0.632328       -17.2065
 176   2.0000      -0.627522       -17.0757
 177   2.0000      -0.625580       -17.0229
 178   2.0000      -0.622541       -16.9402
 179   2.0000      -0.615202       -16.7405
 180   2.0000      -0.614108       -16.7107
 181   2.0000      -0.610562       -16.6142
 182   2.0000      -0.604316       -16.4443
 183   2.0000      -0.603569       -16.4240
 184   2.0000      -0.599993       -16.3266
 185   2.0000      -0.591617       -16.0987
 186   2.0000      -0.581184       -15.8148
 187   2.0000      -0.579797       -15.7771
 188   2.0000      -0.577160       -15.7053
 189   2.0000      -0.575140       -15.6504
 190   2.0000      -0.573232       -15.5984
 191   2.0000      -0.569634       -15.5005
 192   2.0000      -0.564566       -15.3626
 193   2.0000      -0.560923       -15.2635
 194   2.0000      -0.556673       -15.1478
 195   2.0000      -0.554964       -15.1013
 196   2.0000      -0.554293       -15.0831
 197   2.0000      -0.552320       -15.0294
 198   2.0000      -0.546166       -14.8619
 199   2.0000      -0.543648       -14.7934
 200   2.0000      -0.540989       -14.7211
 201   2.0000      -0.536605       -14.6018
 202   2.0000      -0.535681       -14.5766
 203   2.0000      -0.531036       -14.4502
 204   2.0000      -0.526839       -14.3360
 205   2.0000      -0.524978       -14.2854
 206   2.0000      -0.520220       -14.1559
 207   2.0000      -0.518473       -14.1084
 208   2.0000      -0.515876       -14.0377
 209   2.0000      -0.513978       -13.9861
 210   2.0000      -0.512848       -13.9553
 211   2.0000      -0.510825       -13.9003
 212   2.0000      -0.509022       -13.8512
 213   2.0000      -0.506843       -13.7919
 214   2.0000      -0.506072       -13.7709
 215   2.0000      -0.504639       -13.7319
 216   2.0000      -0.503502       -13.7010
 217   2.0000      -0.497885       -13.5481
 218   2.0000      -0.495519       -13.4838
 219   2.0000      -0.494401       -13.4533
 220   2.0000      -0.491666       -13.3789
 221   2.0000      -0.491296       -13.3689
 222   2.0000      -0.489611       -13.3230
 223   2.0000      -0.488228       -13.2854
 224   2.0000      -0.485123       -13.2009
 225   2.0000      -0.479059       -13.0359
 226   2.0000      -0.476178       -12.9575
 227   2.0000      -0.475295       -12.9334
 228   2.0000      -0.473766       -12.8918
 229   2.0000      -0.472335       -12.8529
 230   2.0000      -0.469543       -12.7769
 231   2.0000      -0.466189       -12.6856
 232   2.0000      -0.462015       -12.5721
 233   2.0000      -0.457113       -12.4387
 234   2.0000      -0.456346       -12.4178
 235   2.0000      -0.452985       -12.3263
 236   2.0000      -0.450686       -12.2638
 237   2.0000      -0.448945       -12.2164
 238   2.0000      -0.446473       -12.1491
 239   2.0000      -0.444482       -12.0950
 240   2.0000      -0.442010       -12.0277
 241   2.0000      -0.440995       -12.0001
 242   2.0000      -0.437338       -11.9006
 243   2.0000      -0.433505       -11.7963
 244   2.0000      -0.430337       -11.7101
 245   2.0000      -0.428780       -11.6677
 246   2.0000      -0.426079       -11.5942
 247   2.0000      -0.425128       -11.5683
 248   2.0000      -0.422767       -11.5041
 249   2.0000      -0.421170       -11.4606
 250   2.0000      -0.419636       -11.4189
 251   2.0000      -0.414829       -11.2881
 252   2.0000      -0.411628       -11.2010
 253   2.0000      -0.410714       -11.1761
 254   2.0000      -0.409045       -11.1307
 255   2.0000      -0.405902       -11.0452
 256   2.0000      -0.396486       -10.7889
 257   2.0000      -0.393061       -10.6957
 258   2.0000      -0.389712       -10.6046
 259   2.0000      -0.389338       -10.5944
 260   2.0000      -0.387046       -10.5321
 261   2.0000      -0.382333       -10.4038
 262   2.0000      -0.379622       -10.3301
 263   2.0000      -0.370904       -10.0928
 264   2.0000      -0.367411        -9.9978
 265   2.0000      -0.363693        -9.8966
 266   2.0000      -0.363259        -9.8848
 267   2.0000      -0.357909        -9.7392
 268   2.0000      -0.353424        -9.6171
 269   2.0000      -0.350274        -9.5314
 270   2.0000      -0.340859        -9.2752
 271   2.0000      -0.332209        -9.0399
 272   2.0000      -0.331749        -9.0274
 273   2.0000      -0.329759        -8.9732
 274   2.0000      -0.312697        -8.5089
 275   2.0000      -0.311820        -8.4850
 276   2.0000      -0.304521        -8.2864
 277   2.0000      -0.298153        -8.1132
 278   2.0000      -0.291728        -7.9383
 279   2.0000      -0.277894        -7.5619
 280   2.0000      -0.261944        -7.1279
 281   2.0000      -0.252035        -6.8582
 282   2.0000      -0.213327        -5.8049
 283   0.0000      -0.110052        -2.9947
 284   0.0000      -0.069178        -1.8824
 285   0.0000      -0.065633        -1.7860
 286   0.0000      -0.053452        -1.4545
 287   0.0000      -0.042170        -1.1475

MULLIKEN ATOMIC CHARGES
-----------------------
   0 C :    0.331413
   1 C :   -0.376820
   2 C :   -0.194789
   3 N :    0.127782
   4 C :   -0.194065
   5 N :    0.120922
   6 C :    0.008903
   7 C :   -0.004185
   8 C :   -0.085565
   9 C :    0.119671
  10 C :   -0.090397
  11 C :   -0.032071
  12 S :    0.174354
  13 C :   -0.124764
  14 C :    0.036517
  15 Br:    0.009709
  16 C :    0.134602
  17 O :   -0.170133
  18 C :   -0.095063
  19 C :   -0.045300
  20 C :   -0.025934
  21 C :    0.010167
  22 C :    0.014763
  23 C :    0.042493
  24 C :   -0.061431
  25 S :    0.084948
  26 C :   -0.015927
  27 C :    0.010150
  28 C :    0.042304
  29 C :   -0.055897
  30 S :    0.088240
  31 C :    0.024783
  32 C :   -0.138482
  33 S :    0.153868
  34 C :    0.180857
  35 C :   -0.174797
  36 C :    0.195730
  37 O :   -0.316545
  38 C :    0.181779
  39 C :    0.179572
  40 O :   -0.308708
  41 C :    0.197943
  42 C :   -0.151569
  43 C :    0.192333
  44 C :   -0.135112
  45 N :   -0.038456
  46 C :   -0.134431
  47 S :    0.187169
  48 C :   -0.009907
  49 N :    0.276477
  50 O :   -0.249005
  51 O :   -0.263212
  52 C :    0.007511
  53 C :    0.101462
  54 C :   -0.069936
  55 C :    0.064125
  56 C :   -0.163212
  57 S :    0.156364
  58 C :   -0.156441
  59 C :    0.111255
  60 C :    0.137298
  61 C :   -0.132584
  62 C :    0.516787
  63 F :   -0.159679
  64 F :   -0.168072
  65 F :   -0.152439
  66 C :   -0.004884
  67 C :    0.022702
  68 C :   -0.017016
  69 C :    0.015750
  70 C :   -0.023662
  71 H :   -0.017500
  72 H :   -0.011003
  73 H :   -0.008228
  74 H :    0.006702
  75 H :    0.011091
  76 H :   -0.006000
  77 H :   -0.010248
  78 H :   -0.008980
  79 H :   -0.005086
  80 H :   -0.004788
  81 H :   -0.033291
  82 H :    0.028585
  83 H :    0.054111
  84 H :    0.017038
  85 H :    0.023625
  86 H :    0.030010
  87 H :    0.028640
  88 H :   -0.037338
  89 H :    0.158941
  90 H :    0.009326
  91 H :   -0.000401
  92 H :    0.008682
  93 H :   -0.000230
  94 H :   -0.002090
  95 H :   -0.018753
  96 H :    0.001196
  97 H :    0.032512
  98 H :    0.033266
Sum of atomic charges:   -0.0000000

LOEWDIN ATOMIC CHARGES
----------------------
   0 C :    0.076488
   1 C :   -0.177451
   2 C :   -0.020713
   3 N :   -0.082179
   4 C :   -0.004514
   5 N :   -0.088865
   6 C :   -0.017956
   7 C :   -0.046411
   8 C :    0.013933
   9 C :   -0.037585
  10 C :   -0.147543
  11 C :   -0.016140
  12 S :    0.423332
  13 C :   -0.276555
  14 C :   -0.071105
  15 Br:    0.125814
  16 C :    0.080138
  17 O :   -0.163972
  18 C :   -0.124077
  19 C :    0.042198
  20 C :   -0.085001
  21 C :   -0.101604
  22 C :   -0.058366
  23 C :   -0.008317
  24 C :   -0.213076
  25 S :    0.401094
  26 C :   -0.140530
  27 C :   -0.062411
  28 C :   -0.007566
  29 C :   -0.191245
  30 S :    0.425985
  31 C :   -0.033880
  32 C :   -0.199340
  33 S :    0.471903
  34 C :   -0.024950
  35 C :   -0.077195
  36 C :    0.054437
  37 O :   -0.076105
  38 C :    0.078386
  39 C :    0.050309
  40 O :   -0.095129
  41 C :    0.078098
  42 C :   -0.048665
  43 C :   -0.069002
  44 C :   -0.107271
  45 N :    0.011342
  46 C :   -0.134511
  47 S :    0.460443
  48 C :   -0.205916
  49 N :    0.273585
  50 O :   -0.214387
  51 O :   -0.229587
  52 C :    0.002138
  53 C :   -0.091096
  54 C :   -0.060858
  55 C :   -0.030768
  56 C :   -0.186578
  57 S :    0.512152
  58 C :   -0.177341
  59 C :   -0.044848
  60 C :   -0.033896
  61 C :   -0.081468
  62 C :    0.176723
  63 F :   -0.054638
  64 F :   -0.067914
  65 F :   -0.051252
  66 C :    0.006827
  67 C :   -0.030668
  68 C :    0.007178
  69 C :   -0.047516
  70 C :   -0.034908
  71 H :    0.037808
  72 H :    0.039277
  73 H :    0.036806
  74 H :    0.027406
  75 H :    0.037423
  76 H :    0.036383
  77 H :    0.033633
  78 H :    0.033465
  79 H :    0.035783
  80 H :    0.038258
  81 H :    0.009387
  82 H :    0.015813
  83 H :    0.029642
  84 H :    0.010865
  85 H :    0.012993
  86 H :    0.019711
  87 H :    0.023648
  88 H :    0.027486
  89 H :    0.098003
  90 H :    0.047248
  91 H :    0.021242
  92 H :    0.023118
  93 H :    0.035310
  94 H :    0.032588
  95 H :    0.031397
  96 H :    0.030435
  97 H :    0.024803
  98 H :    0.030432

  Mayer bond orders larger than 0.100000
B(  0-C ,  1-C ) :   1.5337 B(  0-C ,  6-C ) :   0.9852 B(  0-C , 18-C ) :   1.1560
B(  1-C ,  2-C ) :   1.1525 B(  1-C ,  4-C ) :   1.1616 B(  2-C ,  3-N ) :   2.9631
B(  4-C ,  5-N ) :   2.9548 B(  6-C ,  7-C ) :   1.2788 B(  6-C , 11-C ) :   1.4267
B(  7-C ,  8-C ) :   1.4382 B(  7-C , 16-C ) :   0.9290 B(  8-C ,  9-C ) :   1.2324
B(  8-C , 71-H ) :   1.0159 B(  9-C , 10-C ) :   1.3228 B(  9-C , 14-C ) :   1.1592
B( 10-C , 11-C ) :   1.3141 B( 10-C , 12-S ) :   1.0810 B( 11-C , 72-H ) :   0.9790
B( 12-S , 13-C ) :   1.0859 B( 13-C , 14-C ) :   1.6211 B( 13-C , 15-Br) :   1.0111
B( 14-C , 73-H ) :   1.0002 B( 16-C , 17-O ) :   2.1846 B( 16-C , 18-C ) :   0.9795
B( 18-C , 19-C ) :   1.4030 B( 19-C , 20-C ) :   1.3371 B( 19-C , 74-H ) :   0.9436
B( 20-C , 21-C ) :   1.3442 B( 20-C , 75-H ) :   0.9795 B( 21-C , 22-C ) :   1.2345
B( 21-C , 25-S ) :   1.0998 B( 22-C , 23-C ) :   1.4770 B( 22-C , 76-H ) :   1.0012
B( 23-C , 24-C ) :   1.2771 B( 23-C , 77-H ) :   0.9944 B( 24-C , 25-S ) :   1.0432
B( 24-C , 26-C ) :   1.3841 B( 26-C , 27-C ) :   1.2487 B( 26-C , 30-S ) :   1.0985
B( 27-C , 28-C ) :   1.5090 B( 27-C , 78-H ) :   0.9945 B( 28-C , 29-C ) :   1.2084
B( 28-C , 79-H ) :   0.9986 B( 29-C , 30-S ) :   1.0211 B( 29-C , 31-C ) :   1.5003
B( 31-C , 32-C ) :   1.2936 B( 31-C , 80-H ) :   0.9325 B( 32-C , 33-S ) :   1.0714
B( 32-C , 34-C ) :   1.2559 B( 33-S , 44-C ) :   1.1883 B( 34-C , 35-C ) :   1.2143
B( 34-C , 43-C ) :   1.2364 B( 35-C , 36-C ) :   1.4205 B( 35-C , 81-H ) :   0.9687
B( 36-C , 37-O ) :   1.1698 B( 36-C , 39-C ) :   1.1715 B( 37-O , 38-C ) :   0.9179
B( 38-C , 82-H ) :   0.9685 B( 38-C , 83-H ) :   0.9603 B( 38-C , 84-H ) :   0.9574
B( 39-C , 40-O ) :   1.1820 B( 39-C , 42-C ) :   1.5098 B( 40-O , 41-C ) :   0.9274
B( 41-C , 85-H ) :   0.9704 B( 41-C , 86-H ) :   0.9756 B( 41-C , 87-H ) :   0.9762
B( 42-C , 43-C ) :   1.1341 B( 42-C , 88-H ) :   1.0098 B( 43-C , 44-C ) :   1.2805
B( 44-C , 45-N ) :   1.1694 B( 45-N , 46-C ) :   1.1225 B( 45-N , 89-H ) :   0.9027
B( 46-C , 47-S ) :   1.1377 B( 46-C , 53-C ) :   1.4210 B( 47-S , 48-C ) :   1.0980
B( 48-C , 49-N ) :   0.9664 B( 48-C , 52-C ) :   1.4742 B( 49-N , 50-O ) :   1.5383
B( 49-N , 51-O ) :   1.5141 B( 50-O , 51-O ) :   0.2602 B( 52-C , 53-C ) :   1.2392
B( 52-C , 90-H ) :   1.0089 B( 53-C , 54-C ) :   1.0369 B( 54-C , 55-C ) :   1.7239
B( 54-C , 91-H ) :   0.9604 B( 55-C , 56-C ) :   1.1576 B( 55-C , 92-H ) :   0.9424
B( 56-C , 57-S ) :   1.1585 B( 56-C , 58-C ) :   0.1052 B( 56-C , 60-C ) :   1.3723
B( 57-S , 58-C ) :   1.1849 B( 58-C , 59-C ) :   1.3632 B( 58-C , 69-C ) :   1.0913
B( 59-C , 60-C ) :   1.2161 B( 59-C , 68-C ) :   1.1975 B( 60-C , 61-C ) :   1.2006
B( 61-C , 62-C ) :   0.9519 B( 61-C , 66-C ) :   1.5622 B( 62-C , 63-F ) :   1.1559
B( 62-C , 64-F ) :   1.0947 B( 62-C , 65-F ) :   1.1673 B( 66-C , 67-C ) :   1.1933
B( 66-C , 93-H ) :   0.9920 B( 67-C , 68-C ) :   1.5374 B( 67-C , 94-H ) :   0.9826
B( 68-C , 95-H ) :   0.9951 B( 69-C , 70-C ) :   1.9299 B( 69-C , 96-H ) :   0.9471
B( 70-C , 97-H ) :   0.9605 B( 70-C , 98-H ) :   0.9467

-----------------------------------------------------------------------------
         ABSORPTION SPECTRUM VIA TRANSITION ELECTRIC DIPOLE MOMENTS
-----------------------------------------------------------------------------
State   Energy  Wavelength   fosc         T2         TX        TY        TZ
        (cm-1)    (nm)                  (au**2)     (au)      (au)      (au)
-----------------------------------------------------------------------------
   0    8770.2   1140.2   0.960407973  36.05138   5.11122   2.18801  -2.26702
   1   15032.8    665.2   0.007750157   0.16973  -0.07101  -0.09311  -0.39499
   2   17145.1    583.3   0.058106472   1.11573   0.01370   1.02880   0.23900
   3   18357.2    544.7   0.003436846   0.06164   0.19548   0.03802   0.14825
   4   19268.0    519.0   0.588927411  10.06238  -1.60139   2.71607  -0.34768
   5   21499.0    465.1   0.030681467   0.46982   0.64180  -0.07608  -0.22833
   6   23070.2    433.5   0.262336279   3.74354   1.88378   0.08444   0.43335
   7   23659.7    422.7   0.250757065   3.48915   0.22809   1.79190  -0.47564
   8   24127.6    414.5   0.306246007   4.17861   1.92847   0.21641   0.64247
   9   24776.6    403.6   0.090598025   1.20380   0.81039   0.72427  -0.14999
  10   25078.7    398.7   0.270103379   3.54568   1.24161   1.07335  -0.92305
  11   26757.6    373.7   0.040685531   0.50057   0.19456  -0.50369   0.45718
  12   26877.9    372.1   0.017108358   0.20955  -0.12103  -0.40577  -0.17393
  13   27396.0    365.0   0.005990689   0.07199   0.07566   0.25463  -0.03776
  14   27881.7    358.7   0.125907394   1.48664   0.43577   1.11555  -0.22870
  15   28104.2    355.8   0.057638462   0.67517   0.31363   0.71953  -0.24307
  16   28859.2    346.5   0.012603888   0.14378  -0.17471   0.31625  -0.11506
  17   29173.1    342.8   0.058177477   0.65652  -0.68634   0.28571   0.32221
  18   29594.9    337.9   0.056501901   0.62852  -0.49967   0.59201  -0.16843
  19   29741.3    336.2   0.067381273   0.74586   0.77306   0.37969  -0.06372
  20   30915.5    323.5   0.045248734   0.48184   0.30932  -0.59760   0.17043
  21   31486.1    317.6   0.028767325   0.30078  -0.37255  -0.37750   0.13959
  22   31535.4    317.1   0.088708276   0.92607  -0.65195  -0.54501   0.45164
  23   31583.7    316.6   0.200860706   2.09367   1.05439   0.79017  -0.59795
  24   31823.6    314.2   0.219806889   2.27388   0.89518   0.86062  -0.85549
  25   32407.4    308.6   0.290676571   2.95285   1.25679   0.98213  -0.63933
  26   32690.6    305.9   0.008014026   0.08071  -0.14593  -0.15326   0.18952
  27   32936.8    303.6   0.005325066   0.05323   0.06887  -0.07649   0.20647
  28   33243.1    300.8   0.051038028   0.50544   0.31670   0.08135  -0.63129
  29   33553.4    298.0   0.046384241   0.45510  -0.53435  -0.36030   0.19939
  30   33878.7    295.2   0.288208195   2.80063   1.49460   0.74941  -0.07201
  31   34298.7    291.6   0.075338005   0.72312   0.56538   0.52386   0.35922
  32   34331.3    291.3   0.079342158   0.76083  -0.56035  -0.66437   0.07384
  33   34657.9    288.5   0.011682035   0.11097   0.02652   0.18111  -0.27832
  34   34875.2    286.7   0.025402634   0.23979  -0.10890  -0.39636  -0.26615
  35   35132.6    284.6   0.047386237   0.44404  -0.56248   0.22583   0.27686
  36   35324.9    283.1   0.067859846   0.63242  -0.51895  -0.59854  -0.06970
  37   36303.6    275.5   0.049351465   0.44753  -0.55136   0.33668   0.17373
  38   36449.6    274.4   0.067204203   0.60699   0.42753  -0.65121  -0.01124
  39   36681.4    272.6   0.005660046   0.05080  -0.11015  -0.10075   0.16886
  40   36880.4    271.1   0.041744999   0.37264  -0.05343  -0.58933   0.14992
  41   37160.6    269.1   0.061761613   0.54716   0.32626   0.63668  -0.18800
  42   37212.3    268.7   0.020379387   0.18029   0.25302  -0.33970  -0.02969
  43   37733.2    265.0   0.010821496   0.09441  -0.16916   0.19459   0.16713
  44   37862.2    264.1   0.101670020   0.88402   0.93241  -0.09946  -0.06881
  45   38087.6    262.6   0.166409773   1.43837  -1.09028  -0.22059   0.44834
  46   38339.3    260.8   0.083173389   0.71419  -0.58801   0.51558   0.32033
  47   38433.0    260.2   0.002339259   0.02004  -0.05903   0.10580   0.07321
  48   38645.2    258.8   0.035987282   0.30657   0.41178   0.18139  -0.32266
  49   39003.1    256.4   0.001546186   0.01305   0.10628  -0.04092  -0.00900
  50   39289.6    254.5   0.008267589   0.06927  -0.12904   0.15675  -0.16749
  51   39700.9    251.9   0.017282957   0.14332   0.35634  -0.11934  -0.04578
  52   40309.4    248.1   0.003924861   0.03205  -0.08857  -0.05170   0.14676

FINAL SINGLE POINT ENERGY     -7851.655017530567

DIPOLE MOMENT
-------------
                                X             Y             Z
Electronic contribution:    -74.91763     -84.23103      81.02206
Nuclear contribution   :     74.24163      86.24291     -82.25283
                        -----------------------------------------
Total Dipole Moment    :     -0.67599       2.01189      -1.23077
                        -----------------------------------------
Magnitude (a.u.)       :      2.45346
Magnitude (Debye)      :      6.23619

Rotational constants in cm-1:     0.001733     0.000266     0.000249
Rotational constants in MHz :    51.942607     7.969829     7.471425

                             ****ORCA TERMINATED NORMALLY****
TOTAL RUN TIME: 0 days 0 hours 12 minutes 42 seconds 511 msec
