                         Program Version 4.2.0 -  RELEASE  -
|  1> # ORCA input file
|  2> # SCF done       -127.927700225833          0.000295754933
|  3> ! CAM-B3LYP def2-SVP def2/J RIJCOSX Grid4 TightSCF
|  4> %maxcore 5000
|  5> %tddft
|  6>     Mode sTDDFT
|  7>     Ethresh 5.0
|  8>     maxcore 5000
|  9> end
| 10>
| 11> %pal
| 12>   nprocs 6
| 13>   end
| 14> * xyz 0 1
| 15>    C       12.49652        -6.02485         5.00692
| 16>    C       11.16022        -6.07713         5.07841
| 17>    C       10.34356        -5.99987         6.25795
| 18>    C        9.01773        -6.08278         6.02330
| 19>    C        8.66833        -6.23174         4.64795
| 20>    S       10.11524        -6.26018         3.65914
| 21>    C        7.41442        -6.34263         4.10813
| 22>    C        6.17669        -6.33248         4.80654
| 23>    C        5.09909        -6.46118         3.99688
| 24>    C        5.42014        -6.57672         2.61231
| 25>    S        7.14896        -6.52323         2.36819
| 26>    C        4.55124        -6.70333         1.57215
| 27>    C        5.03867        -6.78476         0.23322
| 28>    N        6.37297        -6.75829         0.09098
| 29>    C        6.86254        -6.81422        -1.13127
| 30>    C        6.04230        -6.89135        -2.24175
| 31>    C        4.65500        -6.91762        -2.00974
| 32>    N        4.16910        -6.86946        -0.77191
| 33>    C        3.71920        -6.98594        -3.10885
| 34>    C        2.38679        -7.05466        -2.92407
| 35>    C        1.44121        -7.09614        -3.98512
| 36>    S       -0.29045        -7.22882        -3.64049
| 37>    C       -0.77791        -7.20159        -5.34209
| 38>    C        0.37821        -7.09558        -6.07550
| 39>    C        1.58076        -7.05164        -5.34150
| 40>    C        2.32809        -6.97068        -6.65504
| 41>    N        1.00327        -6.90143        -7.31203
| 42>    C       -2.14077        -7.28762        -5.72649
| 43>    C       -2.55598        -7.19567        -7.00536
| 44>    C       -3.94298        -7.28514        -7.39464
| 45>    N       -4.86443        -7.51228        -6.44891
| 46>    C       -6.12000        -7.58905        -6.84832
| 47>    C       -6.49667        -7.44209        -8.17205
| 48>    C       -5.46818        -7.20055        -9.09699
| 49>    N       -4.19878        -7.13026        -8.68937
| 50>    C       -5.74102        -7.01825       -10.49963
| 51>    C       -4.76431        -6.76412       -11.40327
| 52>    C       -4.98380        -6.57169       -12.78279
| 53>    C       -3.99356        -6.30552       -13.68709
| 54>    C       -4.14783        -6.09683       -15.08550
| 55>    C       -2.99081        -5.84309       -15.74645
| 56>    C       -1.84075        -5.83321       -14.91408
| 57>    S       -2.29559        -6.16625       -13.25266
| 58>    C       -0.53933        -5.60041       -15.28370
| 59>    C       -0.04900        -5.31451       -16.59016
| 60>    C        1.28566        -5.12029       -16.65516
| 61>    C        1.96499        -5.23828       -15.39594
| 62>    S        0.78262        -5.61606       -14.13235
| 63>    C        3.27487        -5.09499       -15.15534
| 64>    H       13.09126        -5.91337         5.89650
| 65>    H       13.01484        -6.09292         4.06829
| 66>    H       10.79277        -5.88559         7.22883
| 67>    H        8.26252        -6.04285         6.78833
| 68>    H        6.11962        -6.23040         5.87635
| 69>    H        4.07611        -6.47577         4.33065
| 70>    H        3.48578        -6.73128         1.73064
| 71>    H        7.94223        -6.79314        -1.21245
| 72>    H        6.44273        -6.93060        -3.24175
| 73>    H        4.13736        -6.97449        -4.10601
| 74>    H        2.00506        -7.07429        -1.91368
| 75>    H        2.91593        -7.85781        -6.89730
| 76>    H        2.91731        -6.06765        -6.81626
| 77>    H        0.77779        -7.44266        -8.13366
| 78>    H       -2.87425        -7.42854        -4.94570
| 79>    H       -1.85835        -7.03062        -7.81289
| 80>    H       -6.85018        -7.77590        -6.06930
| 81>    H       -7.52745        -7.50688        -8.48164
| 82>    H       -6.77551        -7.08764       -10.80914
| 83>    H       -3.74678        -6.70177       -11.03985
| 84>    H       -5.99838        -6.63415       -13.15564
| 85>    H       -5.11771        -6.14222       -15.54933
| 86>    H       -2.92534        -5.66152       -16.80437
| 87>    H       -0.71085        -5.26251       -17.43645
| 88>    H        1.83246        -4.89322       -17.55317
| 89>    H        3.95764        -4.86389       -15.95378
| 90>    H        3.68370        -5.20303       -14.16760
| 91> *
| 92>
| 93>                          ****END OF INPUT****

CARTESIAN COORDINATES (ANGSTROEM)
---------------------------------
  C     12.496520   -6.024850    5.006920
  C     11.160220   -6.077130    5.078410
  C     10.343560   -5.999870    6.257950
  C      9.017730   -6.082780    6.023300
  C      8.668330   -6.231740    4.647950
  S     10.115240   -6.260180    3.659140
  C      7.414420   -6.342630    4.108130
  C      6.176690   -6.332480    4.806540
  C      5.099090   -6.461180    3.996880
  C      5.420140   -6.576720    2.612310
  S      7.148960   -6.523230    2.368190
  C      4.551240   -6.703330    1.572150
  C      5.038670   -6.784760    0.233220
  N      6.372970   -6.758290    0.090980
  C      6.862540   -6.814220   -1.131270
  C      6.042300   -6.891350   -2.241750
  C      4.655000   -6.917620   -2.009740
  N      4.169100   -6.869460   -0.771910
  C      3.719200   -6.985940   -3.108850
  C      2.386790   -7.054660   -2.924070
  C      1.441210   -7.096140   -3.985120
  S     -0.290450   -7.228820   -3.640490
  C     -0.777910   -7.201590   -5.342090
  C      0.378210   -7.095580   -6.075500
  C      1.580760   -7.051640   -5.341500
  C      2.328090   -6.970680   -6.655040
  N      1.003270   -6.901430   -7.312030
  C     -2.140770   -7.287620   -5.726490
  C     -2.555980   -7.195670   -7.005360
  C     -3.942980   -7.285140   -7.394640
  N     -4.864430   -7.512280   -6.448910
  C     -6.120000   -7.589050   -6.848320
  C     -6.496670   -7.442090   -8.172050
  C     -5.468180   -7.200550   -9.096990
  N     -4.198780   -7.130260   -8.689370
  C     -5.741020   -7.018250  -10.499630
  C     -4.764310   -6.764120  -11.403270
  C     -4.983800   -6.571690  -12.782790
  C     -3.993560   -6.305520  -13.687090
  C     -4.147830   -6.096830  -15.085500
  C     -2.990810   -5.843090  -15.746450
  C     -1.840750   -5.833210  -14.914080
  S     -2.295590   -6.166250  -13.252660
  C     -0.539330   -5.600410  -15.283700
  C     -0.049000   -5.314510  -16.590160
  C      1.285660   -5.120290  -16.655160
  C      1.964990   -5.238280  -15.395940
  S      0.782620   -5.616060  -14.132350
  C      3.274870   -5.094990  -15.155340
  H     13.091260   -5.913370    5.896500
  H     13.014840   -6.092920    4.068290
  H     10.792770   -5.885590    7.228830
  H      8.262520   -6.042850    6.788330
  H      6.119620   -6.230400    5.876350
  H      4.076110   -6.475770    4.330650
  H      3.485780   -6.731280    1.730640
  H      7.942230   -6.793140   -1.212450
  H      6.442730   -6.930600   -3.241750
  H      4.137360   -6.974490   -4.106010
  H      2.005060   -7.074290   -1.913680
  H      2.915930   -7.857810   -6.897300
  H      2.917310   -6.067650   -6.816260
  H      0.777790   -7.442660   -8.133660
  H     -2.874250   -7.428540   -4.945700
  H     -1.858350   -7.030620   -7.812890
  H     -6.850180   -7.775900   -6.069300
  H     -7.527450   -7.506880   -8.481640
  H     -6.775510   -7.087640  -10.809140
  H     -3.746780   -6.701770  -11.039850
  H     -5.998380   -6.634150  -13.155640
  H     -5.117710   -6.142220  -15.549330
  H     -2.925340   -5.661520  -16.804370
  H     -0.710850   -5.262510  -17.436450
  H      1.832460   -4.893220  -17.553170
  H      3.957640   -4.863890  -15.953780
  H      3.683700   -5.203030  -14.167600

 Total Charge           Charge          ....    0
 Multiplicity           Mult            ....    1
 Number of Electrons    NEL             ....  376
 Basis Dimension        Dim             ....  841

ORBITAL ENERGIES
----------------

  NO   OCC          E(Eh)            E(eV)
   0   2.0000     -88.939585     -2420.1691
   1   2.0000     -88.937913     -2420.1237
   2   2.0000     -88.936821     -2420.0939
   3   2.0000     -88.928274     -2419.8614
   4   2.0000     -88.924267     -2419.7523
   5   2.0000     -14.417126      -392.3099
   6   2.0000     -14.394050      -391.6820
   7   2.0000     -14.389664      -391.5627
   8   2.0000     -14.386240      -391.4695
   9   2.0000     -14.385875      -391.4596
  10   2.0000     -10.325283      -280.9652
  11   2.0000     -10.321731      -280.8686
  12   2.0000     -10.314913      -280.6830
  13   2.0000     -10.313772      -280.6520
  14   2.0000     -10.310003      -280.5494
  15   2.0000     -10.309258      -280.5292
  16   2.0000     -10.308999      -280.5221
  17   2.0000     -10.307096      -280.4703
  18   2.0000     -10.306260      -280.4476
  19   2.0000     -10.305853      -280.4365
  20   2.0000     -10.302501      -280.3453
  21   2.0000     -10.300605      -280.2937
  22   2.0000     -10.298536      -280.2374
  23   2.0000     -10.298502      -280.2365
  24   2.0000     -10.294376      -280.1242
  25   2.0000     -10.294203      -280.1195
  26   2.0000     -10.289498      -279.9915
  27   2.0000     -10.288240      -279.9572
  28   2.0000     -10.285816      -279.8913
  29   2.0000     -10.284829      -279.8644
  30   2.0000     -10.282600      -279.8038
  31   2.0000     -10.281506      -279.7740
  32   2.0000     -10.281410      -279.7714
  33   2.0000     -10.278453      -279.6909
  34   2.0000     -10.277956      -279.6774
  35   2.0000     -10.275714      -279.6164
  36   2.0000     -10.271731      -279.5080
  37   2.0000     -10.270337      -279.4701
  38   2.0000     -10.270185      -279.4659
  39   2.0000     -10.269758      -279.4543
  40   2.0000     -10.269603      -279.4501
  41   2.0000     -10.267436      -279.3911
  42   2.0000     -10.266559      -279.3673
  43   2.0000     -10.264448      -279.3098
  44   2.0000     -10.264377      -279.3079
  45   2.0000     -10.263168      -279.2750
  46   2.0000     -10.262692      -279.2620
  47   2.0000     -10.251166      -278.9484
  48   2.0000     -10.249882      -278.9135
  49   2.0000      -8.035857      -218.6668
  50   2.0000      -8.034621      -218.6331
  51   2.0000      -8.031845      -218.5576
  52   2.0000      -8.024948      -218.3699
  53   2.0000      -8.017663      -218.1717
  54   2.0000      -6.005623      -163.4213
  55   2.0000      -6.004431      -163.3889
  56   2.0000      -6.001693      -163.3144
  57   2.0000      -6.001468      -163.3082
  58   2.0000      -6.000559      -163.2835
  59   2.0000      -5.997427      -163.1983
  60   2.0000      -5.996583      -163.1753
  61   2.0000      -5.995134      -163.1359
  62   2.0000      -5.994767      -163.1259
  63   2.0000      -5.993291      -163.0857
  64   2.0000      -5.990825      -163.0186
  65   2.0000      -5.987889      -162.9387
  66   2.0000      -5.985503      -162.8738
  67   2.0000      -5.983116      -162.8089
  68   2.0000      -5.978557      -162.6848
  69   2.0000      -1.067160       -29.0389
  70   2.0000      -1.060368       -28.8541
  71   2.0000      -1.055490       -28.7213
  72   2.0000      -0.990811       -26.9613
  73   2.0000      -0.978782       -26.6340
  74   2.0000      -0.969246       -26.3745
  75   2.0000      -0.968100       -26.3433
  76   2.0000      -0.960357       -26.1326
  77   2.0000      -0.954058       -25.9612
  78   2.0000      -0.948965       -25.8226
  79   2.0000      -0.904070       -24.6010
  80   2.0000      -0.899632       -24.4802
  81   2.0000      -0.891688       -24.2641
  82   2.0000      -0.878469       -23.9044
  83   2.0000      -0.868116       -23.6226
  84   2.0000      -0.862459       -23.4687
  85   2.0000      -0.847546       -23.0629
  86   2.0000      -0.843824       -22.9616
  87   2.0000      -0.834221       -22.7003
  88   2.0000      -0.830197       -22.5908
  89   2.0000      -0.826115       -22.4797
  90   2.0000      -0.815164       -22.1817
  91   2.0000      -0.805002       -21.9052
  92   2.0000      -0.803645       -21.8683
  93   2.0000      -0.786255       -21.3951
  94   2.0000      -0.779408       -21.2088
  95   2.0000      -0.776369       -21.1261
  96   2.0000      -0.759161       -20.6578
  97   2.0000      -0.745006       -20.2726
  98   2.0000      -0.738982       -20.1087
  99   2.0000      -0.730652       -19.8820
 100   2.0000      -0.712804       -19.3964
 101   2.0000      -0.705651       -19.2017
 102   2.0000      -0.690093       -18.7784
 103   2.0000      -0.683025       -18.5861
 104   2.0000      -0.671138       -18.2626
 105   2.0000      -0.666849       -18.1459
 106   2.0000      -0.662805       -18.0358
 107   2.0000      -0.657137       -17.8816
 108   2.0000      -0.638679       -17.3793
 109   2.0000      -0.632552       -17.2126
 110   2.0000      -0.624313       -16.9884
 111   2.0000      -0.616768       -16.7831
 112   2.0000      -0.615335       -16.7441
 113   2.0000      -0.610998       -16.6261
 114   2.0000      -0.605895       -16.4873
 115   2.0000      -0.598085       -16.2747
 116   2.0000      -0.591577       -16.0976
 117   2.0000      -0.588946       -16.0260
 118   2.0000      -0.587387       -15.9836
 119   2.0000      -0.578984       -15.7550
 120   2.0000      -0.570369       -15.5205
 121   2.0000      -0.563993       -15.3470
 122   2.0000      -0.555521       -15.1165
 123   2.0000      -0.551993       -15.0205
 124   2.0000      -0.545932       -14.8556
 125   2.0000      -0.542673       -14.7669
 126   2.0000      -0.533673       -14.5220
 127   2.0000      -0.525621       -14.3029
 128   2.0000      -0.522874       -14.2281
 129   2.0000      -0.518407       -14.1066
 130   2.0000      -0.515888       -14.0380
 131   2.0000      -0.511974       -13.9315
 132   2.0000      -0.508522       -13.8376
 133   2.0000      -0.506705       -13.7881
 134   2.0000      -0.504429       -13.7262
 135   2.0000      -0.501202       -13.6384
 136   2.0000      -0.495598       -13.4859
 137   2.0000      -0.493442       -13.4272
 138   2.0000      -0.493016       -13.4156
 139   2.0000      -0.489939       -13.3319
 140   2.0000      -0.484096       -13.1729
 141   2.0000      -0.481668       -13.1069
 142   2.0000      -0.479868       -13.0579
 143   2.0000      -0.478405       -13.0181
 144   2.0000      -0.473666       -12.8891
 145   2.0000      -0.467779       -12.7289
 146   2.0000      -0.461581       -12.5603
 147   2.0000      -0.461149       -12.5485
 148   2.0000      -0.459083       -12.4923
 149   2.0000      -0.456346       -12.4178
 150   2.0000      -0.455655       -12.3990
 151   2.0000      -0.447497       -12.1770
 152   2.0000      -0.444742       -12.1020
 153   2.0000      -0.442637       -12.0448
 154   2.0000      -0.436953       -11.8901
 155   2.0000      -0.436298       -11.8723
 156   2.0000      -0.425681       -11.5834
 157   2.0000      -0.419521       -11.4157
 158   2.0000      -0.419163       -11.4060
 159   2.0000      -0.416389       -11.3305
 160   2.0000      -0.413634       -11.2555
 161   2.0000      -0.413144       -11.2422
 162   2.0000      -0.409767       -11.1503
 163   2.0000      -0.397167       -10.8075
 164   2.0000      -0.393908       -10.7188
 165   2.0000      -0.389908       -10.6099
 166   2.0000      -0.388851       -10.5812
 167   2.0000      -0.383906       -10.4466
 168   2.0000      -0.381702       -10.3866
 169   2.0000      -0.371368       -10.1054
 170   2.0000      -0.357979        -9.7411
 171   2.0000      -0.354929        -9.6581
 172   2.0000      -0.351215        -9.5571
 173   2.0000      -0.345577        -9.4036
 174   2.0000      -0.341093        -9.2816
 175   2.0000      -0.336560        -9.1583
 176   2.0000      -0.326472        -8.8838
 177   2.0000      -0.321901        -8.7594
 178   2.0000      -0.315109        -8.5746
 179   2.0000      -0.304487        -8.2855
 180   2.0000      -0.302401        -8.2287
 181   2.0000      -0.297107        -8.0847
 182   2.0000      -0.291542        -7.9333
 183   2.0000      -0.287582        -7.8255
 184   2.0000      -0.277607        -7.5541
 185   2.0000      -0.235169        -6.3993
 186   2.0000      -0.217906        -5.9295
 187   2.0000      -0.217062        -5.9065
 188   0.0000      -0.069297        -1.8857
 189   0.0000      -0.056676        -1.5422
 190   0.0000      -0.044234        -1.2037
 191   0.0000      -0.010528        -0.2865
 192   0.0000       0.001987         0.0541

MULLIKEN ATOMIC CHARGES
-----------------------
   0 C :   -0.032529
   1 C :   -0.063637
   2 C :    0.053793
   3 C :    0.029957
   4 C :   -0.074181
   5 S :    0.081685
   6 C :   -0.042206
   7 C :    0.032300
   8 C :    0.034201
   9 C :    0.022568
  10 S :    0.117976
  11 C :   -0.035811
  12 C :    0.010048
  13 N :   -0.162294
  14 C :    0.104518
  15 C :   -0.064064
  16 C :    0.054380
  17 N :   -0.056128
  18 C :   -0.028812
  19 C :    0.116343
  20 C :   -0.169372
  21 S :    0.109783
  22 C :   -0.244021
  23 C :    0.153924
  24 C :   -0.075138
  25 C :    0.239460
  26 N :   -0.186185
  27 C :    0.115062
  28 C :    0.005034
  29 C :   -0.061032
  30 N :   -0.086754
  31 C :    0.078530
  32 C :   -0.055361
  33 C :    0.060179
  34 N :   -0.067208
  35 C :   -0.025646
  36 C :    0.049810
  37 C :   -0.019718
  38 C :   -0.008648
  39 C :    0.036103
  40 C :    0.030029
  41 C :   -0.050151
  42 S :    0.079101
  43 C :   -0.067527
  44 C :    0.031579
  45 C :    0.052819
  46 C :   -0.065323
  47 S :    0.080584
  48 C :   -0.028571
  49 H :    0.018022
  50 H :    0.020514
  51 H :   -0.013584
  52 H :   -0.011890
  53 H :   -0.019193
  54 H :   -0.016276
  55 H :   -0.025803
  56 H :    0.001910
  57 H :   -0.016252
  58 H :   -0.031232
  59 H :   -0.001373
  60 H :    0.029811
  61 H :    0.027601
  62 H :    0.125352
  63 H :   -0.006943
  64 H :   -0.033070
  65 H :   -0.000890
  66 H :   -0.016554
  67 H :   -0.029279
  68 H :    0.015488
  69 H :   -0.019163
  70 H :   -0.013089
  71 H :   -0.012411
  72 H :   -0.011623
  73 H :   -0.011468
  74 H :    0.020469
  75 H :    0.021481
Sum of atomic charges:    0.0000000

LOEWDIN ATOMIC CHARGES
----------------------
   0 C :   -0.077989
   1 C :   -0.139956
   2 C :   -0.029905
   3 C :   -0.026513
   4 C :   -0.166956
   5 S :    0.352107
   6 C :   -0.199134
   7 C :   -0.022242
   8 C :   -0.039830
   9 C :   -0.113897
  10 S :    0.411302
  11 C :   -0.093237
  12 C :    0.030693
  13 N :   -0.117666
  14 C :    0.056683
  15 C :   -0.083710
  16 C :    0.037189
  17 N :   -0.096559
  18 C :   -0.045582
  19 C :    0.007040
  20 C :   -0.167437
  21 S :    0.403346
  22 C :   -0.212061
  23 C :    0.002004
  24 C :   -0.078364
  25 C :    0.071702
  26 N :   -0.057711
  27 C :    0.001493
  28 C :   -0.054313
  29 C :    0.031100
  30 N :   -0.103889
  31 C :    0.045983
  32 C :   -0.080428
  33 C :    0.033736
  34 N :   -0.098633
  35 C :   -0.048759
  36 C :    0.009115
  37 C :   -0.064924
  38 C :   -0.132194
  39 C :   -0.035782
  40 C :   -0.025896
  41 C :   -0.181958
  42 S :    0.369478
  43 C :   -0.174428
  44 C :   -0.026569
  45 C :   -0.030064
  46 C :   -0.139420
  47 S :    0.351558
  48 C :   -0.075519
  49 H :    0.027616
  50 H :    0.025642
  51 H :    0.032538
  52 H :    0.031892
  53 H :    0.027272
  54 H :    0.031629
  55 H :    0.032609
  56 H :    0.025728
  57 H :    0.028568
  58 H :    0.024734
  59 H :    0.035378
  60 H :    0.027893
  61 H :    0.029214
  62 H :    0.067361
  63 H :    0.033618
  64 H :    0.025510
  65 H :    0.023119
  66 H :    0.028685
  67 H :    0.024193
  68 H :    0.027186
  69 H :    0.030598
  70 H :    0.033366
  71 H :    0.031699
  72 H :    0.032270
  73 H :    0.033546
  74 H :    0.028907
  75 H :    0.026229

  Mayer bond orders larger than 0.100000
B(  0-C ,  1-C ) :   1.8671 B(  0-C , 49-H ) :   0.9511 B(  0-C , 50-H ) :   0.9420
B(  1-C ,  2-C ) :   1.0736 B(  1-C ,  5-S ) :   1.0072 B(  2-C ,  3-C ) :   1.6707
B(  2-C , 51-H ) :   0.9931 B(  3-C ,  4-C ) :   1.1401 B(  3-C , 52-H ) :   0.9913
B(  4-C ,  5-S ) :   1.0450 B(  4-C ,  6-C ) :   1.5928 B(  6-C ,  7-C ) :   1.1552
B(  6-C , 10-S ) :   0.9619 B(  7-C ,  8-C ) :   1.6240 B(  7-C , 53-H ) :   0.9933
B(  8-C ,  9-C ) :   1.1162 B(  8-C , 54-H ) :   1.0013 B(  9-C , 10-S ) :   1.0692
B(  9-C , 11-C ) :   1.5642 B( 10-S , 13-N ) :   0.1122 B( 11-C , 12-C ) :   1.1036
B( 11-C , 55-H ) :   0.9831 B( 12-C , 13-N ) :   1.4037 B( 12-C , 17-N ) :   1.5032
B( 13-N , 14-C ) :   1.5156 B( 14-C , 15-C ) :   1.3872 B( 14-C , 56-H ) :   0.9780
B( 15-C , 16-C ) :   1.3043 B( 15-C , 57-H ) :   0.9772 B( 16-C , 17-N ) :   1.5414
B( 16-C , 18-C ) :   1.0766 B( 18-C , 19-C ) :   1.7143 B( 18-C , 58-H ) :   0.9772
B( 19-C , 20-C ) :   1.0894 B( 19-C , 59-H ) :   0.9618 B( 20-C , 21-S ) :   1.0966
B( 20-C , 24-C ) :   1.5314 B( 21-S , 22-C ) :   1.0532 B( 22-C , 23-C ) :   1.5036
B( 22-C , 27-C ) :   1.1120 B( 23-C , 24-C ) :   1.2500 B( 23-C , 26-N ) :   1.1197
B( 24-C , 25-C ) :   1.0277 B( 25-C , 26-N ) :   1.0363 B( 25-C , 60-H ) :   0.9275
B( 25-C , 61-H ) :   0.9191 B( 26-N , 62-H ) :   0.9254 B( 27-C , 28-C ) :   1.6864
B( 27-C , 63-H ) :   0.9578 B( 28-C , 29-C ) :   1.0540 B( 28-C , 64-H ) :   0.9689
B( 29-C , 30-N ) :   1.5140 B( 29-C , 34-N ) :   1.5355 B( 30-N , 31-C ) :   1.5551
B( 31-C , 32-C ) :   1.3678 B( 31-C , 65-H ) :   0.9795 B( 32-C , 33-C ) :   1.3215
B( 32-C , 66-H ) :   0.9759 B( 33-C , 34-N ) :   1.5034 B( 33-C , 35-C ) :   1.0745
B( 35-C , 36-C ) :   1.6713 B( 35-C , 67-H ) :   0.9831 B( 36-C , 37-C ) :   1.1176
B( 36-C , 68-H ) :   0.9621 B( 37-C , 38-C ) :   1.5886 B( 37-C , 69-H ) :   0.9827
B( 38-C , 39-C ) :   1.1226 B( 38-C , 42-S ) :   1.0349 B( 39-C , 40-C ) :   1.6160
B( 39-C , 70-H ) :   0.9997 B( 40-C , 41-C ) :   1.1661 B( 40-C , 71-H ) :   0.9928
B( 41-C , 42-S ) :   1.0340 B( 41-C , 43-C ) :   1.5629 B( 43-C , 44-C ) :   1.1497
B( 43-C , 47-S ) :   1.0462 B( 44-C , 45-C ) :   1.6652 B( 44-C , 72-H ) :   0.9918
B( 45-C , 46-C ) :   1.0783 B( 45-C , 73-H ) :   0.9928 B( 46-C , 47-S ) :   1.0065
B( 46-C , 48-C ) :   1.8662 B( 48-C , 74-H ) :   0.9505 B( 48-C , 75-H ) :   0.9419

-----------------------------------------------------------------------------
         ABSORPTION SPECTRUM VIA TRANSITION ELECTRIC DIPOLE MOMENTS
-----------------------------------------------------------------------------
State   Energy  Wavelength   fosc         T2         TX        TY        TZ
        (cm-1)    (nm)                  (au**2)     (au)      (au)      (au)
-----------------------------------------------------------------------------
   0   18840.8    530.8   1.162801714  20.31801  -2.47050  -0.84945   3.67329
   1   20605.5    485.3   1.691043186  27.01767   4.42290   0.52396   2.67976
   2   23411.9    427.1   0.042888346   0.60308  -0.76562  -0.06381  -0.11329
   3   23856.6    419.2   0.211033270   2.91218   1.55983   0.12307   0.68114
   4   25322.9    394.9   0.808028284  10.50481  -2.98102  -0.18384  -1.25878
   5   26607.0    375.8   0.086770017   1.07362  -0.93397  -0.06280  -0.44427
   6   26662.4    375.1   0.020523407   0.25341   0.45839   0.03139   0.20567
   7   28464.4    351.3   0.011666031   0.13493   0.22418   0.02478   0.28992
   8   28625.2    349.3   0.030504806   0.35083  -0.58393  -0.09047   0.04087
   9   29923.5    334.2   0.000775600   0.00853  -0.00935  -0.01509   0.09065
  10   30116.5    332.0   0.000745647   0.00815   0.02529  -0.08635  -0.00738
  11   31095.9    321.6   0.003417184   0.03618   0.02409  -0.18729  -0.02278
  12   31445.5    318.0   0.003928761   0.04113   0.01131  -0.02626  -0.20078
  13   32242.3    310.2   0.699635472   7.14366  -1.50287   0.01114  -2.21019
  14   32831.9    304.6   0.080881830   0.81102  -0.76766   0.12096  -0.45507
  15   32951.5    303.5   0.026717529   0.26693  -0.43889  -0.20310   0.18183
  16   33007.9    303.0   0.053556776   0.53416   0.67570  -0.06301  -0.27132
  17   34097.4    293.3   0.034301059   0.33118   0.55547  -0.00669  -0.15029
  18   34575.4    289.2   0.066880898   0.63681  -0.28737  -0.03393   0.74369
  19   35003.1    285.7   0.007705608   0.07247  -0.02328   0.06235  -0.26085
  20   35173.2    284.3   0.000111223   0.00104  -0.00539   0.01721   0.02675
  21   35555.3    281.3   0.294791527   2.72952  -0.36787  -0.23614   1.59325
  22   35927.4    278.3   0.047321965   0.43362   0.26950  -0.04433  -0.59919
  23   36156.0    276.6   0.001156584   0.01053  -0.04715  -0.08196   0.03988
  24   36406.7    274.7   0.035165519   0.31799   0.31235   0.05325  -0.46647
  25   36620.4    273.1   0.074512603   0.66986   0.29740  -0.08029  -0.75826
  26   37667.3    265.5   0.040422668   0.35329  -0.17461   0.04265   0.56656
  27   37767.0    264.8   0.019904912   0.17351   0.40220   0.02026   0.10647
  28   39417.6    253.7   0.076116822   0.63572   0.77297   0.10959   0.16193
  29   39500.0    253.2   0.000815036   0.00679  -0.03681  -0.01047  -0.07299
  30   39529.6    253.0   0.000571775   0.00476  -0.02384  -0.01767  -0.06230
  31   39643.6    252.2   0.026588071   0.22079  -0.38998  -0.02471  -0.26095

FINAL SINGLE POINT ENERGY     -3764.056446411698

DIPOLE MOMENT
-------------
                                X             Y             Z
Electronic contribution:      0.00172      -1.60601      10.98992
Nuclear contribution   :      0.25718       1.61375     -12.97467
                        -----------------------------------------
Total Dipole Moment    :      0.25891       0.00774      -1.98475
                        -----------------------------------------
Magnitude (a.u.)       :      2.00158
Magnitude (Debye)      :      5.08761

Rotational constants in cm-1:     0.002823     0.000334     0.000300
Rotational constants in MHz :    84.639650    10.023777     8.984929

                             ****ORCA TERMINATED NORMALLY****
TOTAL RUN TIME: 0 days 0 hours 4 minutes 18 seconds 395 msec
