                         Program Version 4.2.0 -  RELEASE  -
|  1> # ORCA input file
|  2> # SCF done       -176.291786937479          0.000436751930
|  3> ! CAM-B3LYP def2-SVP def2/J RIJCOSX Grid4 TightSCF
|  4> %maxcore 5000
|  5> %tddft
|  6>     Mode sTDDFT
|  7>     Ethresh 5.0
|  8>     maxcore 5000
|  9> end
| 10>
| 11> %pal
| 12>   nprocs 6
| 13>   end
| 14> * xyz 0 1
| 15>    C       -4.87056        -9.46904         1.68378
| 16>    S       -4.95897       -10.54548         0.33099
| 17>    C       -3.25670       -10.37963         0.06008
| 18>    O       -2.62094       -11.01297        -0.93954
| 19>    C       -2.65650        -9.53320         0.97277
| 20>    C       -3.61740        -9.02100         1.89745
| 21>    C       -1.25741        -9.23262         0.91086
| 22>    C       -0.60258        -8.37973         1.72858
| 23>    C        0.78376        -8.05713         1.64291
| 24>    C        1.56177        -7.65496         2.69128
| 25>    C        2.93468        -7.62204         2.25884
| 26>    C        4.01134        -7.22836         3.06207
| 27>    N        4.89019        -6.90562         3.72766
| 28>    C        3.00886        -8.02760         0.94503
| 29>    C        1.67959        -8.24270         0.47387
| 30>    C        1.30560        -8.37210        -0.84480
| 31>    C        2.15683        -8.81860        -1.96719
| 32>    C        1.44102        -8.63501        -3.11902
| 33>    C        0.15752        -8.07349        -2.78172
| 34>    C        0.06487        -7.94377        -1.41734
| 35>    C       -0.83059        -7.73595        -3.71342
| 36>    N       -1.64251        -7.47586        -4.48347
| 37>    C        3.41961        -9.46562        -1.81919
| 38>    C        4.32203        -9.60956        -2.81643
| 39>    C        5.61209       -10.23329        -2.71390
| 40>    C        6.50015       -10.09424        -3.76700
| 41>    C        7.79291       -10.63666        -3.69144
| 42>    C        8.86999       -10.60724        -4.57726
| 43>    C        8.94991        -9.97947        -5.92684
| 44>    C        7.90434       -10.57288        -6.89219
| 45>    N        8.37853       -10.42779        -8.25442
| 46>    C        8.82850        -8.44758        -5.82238
| 47>    N        9.09786        -7.82134        -7.10807
| 48>    C        9.95241       -11.31833        -3.94251
| 49>    C       11.20672       -11.58881        -4.35728
| 50>    C       12.12024       -12.41836        -3.53330
| 51>    C       11.64991       -12.66236        -2.13260
| 52>    C       10.38564       -12.40810        -1.73797
| 53>    C        9.49110       -11.76539        -2.62119
| 54>    C        8.17543       -11.36023        -2.48776
| 55>    C        7.24090       -11.53224        -1.44401
| 56>    C        6.00498       -10.98102        -1.55694
| 57>    C       12.14442       -13.82621        -4.10166
| 58>    C       13.18958       -14.65064        -3.99611
| 59>    C       13.20108       -16.03185        -4.39711
| 60>    C       14.30463       -16.69968        -4.83878
| 61>    C       13.90216       -18.00972        -5.29132
| 62>    C       14.77731       -18.98584        -5.77846
| 63>    N       15.50074       -19.77892        -6.18811
| 64>    C       12.53867       -18.12811        -5.16000
| 65>    C       12.04189       -16.93423        -4.55140
| 66>    C       10.76549       -16.75062        -4.05825
| 67>    C        9.52877       -17.43455        -4.50409
| 68>    C        8.51548       -17.02095        -3.68011
| 69>    C        9.05491       -16.10547        -2.71056
| 70>    C       10.39826       -15.92833        -2.95278
| 71>    C        8.32549       -15.46015        -1.70647
| 72>    N        7.73366       -14.90485        -0.89288
| 73>    C        9.43445       -18.23365        -5.67798
| 74>    C        8.36992       -19.00853        -6.00040
| 75>    C        8.28775       -19.81434        -7.16710
| 76>    S        6.84049       -20.76848        -7.44239
| 77>    C        7.49393       -21.40149        -8.91427
| 78>    O        6.81618       -22.26992        -9.68188
| 79>    C        8.75901       -20.91438        -9.18652
| 80>    C        9.18728       -20.01707        -8.18370
| 81>    C        9.49535       -21.31941       -10.36744
| 82>    C       10.72255       -20.92415       -10.68474
| 83>    H       -5.76785        -9.24677         2.22492
| 84>    H       -3.24063       -11.50202        -1.49292
| 85>    H       -3.36683        -8.34351         2.69252
| 86>    H       -0.72117        -9.75345         0.13018
| 87>    H       -1.12257        -7.94267         2.57140
| 88>    H        1.23707        -7.44132         3.69250
| 89>    H        3.89654        -8.01830         0.34211
| 90>    H        1.73826        -8.89237        -4.11812
| 91>    H       -0.74632        -7.49168        -0.88096
| 92>    H        3.64090        -9.84998        -0.83445
| 93>    H        4.09495        -9.17044        -3.77977
| 94>    H        6.19358        -9.54802        -4.64653
| 95>    H        9.92768       -10.20521        -6.36397
| 96>    H        6.92992       -10.09242        -6.71383
| 97>    H        7.79306       -11.64260        -6.68407
| 98>    H        8.50061        -9.43795        -8.45110
| 99>    H        7.70257       -10.80626        -8.90862
|100>    H        9.50713        -8.10234        -5.02316
|101>    H        7.81170        -8.17723        -5.52907
|102>    H       10.06840        -7.96677        -7.36913
|103>    H        8.93978        -6.82090        -7.05133
|104>    H       11.57064       -11.28297        -5.32849
|105>    H       13.13615       -12.00928        -3.54152
|106>    H       12.36012       -13.13810        -1.47309
|107>    H       10.05050       -12.66128        -0.74317
|108>    H        7.51382       -12.11320        -0.57682
|109>    H        5.28859       -11.12207        -0.76344
|110>    H       11.20543       -14.16361        -4.51332
|111>    H       14.13791       -14.27049        -3.63368
|112>    H       15.31104       -16.32692        -4.88501
|113>    H       11.97447       -19.02444        -5.33314
|114>    H        7.47706       -17.28582        -3.74142
|115>    H       11.07245       -15.35655        -2.34661
|116>    H       10.27460       -18.19984        -6.35489
|117>    H        7.52219       -19.05586        -5.33125
|118>    H        5.95830       -22.48203        -9.29637
|119>    H       10.14467       -19.53184        -8.21315
|120>    H        8.95880       -22.00326       -11.01084
|121>    H       11.29155       -20.24794       -10.07039
|122>    H       11.20487       -21.27070       -11.58167
|123> *
|124>
|125>                          ****END OF INPUT****

CARTESIAN COORDINATES (ANGSTROEM)
---------------------------------
  C     -4.870560   -9.469040    1.683780
  S     -4.958970  -10.545480    0.330990
  C     -3.256700  -10.379630    0.060080
  O     -2.620940  -11.012970   -0.939540
  C     -2.656500   -9.533200    0.972770
  C     -3.617400   -9.021000    1.897450
  C     -1.257410   -9.232620    0.910860
  C     -0.602580   -8.379730    1.728580
  C      0.783760   -8.057130    1.642910
  C      1.561770   -7.654960    2.691280
  C      2.934680   -7.622040    2.258840
  C      4.011340   -7.228360    3.062070
  N      4.890190   -6.905620    3.727660
  C      3.008860   -8.027600    0.945030
  C      1.679590   -8.242700    0.473870
  C      1.305600   -8.372100   -0.844800
  C      2.156830   -8.818600   -1.967190
  C      1.441020   -8.635010   -3.119020
  C      0.157520   -8.073490   -2.781720
  C      0.064870   -7.943770   -1.417340
  C     -0.830590   -7.735950   -3.713420
  N     -1.642510   -7.475860   -4.483470
  C      3.419610   -9.465620   -1.819190
  C      4.322030   -9.609560   -2.816430
  C      5.612090  -10.233290   -2.713900
  C      6.500150  -10.094240   -3.767000
  C      7.792910  -10.636660   -3.691440
  C      8.869990  -10.607240   -4.577260
  C      8.949910   -9.979470   -5.926840
  C      7.904340  -10.572880   -6.892190
  N      8.378530  -10.427790   -8.254420
  C      8.828500   -8.447580   -5.822380
  N      9.097860   -7.821340   -7.108070
  C      9.952410  -11.318330   -3.942510
  C     11.206720  -11.588810   -4.357280
  C     12.120240  -12.418360   -3.533300
  C     11.649910  -12.662360   -2.132600
  C     10.385640  -12.408100   -1.737970
  C      9.491100  -11.765390   -2.621190
  C      8.175430  -11.360230   -2.487760
  C      7.240900  -11.532240   -1.444010
  C      6.004980  -10.981020   -1.556940
  C     12.144420  -13.826210   -4.101660
  C     13.189580  -14.650640   -3.996110
  C     13.201080  -16.031850   -4.397110
  C     14.304630  -16.699680   -4.838780
  C     13.902160  -18.009720   -5.291320
  C     14.777310  -18.985840   -5.778460
  N     15.500740  -19.778920   -6.188110
  C     12.538670  -18.128110   -5.160000
  C     12.041890  -16.934230   -4.551400
  C     10.765490  -16.750620   -4.058250
  C      9.528770  -17.434550   -4.504090
  C      8.515480  -17.020950   -3.680110
  C      9.054910  -16.105470   -2.710560
  C     10.398260  -15.928330   -2.952780
  C      8.325490  -15.460150   -1.706470
  N      7.733660  -14.904850   -0.892880
  C      9.434450  -18.233650   -5.677980
  C      8.369920  -19.008530   -6.000400
  C      8.287750  -19.814340   -7.167100
  S      6.840490  -20.768480   -7.442390
  C      7.493930  -21.401490   -8.914270
  O      6.816180  -22.269920   -9.681880
  C      8.759010  -20.914380   -9.186520
  C      9.187280  -20.017070   -8.183700
  C      9.495350  -21.319410  -10.367440
  C     10.722550  -20.924150  -10.684740
  H     -5.767850   -9.246770    2.224920
  H     -3.240630  -11.502020   -1.492920
  H     -3.366830   -8.343510    2.692520
  H     -0.721170   -9.753450    0.130180
  H     -1.122570   -7.942670    2.571400
  H      1.237070   -7.441320    3.692500
  H      3.896540   -8.018300    0.342110
  H      1.738260   -8.892370   -4.118120
  H     -0.746320   -7.491680   -0.880960
  H      3.640900   -9.849980   -0.834450
  H      4.094950   -9.170440   -3.779770
  H      6.193580   -9.548020   -4.646530
  H      9.927680  -10.205210   -6.363970
  H      6.929920  -10.092420   -6.713830
  H      7.793060  -11.642600   -6.684070
  H      8.500610   -9.437950   -8.451100
  H      7.702570  -10.806260   -8.908620
  H      9.507130   -8.102340   -5.023160
  H      7.811700   -8.177230   -5.529070
  H     10.068400   -7.966770   -7.369130
  H      8.939780   -6.820900   -7.051330
  H     11.570640  -11.282970   -5.328490
  H     13.136150  -12.009280   -3.541520
  H     12.360120  -13.138100   -1.473090
  H     10.050500  -12.661280   -0.743170
  H      7.513820  -12.113200   -0.576820
  H      5.288590  -11.122070   -0.763440
  H     11.205430  -14.163610   -4.513320
  H     14.137910  -14.270490   -3.633680
  H     15.311040  -16.326920   -4.885010
  H     11.974470  -19.024440   -5.333140
  H      7.477060  -17.285820   -3.741420
  H     11.072450  -15.356550   -2.346610
  H     10.274600  -18.199840   -6.354890
  H      7.522190  -19.055860   -5.331250
  H      5.958300  -22.482030   -9.296370
  H     10.144670  -19.531840   -8.213150
  H      8.958800  -22.003260  -11.010840
  H     11.291550  -20.247940  -10.070390
  H     11.204870  -21.270700  -11.581670

 Total Charge           Charge          ....    0
 Multiplicity           Mult            ....    1
 Number of Electrons    NEL             ....  478
 Basis Dimension        Dim             .... 1160

ORBITAL ENERGIES
----------------

  NO   OCC          E(Eh)            E(eV)
   0   2.0000     -88.963756     -2420.8269
   1   2.0000     -88.962808     -2420.8011
   2   2.0000     -19.275333      -524.5085
   3   2.0000     -19.273728      -524.4648
   4   2.0000     -14.410842      -392.1390
   5   2.0000     -14.410678      -392.1345
   6   2.0000     -14.403886      -391.9497
   7   2.0000     -14.401301      -391.8793
   8   2.0000     -14.388054      -391.5189
   9   2.0000     -14.354472      -390.6050
  10   2.0000     -10.365037      -282.0470
  11   2.0000     -10.363912      -282.0164
  12   2.0000     -10.322230      -280.8822
  13   2.0000     -10.321722      -280.8683
  14   2.0000     -10.320607      -280.8380
  15   2.0000     -10.316866      -280.7362
  16   2.0000     -10.313895      -280.6553
  17   2.0000     -10.313253      -280.6379
  18   2.0000     -10.312128      -280.6073
  19   2.0000     -10.309774      -280.5432
  20   2.0000     -10.309116      -280.5253
  21   2.0000     -10.307458      -280.4802
  22   2.0000     -10.303759      -280.3795
  23   2.0000     -10.302098      -280.3343
  24   2.0000     -10.300737      -280.2973
  25   2.0000     -10.300002      -280.2773
  26   2.0000     -10.297085      -280.1979
  27   2.0000     -10.296438      -280.1803
  28   2.0000     -10.294589      -280.1300
  29   2.0000     -10.294572      -280.1295
  30   2.0000     -10.293867      -280.1104
  31   2.0000     -10.293843      -280.1097
  32   2.0000     -10.293682      -280.1053
  33   2.0000     -10.289107      -279.9808
  34   2.0000     -10.288477      -279.9637
  35   2.0000     -10.288119      -279.9539
  36   2.0000     -10.286104      -279.8991
  37   2.0000     -10.285532      -279.8835
  38   2.0000     -10.284259      -279.8489
  39   2.0000     -10.283824      -279.8371
  40   2.0000     -10.283650      -279.8323
  41   2.0000     -10.283572      -279.8302
  42   2.0000     -10.282745      -279.8077
  43   2.0000     -10.282059      -279.7890
  44   2.0000     -10.280345      -279.7424
  45   2.0000     -10.280120      -279.7363
  46   2.0000     -10.278623      -279.6955
  47   2.0000     -10.277464      -279.6640
  48   2.0000     -10.276869      -279.6478
  49   2.0000     -10.275209      -279.6026
  50   2.0000     -10.274755      -279.5903
  51   2.0000     -10.273925      -279.5677
  52   2.0000     -10.273628      -279.5596
  53   2.0000     -10.272636      -279.5326
  54   2.0000     -10.272278      -279.5229
  55   2.0000     -10.272095      -279.5179
  56   2.0000     -10.269943      -279.4594
  57   2.0000     -10.269880      -279.4576
  58   2.0000     -10.269367      -279.4437
  59   2.0000     -10.264897      -279.3221
  60   2.0000     -10.260989      -279.2157
  61   2.0000     -10.260816      -279.2110
  62   2.0000     -10.260586      -279.2047
  63   2.0000     -10.259509      -279.1754
  64   2.0000     -10.258563      -279.1497
  65   2.0000     -10.258347      -279.1438
  66   2.0000     -10.257816      -279.1294
  67   2.0000     -10.256237      -279.0864
  68   2.0000      -8.060650      -219.3414
  69   2.0000      -8.059845      -219.3195
  70   2.0000      -6.029924      -164.0826
  71   2.0000      -6.029257      -164.0644
  72   2.0000      -6.026122      -163.9791
  73   2.0000      -6.025065      -163.9504
  74   2.0000      -6.022254      -163.8739
  75   2.0000      -6.021553      -163.8548
  76   2.0000      -1.171948       -31.8903
  77   2.0000      -1.170104       -31.8401
  78   2.0000      -1.011312       -27.5192
  79   2.0000      -1.003017       -27.2935
  80   2.0000      -0.999513       -27.1981
  81   2.0000      -0.991512       -26.9804
  82   2.0000      -0.987908       -26.8824
  83   2.0000      -0.983944       -26.7745
  84   2.0000      -0.981616       -26.7111
  85   2.0000      -0.980576       -26.6828
  86   2.0000      -0.978931       -26.6381
  87   2.0000      -0.975177       -26.5359
  88   2.0000      -0.969403       -26.3788
  89   2.0000      -0.967069       -26.3153
  90   2.0000      -0.946178       -25.7468
  91   2.0000      -0.935464       -25.4553
  92   2.0000      -0.917815       -24.9750
  93   2.0000      -0.904994       -24.6261
  94   2.0000      -0.900354       -24.4999
  95   2.0000      -0.889823       -24.2133
  96   2.0000      -0.879732       -23.9387
  97   2.0000      -0.878930       -23.9169
  98   2.0000      -0.872421       -23.7398
  99   2.0000      -0.867546       -23.6071
 100   2.0000      -0.861071       -23.4309
 101   2.0000      -0.846916       -23.0457
 102   2.0000      -0.837092       -22.7784
 103   2.0000      -0.835509       -22.7354
 104   2.0000      -0.830508       -22.5993
 105   2.0000      -0.823985       -22.4218
 106   2.0000      -0.815556       -22.1924
 107   2.0000      -0.813072       -22.1248
 108   2.0000      -0.805932       -21.9305
 109   2.0000      -0.797786       -21.7089
 110   2.0000      -0.794831       -21.6285
 111   2.0000      -0.788322       -21.4513
 112   2.0000      -0.787454       -21.4277
 113   2.0000      -0.777938       -21.1688
 114   2.0000      -0.751641       -20.4532
 115   2.0000      -0.739001       -20.1092
 116   2.0000      -0.735299       -20.0085
 117   2.0000      -0.719540       -19.5797
 118   2.0000      -0.718287       -19.5456
 119   2.0000      -0.714429       -19.4406
 120   2.0000      -0.707032       -19.2393
 121   2.0000      -0.701708       -19.0945
 122   2.0000      -0.698271       -19.0009
 123   2.0000      -0.691678       -18.8215
 124   2.0000      -0.688020       -18.7220
 125   2.0000      -0.685407       -18.6509
 126   2.0000      -0.675674       -18.3860
 127   2.0000      -0.666686       -18.1415
 128   2.0000      -0.657220       -17.8839
 129   2.0000      -0.653691       -17.7878
 130   2.0000      -0.652138       -17.7456
 131   2.0000      -0.644513       -17.5381
 132   2.0000      -0.638266       -17.3681
 133   2.0000      -0.631693       -17.1892
 134   2.0000      -0.629862       -17.1394
 135   2.0000      -0.624820       -17.0022
 136   2.0000      -0.622047       -16.9268
 137   2.0000      -0.618133       -16.8203
 138   2.0000      -0.606872       -16.5138
 139   2.0000      -0.603216       -16.4143
 140   2.0000      -0.594182       -16.1685
 141   2.0000      -0.593304       -16.1446
 142   2.0000      -0.592653       -16.1269
 143   2.0000      -0.588460       -16.0128
 144   2.0000      -0.583683       -15.8828
 145   2.0000      -0.575005       -15.6467
 146   2.0000      -0.568494       -15.4695
 147   2.0000      -0.563891       -15.3442
 148   2.0000      -0.562901       -15.3173
 149   2.0000      -0.559015       -15.2116
 150   2.0000      -0.556493       -15.1430
 151   2.0000      -0.551389       -15.0041
 152   2.0000      -0.538700       -14.6588
 153   2.0000      -0.538391       -14.6504
 154   2.0000      -0.535024       -14.5587
 155   2.0000      -0.530676       -14.4404
 156   2.0000      -0.528433       -14.3794
 157   2.0000      -0.524154       -14.2630
 158   2.0000      -0.523712       -14.2509
 159   2.0000      -0.522778       -14.2255
 160   2.0000      -0.522104       -14.2072
 161   2.0000      -0.520727       -14.1697
 162   2.0000      -0.514329       -13.9956
 163   2.0000      -0.512571       -13.9478
 164   2.0000      -0.510991       -13.9048
 165   2.0000      -0.510109       -13.8808
 166   2.0000      -0.507595       -13.8124
 167   2.0000      -0.506503       -13.7827
 168   2.0000      -0.503360       -13.6971
 169   2.0000      -0.500897       -13.6301
 170   2.0000      -0.497349       -13.5336
 171   2.0000      -0.495887       -13.4938
 172   2.0000      -0.494948       -13.4682
 173   2.0000      -0.491581       -13.3766
 174   2.0000      -0.489448       -13.3186
 175   2.0000      -0.489181       -13.3113
 176   2.0000      -0.488752       -13.2996
 177   2.0000      -0.487320       -13.2606
 178   2.0000      -0.485592       -13.2136
 179   2.0000      -0.484801       -13.1921
 180   2.0000      -0.481123       -13.0920
 181   2.0000      -0.480283       -13.0692
 182   2.0000      -0.476878       -12.9765
 183   2.0000      -0.472129       -12.8473
 184   2.0000      -0.464874       -12.6499
 185   2.0000      -0.462759       -12.5923
 186   2.0000      -0.458914       -12.4877
 187   2.0000      -0.456509       -12.4222
 188   2.0000      -0.455409       -12.3923
 189   2.0000      -0.454036       -12.3550
 190   2.0000      -0.446790       -12.1578
 191   2.0000      -0.443910       -12.0794
 192   2.0000      -0.441109       -12.0032
 193   2.0000      -0.439968       -11.9721
 194   2.0000      -0.439338       -11.9550
 195   2.0000      -0.439076       -11.9479
 196   2.0000      -0.438142       -11.9225
 197   2.0000      -0.437083       -11.8936
 198   2.0000      -0.434841       -11.8326
 199   2.0000      -0.433632       -11.7997
 200   2.0000      -0.432389       -11.7659
 201   2.0000      -0.431370       -11.7382
 202   2.0000      -0.430434       -11.7127
 203   2.0000      -0.429857       -11.6970
 204   2.0000      -0.428630       -11.6636
 205   2.0000      -0.424110       -11.5406
 206   2.0000      -0.422400       -11.4941
 207   2.0000      -0.420452       -11.4411
 208   2.0000      -0.414484       -11.2787
 209   2.0000      -0.411968       -11.2102
 210   2.0000      -0.410711       -11.1760
 211   2.0000      -0.409100       -11.1322
 212   2.0000      -0.407456       -11.0874
 213   2.0000      -0.404028       -10.9941
 214   2.0000      -0.402460       -10.9515
 215   2.0000      -0.399081       -10.8595
 216   2.0000      -0.393295       -10.7021
 217   2.0000      -0.391308       -10.6480
 218   2.0000      -0.383999       -10.4492
 219   2.0000      -0.383368       -10.4320
 220   2.0000      -0.374037       -10.1781
 221   2.0000      -0.365764        -9.9529
 222   2.0000      -0.362722        -9.8702
 223   2.0000      -0.358312        -9.7502
 224   2.0000      -0.330665        -8.9979
 225   2.0000      -0.327794        -8.9197
 226   2.0000      -0.323843        -8.8122
 227   2.0000      -0.317070        -8.6279
 228   2.0000      -0.315407        -8.5827
 229   2.0000      -0.310688        -8.4543
 230   2.0000      -0.309466        -8.4210
 231   2.0000      -0.299155        -8.1404
 232   2.0000      -0.293973        -7.9994
 233   2.0000      -0.284746        -7.7483
 234   2.0000      -0.282823        -7.6960
 235   2.0000      -0.261646        -7.1197
 236   2.0000      -0.249070        -6.7775
 237   2.0000      -0.243045        -6.6136
 238   2.0000      -0.215246        -5.8571
 239   0.0000      -0.123089        -3.3494
 240   0.0000      -0.113234        -3.0813
 241   0.0000      -0.066478        -1.8089
 242   0.0000      -0.027308        -0.7431
 243   0.0000      -0.013286        -0.3615

MULLIKEN ATOMIC CHARGES
-----------------------
   0 C :   -0.081610
   1 S :    0.070803
   2 C :   -0.037561
   3 O :   -0.162928
   4 C :    0.030303
   5 C :    0.045728
   6 C :    0.003797
   7 C :   -0.024171
   8 C :    0.099650
   9 C :   -0.032132
  10 C :   -0.096790
  11 C :   -0.126139
  12 N :    0.134592
  13 C :   -0.047136
  14 C :    0.043031
  15 C :    0.045110
  16 C :    0.091254
  17 C :   -0.037653
  18 C :   -0.102788
  19 C :   -0.032570
  20 C :   -0.128931
  21 N :    0.127005
  22 C :   -0.018161
  23 C :   -0.011209
  24 C :    0.138204
  25 C :   -0.111369
  26 C :    0.058753
  27 C :   -0.022979
  28 C :   -0.059353
  29 C :    0.159561
  30 N :   -0.226507
  31 C :    0.141678
  32 N :   -0.217288
  33 C :    0.103597
  34 C :   -0.132158
  35 C :    0.109135
  36 C :   -0.028992
  37 C :    0.011282
  38 C :    0.013917
  39 C :    0.027905
  40 C :    0.017043
  41 C :   -0.027471
  42 C :   -0.062278
  43 C :    0.001941
  44 C :    0.089678
  45 C :   -0.025926
  46 C :   -0.099123
  47 C :   -0.125936
  48 N :    0.137389
  49 C :   -0.041811
  50 C :    0.041760
  51 C :    0.049885
  52 C :    0.100217
  53 C :   -0.040541
  54 C :   -0.105967
  55 C :   -0.028823
  56 C :   -0.105181
  57 N :    0.130037
  58 C :   -0.043690
  59 C :    0.074706
  60 C :   -0.095412
  61 S :    0.075438
  62 C :   -0.030211
  63 O :   -0.161577
  64 C :    0.060588
  65 C :   -0.001274
  66 C :    0.003565
  67 C :   -0.021945
  68 H :    0.028930
  69 H :    0.198165
  70 H :   -0.007341
  71 H :    0.018566
  72 H :   -0.020335
  73 H :   -0.018498
  74 H :    0.004148
  75 H :   -0.014459
  76 H :    0.011087
  77 H :   -0.003118
  78 H :   -0.026778
  79 H :   -0.044660
  80 H :   -0.036998
  81 H :   -0.025168
  82 H :   -0.003722
  83 H :    0.079061
  84 H :    0.080708
  85 H :   -0.004968
  86 H :   -0.010775
  87 H :    0.100249
  88 H :    0.097726
  89 H :   -0.002462
  90 H :    0.016284
  91 H :   -0.005984
  92 H :   -0.022857
  93 H :   -0.023767
  94 H :   -0.026681
  95 H :    0.042289
  96 H :   -0.009162
  97 H :   -0.013864
  98 H :    0.004482
  99 H :   -0.013828
 100 H :   -0.005553
 101 H :   -0.007240
 102 H :   -0.019972
 103 H :    0.196596
 104 H :   -0.019158
 105 H :   -0.005145
 106 H :    0.009616
 107 H :    0.022628
Sum of atomic charges:   -0.0000000

LOEWDIN ATOMIC CHARGES
----------------------
   0 C :   -0.189362
   1 S :    0.390464
   2 C :   -0.091348
   3 O :   -0.038656
   4 C :   -0.121734
   5 C :   -0.040793
   6 C :    0.007542
   7 C :   -0.038453
   8 C :   -0.014556
   9 C :   -0.023381
  10 C :   -0.044692
  11 C :   -0.028301
  12 N :   -0.046491
  13 C :   -0.020838
  14 C :    0.041207
  15 C :    0.037723
  16 C :   -0.029108
  17 C :   -0.002002
  18 C :   -0.062680
  19 C :   -0.002443
  20 C :   -0.029332
  21 N :   -0.057285
  22 C :   -0.036777
  23 C :   -0.000354
  24 C :   -0.025072
  25 C :   -0.016536
  26 C :   -0.019845
  27 C :   -0.029316
  28 C :   -0.041394
  29 C :    0.032234
  30 N :   -0.131016
  31 C :    0.027758
  32 N :   -0.104411
  33 C :   -0.015546
  34 C :    0.059715
  35 C :   -0.027579
  36 C :   -0.034396
  37 C :   -0.013705
  38 C :   -0.038849
  39 C :   -0.022741
  40 C :    0.005187
  41 C :   -0.027660
  42 C :    0.020242
  43 C :   -0.039210
  44 C :   -0.021439
  45 C :   -0.008830
  46 C :   -0.049758
  47 C :   -0.030416
  48 N :   -0.044294
  49 C :   -0.014383
  50 C :    0.036531
  51 C :    0.045848
  52 C :   -0.024395
  53 C :   -0.011312
  54 C :   -0.051162
  55 C :   -0.009143
  56 C :   -0.018080
  57 N :   -0.052445
  58 C :   -0.038861
  59 C :   -0.017853
  60 C :   -0.182977
  61 S :    0.385353
  62 C :   -0.092385
  63 O :   -0.038257
  64 C :   -0.107780
  65 C :   -0.023685
  66 C :   -0.017697
  67 C :   -0.051894
  68 H :    0.024924
  69 H :    0.102399
  70 H :    0.031335
  71 H :    0.035118
  72 H :    0.030145
  73 H :    0.029426
  74 H :    0.035094
  75 H :    0.028839
  76 H :    0.036242
  77 H :    0.027281
  78 H :    0.026683
  79 H :    0.018491
  80 H :    0.019992
  81 H :   -0.003104
  82 H :    0.016636
  83 H :    0.034779
  84 H :    0.048925
  85 H :    0.003624
  86 H :    0.015665
  87 H :    0.055779
  88 H :    0.057731
  89 H :    0.030927
  90 H :    0.046310
  91 H :    0.022939
  92 H :    0.033991
  93 H :    0.031567
  94 H :    0.025692
  95 H :    0.032925
  96 H :    0.032673
  97 H :    0.031589
  98 H :    0.035017
  99 H :    0.028801
 100 H :    0.032372
 101 H :    0.028090
 102 H :    0.027579
 103 H :    0.101078
 104 H :    0.029626
 105 H :    0.031916
 106 H :    0.018275
 107 H :    0.025731

  Mayer bond orders larger than 0.100000
B(  0-C ,  1-S ) :   1.1030 B(  0-C ,  5-C ) :   1.6417 B(  0-C , 68-H ) :   0.9680
B(  1-S ,  2-C ) :   1.1341 B(  2-C ,  3-O ) :   1.2219 B(  2-C ,  4-C ) :   1.4400
B(  3-O , 69-H ) :   0.9504 B(  4-C ,  5-C ) :   1.2069 B(  4-C ,  6-C ) :   1.1269
B(  5-C , 70-H ) :   0.9957 B(  6-C ,  7-C ) :   1.6417 B(  6-C , 71-H ) :   0.9682
B(  7-C ,  8-C ) :   1.1263 B(  7-C , 72-H ) :   0.9638 B(  8-C ,  9-C ) :   1.5674
B(  8-C , 14-C ) :   1.0259 B(  9-C , 10-C ) :   1.1155 B(  9-C , 73-H ) :   1.0226
B( 10-C , 11-C ) :   1.0623 B( 10-C , 13-C ) :   1.5803 B( 11-C , 12-N ) :   3.0365
B( 13-C , 14-C ) :   1.1259 B( 13-C , 74-H ) :   1.0164 B( 14-C , 15-C ) :   1.4626
B( 15-C , 16-C ) :   1.0478 B( 15-C , 19-C ) :   1.1024 B( 16-C , 17-C ) :   1.5960
B( 16-C , 22-C ) :   1.0775 B( 17-C , 18-C ) :   1.1032 B( 17-C , 75-H ) :   1.0151
B( 18-C , 19-C ) :   1.6037 B( 18-C , 20-C ) :   1.0587 B( 19-C , 76-H ) :   1.0112
B( 20-C , 21-N ) :   3.0390 B( 22-C , 23-C ) :   1.6741 B( 22-C , 77-H ) :   0.9550
B( 23-C , 24-C ) :   1.0831 B( 23-C , 78-H ) :   0.9896 B( 24-C , 25-C ) :   1.4918
B( 24-C , 41-C ) :   1.1174 B( 25-C , 26-C ) :   1.1205 B( 25-C , 79-H ) :   0.9959
B( 26-C , 27-C ) :   1.4538 B( 26-C , 39-C ) :   1.1203 B( 27-C , 28-C ) :   1.0249
B( 27-C , 33-C ) :   1.1160 B( 28-C , 29-C ) :   1.0269 B( 28-C , 31-C ) :   1.0474
B( 28-C , 80-H ) :   0.8764 B( 29-C , 30-N ) :   1.1082 B( 29-C , 81-H ) :   0.9251
B( 29-C , 82-H ) :   0.9468 B( 30-N , 83-H ) :   0.9437 B( 30-N , 84-H ) :   0.9672
B( 31-C , 32-N ) :   1.0825 B( 31-C , 85-H ) :   0.9467 B( 31-C , 86-H ) :   0.9332
B( 32-N , 87-H ) :   0.9628 B( 32-N , 88-H ) :   0.9674 B( 33-C , 34-C ) :   1.6624
B( 33-C , 38-C ) :   1.0375 B( 34-C , 35-C ) :   0.9729 B( 34-C , 89-H ) :   0.9787
B( 35-C , 36-C ) :   0.9946 B( 35-C , 42-C ) :   0.9591 B( 35-C , 90-H ) :   0.8971
B( 36-C , 37-C ) :   1.6921 B( 36-C , 91-H ) :   0.9633 B( 37-C , 38-C ) :   1.1475
B( 37-C , 92-H ) :   0.9889 B( 38-C , 39-C ) :   1.4381 B( 39-C , 40-C ) :   1.1452
B( 40-C , 41-C ) :   1.6194 B( 40-C , 93-H ) :   0.9873 B( 41-C , 94-H ) :   0.9840
B( 42-C , 43-C ) :   1.7742 B( 42-C , 95-H ) :   0.9589 B( 43-C , 44-C ) :   1.0865
B( 43-C , 96-H ) :   0.9654 B( 44-C , 45-C ) :   1.5919 B( 44-C , 50-C ) :   1.0509
B( 45-C , 46-C ) :   1.1010 B( 45-C , 97-H ) :   1.0235 B( 46-C , 47-C ) :   1.0601
B( 46-C , 49-C ) :   1.6021 B( 47-C , 48-N ) :   3.0351 B( 49-C , 50-C ) :   1.1113
B( 49-C , 98-H ) :   1.0163 B( 50-C , 51-C ) :   1.4534 B( 51-C , 52-C ) :   1.0376
B( 51-C , 55-C ) :   1.1072 B( 52-C , 53-C ) :   1.5856 B( 52-C , 58-C ) :   1.1031
B( 53-C , 54-C ) :   1.1055 B( 53-C , 99-H ) :   1.0124 B( 54-C , 55-C ) :   1.6042
B( 54-C , 56-C ) :   1.0641 B( 55-C ,100-H ) :   1.0083 B( 56-C , 57-N ) :   3.0001
B( 58-C , 59-C ) :   1.6929 B( 58-C ,101-H ) :   0.9600 B( 59-C , 60-C ) :   1.1226
B( 59-C ,102-H ) :   0.9636 B( 60-C , 61-S ) :   1.0661 B( 60-C , 65-C ) :   1.5329
B( 61-S , 62-C ) :   1.1184 B( 62-C , 63-O ) :   1.2257 B( 62-C , 64-C ) :   1.4456
B( 63-O ,103-H ) :   0.9512 B( 64-C , 65-C ) :   1.2427 B( 64-C , 66-C ) :   1.0840
B( 65-C ,104-H ) :   0.9917 B( 66-C , 67-C ) :   1.9456 B( 66-C ,105-H ) :   0.9678
B( 67-C ,106-H ) :   0.9514 B( 67-C ,107-H ) :   0.9510

-----------------------------------------------------------------------------
         ABSORPTION SPECTRUM VIA TRANSITION ELECTRIC DIPOLE MOMENTS
-----------------------------------------------------------------------------
State   Energy  Wavelength   fosc         T2         TX        TY        TZ
        (cm-1)    (nm)                  (au**2)     (au)      (au)      (au)
-----------------------------------------------------------------------------
   0    5127.6   1950.2   0.014963718   0.96073  -0.33481   0.86359   0.32069
   1    8166.5   1224.5   0.110496054   4.45435  -1.31603   0.82865   1.42680
   2    8290.2   1206.2   0.083255591   3.30617   1.59551   0.74971   0.44546
   3   10711.5    933.6   0.031917843   0.98098   0.79619   0.43477  -0.39754
   4   13480.1    741.8   0.036753176   0.89759   0.15191  -0.69143   0.62963
   5   14757.9    677.6   0.012307578   0.27455  -0.21698  -0.31507   0.35806
   6   14950.8    668.9   0.017959768   0.39547  -0.37049   0.10121  -0.49796
   7   17836.8    560.6   0.001692358   0.03124   0.02180  -0.01427   0.17480
   8   20473.2    488.4   0.073634110   1.18405   0.15555   0.66658   0.84589
   9   20581.4    485.9   0.000398533   0.00637   0.05427   0.02190   0.05431
  10   21008.0    476.0   0.002180882   0.03418   0.01634   0.13761   0.12236
  11   22233.8    449.8   0.000142561   0.00211   0.04473  -0.00345  -0.00989
  12   23001.3    434.8   0.052923086   0.75748   0.69419   0.34851   0.39258
  13   24790.6    403.4   0.203849670   2.70706  -1.33212   0.37694   0.88907
  14   25359.2    394.3   0.016445663   0.21350   0.09242  -0.20743  -0.40240
  15   25721.1    388.8   0.004653813   0.05957   0.07843  -0.15994  -0.16683
  16   25836.6    387.0   0.001648137   0.02100  -0.10302   0.10106   0.01321
  17   26370.9    379.2   0.092517413   1.15498   0.85004  -0.65450  -0.06362
  18   26847.0    372.5   0.200728732   2.46144   0.43074   1.14028   0.98776
  19   27254.8    366.9   0.513209908   6.19909   2.13424  -0.84579  -0.96371
  20   27796.6    359.8   0.233385751   2.76413  -1.16562  -0.00783   1.18549
  21   28177.4    354.9   0.344301187   4.02266   1.49137   0.00774   1.34105
  22   28778.7    347.5   0.010207398   0.11677   0.27683  -0.03855  -0.19658
  23   28990.0    344.9   0.319806593   3.63174   1.76168  -0.14362  -0.71244
  24   29052.5    344.2   0.060523753   0.68583  -0.41989   0.60699  -0.37562
  25   29550.4    338.4   0.007091128   0.07900  -0.21951   0.13397   0.11342
  26   29587.4    338.0   0.002949458   0.03282  -0.00413   0.15275   0.09731
  27   29812.6    335.4   0.167902967   1.85411   1.10404  -0.69333   0.39307
  28   30024.1    333.1   0.090823538   0.99587  -0.70343  -0.23042  -0.66930
  29   30665.2    326.1   0.462531929   4.96560  -1.91648   1.03028   0.48086
  30   30880.9    323.8   0.650760048   6.93755  -0.56957   1.56176   2.04304
  31   31125.1    321.3   0.014050046   0.14861   0.12488   0.14289   0.33556
  32   31527.1    317.2   0.058291735   0.60869  -0.73222   0.08146  -0.25674
  33   31710.3    315.4   0.001099385   0.01141   0.08340  -0.03525  -0.05671
  34   31787.7    314.6   0.001835547   0.01901  -0.11432   0.05007  -0.05860
  35   32722.5    305.6   0.013142309   0.13222   0.04670  -0.35375   0.07001
  36   33129.5    301.8   0.011599961   0.11527   0.31254  -0.08098   0.10504
  37   33829.9    295.6   0.291376599   2.83550  -1.52080   0.15154  -0.70689
  38   34263.3    291.9   0.000050856   0.00049  -0.01905   0.01023  -0.00459
  39   34815.4    287.2   0.008347513   0.07893  -0.19637   0.06879   0.18879
  40   35527.0    281.5   0.073982507   0.68556   0.53456  -0.35347  -0.52428
  41   35967.4    278.0   0.444048416   4.06440   1.60576   0.81218   0.90902
  42   36203.7    276.2   0.028836127   0.26222  -0.16752  -0.23888  -0.42082
  43   36208.1    276.2   0.002623934   0.02386   0.06802   0.01094   0.13824
  44   36344.3    275.1   0.073343549   0.66436  -0.38674   0.50854   0.50614
  45   36498.6    274.0   0.041927634   0.37818  -0.12533   0.34140   0.49590
  46   36714.2    272.4   0.045878761   0.41139   0.61245   0.15916  -0.10470
  47   36814.4    271.6   0.044365973   0.39674  -0.05109   0.11146   0.61782
  48   37264.6    268.4   0.080796126   0.71379  -0.65173  -0.10427  -0.52742
  49   37917.2    263.7   0.101010337   0.87701   0.91790  -0.17828   0.05186
  50   38154.3    262.1   0.002733892   0.02359  -0.15337   0.00500   0.00646
  51   38257.3    261.4   0.000157388   0.00135   0.03566   0.00039   0.00908
  52   38751.9    258.1   0.557143502   4.73314   2.13641  -0.40721  -0.05564
  53   38945.8    256.8   0.067465232   0.57029   0.72688   0.20325   0.02494
  54   39058.7    256.0   0.237105468   1.99848   1.36346   0.17208   0.33142
  55   39721.2    251.8   0.330603258   2.74006  -1.15917  -0.40306  -1.11083
  56   39941.1    250.4   0.116370353   0.95917   0.92062  -0.33006   0.05183
  57   40290.6    248.2   0.030287294   0.24748  -0.15475   0.33287   0.33574

FINAL SINGLE POINT ENERGY     -3505.504416411204

DIPOLE MOMENT
-------------
                                X             Y             Z
Electronic contribution:    -32.72959     -16.81910      28.51163
Nuclear contribution   :     31.31917      15.82414     -29.32967
                        -----------------------------------------
Total Dipole Moment    :     -1.41042      -0.99497      -0.81803
                        -----------------------------------------
Magnitude (a.u.)       :      1.91009
Magnitude (Debye)      :      4.85505

Rotational constants in cm-1:     0.001236     0.000355     0.000315
Rotational constants in MHz :    37.062265    10.642943     9.457149

                             ****ORCA TERMINATED NORMALLY****
TOTAL RUN TIME: 0 days 0 hours 12 minutes 26 seconds 14 msec
