                         Program Version 4.2.0 -  RELEASE  -
|  1> # ORCA input file
|  2> # SCF done       -203.050451650135          0.000475987392
|  3> ! CAM-B3LYP def2-SVP def2/J RIJCOSX Grid4 TightSCF
|  4> %maxcore 5000
|  5> %tddft
|  6>     Mode sTDDFT
|  7>     Ethresh 5.0
|  8>     maxcore 5000
|  9> end
| 10>
| 11> %pal
| 12>   nprocs 6
| 13>   end
| 14> * xyz 0 1
| 15>    C        9.26525         1.69317         5.90234
| 16>    C        8.95467         1.21684         7.14631
| 17>    F        9.71204         1.57199         8.19733
| 18>    C        7.86586         0.36314         7.37629
| 19>    C        7.08269        -0.00991         6.32009
| 20>    C        7.35737         0.45350         5.01640
| 21>    C        8.46803         1.32283         4.80222
| 22>    C        8.75247         1.81081         3.50530
| 23>    C        7.94987         1.44459         2.45819
| 24>    C        6.85169         0.55826         2.67762
| 25>    C        6.55370         0.07330         3.92098
| 26>    C        6.17535         0.30091         1.40247
| 27>    O        5.16776        -0.33515         1.19328
| 28>    C        7.01713         0.97195         0.36579
| 29>    C        7.96713         1.83342         1.05061
| 30>    C        8.59002         2.93052         0.52875
| 31>    C        9.45464         3.76465         1.27096
| 32>    N       10.16356         4.46643         1.83693
| 33>    C        8.35170         3.43235        -0.76924
| 34>    N        8.13043         3.93874        -1.77476
| 35>    C        6.85891         0.62943        -0.93137
| 36>    C        7.70336         0.94583        -2.03693
| 37>    N        9.01041         1.09622        -1.94027
| 38>    C        9.44697         1.32499        -3.19985
| 39>    C        8.33148         1.30830        -4.16313
| 40>    C        8.82233         1.56839        -5.52889
| 41>    O        8.19608         1.59095        -6.56315
| 42>    C       10.26860         1.77503        -5.31259
| 43>    C       10.60387         1.60239        -3.87668
| 44>    N       11.93152         1.79161        -3.67116
| 45>    C       12.42376         2.07371        -4.84914
| 46>    C       11.43864         2.08569        -5.91997
| 47>    C        7.20265         1.07194        -3.42742
| 48>    C        5.82811         0.96735        -3.77981
| 49>    C        5.35270         0.98621        -5.04287
| 50>    C        3.96093         0.76977        -5.28613
| 51>    C        3.23757         0.57127        -6.45379
| 52>    C        3.72413         0.52161        -7.84308
| 53>    O        3.25516        -0.16467        -8.70853
| 54>    O        4.78223         1.31850        -8.01801
| 55>    C        1.92410         0.27561        -5.98685
| 56>    N        1.89045         0.31679        -4.67396
| 57>    O        3.12559         0.62190        -4.24057
| 58>    C        0.78501        -0.11496        -6.77911
| 59>    N        0.49565         0.42032        -7.93352
| 60>    C       -0.53148        -0.31717        -8.43146
| 61>    C       -0.88499        -1.41638        -7.51243
| 62>    C       -1.98847        -2.22056        -8.06909
| 63>    O       -2.51444        -3.20460        -7.60248
| 64>    C       -2.27935        -1.52549        -9.33913
| 65>    C       -1.36001        -0.37145        -9.51627
| 66>    N       -1.63487         0.27862       -10.67721
| 67>    C       -2.63216        -0.37422       -11.20950
| 68>    C       -3.08989        -1.51135       -10.42312
| 69>    C       -0.07703        -1.26903        -6.41826
| 70>    C        0.03736        -1.99336        -5.19682
| 71>    C       -0.41693        -3.26053        -5.04378
| 72>    C       -0.34580        -4.04183        -3.86053
| 73>    C        0.40720        -3.96387        -2.72660
| 74>    C       -0.05867        -4.79166        -1.56738
| 75>    O       -0.89676        -5.66175        -1.60414
| 76>    C        0.68517        -4.29823        -0.39906
| 77>    C        0.56015        -4.66448         0.91019
| 78>    C        1.38682        -4.05089         1.87685
| 79>    C        2.31601        -3.05344         1.46176
| 80>    C        3.14132        -2.44245         2.42579
| 81>    C        3.03634        -2.82645         3.73242
| 82>    C        2.13067        -3.80410         4.16399
| 83>    C        1.31832        -4.40251         3.24074
| 84>    F        3.83632        -2.24832         4.65603
| 85>    C        2.42142        -2.69154         0.09807
| 86>    C        1.62611        -3.31718        -0.82521
| 87>    C        1.56042        -3.20686        -2.28338
| 88>    C        2.55991        -2.66670        -3.05248
| 89>    C        2.63835        -2.76859        -4.45449
| 90>    N        2.77258        -2.83226        -5.59297
| 91>    C        3.68816        -1.99826        -2.53955
| 92>    N        4.63198        -1.42978        -2.21387
| 93>    H       10.10915         2.35090         5.76471
| 94>    H        7.67125         0.02098         8.38031
| 95>    H        6.23804        -0.66586         6.46710
| 96>    H        9.60328         2.45955         3.37051
| 97>    H        5.71599        -0.59002         4.07354
| 98>    H        6.00739        -0.01013        -1.15333
| 99>    H       13.47592         2.26799        -4.96627
|100>    H       11.64390         2.29714        -6.95059
|101>    H        5.12921         0.83193        -2.96669
|102>    H        5.99052         1.12573        -5.90338
|103>    H        5.11155         1.25695        -8.92875
|104>    H       -3.04700        -0.06098       -12.15210
|105>    H       -3.89612        -2.16628       -10.68819
|106>    H        0.49713        -1.45428        -4.37982
|107>    H       -0.93891        -3.71951        -5.87418
|108>    H       -1.07347        -4.85060        -3.81696
|109>    H       -0.15619        -5.41783         1.20167
|110>    H        3.84908        -1.68746         2.12208
|111>    H        2.09237        -4.06459         5.20993
|112>    H        0.61159        -5.15904         3.54666
|113>    H        3.12906        -1.92278        -0.16829
|114> *
|115>
|116>                          ****END OF INPUT****

CARTESIAN COORDINATES (ANGSTROEM)
---------------------------------
  C      9.265250    1.693170    5.902340
  C      8.954670    1.216840    7.146310
  F      9.712040    1.571990    8.197330
  C      7.865860    0.363140    7.376290
  C      7.082690   -0.009910    6.320090
  C      7.357370    0.453500    5.016400
  C      8.468030    1.322830    4.802220
  C      8.752470    1.810810    3.505300
  C      7.949870    1.444590    2.458190
  C      6.851690    0.558260    2.677620
  C      6.553700    0.073300    3.920980
  C      6.175350    0.300910    1.402470
  O      5.167760   -0.335150    1.193280
  C      7.017130    0.971950    0.365790
  C      7.967130    1.833420    1.050610
  C      8.590020    2.930520    0.528750
  C      9.454640    3.764650    1.270960
  N     10.163560    4.466430    1.836930
  C      8.351700    3.432350   -0.769240
  N      8.130430    3.938740   -1.774760
  C      6.858910    0.629430   -0.931370
  C      7.703360    0.945830   -2.036930
  N      9.010410    1.096220   -1.940270
  C      9.446970    1.324990   -3.199850
  C      8.331480    1.308300   -4.163130
  C      8.822330    1.568390   -5.528890
  O      8.196080    1.590950   -6.563150
  C     10.268600    1.775030   -5.312590
  C     10.603870    1.602390   -3.876680
  N     11.931520    1.791610   -3.671160
  C     12.423760    2.073710   -4.849140
  C     11.438640    2.085690   -5.919970
  C      7.202650    1.071940   -3.427420
  C      5.828110    0.967350   -3.779810
  C      5.352700    0.986210   -5.042870
  C      3.960930    0.769770   -5.286130
  C      3.237570    0.571270   -6.453790
  C      3.724130    0.521610   -7.843080
  O      3.255160   -0.164670   -8.708530
  O      4.782230    1.318500   -8.018010
  C      1.924100    0.275610   -5.986850
  N      1.890450    0.316790   -4.673960
  O      3.125590    0.621900   -4.240570
  C      0.785010   -0.114960   -6.779110
  N      0.495650    0.420320   -7.933520
  C     -0.531480   -0.317170   -8.431460
  C     -0.884990   -1.416380   -7.512430
  C     -1.988470   -2.220560   -8.069090
  O     -2.514440   -3.204600   -7.602480
  C     -2.279350   -1.525490   -9.339130
  C     -1.360010   -0.371450   -9.516270
  N     -1.634870    0.278620  -10.677210
  C     -2.632160   -0.374220  -11.209500
  C     -3.089890   -1.511350  -10.423120
  C     -0.077030   -1.269030   -6.418260
  C      0.037360   -1.993360   -5.196820
  C     -0.416930   -3.260530   -5.043780
  C     -0.345800   -4.041830   -3.860530
  C      0.407200   -3.963870   -2.726600
  C     -0.058670   -4.791660   -1.567380
  O     -0.896760   -5.661750   -1.604140
  C      0.685170   -4.298230   -0.399060
  C      0.560150   -4.664480    0.910190
  C      1.386820   -4.050890    1.876850
  C      2.316010   -3.053440    1.461760
  C      3.141320   -2.442450    2.425790
  C      3.036340   -2.826450    3.732420
  C      2.130670   -3.804100    4.163990
  C      1.318320   -4.402510    3.240740
  F      3.836320   -2.248320    4.656030
  C      2.421420   -2.691540    0.098070
  C      1.626110   -3.317180   -0.825210
  C      1.560420   -3.206860   -2.283380
  C      2.559910   -2.666700   -3.052480
  C      2.638350   -2.768590   -4.454490
  N      2.772580   -2.832260   -5.592970
  C      3.688160   -1.998260   -2.539550
  N      4.631980   -1.429780   -2.213870
  H     10.109150    2.350900    5.764710
  H      7.671250    0.020980    8.380310
  H      6.238040   -0.665860    6.467100
  H      9.603280    2.459550    3.370510
  H      5.715990   -0.590020    4.073540
  H      6.007390   -0.010130   -1.153330
  H     13.475920    2.267990   -4.966270
  H     11.643900    2.297140   -6.950590
  H      5.129210    0.831930   -2.966690
  H      5.990520    1.125730   -5.903380
  H      5.111550    1.256950   -8.928750
  H     -3.047000   -0.060980  -12.152100
  H     -3.896120   -2.166280  -10.688190
  H      0.497130   -1.454280   -4.379820
  H     -0.938910   -3.719510   -5.874180
  H     -1.073470   -4.850600   -3.816960
  H     -0.156190   -5.417830    1.201670
  H      3.849080   -1.687460    2.122080
  H      2.092370   -4.064590    5.209930
  H      0.611590   -5.159040    3.546660
  H      3.129060   -1.922780   -0.168290

 Total Charge           Charge          ....    0
 Multiplicity           Mult            ....    1
 Number of Electrons    NEL             ....  518
 Basis Dimension        Dim             .... 1197

ORBITAL ENERGIES
----------------

  NO   OCC          E(Eh)            E(eV)
   0   2.0000     -24.794711      -674.6984
   1   2.0000     -24.792476      -674.6376
   2   2.0000     -19.331965      -526.0495
   3   2.0000     -19.262032      -524.1465
   4   2.0000     -19.236495      -523.4516
   5   2.0000     -19.220508      -523.0166
   6   2.0000     -19.218981      -522.9751
   7   2.0000     -19.215088      -522.8691
   8   2.0000     -19.201510      -522.4996
   9   2.0000     -14.479150      -393.9977
  10   2.0000     -14.428924      -392.6310
  11   2.0000     -14.425048      -392.5255
  12   2.0000     -14.424286      -392.5048
  13   2.0000     -14.422150      -392.4467
  14   2.0000     -14.421541      -392.4301
  15   2.0000     -14.420776      -392.4093
  16   2.0000     -14.414548      -392.2398
  17   2.0000     -14.413247      -392.2044
  18   2.0000     -10.408443      -283.2281
  19   2.0000     -10.384319      -282.5717
  20   2.0000     -10.379781      -282.4482
  21   2.0000     -10.378659      -282.4177
  22   2.0000     -10.377106      -282.3754
  23   2.0000     -10.369802      -282.1766
  24   2.0000     -10.365005      -282.0461
  25   2.0000     -10.364994      -282.0458
  26   2.0000     -10.356853      -281.8243
  27   2.0000     -10.351844      -281.6880
  28   2.0000     -10.351750      -281.6854
  29   2.0000     -10.350090      -281.6403
  30   2.0000     -10.348635      -281.6007
  31   2.0000     -10.347802      -281.5780
  32   2.0000     -10.340255      -281.3726
  33   2.0000     -10.339083      -281.3408
  34   2.0000     -10.335660      -281.2476
  35   2.0000     -10.335459      -281.2421
  36   2.0000     -10.334515      -281.2164
  37   2.0000     -10.334281      -281.2101
  38   2.0000     -10.334026      -281.2031
  39   2.0000     -10.333895      -281.1996
  40   2.0000     -10.325994      -280.9846
  41   2.0000     -10.324615      -280.9471
  42   2.0000     -10.322917      -280.9009
  43   2.0000     -10.321078      -280.8508
  44   2.0000     -10.318917      -280.7920
  45   2.0000     -10.316520      -280.7268
  46   2.0000     -10.314675      -280.6766
  47   2.0000     -10.314666      -280.6763
  48   2.0000     -10.310582      -280.5652
  49   2.0000     -10.310224      -280.5555
  50   2.0000     -10.309855      -280.5454
  51   2.0000     -10.308696      -280.5139
  52   2.0000     -10.307216      -280.4736
  53   2.0000     -10.306210      -280.4462
  54   2.0000     -10.304868      -280.4097
  55   2.0000     -10.304251      -280.3929
  56   2.0000     -10.302681      -280.3502
  57   2.0000     -10.301688      -280.3232
  58   2.0000     -10.301661      -280.3224
  59   2.0000     -10.301055      -280.3060
  60   2.0000     -10.301027      -280.3052
  61   2.0000     -10.300636      -280.2945
  62   2.0000     -10.300476      -280.2902
  63   2.0000     -10.299395      -280.2608
  64   2.0000     -10.299166      -280.2546
  65   2.0000     -10.299080      -280.2522
  66   2.0000     -10.298704      -280.2420
  67   2.0000     -10.298356      -280.2325
  68   2.0000     -10.298317      -280.2315
  69   2.0000     -10.298174      -280.2276
  70   2.0000     -10.297597      -280.2119
  71   2.0000     -10.296799      -280.1902
  72   2.0000     -10.296492      -280.1818
  73   2.0000     -10.295513      -280.1551
  74   2.0000     -10.294702      -280.1331
  75   2.0000     -10.290528      -280.0195
  76   2.0000     -10.289090      -279.9804
  77   2.0000     -10.282781      -279.8087
  78   2.0000      -1.308026       -35.5932
  79   2.0000      -1.306479       -35.5511
  80   2.0000      -1.272089       -34.6153
  81   2.0000      -1.189600       -32.3707
  82   2.0000      -1.151248       -31.3271
  83   2.0000      -1.135235       -30.8913
  84   2.0000      -1.133743       -30.8507
  85   2.0000      -1.130978       -30.7755
  86   2.0000      -1.094767       -29.7901
  87   2.0000      -1.088732       -29.6259
  88   2.0000      -1.086777       -29.5727
  89   2.0000      -1.069583       -29.1048
  90   2.0000      -1.068216       -29.0676
  91   2.0000      -1.027330       -27.9551
  92   2.0000      -1.026378       -27.9292
  93   2.0000      -1.009508       -27.4701
  94   2.0000      -1.004957       -27.3463
  95   2.0000      -1.002857       -27.2891
  96   2.0000      -1.001612       -27.2552
  97   2.0000      -0.988816       -26.9071
  98   2.0000      -0.985417       -26.8145
  99   2.0000      -0.977406       -26.5966
 100   2.0000      -0.947619       -25.7860
 101   2.0000      -0.945680       -25.7333
 102   2.0000      -0.937904       -25.5217
 103   2.0000      -0.934542       -25.4302
 104   2.0000      -0.932754       -25.3815
 105   2.0000      -0.924166       -25.1478
 106   2.0000      -0.915959       -24.9245
 107   2.0000      -0.906417       -24.6649
 108   2.0000      -0.901748       -24.5378
 109   2.0000      -0.894922       -24.3521
 110   2.0000      -0.887000       -24.1365
 111   2.0000      -0.883671       -24.0459
 112   2.0000      -0.876695       -23.8561
 113   2.0000      -0.868173       -23.6242
 114   2.0000      -0.865056       -23.5394
 115   2.0000      -0.846360       -23.0306
 116   2.0000      -0.842942       -22.9376
 117   2.0000      -0.837504       -22.7896
 118   2.0000      -0.832519       -22.6540
 119   2.0000      -0.820432       -22.3251
 120   2.0000      -0.806019       -21.9329
 121   2.0000      -0.796936       -21.6857
 122   2.0000      -0.782970       -21.3057
 123   2.0000      -0.776527       -21.1304
 124   2.0000      -0.769615       -20.9423
 125   2.0000      -0.767527       -20.8855
 126   2.0000      -0.762292       -20.7430
 127   2.0000      -0.759666       -20.6716
 128   2.0000      -0.737560       -20.0700
 129   2.0000      -0.735253       -20.0072
 130   2.0000      -0.732058       -19.9203
 131   2.0000      -0.724976       -19.7276
 132   2.0000      -0.719911       -19.5898
 133   2.0000      -0.716958       -19.5094
 134   2.0000      -0.713020       -19.4023
 135   2.0000      -0.710155       -19.3243
 136   2.0000      -0.694235       -18.8911
 137   2.0000      -0.689603       -18.7651
 138   2.0000      -0.684270       -18.6199
 139   2.0000      -0.682568       -18.5736
 140   2.0000      -0.678821       -18.4717
 141   2.0000      -0.664220       -18.0743
 142   2.0000      -0.658632       -17.9223
 143   2.0000      -0.649848       -17.6833
 144   2.0000      -0.645487       -17.5646
 145   2.0000      -0.641912       -17.4673
 146   2.0000      -0.639533       -17.4026
 147   2.0000      -0.636715       -17.3259
 148   2.0000      -0.634428       -17.2637
 149   2.0000      -0.631504       -17.1841
 150   2.0000      -0.624715       -16.9994
 151   2.0000      -0.621331       -16.9073
 152   2.0000      -0.616753       -16.7827
 153   2.0000      -0.613695       -16.6995
 154   2.0000      -0.608277       -16.5521
 155   2.0000      -0.606861       -16.5135
 156   2.0000      -0.597109       -16.2482
 157   2.0000      -0.596541       -16.2327
 158   2.0000      -0.592320       -16.1178
 159   2.0000      -0.585039       -15.9197
 160   2.0000      -0.583388       -15.8748
 161   2.0000      -0.576784       -15.6951
 162   2.0000      -0.573399       -15.6030
 163   2.0000      -0.569926       -15.5085
 164   2.0000      -0.566027       -15.4024
 165   2.0000      -0.565221       -15.3805
 166   2.0000      -0.563703       -15.3391
 167   2.0000      -0.563141       -15.3238
 168   2.0000      -0.561579       -15.2813
 169   2.0000      -0.559666       -15.2293
 170   2.0000      -0.555990       -15.1293
 171   2.0000      -0.553620       -15.0648
 172   2.0000      -0.553331       -15.0569
 173   2.0000      -0.549413       -14.9503
 174   2.0000      -0.548390       -14.9224
 175   2.0000      -0.547649       -14.9023
 176   2.0000      -0.545065       -14.8320
 177   2.0000      -0.540894       -14.7185
 178   2.0000      -0.537561       -14.6278
 179   2.0000      -0.536479       -14.5983
 180   2.0000      -0.534519       -14.5450
 181   2.0000      -0.532578       -14.4922
 182   2.0000      -0.530834       -14.4447
 183   2.0000      -0.527235       -14.3468
 184   2.0000      -0.524608       -14.2753
 185   2.0000      -0.521572       -14.1927
 186   2.0000      -0.518774       -14.1166
 187   2.0000      -0.517136       -14.0720
 188   2.0000      -0.515592       -14.0300
 189   2.0000      -0.514478       -13.9997
 190   2.0000      -0.508541       -13.8381
 191   2.0000      -0.507451       -13.8085
 192   2.0000      -0.504403       -13.7255
 193   2.0000      -0.501434       -13.6447
 194   2.0000      -0.499897       -13.6029
 195   2.0000      -0.495748       -13.4900
 196   2.0000      -0.494044       -13.4436
 197   2.0000      -0.493394       -13.4259
 198   2.0000      -0.491931       -13.3861
 199   2.0000      -0.490060       -13.3352
 200   2.0000      -0.488778       -13.3003
 201   2.0000      -0.484271       -13.1777
 202   2.0000      -0.482072       -13.1178
 203   2.0000      -0.480854       -13.0847
 204   2.0000      -0.480364       -13.0714
 205   2.0000      -0.478768       -13.0280
 206   2.0000      -0.471948       -12.8423
 207   2.0000      -0.471046       -12.8178
 208   2.0000      -0.467942       -12.7333
 209   2.0000      -0.465208       -12.6590
 210   2.0000      -0.462207       -12.5773
 211   2.0000      -0.461547       -12.5593
 212   2.0000      -0.457844       -12.4586
 213   2.0000      -0.457464       -12.4482
 214   2.0000      -0.456819       -12.4307
 215   2.0000      -0.454308       -12.3624
 216   2.0000      -0.451645       -12.2899
 217   2.0000      -0.450053       -12.2466
 218   2.0000      -0.446328       -12.1452
 219   2.0000      -0.444095       -12.0844
 220   2.0000      -0.439911       -11.9706
 221   2.0000      -0.438898       -11.9430
 222   2.0000      -0.437084       -11.8937
 223   2.0000      -0.434397       -11.8205
 224   2.0000      -0.431298       -11.7362
 225   2.0000      -0.429597       -11.6899
 226   2.0000      -0.424240       -11.5442
 227   2.0000      -0.421199       -11.4614
 228   2.0000      -0.416333       -11.3290
 229   2.0000      -0.409772       -11.1504
 230   2.0000      -0.406410       -11.0590
 231   2.0000      -0.402963       -10.9652
 232   2.0000      -0.396820       -10.7980
 233   2.0000      -0.393042       -10.6952
 234   2.0000      -0.389595       -10.6014
 235   2.0000      -0.385682       -10.4949
 236   2.0000      -0.378427       -10.2975
 237   2.0000      -0.373027       -10.1506
 238   2.0000      -0.369434       -10.0528
 239   2.0000      -0.367542       -10.0013
 240   2.0000      -0.363514        -9.8917
 241   2.0000      -0.362425        -9.8621
 242   2.0000      -0.360491        -9.8095
 243   2.0000      -0.355861        -9.6835
 244   2.0000      -0.353002        -9.6057
 245   2.0000      -0.350252        -9.5309
 246   2.0000      -0.343372        -9.3436
 247   2.0000      -0.342663        -9.3243
 248   2.0000      -0.338552        -9.2125
 249   2.0000      -0.338057        -9.1990
 250   2.0000      -0.335004        -9.1159
 251   2.0000      -0.330676        -8.9982
 252   2.0000      -0.325937        -8.8692
 253   2.0000      -0.319172        -8.6851
 254   2.0000      -0.317268        -8.6333
 255   2.0000      -0.304314        -8.2808
 256   2.0000      -0.299884        -8.1602
 257   2.0000      -0.290303        -7.8995
 258   2.0000      -0.287961        -7.8358
 259   0.0000      -0.130217        -3.5434
 260   0.0000      -0.117673        -3.2021
 261   0.0000      -0.095539        -2.5998
 262   0.0000      -0.088611        -2.4112
 263   0.0000      -0.068662        -1.8684

MULLIKEN ATOMIC CHARGES
-----------------------
   0 C :   -0.097281
   1 C :    0.304200
   2 F :   -0.185905
   3 C :   -0.026815
   4 C :   -0.007173
   5 C :    0.093642
   6 C :    0.104089
   7 C :   -0.082260
   8 C :    0.042320
   9 C :    0.016470
  10 C :   -0.072386
  11 C :    0.152309
  12 O :   -0.137510
  13 C :   -0.054981
  14 C :    0.271772
  15 C :   -0.278156
  16 C :   -0.186968
  17 N :    0.161462
  18 C :   -0.177180
  19 N :    0.163321
  20 C :   -0.015998
  21 C :    0.012474
  22 N :   -0.031692
  23 C :    0.078481
  24 C :   -0.136109
  25 C :    0.224451
  26 O :   -0.128226
  27 C :   -0.015166
  28 C :   -0.018429
  29 N :   -0.049722
  30 C :    0.096812
  31 C :   -0.091220
  32 C :    0.079874
  33 C :    0.004101
  34 C :   -0.019449
  35 C :    0.177462
  36 C :   -0.043520
  37 C :    0.128693
  38 O :   -0.167337
  39 O :   -0.163749
  40 C :   -0.019913
  41 N :    0.010345
  42 O :   -0.175033
  43 C :    0.025037
  44 N :    0.004362
  45 C :    0.094096
  46 C :   -0.161034
  47 C :    0.219337
  48 O :   -0.126132
  49 C :   -0.021016
  50 C :   -0.019141
  51 N :   -0.045074
  52 C :    0.094945
  53 C :   -0.093873
  54 C :    0.028063
  55 C :    0.000748
  56 C :    0.031145
  57 C :    0.027901
  58 C :   -0.115933
  59 C :    0.129428
  60 O :   -0.141315
  61 C :    0.015790
  62 C :   -0.077737
  63 C :    0.093660
  64 C :    0.095582
  65 C :   -0.076531
  66 C :    0.301464
  67 C :   -0.020677
  68 C :   -0.010814
  69 F :   -0.198836
  70 C :   -0.089794
  71 C :    0.037710
  72 C :    0.305905
  73 C :   -0.347565
  74 C :   -0.210231
  75 N :    0.178449
  76 C :   -0.147766
  77 N :    0.160778
  78 H :    0.000819
  79 H :    0.006121
  80 H :   -0.001166
  81 H :    0.000065
  82 H :   -0.025112
  83 H :    0.025044
  84 H :    0.016830
  85 H :    0.000438
  86 H :    0.016001
  87 H :    0.026482
  88 H :    0.200015
  89 H :    0.015421
  90 H :    0.000318
  91 H :    0.027008
  92 H :    0.021969
  93 H :    0.038526
  94 H :   -0.011381
  95 H :   -0.033504
  96 H :    0.000344
  97 H :   -0.009375
  98 H :    0.004106
Sum of atomic charges:   -0.0000000

LOEWDIN ATOMIC CHARGES
----------------------
   0 C :   -0.041545
   1 C :    0.096709
   2 F :   -0.060546
   3 C :   -0.034435
   4 C :    0.009072
   5 C :   -0.018221
   6 C :    0.007287
   7 C :    0.013796
   8 C :   -0.013831
   9 C :   -0.066265
  10 C :    0.042998
  11 C :    0.099235
  12 O :   -0.132930
  13 C :   -0.033533
  14 C :    0.068058
  15 C :   -0.100423
  16 C :   -0.015045
  17 N :   -0.037428
  18 C :   -0.012974
  19 N :   -0.043590
  20 C :    0.044021
  21 C :    0.062844
  22 N :   -0.081750
  23 C :    0.047397
  24 C :   -0.028597
  25 C :    0.071749
  26 O :   -0.130727
  27 C :   -0.034755
  28 C :    0.040684
  29 N :   -0.091897
  30 C :    0.086352
  31 C :   -0.027597
  32 C :   -0.017881
  33 C :    0.011198
  34 C :   -0.012257
  35 C :    0.075118
  36 C :   -0.103381
  37 C :    0.079239
  38 O :   -0.154830
  39 O :   -0.024830
  40 C :   -0.020647
  41 N :   -0.029036
  42 O :    0.043002
  43 C :    0.070464
  44 N :   -0.062594
  45 C :    0.052864
  46 C :   -0.032403
  47 C :    0.069416
  48 O :   -0.130231
  49 C :   -0.035745
  50 C :    0.039039
  51 N :   -0.088677
  52 C :    0.084202
  53 C :   -0.027771
  54 C :   -0.017284
  55 C :    0.031490
  56 C :   -0.016381
  57 C :    0.072845
  58 C :   -0.088028
  59 C :    0.083807
  60 O :   -0.138830
  61 C :   -0.059363
  62 C :    0.034999
  63 C :   -0.017487
  64 C :    0.003339
  65 C :   -0.036325
  66 C :    0.087408
  67 C :   -0.036738
  68 C :    0.001804
  69 F :   -0.074775
  70 C :    0.016389
  71 C :   -0.020810
  72 C :    0.076477
  73 C :   -0.141194
  74 C :   -0.016777
  75 N :   -0.042408
  76 C :    0.011929
  77 N :   -0.059991
  78 H :    0.044446
  79 H :    0.043057
  80 H :    0.038983
  81 H :    0.040901
  82 H :    0.036544
  83 H :    0.047891
  84 H :    0.026696
  85 H :    0.036653
  86 H :    0.033802
  87 H :    0.041032
  88 H :    0.107775
  89 H :    0.026171
  90 H :    0.036637
  91 H :    0.033096
  92 H :    0.040114
  93 H :    0.051690
  94 H :    0.039944
  95 H :    0.034657
  96 H :    0.040576
  97 H :    0.035636
  98 H :    0.041230

  Mayer bond orders larger than 0.100000
B(  0-C ,  1-C ) :   1.4387 B(  0-C ,  6-C ) :   1.2051 B(  0-C , 78-H ) :   1.0070
B(  1-C ,  2-F ) :   1.0935 B(  1-C ,  3-C ) :   1.2523 B(  3-C ,  4-C ) :   1.4617
B(  3-C , 79-H ) :   0.9930 B(  4-C ,  5-C ) :   1.2305 B(  4-C , 80-H ) :   0.9980
B(  5-C ,  6-C ) :   1.2451 B(  5-C , 10-C ) :   1.2134 B(  6-C ,  7-C ) :   1.2060
B(  7-C ,  8-C ) :   1.4628 B(  7-C , 81-H ) :   0.9936 B(  8-C ,  9-C ) :   1.2051
B(  8-C , 14-C ) :   1.0030 B(  9-C , 10-C ) :   1.4414 B(  9-C , 11-C ) :   0.9351
B( 10-C , 82-H ) :   1.0116 B( 11-C , 12-O ) :   2.1447 B( 11-C , 13-C ) :   0.9442
B( 12-O , 95-H ) :   0.1112 B( 13-C , 14-C ) :   0.9959 B( 13-C , 20-C ) :   1.7577
B( 14-C , 15-C ) :   1.7081 B( 15-C , 16-C ) :   1.1339 B( 15-C , 18-C ) :   1.1583
B( 16-C , 17-N ) :   2.9842 B( 18-C , 19-N ) :   2.9788 B( 20-C , 21-C ) :   1.0193
B( 20-C , 83-H ) :   0.9068 B( 21-C , 22-N ) :   1.6007 B( 21-C , 23-C ) :   0.1168
B( 21-C , 32-C ) :   1.0258 B( 22-N , 23-C ) :   1.2962 B( 23-C , 24-C ) :   1.0600
B( 23-C , 28-C ) :   1.4488 B( 24-C , 25-C ) :   0.8871 B( 24-C , 32-C ) :   1.5608
B( 25-C , 26-O ) :   2.2204 B( 25-C , 27-C ) :   0.9177 B( 27-C , 28-C ) :   1.0553
B( 27-C , 31-C ) :   1.6291 B( 28-C , 29-N ) :   1.3006 B( 29-N , 30-C ) :   1.6704
B( 30-C , 31-C ) :   1.0511 B( 30-C , 84-H ) :   0.9886 B( 31-C , 85-H ) :   1.0100
B( 32-C , 33-C ) :   1.1015 B( 33-C , 34-C ) :   1.6652 B( 33-C , 86-H ) :   0.9528
B( 34-C , 35-C ) :   1.1282 B( 34-C , 87-H ) :   0.9435 B( 35-C , 36-C ) :   1.4190
B( 35-C , 42-O ) :   1.1478 B( 36-C , 37-C ) :   0.9045 B( 36-C , 40-C ) :   1.2576
B( 37-C , 38-O ) :   2.1763 B( 37-C , 39-O ) :   1.2739 B( 39-O , 88-H ) :   0.9369
B( 40-C , 41-N ) :   1.6709 B( 40-C , 43-C ) :   0.9508 B( 41-N , 42-O ) :   1.0083
B( 43-C , 44-N ) :   1.7015 B( 43-C , 45-C ) :   0.1334 B( 43-C , 54-C ) :   1.0465
B( 44-N , 45-C ) :   1.2868 B( 45-C , 46-C ) :   1.0497 B( 45-C , 50-C ) :   1.4617
B( 46-C , 47-C ) :   0.8864 B( 46-C , 54-C ) :   1.5635 B( 47-C , 48-O ) :   2.2419
B( 47-C , 49-C ) :   0.9094 B( 49-C , 50-C ) :   1.0503 B( 49-C , 53-C ) :   1.6326
B( 50-C , 51-N ) :   1.2915 B( 51-N , 52-C ) :   1.6803 B( 52-C , 53-C ) :   1.0500
B( 52-C , 89-H ) :   0.9880 B( 53-C , 90-H ) :   1.0105 B( 54-C , 55-C ) :   1.1531
B( 55-C , 56-C ) :   1.6279 B( 55-C , 91-H ) :   0.9237 B( 56-C , 57-C ) :   1.1640
B( 56-C , 92-H ) :   0.9480 B( 57-C , 58-C ) :   1.6474 B( 57-C , 93-H ) :   0.9239
B( 58-C , 59-C ) :   0.9391 B( 58-C , 72-C ) :   1.0337 B( 59-C , 60-O ) :   2.2560
B( 59-C , 61-C ) :   0.9245 B( 61-C , 62-C ) :   1.4743 B( 61-C , 71-C ) :   1.2149
B( 62-C , 63-C ) :   1.1880 B( 62-C , 94-H ) :   1.0163 B( 63-C , 64-C ) :   1.2471
B( 63-C , 68-C ) :   1.2361 B( 64-C , 65-C ) :   1.2150 B( 64-C , 70-C ) :   1.2161
B( 65-C , 66-C ) :   1.4322 B( 65-C , 95-H ) :   0.9866 B( 66-C , 67-C ) :   1.2602
B( 66-C , 69-F ) :   1.0397 B( 67-C , 68-C ) :   1.4643 B( 67-C , 96-H ) :   0.9918
B( 68-C , 97-H ) :   0.9982 B( 70-C , 71-C ) :   1.4375 B( 70-C , 98-H ) :   0.9964
B( 71-C , 72-C ) :   1.0005 B( 72-C , 73-C ) :   1.6229 B( 73-C , 74-C ) :   1.1881
B( 73-C , 76-C ) :   1.1369 B( 74-C , 75-N ) :   2.9478 B( 76-C , 77-N ) :   2.9220
B( 77-N , 83-H ) :   0.1147

-----------------------------------------------------------------------------
         ABSORPTION SPECTRUM VIA TRANSITION ELECTRIC DIPOLE MOMENTS
-----------------------------------------------------------------------------
State   Energy  Wavelength   fosc         T2         TX        TY        TZ
        (cm-1)    (nm)                  (au**2)     (au)      (au)      (au)
-----------------------------------------------------------------------------
   0   17142.9    583.3   0.063998636   1.22903  -1.04465  -0.16919   0.33031
   1   19529.0    512.1   0.214810802   3.62120  -0.90838   0.41717  -1.61926
   2   21091.7    474.1   0.011127626   0.17369   0.22008  -0.11780  -0.33373
   3   21796.4    458.8   0.092727098   1.40054   0.52172  -0.38651  -0.98942
   4   22255.6    449.3   0.000820878   0.01214  -0.09110   0.04535  -0.04227
   5   23197.9    431.1   0.242300231   3.43860   0.98742  -0.29698   1.54124
   6   23225.1    430.6   0.159018440   2.25406   0.77633  -0.54096   1.16564
   7   23403.4    427.3   0.084820307   1.19315   0.60220  -0.26843   0.87089
   8   24505.2    408.1   0.066571630   0.89435   0.41861  -0.02920  -0.84751
   9   24696.8    404.9   0.019637756   0.26177   0.17040   0.11389  -0.46879
  10   25423.2    393.3   0.067485784   0.87389  -0.28182   0.06993   0.88858
  11   25536.6    391.6   0.016679307   0.21503   0.06277  -0.07143  -0.45385
  12   25677.7    389.4   0.013379372   0.17154   0.33314  -0.12326   0.21298
  13   25849.1    386.9   0.052947537   0.67434   0.49711   0.03542   0.65266
  14   25933.5    385.6   0.366223174   4.64902   0.26600   0.03225  -2.13944
  15   26356.3    379.4   0.002933361   0.03664   0.15409  -0.02502   0.11078
  16   26874.7    372.1   0.036291057   0.44456   0.64458  -0.16448   0.04498
  17   26886.2    371.9   0.101339138   1.24086   0.96875   0.32812  -0.44127
  18   27170.0    368.1   0.029855037   0.36175   0.06606   0.01041   0.59772
  19   27462.0    364.1   0.024463773   0.29327   0.52322   0.08094   0.11384
  20   27978.1    357.4   0.002324905   0.02736  -0.01353  -0.08352  -0.14212
  21   28220.1    354.4   0.462132623   5.39118  -2.27285  -0.45723   0.12756
  22   28738.6    348.0   0.007595950   0.08701  -0.14465   0.13201  -0.22060
  23   29011.0    344.7   0.000731113   0.00830  -0.05794  -0.05386  -0.04515
  24   29784.2    335.7   0.707539778   7.82060   1.99954   0.10071   1.95251
  25   30017.0    333.1   0.128382182   1.40803   0.59962  -0.03991   1.02318
  26   30123.9    332.0   0.135109725   1.47656   1.02611   0.16095  -0.63068
  27   30670.9    326.0   0.015761175   0.16918   0.38571   0.12159   0.07495
  28   30704.0    325.7   0.060817065   0.65209  -0.49474  -0.40695   0.49165
  29   30728.3    325.4   0.181429165   1.94377   0.40160   0.76359  -1.09518
  30   31173.3    320.8   0.008254497   0.08717   0.08697   0.09366   0.26615
  31   31263.1    319.9   0.293591827   3.09163  -0.39627   0.58067  -1.61165
  32   31514.1    317.3   0.309340194   3.23152   0.34638  -0.24849   1.74637
  33   31613.6    316.3   0.019118435   0.19909   0.10347   0.31915  -0.29416
  34   32005.2    312.4   0.003351785   0.03448   0.09254  -0.10985   0.11767
  35   32289.6    309.7   0.115932898   1.18200   0.60722  -0.00395  -0.90182
  36   32557.5    307.1   0.005871008   0.05937  -0.13753  -0.04022   0.19706
  37   33093.1    302.2   0.071218434   0.70848  -0.41849  -0.29237   0.66923
  38   33227.5    301.0   0.127985861   1.26806   0.82106   0.14086   0.75768
  39   33665.6    297.0   0.019036515   0.18616  -0.29549   0.01233   0.31415
  40   33891.9    295.1   0.026204415   0.25454   0.36887   0.32024  -0.12616
  41   34047.5    293.7   0.041917475   0.40531   0.50207   0.27056   0.28291
  42   34254.2    291.9   0.146359701   1.40664  -0.41207   0.00121  -1.11213
  43   34503.2    289.8   0.128268222   1.22387  -0.17518   0.20639  -1.07265
  44   34805.4    287.3   0.010023213   0.09481   0.00673  -0.11407   0.28592
  45   34844.6    287.0   0.099181854   0.93707  -0.10884  -0.06222  -0.95987
  46   34969.4    286.0   0.028519622   0.26849   0.09414  -0.06126   0.50584
  47   35148.1    284.5   0.905287492   8.47930  -0.23315  -0.50388   2.85850
  48   35544.4    281.3   0.071266525   0.66007  -0.50926  -0.50512   0.38154
  49   35584.9    281.0   0.011907109   0.11016  -0.21018  -0.13760   0.21691
  50   35622.2    280.7   0.265563091   2.45427  -0.75061  -0.97806   0.96656
  51   35821.2    279.2   0.072203612   0.66358   0.35077   0.10807   0.72723
  52   36244.4    275.9   0.115112992   1.04558  -0.77839  -0.11454  -0.65313
  53   36411.8    274.6   0.027366170   0.24743   0.28960   0.37115  -0.16065
  54   36437.0    274.4   0.040712135   0.36784  -0.16197   0.05283  -0.58208
  55   36753.7    272.1   0.164151460   1.47035  -0.68599  -0.53563   0.84432
  56   36782.7    271.9   0.089277072   0.79905   0.04763  -0.52028   0.72532
  57   36852.8    271.3   0.045213932   0.40390   0.16409   0.36124  -0.49647
  58   36879.0    271.2   0.163007488   1.45514   1.06682   0.43259  -0.36043
  59   36902.6    271.0   0.023644627   0.21094   0.36552   0.05413   0.27277
  60   37088.1    269.6   0.009809494   0.08707  -0.28710  -0.05217  -0.04387
  61   37238.6    268.5   0.095958536   0.84833   0.25561   0.06576   0.88242
  62   37400.2    267.4   0.007152813   0.06296  -0.20822  -0.08121   0.11407
  63   37611.3    265.9   0.005883413   0.05150  -0.14813  -0.15062  -0.08287
  64   37851.0    264.2   0.080136138   0.69699   0.44986   0.32955   0.62129
  65   38016.5    263.0   0.004713333   0.04082  -0.01045  -0.01630  -0.20110
  66   38090.9    262.5   0.002670381   0.02308  -0.12423   0.01198  -0.08662
  67   38413.0    260.3   0.013282905   0.11384   0.28659   0.12573  -0.12608
  68   38616.6    259.0   0.004863985   0.04147   0.11945   0.08955   0.13848
  69   38792.6    257.8   0.028205807   0.23937   0.26181  -0.14333   0.38766
  70   38884.9    257.2   0.013628191   0.11538  -0.24566  -0.17450  -0.15678
  71   38901.2    257.1   0.014295329   0.12098   0.22063   0.25876  -0.07311
  72   39180.2    255.2   0.061267060   0.51480  -0.17998  -0.38881   0.57553
  73   39261.2    254.7   0.017918970   0.15025  -0.22141   0.11268  -0.29755
  74   39272.9    254.6   0.087549755   0.73390  -0.71647  -0.20549  -0.42231
  75   39412.3    253.7   0.174867594   1.46067   0.43759   0.26210   1.09567
  76   39969.4    250.2   0.046081166   0.37955   0.43309   0.14281   0.41424
  77   40039.8    249.8   0.003316395   0.02727   0.14324  -0.04896   0.06597
  78   40076.6    249.5   0.054424108   0.44707  -0.45992  -0.23122  -0.42671
  79   40198.7    248.8   0.066608704   0.54550   0.51124   0.35260   0.39975
  80   40275.5    248.3   0.079132664   0.64683  -0.61262  -0.42111  -0.30691

FINAL SINGLE POINT ENERGY     -3513.447971014934

DIPOLE MOMENT
-------------
                                X             Y             Z
Electronic contribution:      8.51974       9.19448       1.27122
Nuclear contribution   :     -8.79164     -10.21109       0.45822
                        -----------------------------------------
Total Dipole Moment    :     -0.27190      -1.01661       1.72943
                        -----------------------------------------
Magnitude (a.u.)       :      2.02444
Magnitude (Debye)      :      5.14572

Rotational constants in cm-1:     0.001109     0.000522     0.000375
Rotational constants in MHz :    33.257941    15.652952    11.238924

                             ****ORCA TERMINATED NORMALLY****
TOTAL RUN TIME: 0 days 0 hours 10 minutes 45 seconds 710 msec
