                         Program Version 4.2.0 -  RELEASE  -
|  1> # ORCA input file
|  2> # SCF done       -188.387577946594          0.000630703281
|  3> ! CAM-B3LYP def2-SVP def2/J RIJCOSX Grid4 TightSCF
|  4> %maxcore 5000
|  5> %tddft
|  6>     Mode sTDDFT
|  7>     Ethresh 5.0
|  8>     maxcore 5000
|  9> end
| 10>
| 11> %pal
| 12>   nprocs 6
| 13>   end
| 14> * xyz 0 1
| 15>    C      -11.65478        -3.15445         5.30459
| 16>    C      -12.75846        -3.79203         4.75906
| 17>    C      -12.77370        -4.18623         3.42719
| 18>    C      -11.68229        -3.96116         2.60148
| 19>    C      -10.57201        -3.32661         3.13399
| 20>    C      -10.55855        -2.91585         4.48921
| 21>    C       -9.28836        -2.26828         4.77195
| 22>    C       -8.79347        -1.91353         5.99451
| 23>    C       -9.49591        -2.08716         7.20851
| 24>    N      -10.02366        -2.19995         8.22008
| 25>    C       -7.49858        -1.39056         6.20657
| 26>    N       -6.44863        -0.98548         6.43134
| 27>    C       -8.61770        -2.09833         3.47998
| 28>    C       -9.29307        -2.98701         2.53154
| 29>    C       -8.73656        -3.55196         1.42397
| 30>    C       -7.38215        -3.37692         1.06005
| 31>    N       -6.27115        -3.32716         0.77949
| 32>    C       -9.41531        -4.46477         0.58666
| 33>    N       -9.92896        -5.21180        -0.11511
| 34>    C       -7.68546        -1.14639         3.22605
| 35>    C       -7.24623        -0.69287         1.94759
| 36>    N       -7.97995        -0.80026         0.85281
| 37>    C       -7.31344        -0.12443        -0.10666
| 38>    C       -6.08608         0.48415         0.42837
| 39>    C       -5.35350         1.20427        -0.63236
| 40>    O       -4.32724         1.83259        -0.54713
| 41>    C       -6.20035         0.95650        -1.82017
| 42>    C       -7.39274         0.15421        -1.44562
| 43>    N       -8.16310        -0.09371        -2.53352
| 44>    C       -7.53501         0.46969        -3.53289
| 45>    C       -6.29412         1.13404        -3.15897
| 46>    C       -6.01125         0.10129         1.73995
| 47>    C       -5.00136         0.37246         2.70913
| 48>    C       -4.67551        -0.46208         3.72170
| 49>    C       -3.69836        -0.13338         4.69820
| 50>    N       -3.14905         1.04047         4.83625
| 51>    C       -2.29490         1.05221         5.85197
| 52>    C       -2.14326        -0.17769         6.55177
| 53>    S       -3.16498        -1.36760         5.86417
| 54>    N       -1.28344        -0.17332         7.55686
| 55>    C       -0.74846         1.01015         7.70724
| 56>    S       -1.29541         2.24972         6.55152
| 57>    C        0.19787         1.37706         8.68791
| 58>    N        0.60611         2.63407         8.78124
| 59>    C        1.48423         2.66014         9.80046
| 60>    C        1.67165         1.31970        10.37866
| 61>    C        2.62400         1.37506        11.50283
| 62>    O        3.04293         0.46189        12.18432
| 63>    C        2.95013         2.80608        11.58136
| 64>    C        2.24645         3.55422        10.51428
| 65>    N        2.53661         4.87378        10.58692
| 66>    C        3.34533         4.99242        11.61241
| 67>    C        3.64025         3.74095        12.28317
| 68>    C        0.83535         0.48084         9.68071
| 69>    C        0.57771        -0.90812         9.83004
| 70>    C        1.24649        -1.65934        10.74124
| 71>    C        1.01691        -3.04181        10.93880
| 72>    C        1.52347        -3.75971        11.98331
| 73>    C        1.65550        -5.21221        12.03141
| 74>    C        0.95919        -6.12571        11.28855
| 75>    C       -0.06624        -5.80840        10.37170
| 76>    N       -0.91276        -5.62342         9.61884
| 77>    C        1.14623        -7.52218        11.37325
| 78>    N        1.25073        -8.66483        11.39250
| 79>    C        2.68141        -5.50304        13.02319
| 80>    C        3.04475        -4.30154        13.67519
| 81>    C        4.02726        -4.29787        14.65127
| 82>    C        4.64217        -5.49780        14.97568
| 83>    C        4.27957        -6.67995        14.34495
| 84>    C        3.29847        -6.69663        13.36531
| 85>    C        2.21427        -3.22575        13.15544
| 86>    C        1.95590        -2.03653        13.77675
| 87>    C        2.63067        -1.59552        14.93610
| 88>    N        3.14742        -1.19613        15.87905
| 89>    C        0.89828        -1.16542        13.42815
| 90>    N        0.00891        -0.46349        13.24767
| 91>    H      -11.66099        -2.84684         6.33761
| 92>    H      -13.62026        -3.97955         5.38077
| 93>    H      -13.64866        -4.67396         3.02597
| 94>    H      -11.70797        -4.26309         1.56706
| 95>    H       -7.28366        -0.58446         4.05879
| 96>    H       -7.94423         0.42408        -4.52731
| 97>    H       -5.63543         1.64499        -3.83266
| 98>    H       -4.44047         1.28909         2.58517
| 99>    H       -5.12418        -1.44150         3.81145
|100>    H        3.73167         5.95782        11.88969
|101>    H        4.27123         3.62594        13.14204
|102>    H       -0.20305        -1.33391         9.21595
|103>    H        2.02265        -1.18668        11.32755
|104>    H        0.46764        -3.56118        10.16516
|105>    H        4.32150        -3.38418        15.14154
|106>    H        5.41486        -5.50982        15.72909
|107>    H        4.77077        -7.60203        14.61569
|108>    H        3.03397        -7.62237        12.88107
|109> *
|110>
|111>                          ****END OF INPUT****

CARTESIAN COORDINATES (ANGSTROEM)
---------------------------------
  C    -11.654780   -3.154450    5.304590
  C    -12.758460   -3.792030    4.759060
  C    -12.773700   -4.186230    3.427190
  C    -11.682290   -3.961160    2.601480
  C    -10.572010   -3.326610    3.133990
  C    -10.558550   -2.915850    4.489210
  C     -9.288360   -2.268280    4.771950
  C     -8.793470   -1.913530    5.994510
  C     -9.495910   -2.087160    7.208510
  N    -10.023660   -2.199950    8.220080
  C     -7.498580   -1.390560    6.206570
  N     -6.448630   -0.985480    6.431340
  C     -8.617700   -2.098330    3.479980
  C     -9.293070   -2.987010    2.531540
  C     -8.736560   -3.551960    1.423970
  C     -7.382150   -3.376920    1.060050
  N     -6.271150   -3.327160    0.779490
  C     -9.415310   -4.464770    0.586660
  N     -9.928960   -5.211800   -0.115110
  C     -7.685460   -1.146390    3.226050
  C     -7.246230   -0.692870    1.947590
  N     -7.979950   -0.800260    0.852810
  C     -7.313440   -0.124430   -0.106660
  C     -6.086080    0.484150    0.428370
  C     -5.353500    1.204270   -0.632360
  O     -4.327240    1.832590   -0.547130
  C     -6.200350    0.956500   -1.820170
  C     -7.392740    0.154210   -1.445620
  N     -8.163100   -0.093710   -2.533520
  C     -7.535010    0.469690   -3.532890
  C     -6.294120    1.134040   -3.158970
  C     -6.011250    0.101290    1.739950
  C     -5.001360    0.372460    2.709130
  C     -4.675510   -0.462080    3.721700
  C     -3.698360   -0.133380    4.698200
  N     -3.149050    1.040470    4.836250
  C     -2.294900    1.052210    5.851970
  C     -2.143260   -0.177690    6.551770
  S     -3.164980   -1.367600    5.864170
  N     -1.283440   -0.173320    7.556860
  C     -0.748460    1.010150    7.707240
  S     -1.295410    2.249720    6.551520
  C      0.197870    1.377060    8.687910
  N      0.606110    2.634070    8.781240
  C      1.484230    2.660140    9.800460
  C      1.671650    1.319700   10.378660
  C      2.624000    1.375060   11.502830
  O      3.042930    0.461890   12.184320
  C      2.950130    2.806080   11.581360
  C      2.246450    3.554220   10.514280
  N      2.536610    4.873780   10.586920
  C      3.345330    4.992420   11.612410
  C      3.640250    3.740950   12.283170
  C      0.835350    0.480840    9.680710
  C      0.577710   -0.908120    9.830040
  C      1.246490   -1.659340   10.741240
  C      1.016910   -3.041810   10.938800
  C      1.523470   -3.759710   11.983310
  C      1.655500   -5.212210   12.031410
  C      0.959190   -6.125710   11.288550
  C     -0.066240   -5.808400   10.371700
  N     -0.912760   -5.623420    9.618840
  C      1.146230   -7.522180   11.373250
  N      1.250730   -8.664830   11.392500
  C      2.681410   -5.503040   13.023190
  C      3.044750   -4.301540   13.675190
  C      4.027260   -4.297870   14.651270
  C      4.642170   -5.497800   14.975680
  C      4.279570   -6.679950   14.344950
  C      3.298470   -6.696630   13.365310
  C      2.214270   -3.225750   13.155440
  C      1.955900   -2.036530   13.776750
  C      2.630670   -1.595520   14.936100
  N      3.147420   -1.196130   15.879050
  C      0.898280   -1.165420   13.428150
  N      0.008910   -0.463490   13.247670
  H    -11.660990   -2.846840    6.337610
  H    -13.620260   -3.979550    5.380770
  H    -13.648660   -4.673960    3.025970
  H    -11.707970   -4.263090    1.567060
  H     -7.283660   -0.584460    4.058790
  H     -7.944230    0.424080   -4.527310
  H     -5.635430    1.644990   -3.832660
  H     -4.440470    1.289090    2.585170
  H     -5.124180   -1.441500    3.811450
  H      3.731670    5.957820   11.889690
  H      4.271230    3.625940   13.142040
  H     -0.203050   -1.333910    9.215950
  H      2.022650   -1.186680   11.327550
  H      0.467640   -3.561180   10.165160
  H      4.321500   -3.384180   15.141540
  H      5.414860   -5.509820   15.729090
  H      4.770770   -7.602030   14.615690
  H      3.033970   -7.622370   12.881070

 Total Charge           Charge          ....    0
 Multiplicity           Mult            ....    1
 Number of Electrons    NEL             ....  512
 Basis Dimension        Dim             .... 1162

ORBITAL ENERGIES
----------------

  NO   OCC          E(Eh)            E(eV)
   0   2.0000     -88.984453     -2421.3901
   1   2.0000     -88.980040     -2421.2700
   2   2.0000     -19.224616      -523.1284
   3   2.0000     -19.222435      -523.0691
   4   2.0000     -14.448490      -393.1634
   5   2.0000     -14.444668      -393.0594
   6   2.0000     -14.439073      -392.9072
   7   2.0000     -14.435737      -392.8164
   8   2.0000     -14.435336      -392.8055
   9   2.0000     -14.434270      -392.7765
  10   2.0000     -14.434190      -392.7743
  11   2.0000     -14.425161      -392.5286
  12   2.0000     -14.421651      -392.4331
  13   2.0000     -14.420486      -392.4014
  14   2.0000     -14.418855      -392.3570
  15   2.0000     -14.416339      -392.2885
  16   2.0000     -14.412505      -392.1842
  17   2.0000     -14.411410      -392.1544
  18   2.0000     -10.386012      -282.6178
  19   2.0000     -10.381956      -282.5074
  20   2.0000     -10.375091      -282.3206
  21   2.0000     -10.370382      -282.1924
  22   2.0000     -10.369413      -282.1661
  23   2.0000     -10.365825      -282.0684
  24   2.0000     -10.362526      -281.9787
  25   2.0000     -10.361119      -281.9404
  26   2.0000     -10.358818      -281.8778
  27   2.0000     -10.355687      -281.7926
  28   2.0000     -10.352562      -281.7075
  29   2.0000     -10.350333      -281.6469
  30   2.0000     -10.349359      -281.6204
  31   2.0000     -10.349281      -281.6182
  32   2.0000     -10.349256      -281.6176
  33   2.0000     -10.349029      -281.6114
  34   2.0000     -10.347981      -281.5829
  35   2.0000     -10.346466      -281.5417
  36   2.0000     -10.346270      -281.5363
  37   2.0000     -10.345900      -281.5263
  38   2.0000     -10.341227      -281.3991
  39   2.0000     -10.341044      -281.3941
  40   2.0000     -10.340464      -281.3783
  41   2.0000     -10.340076      -281.3678
  42   2.0000     -10.336125      -281.2603
  43   2.0000     -10.335684      -281.2483
  44   2.0000     -10.331655      -281.1386
  45   2.0000     -10.331179      -281.1257
  46   2.0000     -10.330228      -281.0998
  47   2.0000     -10.329910      -281.0911
  48   2.0000     -10.322584      -280.8918
  49   2.0000     -10.322352      -280.8855
  50   2.0000     -10.321283      -280.8564
  51   2.0000     -10.317972      -280.7663
  52   2.0000     -10.317738      -280.7599
  53   2.0000     -10.316751      -280.7331
  54   2.0000     -10.316115      -280.7158
  55   2.0000     -10.315254      -280.6923
  56   2.0000     -10.315124      -280.6888
  57   2.0000     -10.314858      -280.6816
  58   2.0000     -10.314655      -280.6760
  59   2.0000     -10.313429      -280.6427
  60   2.0000     -10.310792      -280.5709
  61   2.0000     -10.310433      -280.5611
  62   2.0000     -10.310102      -280.5521
  63   2.0000     -10.310088      -280.5518
  64   2.0000     -10.309853      -280.5454
  65   2.0000     -10.308964      -280.5212
  66   2.0000     -10.307481      -280.4808
  67   2.0000     -10.302837      -280.3544
  68   2.0000     -10.299164      -280.2545
  69   2.0000     -10.298650      -280.2405
  70   2.0000     -10.297833      -280.2183
  71   2.0000     -10.297393      -280.2063
  72   2.0000     -10.296441      -280.1804
  73   2.0000     -10.295907      -280.1659
  74   2.0000     -10.294912      -280.1388
  75   2.0000     -10.289728      -279.9977
  76   2.0000      -8.079655      -219.8586
  77   2.0000      -8.076071      -219.7611
  78   2.0000      -6.048659      -164.5924
  79   2.0000      -6.045114      -164.4959
  80   2.0000      -6.044878      -164.4895
  81   2.0000      -6.041798      -164.4057
  82   2.0000      -6.041465      -164.3966
  83   2.0000      -6.037899      -164.2996
  84   2.0000      -1.140753       -31.0415
  85   2.0000      -1.136261       -30.9192
  86   2.0000      -1.112505       -30.2728
  87   2.0000      -1.101027       -29.9605
  88   2.0000      -1.088885       -29.6301
  89   2.0000      -1.081536       -29.4301
  90   2.0000      -1.070994       -29.1432
  91   2.0000      -1.063475       -28.9386
  92   2.0000      -1.054493       -28.6942
  93   2.0000      -1.035649       -28.1814
  94   2.0000      -1.032840       -28.1050
  95   2.0000      -1.024150       -27.8685
  96   2.0000      -1.019219       -27.7344
  97   2.0000      -1.014604       -27.6088
  98   2.0000      -1.012707       -27.5572
  99   2.0000      -1.003370       -27.3031
 100   2.0000      -0.997899       -27.1542
 101   2.0000      -0.992607       -27.0102
 102   2.0000      -0.977329       -26.5945
 103   2.0000      -0.959637       -26.1131
 104   2.0000      -0.958121       -26.0718
 105   2.0000      -0.954602       -25.9760
 106   2.0000      -0.947588       -25.7852
 107   2.0000      -0.943778       -25.6815
 108   2.0000      -0.937424       -25.5086
 109   2.0000      -0.931004       -25.3339
 110   2.0000      -0.927847       -25.2480
 111   2.0000      -0.916198       -24.9310
 112   2.0000      -0.907152       -24.6849
 113   2.0000      -0.898901       -24.4603
 114   2.0000      -0.892049       -24.2739
 115   2.0000      -0.886513       -24.1232
 116   2.0000      -0.882747       -24.0208
 117   2.0000      -0.881707       -23.9925
 118   2.0000      -0.876838       -23.8600
 119   2.0000      -0.868271       -23.6268
 120   2.0000      -0.863546       -23.4983
 121   2.0000      -0.844377       -22.9767
 122   2.0000      -0.836268       -22.7560
 123   2.0000      -0.831906       -22.6373
 124   2.0000      -0.808334       -21.9959
 125   2.0000      -0.798361       -21.7245
 126   2.0000      -0.791434       -21.5360
 127   2.0000      -0.787836       -21.4381
 128   2.0000      -0.774214       -21.0674
 129   2.0000      -0.767797       -20.8928
 130   2.0000      -0.761891       -20.7321
 131   2.0000      -0.744706       -20.2645
 132   2.0000      -0.738151       -20.0861
 133   2.0000      -0.732665       -19.9368
 134   2.0000      -0.729764       -19.8579
 135   2.0000      -0.719846       -19.5880
 136   2.0000      -0.713522       -19.4159
 137   2.0000      -0.711999       -19.3745
 138   2.0000      -0.704839       -19.1796
 139   2.0000      -0.698670       -19.0118
 140   2.0000      -0.695950       -18.9378
 141   2.0000      -0.685032       -18.6407
 142   2.0000      -0.683262       -18.5925
 143   2.0000      -0.678365       -18.4593
 144   2.0000      -0.672711       -18.3054
 145   2.0000      -0.668939       -18.2027
 146   2.0000      -0.664462       -18.0809
 147   2.0000      -0.663378       -18.0514
 148   2.0000      -0.655310       -17.8319
 149   2.0000      -0.653058       -17.7706
 150   2.0000      -0.639300       -17.3962
 151   2.0000      -0.634623       -17.2690
 152   2.0000      -0.631504       -17.1841
 153   2.0000      -0.628122       -17.0921
 154   2.0000      -0.617723       -16.8091
 155   2.0000      -0.610731       -16.6188
 156   2.0000      -0.607272       -16.5247
 157   2.0000      -0.605274       -16.4703
 158   2.0000      -0.594273       -16.1710
 159   2.0000      -0.590854       -16.0779
 160   2.0000      -0.588975       -16.0268
 161   2.0000      -0.584164       -15.8959
 162   2.0000      -0.578394       -15.7389
 163   2.0000      -0.575789       -15.6680
 164   2.0000      -0.567483       -15.4420
 165   2.0000      -0.565076       -15.3765
 166   2.0000      -0.563417       -15.3314
 167   2.0000      -0.561660       -15.2836
 168   2.0000      -0.557655       -15.1746
 169   2.0000      -0.556504       -15.1432
 170   2.0000      -0.553123       -15.0512
 171   2.0000      -0.551153       -14.9976
 172   2.0000      -0.549900       -14.9636
 173   2.0000      -0.545217       -14.8361
 174   2.0000      -0.541857       -14.7447
 175   2.0000      -0.539335       -14.6761
 176   2.0000      -0.536143       -14.5892
 177   2.0000      -0.533786       -14.5251
 178   2.0000      -0.533236       -14.5101
 179   2.0000      -0.531675       -14.4676
 180   2.0000      -0.527201       -14.3459
 181   2.0000      -0.525263       -14.2931
 182   2.0000      -0.523042       -14.2327
 183   2.0000      -0.519284       -14.1304
 184   2.0000      -0.516501       -14.0547
 185   2.0000      -0.514176       -13.9914
 186   2.0000      -0.513085       -13.9618
 187   2.0000      -0.509985       -13.8774
 188   2.0000      -0.504207       -13.7202
 189   2.0000      -0.501901       -13.6574
 190   2.0000      -0.499085       -13.5808
 191   2.0000      -0.497995       -13.5511
 192   2.0000      -0.494922       -13.4675
 193   2.0000      -0.488283       -13.2869
 194   2.0000      -0.485511       -13.2114
 195   2.0000      -0.484594       -13.1865
 196   2.0000      -0.481802       -13.1105
 197   2.0000      -0.480256       -13.0684
 198   2.0000      -0.478625       -13.0241
 199   2.0000      -0.476207       -12.9583
 200   2.0000      -0.475301       -12.9336
 201   2.0000      -0.472795       -12.8654
 202   2.0000      -0.470618       -12.8062
 203   2.0000      -0.469311       -12.7706
 204   2.0000      -0.466406       -12.6916
 205   2.0000      -0.465879       -12.6772
 206   2.0000      -0.464473       -12.6389
 207   2.0000      -0.463084       -12.6012
 208   2.0000      -0.460503       -12.5309
 209   2.0000      -0.454506       -12.3677
 210   2.0000      -0.453100       -12.3295
 211   2.0000      -0.452426       -12.3111
 212   2.0000      -0.452211       -12.3053
 213   2.0000      -0.450498       -12.2587
 214   2.0000      -0.446783       -12.1576
 215   2.0000      -0.446538       -12.1509
 216   2.0000      -0.445981       -12.1358
 217   2.0000      -0.444666       -12.1000
 218   2.0000      -0.441631       -12.0174
 219   2.0000      -0.441187       -12.0053
 220   2.0000      -0.437602       -11.9078
 221   2.0000      -0.433902       -11.8071
 222   2.0000      -0.431007       -11.7283
 223   2.0000      -0.428967       -11.6728
 224   2.0000      -0.427124       -11.6226
 225   2.0000      -0.424831       -11.5602
 226   2.0000      -0.423472       -11.5233
 227   2.0000      -0.415328       -11.3016
 228   2.0000      -0.412345       -11.2205
 229   2.0000      -0.409913       -11.1543
 230   2.0000      -0.406288       -11.0557
 231   2.0000      -0.402078       -10.9411
 232   2.0000      -0.399096       -10.8600
 233   2.0000      -0.393890       -10.7183
 234   2.0000      -0.390799       -10.6342
 235   2.0000      -0.382227       -10.4009
 236   2.0000      -0.380617       -10.3571
 237   2.0000      -0.372407       -10.1337
 238   2.0000      -0.369984       -10.0678
 239   2.0000      -0.365156        -9.9364
 240   2.0000      -0.361661        -9.8413
 241   2.0000      -0.360387        -9.8066
 242   2.0000      -0.359615        -9.7856
 243   2.0000      -0.353046        -9.6069
 244   2.0000      -0.350006        -9.5242
 245   2.0000      -0.344643        -9.3782
 246   2.0000      -0.341109        -9.2821
 247   2.0000      -0.340247        -9.2586
 248   2.0000      -0.339233        -9.2310
 249   2.0000      -0.337689        -9.1890
 250   2.0000      -0.331482        -9.0201
 251   2.0000      -0.329133        -8.9562
 252   2.0000      -0.317096        -8.6286
 253   2.0000      -0.314130        -8.5479
 254   2.0000      -0.284663        -7.7461
 255   2.0000      -0.275758        -7.5037
 256   0.0000      -0.146459        -3.9854
 257   0.0000      -0.128494        -3.4965
 258   0.0000      -0.101613        -2.7650
 259   0.0000      -0.100049        -2.7225
 260   0.0000      -0.088080        -2.3968

MULLIKEN ATOMIC CHARGES
-----------------------
   0 C :   -0.030240
   1 C :    0.048196
   2 C :    0.052461
   3 C :   -0.027385
   4 C :    0.016480
   5 C :    0.015928
   6 C :    0.268396
   7 C :   -0.322004
   8 C :   -0.185479
   9 N :    0.176065
  10 C :   -0.186222
  11 N :    0.169173
  12 C :   -0.013660
  13 C :    0.233565
  14 C :   -0.260389
  15 C :   -0.181220
  16 N :    0.173846
  17 C :   -0.196979
  18 N :    0.178036
  19 C :   -0.032737
  20 C :   -0.003269
  21 N :   -0.042368
  22 C :    0.076697
  23 C :   -0.105424
  24 C :    0.212787
  25 O :   -0.108087
  26 C :   -0.041455
  27 C :   -0.004109
  28 N :   -0.054293
  29 C :    0.102885
  30 C :   -0.083864
  31 C :    0.042322
  32 C :    0.001308
  33 C :    0.037220
  34 C :   -0.098829
  35 N :   -0.025799
  36 C :   -0.041442
  37 C :   -0.073030
  38 S :    0.181049
  39 N :   -0.002456
  40 C :   -0.181558
  41 S :    0.214715
  42 C :    0.094786
  43 N :   -0.043504
  44 C :    0.075843
  45 C :   -0.158503
  46 C :    0.245072
  47 O :   -0.152210
  48 C :   -0.006547
  49 C :   -0.031900
  50 N :   -0.048016
  51 C :    0.095579
  52 C :   -0.093427
  53 C :    0.026749
  54 C :   -0.004622
  55 C :   -0.000637
  56 C :    0.036434
  57 C :   -0.049384
  58 C :    0.293551
  59 C :   -0.335758
  60 C :   -0.186223
  61 N :    0.157169
  62 C :   -0.189224
  63 N :    0.159183
  64 C :    0.011810
  65 C :    0.011145
  66 C :   -0.029590
  67 C :    0.044741
  68 C :    0.046168
  69 C :   -0.031139
  70 C :    0.226561
  71 C :   -0.294932
  72 C :   -0.180892
  73 N :    0.162980
  74 C :   -0.206178
  75 N :    0.175378
  76 H :    0.010572
  77 H :    0.010582
  78 H :    0.011219
  79 H :    0.013646
  80 H :    0.045473
  81 H :    0.021237
  82 H :    0.005942
  83 H :    0.040622
  84 H :    0.014873
  85 H :    0.013622
  86 H :    0.002066
  87 H :    0.008228
  88 H :    0.042773
  89 H :    0.018061
  90 H :    0.007476
  91 H :    0.006064
  92 H :    0.003043
  93 H :    0.005207
Sum of atomic charges:   -0.0000000

LOEWDIN ATOMIC CHARGES
----------------------
   0 C :    0.008787
   1 C :    0.005726
   2 C :    0.013010
   3 C :    0.005954
   4 C :   -0.003825
   5 C :   -0.015780
   6 C :    0.076699
   7 C :   -0.117081
   8 C :   -0.019746
   9 N :   -0.027426
  10 C :   -0.017057
  11 N :   -0.040544
  12 C :    0.008235
  13 C :    0.067302
  14 C :   -0.091253
  15 C :   -0.015974
  16 N :   -0.039071
  17 C :   -0.016572
  18 N :   -0.027376
  19 C :    0.020422
  20 C :    0.057592
  21 N :   -0.084071
  22 C :    0.038445
  23 C :   -0.026872
  24 C :    0.065975
  25 O :   -0.121498
  26 C :   -0.034278
  27 C :    0.049811
  28 N :   -0.094172
  29 C :    0.096589
  30 C :   -0.025028
  31 C :   -0.023997
  32 C :    0.022571
  33 C :   -0.040373
  34 C :   -0.095241
  35 N :   -0.096159
  36 C :   -0.192183
  37 C :   -0.211465
  38 S :    0.450170
  39 N :   -0.066228
  40 C :   -0.142457
  41 S :    0.485584
  42 C :    0.042808
  43 N :   -0.105154
  44 C :    0.045234
  45 C :   -0.026347
  46 C :    0.078886
  47 O :   -0.140992
  48 C :   -0.038090
  49 C :    0.030595
  50 N :   -0.092388
  51 C :    0.081542
  52 C :   -0.027979
  53 C :   -0.019382
  54 C :    0.022237
  55 C :   -0.005844
  56 C :    0.059409
  57 C :   -0.044718
  58 C :    0.078302
  59 C :   -0.130596
  60 C :   -0.021041
  61 N :   -0.044980
  62 C :   -0.018886
  63 N :   -0.045937
  64 C :   -0.015130
  65 C :   -0.006900
  66 C :    0.002078
  67 C :    0.005246
  68 C :   -0.000111
  69 C :    0.005060
  70 C :    0.066067
  71 C :   -0.109088
  72 C :   -0.012853
  73 N :   -0.042685
  74 C :   -0.019119
  75 N :   -0.044207
  76 H :    0.043039
  77 H :    0.040327
  78 H :    0.040626
  79 H :    0.043830
  80 H :    0.051984
  81 H :    0.028824
  82 H :    0.038915
  83 H :    0.051221
  84 H :    0.033315
  85 H :    0.025709
  86 H :    0.037435
  87 H :    0.035629
  88 H :    0.032540
  89 H :    0.046595
  90 H :    0.041657
  91 H :    0.037758
  92 H :    0.037199
  93 H :    0.041217

  Mayer bond orders larger than 0.100000
B(  0-C ,  1-C ) :   1.3789 B(  0-C ,  5-C ) :   1.3733 B(  0-C , 76-H ) :   0.9856
B(  1-C ,  2-C ) :   1.3712 B(  1-C , 77-H ) :   0.9856 B(  2-C ,  3-C ) :   1.3683
B(  2-C , 78-H ) :   0.9862 B(  3-C ,  4-C ) :   1.3851 B(  3-C , 79-H ) :   0.9866
B(  4-C ,  5-C ) :   1.3009 B(  4-C , 13-C ) :   1.0116 B(  5-C ,  6-C ) :   1.0158
B(  6-C ,  7-C ) :   1.6709 B(  6-C , 12-C ) :   1.0087 B(  7-C ,  8-C ) :   1.1394
B(  7-C , 10-C ) :   1.1366 B(  8-C ,  9-N ) :   2.9877 B( 10-C , 11-N ) :   2.9890
B( 12-C , 13-C ) :   0.9921 B( 12-C , 19-C ) :   1.6995 B( 13-C , 14-C ) :   1.7175
B( 14-C , 15-C ) :   1.1441 B( 14-C , 17-C ) :   1.1433 B( 15-C , 16-N ) :   2.9895
B( 17-C , 18-N ) :   2.9967 B( 19-C , 20-C ) :   1.0706 B( 19-C , 80-H ) :   0.9339
B( 20-C , 21-N ) :   1.5841 B( 20-C , 22-C ) :   0.1092 B( 20-C , 31-C ) :   1.0359
B( 21-N , 22-C ) :   1.3096 B( 22-C , 23-C ) :   1.0543 B( 22-C , 27-C ) :   1.4345
B( 23-C , 24-C ) :   0.8838 B( 23-C , 31-C ) :   1.5658 B( 24-C , 25-O ) :   2.3141
B( 24-C , 26-C ) :   0.8865 B( 26-C , 27-C ) :   1.0354 B( 26-C , 30-C ) :   1.6461
B( 27-C , 28-N ) :   1.3036 B( 28-N , 29-C ) :   1.6656 B( 29-C , 30-C ) :   1.0481
B( 29-C , 81-H ) :   0.9888 B( 30-C , 82-H ) :   1.0095 B( 31-C , 32-C ) :   1.0943
B( 32-C , 33-C ) :   1.6959 B( 32-C , 83-H ) :   0.9663 B( 33-C , 34-C ) :   1.1212
B( 33-C , 84-H ) :   0.9473 B( 34-C , 35-N ) :   1.6794 B( 34-C , 38-S ) :   1.0991
B( 35-N , 36-C ) :   1.4222 B( 36-C , 37-C ) :   1.2206 B( 36-C , 41-S ) :   1.1283
B( 37-C , 38-S ) :   1.1195 B( 37-C , 39-N ) :   1.4414 B( 39-N , 40-C ) :   1.6678
B( 39-N , 41-S ) :   0.1166 B( 40-C , 41-S ) :   1.0803 B( 40-C , 42-C ) :   1.1179
B( 42-C , 43-N ) :   1.6378 B( 42-C , 44-C ) :   0.1240 B( 42-C , 53-C ) :   1.0254
B( 43-N , 44-C ) :   1.3614 B( 44-C , 45-C ) :   1.0673 B( 44-C , 49-C ) :   1.4064
B( 45-C , 46-C ) :   0.8922 B( 45-C , 53-C ) :   1.5372 B( 46-C , 47-O ) :   2.1389
B( 46-C , 48-C ) :   0.9401 B( 47-O , 88-H ) :   0.1011 B( 48-C , 49-C ) :   1.0661
B( 48-C , 52-C ) :   1.5974 B( 49-C , 50-N ) :   1.3229 B( 50-N , 51-C ) :   1.6460
B( 51-C , 52-C ) :   1.0693 B( 51-C , 85-H ) :   0.9894 B( 52-C , 86-H ) :   1.0123
B( 53-C , 54-C ) :   1.1179 B( 54-C , 55-C ) :   1.6123 B( 54-C , 87-H ) :   0.9682
B( 55-C , 56-C ) :   1.1250 B( 55-C , 88-H ) :   0.9370 B( 56-C , 57-C ) :   1.5908
B( 56-C , 89-H ) :   0.9564 B( 57-C , 58-C ) :   1.0374 B( 57-C , 70-C ) :   1.0117
B( 58-C , 59-C ) :   1.6468 B( 58-C , 64-C ) :   1.0070 B( 59-C , 60-C ) :   1.1353
B( 59-C , 62-C ) :   1.1434 B( 60-C , 61-N ) :   2.9842 B( 62-C , 63-N ) :   2.9794
B( 64-C , 65-C ) :   1.3089 B( 64-C , 69-C ) :   1.3798 B( 65-C , 66-C ) :   1.3842
B( 65-C , 70-C ) :   1.0110 B( 66-C , 67-C ) :   1.3654 B( 66-C , 90-H ) :   0.9868
B( 67-C , 68-C ) :   1.3746 B( 67-C , 91-H ) :   0.9874 B( 68-C , 69-C ) :   1.3736
B( 68-C , 92-H ) :   0.9863 B( 69-C , 93-H ) :   0.9843 B( 70-C , 71-C ) :   1.6715
B( 71-C , 72-C ) :   1.1448 B( 71-C , 74-C ) :   1.1511 B( 72-C , 73-N ) :   2.9929
B( 74-C , 75-N ) :   3.0033

-----------------------------------------------------------------------------
         ABSORPTION SPECTRUM VIA TRANSITION ELECTRIC DIPOLE MOMENTS
-----------------------------------------------------------------------------
State   Energy  Wavelength   fosc         T2         TX        TY        TZ
        (cm-1)    (nm)                  (au**2)     (au)      (au)      (au)
-----------------------------------------------------------------------------
   0   13928.3    718.0   0.062394291   1.47477  -0.24252   0.26362  -1.16037
   1   16592.7    602.7   0.081348380   1.61401   0.00736  -1.17207   0.49011
   2   18445.5    542.1   1.322762803  23.60844  -3.30053  -1.41257  -3.27407
   3   19162.7    521.8   0.084214489   1.44679   0.20512  -0.36857   1.12644
   4   20377.2    490.7   0.121014066   1.95509   0.01507  -0.59899   1.26336
   5   21501.3    465.1   0.064358281   0.98541  -0.11259   0.88582  -0.43365
   6   21697.7    460.9   0.002820840   0.04280  -0.11042  -0.15882   0.07336
   7   22061.3    453.3   0.473693806   7.06876   0.41460  -2.12263   1.54638
   8   23126.6    432.4   0.020461366   0.29127   0.01611  -0.17346   0.51081
   9   24242.0    412.5   0.045066744   0.61202   0.21126   0.34224  -0.67101
  10   24285.5    411.8   0.118551399   1.60707  -1.14340  -0.54589  -0.04131
  11   24466.7    408.7   0.038524436   0.51837  -0.39531   0.12344  -0.58895
  12   24543.1    407.4   0.222833971   2.98901   1.18339   0.07289   1.25828
  13   25061.4    399.0   0.029427717   0.38657  -0.06380  -0.38735   0.48214
  14   25137.0    397.8   0.050398734   0.66006  -0.08278  -0.26610  -0.76315
  15   25457.3    392.8   0.212970004   2.75411   0.24665   1.21674  -1.10128
  16   25554.6    391.3   0.001669396   0.02151  -0.06141   0.06357  -0.11702
  17   25869.7    386.6   0.323195404   4.11291  -0.77469  -1.66521  -0.86014
  18   26382.2    379.0   0.138698427   1.73076   0.38539  -0.09433  -1.25433
  19   27211.5    367.5   0.038164908   0.46173   0.10207   0.57699  -0.34408
  20   27506.3    363.6   0.010091423   0.12078   0.03297  -0.20914   0.27560
  21   27544.1    363.1   0.206495737   2.46807   0.53701   0.81851  -1.22871
  22   28351.7    352.7   0.032982085   0.38298   0.54441   0.18093   0.23208
  23   28833.4    346.8   0.050283341   0.57412   0.26910  -0.56335   0.42935
  24   29066.5    344.0   0.067156523   0.76062   0.00797   0.84553  -0.21365
  25   29477.3    339.2   0.006496594   0.07256   0.08362  -0.18945   0.17226
  26   29797.6    335.6   0.015954988   0.17628  -0.15409   0.37038  -0.12391
  27   29821.3    335.3   0.023539028   0.25986  -0.12519  -0.35490  -0.34385
  28   30058.3    332.7   0.214189065   2.34589  -0.18515   0.94015   1.19487
  29   30192.2    331.2   0.010673206   0.11638  -0.21564  -0.26174   0.03702
  30   30284.9    330.2   0.007650397   0.08316  -0.04476   0.25678   0.12338
  31   30346.3    329.5   0.011761451   0.12759   0.21848  -0.13353  -0.24906
  32   30431.3    328.6   0.451387329   4.88321   0.45759   0.05259   2.16126
  33   30725.8    325.5   0.097566780   1.04538   0.05615  -0.50511   0.88718
  34   31144.2    321.1   0.021376309   0.22596  -0.04204   0.01279  -0.47332
  35   31639.1    316.1   0.066014426   0.68690   0.18643   0.80754   0.00317
  36   31866.1    313.8   0.029756260   0.30742  -0.04225   0.18406   0.52130
  37   32290.8    309.7   0.043360592   0.44207   0.02965  -0.66298  -0.04062
  38   32426.9    308.4   0.035870058   0.36417  -0.00860  -0.50516  -0.33001
  39   32768.7    305.2   0.457867560   4.59998   0.43565   1.84991   0.99399
  40   32995.5    303.1   0.001265250   0.01262   0.09732   0.05597   0.00449
  41   33195.0    301.3   0.267762801   2.65554   0.01561  -0.39823  -1.58010
  42   33771.2    296.1   0.048514720   0.47294  -0.22930  -0.51746  -0.39063
  43   34052.9    293.7   0.040146777   0.38813  -0.46557   0.11166  -0.39862
  44   34271.6    291.8   0.082372688   0.79127   0.46855   0.35743   0.66631
  45   34421.1    290.5   0.047034248   0.44985   0.58332   0.29958  -0.14084
  46   34766.2    287.6   0.001491329   0.01412   0.07119  -0.04163   0.08556
  47   34901.2    286.5   0.191374063   1.80517   0.92545  -0.87009   0.43779
  48   35217.9    283.9   0.028291055   0.26446   0.09469   0.50530  -0.01309
  49   35331.9    283.0   0.031998040   0.29815  -0.31235  -0.36519  -0.25928
  50   35435.7    282.2   0.126565946   1.17585   0.96168   0.07520  -0.49534
  51   35590.5    281.0   0.144164302   1.33352  -0.75245  -0.84765   0.22097
  52   35766.1    279.6   0.180692408   1.66320   1.09402   0.24465   0.63755
  53   35976.1    278.0   0.006440016   0.05893  -0.21263  -0.10740   0.04675
  54   36168.4    276.5   0.056255111   0.51205   0.11093  -0.52616   0.47212
  55   36478.5    274.1   0.070985151   0.64063   0.25400  -0.75371   0.08963
  56   36579.7    273.4   0.169121872   1.52207   1.10879   0.47649  -0.25615
  57   36882.1    271.1   0.074223433   0.66252   0.32986   0.65904   0.34552
  58   37045.9    269.9   0.013525037   0.12019  -0.33372  -0.09133   0.02201
  59   37214.3    268.7   0.069682105   0.61643   0.50414   0.26537   0.54024
  60   37504.9    266.6   0.183045355   1.60674  -0.12083   0.20671   1.24475
  61   37543.9    266.4   0.009250343   0.08111  -0.26684  -0.07333  -0.06732
  62   37717.0    265.1   0.005018566   0.04380  -0.10179  -0.09299  -0.15746
  63   37908.0    263.8   0.095398810   0.82849   0.76568   0.13633  -0.47290
  64   38068.4    262.7   0.061015147   0.52765   0.36637   0.59477   0.19918
  65   38258.3    261.4   0.008935736   0.07689   0.09286  -0.13047   0.22638
  66   38303.0    261.1   0.002671448   0.02296   0.15036  -0.01805   0.00512
  67   38533.6    259.5   0.032177413   0.27491   0.20258  -0.00023   0.48360
  68   38624.9    258.9   0.018327991   0.15621  -0.03526   0.08211   0.38501
  69   38680.1    258.5   0.128333546   1.09226  -0.15097   0.65623   0.79927
  70   38699.4    258.4   0.033431117   0.28440  -0.52854   0.05350   0.04667
  71   38888.1    257.1   0.041122503   0.34813   0.04159  -0.33744   0.48222
  72   38970.6    256.6   0.013761170   0.11625   0.17402  -0.21427   0.20014
  73   39172.3    255.3   0.005083007   0.04272  -0.20038   0.04157  -0.02894
  74   39206.5    255.1   0.003089860   0.02595   0.03804  -0.14773   0.05171
  75   39371.0    254.0   0.003044656   0.02546  -0.07539  -0.04857  -0.13197
  76   39523.0    253.0   0.097898680   0.81546   0.81765   0.32258   0.20701
  77   39568.5    252.7   0.037878927   0.31515  -0.40707  -0.18906  -0.33720
  78   39729.3    251.7   0.146130812   1.21089  -0.49198   0.47627  -0.86141
  79   40005.4    250.0   0.014580138   0.11998  -0.19637  -0.01928  -0.28469
  80   40074.8    249.5   0.037098167   0.30476  -0.39798  -0.06027  -0.37780
  81   40145.3    249.1   0.002010894   0.01649   0.05215   0.11705  -0.00834
  82   40245.9    248.5   0.042266356   0.34574  -0.53758  -0.20492   0.12146

FINAL SINGLE POINT ENERGY     -3929.781866920091

DIPOLE MOMENT
-------------
                                X             Y             Z
Electronic contribution:     -1.77243      10.29773      -9.28565
Nuclear contribution   :      0.39376      -9.73687       7.50468
                        -----------------------------------------
Total Dipole Moment    :     -1.37868       0.56086      -1.78097
                        -----------------------------------------
Magnitude (a.u.)       :      2.32103
Magnitude (Debye)      :      5.89959

Rotational constants in cm-1:     0.001250     0.000335     0.000294
Rotational constants in MHz :    37.483655    10.043141     8.817880

                             ****ORCA TERMINATED NORMALLY****
TOTAL RUN TIME: 0 days 0 hours 10 minutes 8 seconds 579 msec
