                         Program Version 4.2.0 -  RELEASE  -
|  1> # ORCA input file
|  2> # SCF done       -208.857838655867          0.000999387151
|  3> ! CAM-B3LYP def2-SVP def2/J RIJCOSX Grid4 TightSCF
|  4> %maxcore 5000
|  5> %tddft
|  6>     Mode sTDDFT
|  7>     Ethresh 5.0
|  8>     maxcore 5000
|  9> end
| 10>
| 11> %pal
| 12>   nprocs 6
| 13>   end
| 14> * xyz 0 1
| 15>    C        1.76383        -7.09969        11.30511
| 16>    C        2.77548        -6.55014        12.07725
| 17>    C        3.14532        -7.20373        13.25382
| 18>    C        4.17688        -6.65649        14.05683
| 19>    N        5.01187        -6.20866        14.69935
| 20>    C        2.51389        -8.39548        13.65957
| 21>    C        2.91004        -9.03309        14.85967
| 22>    N        3.21516        -9.56298        15.82791
| 23>    C        1.49849        -8.94674        12.87780
| 24>    C        1.14356        -8.29046        11.71846
| 25>    C        0.10507        -8.68617        10.73886
| 26>    O       -0.58223        -9.67881        10.83696
| 27>    C        0.13120        -7.64766         9.68397
| 28>    C        1.14975        -6.66680        10.04996
| 29>    C        1.48945        -5.51690         9.38674
| 30>    C        2.49107        -4.61844         9.81922
| 31>    N        3.28607        -3.84266        10.10652
| 32>    C        0.92140        -5.01706         8.19353
| 33>    N        0.53486        -4.51154         7.23650
| 34>    C       -0.59839        -7.53240         8.53185
| 35>    C       -1.66470        -8.26059         7.92212
| 36>    C       -2.13500        -7.72740         6.70477
| 37>    C       -3.18825        -8.34288         6.06557
| 38>    C       -3.79301        -9.51127         6.61042
| 39>    C       -3.31525       -10.04192         7.80712
| 40>    C       -2.27101        -9.42325         8.44943
| 41>    C       -4.83741        -9.87846         5.71554
| 42>    C       -4.82262        -8.91970         4.66539
| 43>    N       -3.83020        -8.00154         4.89939
| 44>    C       -3.50213        -6.88875         4.05322
| 45>    C       -5.72767        -8.99106         3.62360
| 46>    C       -6.67449       -10.02023         3.62997
| 47>    C       -6.68472       -10.97219         4.67421
| 48>    C       -5.77829       -10.90704         5.70267
| 49>    C       -7.64803       -10.10184         2.57762
| 50>    C       -8.72008       -10.98338         2.42678
| 51>    C       -9.51152       -10.73004         1.24252
| 52>    N      -10.58266       -11.48375         0.96667
| 53>    C      -10.88132       -12.45229         1.79816
| 54>    C      -12.07740       -13.27048         1.47942
| 55>    O      -12.77966       -13.05706         0.51381
| 56>    C      -12.35705       -14.35932         2.43296
| 57>    C      -11.61519       -14.60544         3.51754
| 58>    C      -10.42737       -13.81766         3.89328
| 59>    O       -9.77511       -14.06057         4.88662
| 60>    C      -10.09224       -12.70967         2.96454
| 61>    N       -9.04235       -11.98195         3.25866
| 62>    C       -9.03927        -9.66244         0.47587
| 63>    S       -7.63747        -8.99510         1.24382
| 64>    C       -9.55424        -9.12335        -0.75142
| 65>    C       -8.86696        -8.09392        -1.40268
| 66>    C       -9.38621        -7.59423        -2.58172
| 67>    C      -10.60288        -8.10012        -3.11580
| 68>    C      -11.27714        -9.12662        -2.45807
| 69>    C      -10.75526        -9.63205        -1.29341
| 70>    C      -10.85632        -7.36367        -4.30881
| 71>    C       -9.78096        -6.44482        -4.44863
| 72>    N       -8.90539        -6.60702        -3.40620
| 73>    C       -7.69065        -5.86197        -3.23173
| 74>    C       -9.73290        -5.55631        -5.50593
| 75>    C      -10.73629        -5.62535        -6.47573
| 76>    C      -11.80845        -6.53022        -6.32413
| 77>    C      -11.88223        -7.38210        -5.25008
| 78>    C      -10.68286        -4.72876        -7.59759
| 79>    C      -11.16361        -4.92627        -8.85054
| 80>    C      -11.39359        -3.76864        -9.75440
| 81>    O      -10.99001        -2.63926        -9.61559
| 82>    C      -12.27435        -4.29063       -10.82770
| 83>    C      -12.89404        -3.59635       -11.84508
| 84>    C      -13.71911        -4.30603       -12.71937
| 85>    C      -13.90529        -5.69195       -12.55056
| 86>    C      -13.26297        -6.38831       -11.52531
| 87>    C      -12.44157        -5.68062       -10.66433
| 88>    C      -11.63020        -6.12068        -9.52993
| 89>    C      -11.18678        -7.39738        -9.32014
| 90>    C      -10.18312        -7.72591        -8.38244
| 91>    N       -9.32270        -8.03558        -7.68985
| 92>    C      -11.60918        -8.50824       -10.08040
| 93>    N      -11.94317        -9.43630       -10.66617
| 94>    C      -14.76619        -6.39038       -13.43356
| 95>    N      -15.46332        -6.96299       -14.13829
| 96>    C      -14.37841        -3.62927       -13.77387
| 97>    N      -14.90441        -3.06453       -14.61977
| 98>    H        3.28598        -5.64095        11.80411
| 99>    H        1.00231        -9.85997        13.16956
|100>    H       -0.31863        -6.67385         7.93263
|101>    H       -1.66972        -6.84389         6.29294
|102>    H       -3.76568       -10.92880         8.22455
|103>    H       -1.90418        -9.83107         9.37432
|104>    H       -4.40678        -6.51034         3.57845
|105>    H       -2.78904        -7.17852         3.27543
|106>    H       -3.06496        -6.09001         4.65024
|107>    H       -5.71997        -8.27123         2.81846
|108>    H       -7.42455       -11.75456         4.64982
|109>    H       -5.79489       -11.63981         6.49387
|110>    H      -13.22327       -14.96235         2.19568
|111>    H      -11.85662       -15.41656         4.19137
|112>    H       -7.94960        -7.71126        -0.97962
|113>    H      -12.19756        -9.51947        -2.86020
|114>    H      -11.25911       -10.42844        -0.77199
|115>    H       -7.18157        -5.75779        -4.19065
|116>    H       -7.03281        -6.39220        -2.54669
|117>    H       -7.89303        -4.86525        -2.82824
|118>    H       -8.92337        -4.85212        -5.62082
|119>    H      -12.60893        -6.51377        -7.04900
|120>    H      -12.71615        -8.05690        -5.13559
|121>    H      -10.26046        -3.74545        -7.41463
|122>    H      -12.74742        -2.53310       -11.96008
|123>    H      -13.42960        -7.44897       -11.41971
|124> *
|125>
|126>                          ****END OF INPUT****

CARTESIAN COORDINATES (ANGSTROEM)
---------------------------------
  C      1.763830   -7.099690   11.305110
  C      2.775480   -6.550140   12.077250
  C      3.145320   -7.203730   13.253820
  C      4.176880   -6.656490   14.056830
  N      5.011870   -6.208660   14.699350
  C      2.513890   -8.395480   13.659570
  C      2.910040   -9.033090   14.859670
  N      3.215160   -9.562980   15.827910
  C      1.498490   -8.946740   12.877800
  C      1.143560   -8.290460   11.718460
  C      0.105070   -8.686170   10.738860
  O     -0.582230   -9.678810   10.836960
  C      0.131200   -7.647660    9.683970
  C      1.149750   -6.666800   10.049960
  C      1.489450   -5.516900    9.386740
  C      2.491070   -4.618440    9.819220
  N      3.286070   -3.842660   10.106520
  C      0.921400   -5.017060    8.193530
  N      0.534860   -4.511540    7.236500
  C     -0.598390   -7.532400    8.531850
  C     -1.664700   -8.260590    7.922120
  C     -2.135000   -7.727400    6.704770
  C     -3.188250   -8.342880    6.065570
  C     -3.793010   -9.511270    6.610420
  C     -3.315250  -10.041920    7.807120
  C     -2.271010   -9.423250    8.449430
  C     -4.837410   -9.878460    5.715540
  C     -4.822620   -8.919700    4.665390
  N     -3.830200   -8.001540    4.899390
  C     -3.502130   -6.888750    4.053220
  C     -5.727670   -8.991060    3.623600
  C     -6.674490  -10.020230    3.629970
  C     -6.684720  -10.972190    4.674210
  C     -5.778290  -10.907040    5.702670
  C     -7.648030  -10.101840    2.577620
  C     -8.720080  -10.983380    2.426780
  C     -9.511520  -10.730040    1.242520
  N    -10.582660  -11.483750    0.966670
  C    -10.881320  -12.452290    1.798160
  C    -12.077400  -13.270480    1.479420
  O    -12.779660  -13.057060    0.513810
  C    -12.357050  -14.359320    2.432960
  C    -11.615190  -14.605440    3.517540
  C    -10.427370  -13.817660    3.893280
  O     -9.775110  -14.060570    4.886620
  C    -10.092240  -12.709670    2.964540
  N     -9.042350  -11.981950    3.258660
  C     -9.039270   -9.662440    0.475870
  S     -7.637470   -8.995100    1.243820
  C     -9.554240   -9.123350   -0.751420
  C     -8.866960   -8.093920   -1.402680
  C     -9.386210   -7.594230   -2.581720
  C    -10.602880   -8.100120   -3.115800
  C    -11.277140   -9.126620   -2.458070
  C    -10.755260   -9.632050   -1.293410
  C    -10.856320   -7.363670   -4.308810
  C     -9.780960   -6.444820   -4.448630
  N     -8.905390   -6.607020   -3.406200
  C     -7.690650   -5.861970   -3.231730
  C     -9.732900   -5.556310   -5.505930
  C    -10.736290   -5.625350   -6.475730
  C    -11.808450   -6.530220   -6.324130
  C    -11.882230   -7.382100   -5.250080
  C    -10.682860   -4.728760   -7.597590
  C    -11.163610   -4.926270   -8.850540
  C    -11.393590   -3.768640   -9.754400
  O    -10.990010   -2.639260   -9.615590
  C    -12.274350   -4.290630  -10.827700
  C    -12.894040   -3.596350  -11.845080
  C    -13.719110   -4.306030  -12.719370
  C    -13.905290   -5.691950  -12.550560
  C    -13.262970   -6.388310  -11.525310
  C    -12.441570   -5.680620  -10.664330
  C    -11.630200   -6.120680   -9.529930
  C    -11.186780   -7.397380   -9.320140
  C    -10.183120   -7.725910   -8.382440
  N     -9.322700   -8.035580   -7.689850
  C    -11.609180   -8.508240  -10.080400
  N    -11.943170   -9.436300  -10.666170
  C    -14.766190   -6.390380  -13.433560
  N    -15.463320   -6.962990  -14.138290
  C    -14.378410   -3.629270  -13.773870
  N    -14.904410   -3.064530  -14.619770
  H      3.285980   -5.640950   11.804110
  H      1.002310   -9.859970   13.169560
  H     -0.318630   -6.673850    7.932630
  H     -1.669720   -6.843890    6.292940
  H     -3.765680  -10.928800    8.224550
  H     -1.904180   -9.831070    9.374320
  H     -4.406780   -6.510340    3.578450
  H     -2.789040   -7.178520    3.275430
  H     -3.064960   -6.090010    4.650240
  H     -5.719970   -8.271230    2.818460
  H     -7.424550  -11.754560    4.649820
  H     -5.794890  -11.639810    6.493870
  H    -13.223270  -14.962350    2.195680
  H    -11.856620  -15.416560    4.191370
  H     -7.949600   -7.711260   -0.979620
  H    -12.197560   -9.519470   -2.860200
  H    -11.259110  -10.428440   -0.771990
  H     -7.181570   -5.757790   -4.190650
  H     -7.032810   -6.392200   -2.546690
  H     -7.893030   -4.865250   -2.828240
  H     -8.923370   -4.852120   -5.620820
  H    -12.608930   -6.513770   -7.049000
  H    -12.716150   -8.056900   -5.135590
  H    -10.260460   -3.745450   -7.414630
  H    -12.747420   -2.533100  -11.960080
  H    -13.429600   -7.448970  -11.419710

 Total Charge           Charge          ....    0
 Multiplicity           Mult            ....    1
 Number of Electrons    NEL             ....  554
 Basis Dimension        Dim             .... 1296

ORBITAL ENERGIES
----------------

  NO   OCC          E(Eh)            E(eV)
   0   2.0000     -89.000526     -2421.8274
   1   2.0000     -19.240434      -523.5588
   2   2.0000     -19.239219      -523.5258
   3   2.0000     -19.233809      -523.3786
   4   2.0000     -19.233415      -523.3678
   5   2.0000     -14.474891      -393.8818
   6   2.0000     -14.474201      -393.8630
   7   2.0000     -14.452210      -393.2646
   8   2.0000     -14.452061      -393.2606
   9   2.0000     -14.437771      -392.8717
  10   2.0000     -14.435019      -392.7968
  11   2.0000     -14.431979      -392.7141
  12   2.0000     -14.430958      -392.6863
  13   2.0000     -14.430482      -392.6734
  14   2.0000     -14.430364      -392.6702
  15   2.0000     -14.429489      -392.6464
  16   2.0000     -14.427910      -392.6034
  17   2.0000     -10.392024      -282.7814
  18   2.0000     -10.390520      -282.7404
  19   2.0000     -10.382401      -282.5195
  20   2.0000     -10.382022      -282.5092
  21   2.0000     -10.367078      -282.1025
  22   2.0000     -10.364676      -282.0372
  23   2.0000     -10.363586      -282.0075
  24   2.0000     -10.362932      -281.9897
  25   2.0000     -10.362885      -281.9884
  26   2.0000     -10.362390      -281.9750
  27   2.0000     -10.360555      -281.9250
  28   2.0000     -10.360190      -281.9151
  29   2.0000     -10.345674      -281.5201
  30   2.0000     -10.345049      -281.5031
  31   2.0000     -10.343625      -281.4643
  32   2.0000     -10.340385      -281.3762
  33   2.0000     -10.340149      -281.3697
  34   2.0000     -10.337528      -281.2984
  35   2.0000     -10.337385      -281.2945
  36   2.0000     -10.337125      -281.2875
  37   2.0000     -10.336732      -281.2768
  38   2.0000     -10.336106      -281.2598
  39   2.0000     -10.335003      -281.2297
  40   2.0000     -10.334583      -281.2183
  41   2.0000     -10.334454      -281.2148
  42   2.0000     -10.334266      -281.2097
  43   2.0000     -10.334218      -281.2084
  44   2.0000     -10.333957      -281.2013
  45   2.0000     -10.333868      -281.1988
  46   2.0000     -10.333455      -281.1876
  47   2.0000     -10.333406      -281.1863
  48   2.0000     -10.331289      -281.1287
  49   2.0000     -10.329212      -281.0721
  50   2.0000     -10.328665      -281.0573
  51   2.0000     -10.328598      -281.0554
  52   2.0000     -10.327835      -281.0347
  53   2.0000     -10.327531      -281.0264
  54   2.0000     -10.327505      -281.0257
  55   2.0000     -10.326754      -281.0053
  56   2.0000     -10.325972      -280.9840
  57   2.0000     -10.324764      -280.9511
  58   2.0000     -10.324264      -280.9375
  59   2.0000     -10.316784      -280.7340
  60   2.0000     -10.315472      -280.6983
  61   2.0000     -10.314984      -280.6850
  62   2.0000     -10.314773      -280.6793
  63   2.0000     -10.309224      -280.5282
  64   2.0000     -10.306758      -280.4611
  65   2.0000     -10.306442      -280.4525
  66   2.0000     -10.306215      -280.4464
  67   2.0000     -10.302551      -280.3467
  68   2.0000     -10.300237      -280.2837
  69   2.0000     -10.296916      -280.1933
  70   2.0000     -10.294021      -280.1145
  71   2.0000     -10.293432      -280.0985
  72   2.0000     -10.293324      -280.0956
  73   2.0000     -10.292557      -280.0747
  74   2.0000     -10.290737      -280.0252
  75   2.0000     -10.289282      -279.9856
  76   2.0000     -10.287955      -279.9495
  77   2.0000     -10.287520      -279.9377
  78   2.0000     -10.286293      -279.9043
  79   2.0000     -10.285300      -279.8772
  80   2.0000     -10.280581      -279.7488
  81   2.0000     -10.273160      -279.5469
  82   2.0000     -10.271679      -279.5066
  83   2.0000      -8.094729      -220.2688
  84   2.0000      -6.063439      -164.9946
  85   2.0000      -6.059560      -164.8890
  86   2.0000      -6.058032      -164.8474
  87   2.0000      -1.156070       -31.4583
  88   2.0000      -1.154730       -31.4218
  89   2.0000      -1.150200       -31.2985
  90   2.0000      -1.145900       -31.1815
  91   2.0000      -1.106063       -30.0975
  92   2.0000      -1.105356       -30.0783
  93   2.0000      -1.103589       -30.0302
  94   2.0000      -1.046008       -28.4633
  95   2.0000      -1.044380       -28.4190
  96   2.0000      -1.031408       -28.0661
  97   2.0000      -1.030656       -28.0456
  98   2.0000      -1.030186       -28.0328
  99   2.0000      -1.014021       -27.5929
 100   2.0000      -1.013992       -27.5921
 101   2.0000      -1.012102       -27.5407
 102   2.0000      -1.011445       -27.5228
 103   2.0000      -1.010435       -27.4953
 104   2.0000      -1.009898       -27.4807
 105   2.0000      -1.007872       -27.4256
 106   2.0000      -0.984119       -26.7792
 107   2.0000      -0.982195       -26.7269
 108   2.0000      -0.971215       -26.4281
 109   2.0000      -0.970523       -26.4093
 110   2.0000      -0.968645       -26.3582
 111   2.0000      -0.959707       -26.1149
 112   2.0000      -0.944573       -25.7032
 113   2.0000      -0.928973       -25.2786
 114   2.0000      -0.927896       -25.2493
 115   2.0000      -0.927319       -25.2336
 116   2.0000      -0.922456       -25.1013
 117   2.0000      -0.907847       -24.7038
 118   2.0000      -0.905895       -24.6507
 119   2.0000      -0.901665       -24.5355
 120   2.0000      -0.893099       -24.3025
 121   2.0000      -0.878897       -23.9160
 122   2.0000      -0.872321       -23.7371
 123   2.0000      -0.864464       -23.5233
 124   2.0000      -0.863327       -23.4923
 125   2.0000      -0.859223       -23.3807
 126   2.0000      -0.858389       -23.3579
 127   2.0000      -0.849098       -23.1051
 128   2.0000      -0.836395       -22.7595
 129   2.0000      -0.816571       -22.2200
 130   2.0000      -0.812565       -22.1110
 131   2.0000      -0.810758       -22.0619
 132   2.0000      -0.808365       -21.9967
 133   2.0000      -0.801153       -21.8005
 134   2.0000      -0.799270       -21.7492
 135   2.0000      -0.791683       -21.5428
 136   2.0000      -0.787857       -21.4387
 137   2.0000      -0.763166       -20.7668
 138   2.0000      -0.757663       -20.6171
 139   2.0000      -0.755586       -20.5605
 140   2.0000      -0.751309       -20.4442
 141   2.0000      -0.734566       -19.9885
 142   2.0000      -0.726613       -19.7722
 143   2.0000      -0.722078       -19.6487
 144   2.0000      -0.718576       -19.5535
 145   2.0000      -0.717649       -19.5282
 146   2.0000      -0.711861       -19.3707
 147   2.0000      -0.709350       -19.3024
 148   2.0000      -0.700121       -19.0513
 149   2.0000      -0.692260       -18.8373
 150   2.0000      -0.688847       -18.7445
 151   2.0000      -0.686035       -18.6680
 152   2.0000      -0.683234       -18.5917
 153   2.0000      -0.680360       -18.5136
 154   2.0000      -0.677037       -18.4231
 155   2.0000      -0.671210       -18.2645
 156   2.0000      -0.660825       -17.9820
 157   2.0000      -0.660107       -17.9624
 158   2.0000      -0.653760       -17.7897
 159   2.0000      -0.647790       -17.6273
 160   2.0000      -0.634365       -17.2620
 161   2.0000      -0.630723       -17.1629
 162   2.0000      -0.622564       -16.9408
 163   2.0000      -0.620200       -16.8765
 164   2.0000      -0.616850       -16.7854
 165   2.0000      -0.616158       -16.7665
 166   2.0000      -0.608876       -16.5684
 167   2.0000      -0.603776       -16.4296
 168   2.0000      -0.603174       -16.4132
 169   2.0000      -0.598704       -16.2916
 170   2.0000      -0.594409       -16.1747
 171   2.0000      -0.587167       -15.9776
 172   2.0000      -0.582377       -15.8473
 173   2.0000      -0.579011       -15.7557
 174   2.0000      -0.578403       -15.7392
 175   2.0000      -0.572807       -15.5869
 176   2.0000      -0.571464       -15.5503
 177   2.0000      -0.570908       -15.5352
 178   2.0000      -0.570185       -15.5155
 179   2.0000      -0.569956       -15.5093
 180   2.0000      -0.565793       -15.3960
 181   2.0000      -0.564507       -15.3610
 182   2.0000      -0.563932       -15.3454
 183   2.0000      -0.561713       -15.2850
 184   2.0000      -0.560335       -15.2475
 185   2.0000      -0.554131       -15.0787
 186   2.0000      -0.547983       -14.9114
 187   2.0000      -0.546488       -14.8707
 188   2.0000      -0.545323       -14.8390
 189   2.0000      -0.543162       -14.7802
 190   2.0000      -0.540407       -14.7052
 191   2.0000      -0.538193       -14.6450
 192   2.0000      -0.536845       -14.6083
 193   2.0000      -0.535782       -14.5794
 194   2.0000      -0.534253       -14.5378
 195   2.0000      -0.532986       -14.5033
 196   2.0000      -0.530321       -14.4308
 197   2.0000      -0.526285       -14.3209
 198   2.0000      -0.525985       -14.3128
 199   2.0000      -0.525198       -14.2914
 200   2.0000      -0.519570       -14.1382
 201   2.0000      -0.516791       -14.0626
 202   2.0000      -0.515087       -14.0162
 203   2.0000      -0.514330       -13.9956
 204   2.0000      -0.509626       -13.8676
 205   2.0000      -0.508361       -13.8332
 206   2.0000      -0.507459       -13.8087
 207   2.0000      -0.504807       -13.7365
 208   2.0000      -0.504267       -13.7218
 209   2.0000      -0.502069       -13.6620
 210   2.0000      -0.499342       -13.5878
 211   2.0000      -0.498255       -13.5582
 212   2.0000      -0.492777       -13.4092
 213   2.0000      -0.492102       -13.3908
 214   2.0000      -0.490974       -13.3601
 215   2.0000      -0.482357       -13.1256
 216   2.0000      -0.479359       -13.0440
 217   2.0000      -0.478519       -13.0212
 218   2.0000      -0.475246       -12.9321
 219   2.0000      -0.467972       -12.7342
 220   2.0000      -0.467306       -12.7160
 221   2.0000      -0.466118       -12.6837
 222   2.0000      -0.464385       -12.6365
 223   2.0000      -0.463223       -12.6049
 224   2.0000      -0.462306       -12.5800
 225   2.0000      -0.461149       -12.5485
 226   2.0000      -0.460407       -12.5283
 227   2.0000      -0.458904       -12.4874
 228   2.0000      -0.458337       -12.4720
 229   2.0000      -0.456308       -12.4168
 230   2.0000      -0.454743       -12.3742
 231   2.0000      -0.454651       -12.3717
 232   2.0000      -0.454559       -12.3692
 233   2.0000      -0.454139       -12.3578
 234   2.0000      -0.453807       -12.3487
 235   2.0000      -0.452252       -12.3064
 236   2.0000      -0.448594       -12.2069
 237   2.0000      -0.445607       -12.1256
 238   2.0000      -0.444599       -12.0981
 239   2.0000      -0.441668       -12.0184
 240   2.0000      -0.439055       -11.9473
 241   2.0000      -0.438348       -11.9280
 242   2.0000      -0.436360       -11.8739
 243   2.0000      -0.435991       -11.8639
 244   2.0000      -0.431531       -11.7426
 245   2.0000      -0.430730       -11.7208
 246   2.0000      -0.430146       -11.7049
 247   2.0000      -0.428595       -11.6627
 248   2.0000      -0.428512       -11.6604
 249   2.0000      -0.425456       -11.5773
 250   2.0000      -0.421714       -11.4754
 251   2.0000      -0.421445       -11.4681
 252   2.0000      -0.415848       -11.3158
 253   2.0000      -0.410171       -11.1613
 254   2.0000      -0.400275       -10.8920
 255   2.0000      -0.395680       -10.7670
 256   2.0000      -0.389363       -10.5951
 257   2.0000      -0.379551       -10.3281
 258   2.0000      -0.373905       -10.1745
 259   2.0000      -0.371304       -10.1037
 260   2.0000      -0.368839       -10.0366
 261   2.0000      -0.367106        -9.9895
 262   2.0000      -0.360898        -9.8205
 263   2.0000      -0.358652        -9.7594
 264   2.0000      -0.355033        -9.6609
 265   2.0000      -0.353445        -9.6177
 266   2.0000      -0.352977        -9.6050
 267   2.0000      -0.347547        -9.4572
 268   2.0000      -0.346013        -9.4155
 269   2.0000      -0.340423        -9.2634
 270   2.0000      -0.337006        -9.1704
 271   2.0000      -0.334491        -9.1020
 272   2.0000      -0.314453        -8.5567
 273   2.0000      -0.292272        -7.9531
 274   2.0000      -0.286289        -7.7903
 275   2.0000      -0.285842        -7.7782
 276   2.0000      -0.255932        -6.9643
 277   0.0000      -0.115245        -3.1360
 278   0.0000      -0.110273        -3.0007
 279   0.0000      -0.102095        -2.7781
 280   0.0000      -0.095706        -2.6043
 281   0.0000      -0.090800        -2.4708

MULLIKEN ATOMIC CHARGES
-----------------------
   0 C :    0.039268
   1 C :   -0.035921
   2 C :   -0.061277
   3 C :   -0.175310
   4 N :    0.201683
   5 C :   -0.066807
   6 C :   -0.172158
   7 N :    0.199186
   8 C :   -0.033784
   9 C :    0.002863
  10 C :    0.159953
  11 O :   -0.132420
  12 C :   -0.052197
  13 C :    0.325103
  14 C :   -0.354848
  15 C :   -0.191423
  16 N :    0.163809
  17 C :   -0.179719
  18 N :    0.154581
  19 C :   -0.004350
  20 C :    0.071424
  21 C :   -0.155714
  22 C :    0.188017
  23 C :    0.073420
  24 C :   -0.044681
  25 C :   -0.003309
  26 C :    0.055563
  27 C :    0.178651
  28 N :   -0.185353
  29 C :    0.120920
  30 C :   -0.183972
  31 C :    0.121376
  32 C :   -0.030170
  33 C :   -0.028187
  34 C :   -0.125344
  35 C :    0.035212
  36 C :    0.032993
  37 N :    0.067339
  38 C :   -0.123186
  39 C :    0.143373
  40 O :   -0.106840
  41 C :   -0.016654
  42 C :   -0.014769
  43 C :    0.141367
  44 O :   -0.106456
  45 C :   -0.121306
  46 N :    0.065688
  47 C :   -0.115777
  48 S :    0.140182
  49 C :    0.117073
  50 C :   -0.183179
  51 C :    0.183097
  52 C :    0.054235
  53 C :   -0.030041
  54 C :   -0.031086
  55 C :    0.080565
  56 C :    0.177559
  57 N :   -0.185861
  58 C :    0.123971
  59 C :   -0.116070
  60 C :    0.047608
  61 C :    0.014768
  62 C :   -0.037046
  63 C :    0.039057
  64 C :   -0.120922
  65 C :    0.143147
  66 O :   -0.125166
  67 C :    0.009046
  68 C :   -0.033388
  69 C :   -0.070077
  70 C :   -0.058332
  71 C :   -0.037056
  72 C :    0.034689
  73 C :    0.247000
  74 C :   -0.310066
  75 C :   -0.189768
  76 N :    0.185604
  77 C :   -0.185055
  78 N :    0.175747
  79 C :   -0.174854
  80 N :    0.200999
  81 C :   -0.173245
  82 N :    0.198211
  83 H :    0.019704
  84 H :    0.015430
  85 H :   -0.011647
  86 H :   -0.015649
  87 H :   -0.021324
  88 H :   -0.003802
  89 H :    0.038579
  90 H :    0.043765
  91 H :    0.048180
  92 H :   -0.036221
  93 H :    0.002168
  94 H :   -0.019038
  95 H :    0.019066
  96 H :    0.019349
  97 H :   -0.036911
  98 H :   -0.022925
  99 H :    0.000433
 100 H :    0.046742
 101 H :    0.039347
 102 H :    0.039554
 103 H :   -0.035295
 104 H :   -0.011172
 105 H :   -0.020214
 106 H :    0.027994
 107 H :    0.018771
 108 H :    0.023912
Sum of atomic charges:   -0.0000000

LOEWDIN ATOMIC CHARGES
----------------------
   0 C :    0.000285
   1 C :    0.034872
   2 C :   -0.024579
   3 C :   -0.031570
   4 N :   -0.011529
   5 C :   -0.028191
   6 C :   -0.031762
   7 N :   -0.013621
   8 C :    0.048717
   9 C :   -0.027616
  10 C :    0.087700
  11 O :   -0.122621
  12 C :   -0.108450
  13 C :    0.074778
  14 C :   -0.130114
  15 C :   -0.021214
  16 N :   -0.038382
  17 C :   -0.021751
  18 N :   -0.046332
  19 C :    0.094283
  20 C :   -0.043654
  21 C :   -0.020897
  22 C :    0.024881
  23 C :   -0.011349
  24 C :   -0.010285
  25 C :   -0.004949
  26 C :   -0.044918
  27 C :    0.039870
  28 N :    0.014136
  29 C :    0.038363
  30 C :   -0.067288
  31 C :   -0.026922
  32 C :   -0.022123
  33 C :    0.003619
  34 C :   -0.161982
  35 C :   -0.043602
  36 C :   -0.045410
  37 N :    0.014942
  38 C :   -0.044712
  39 C :    0.056760
  40 O :   -0.102685
  41 C :   -0.011554
  42 C :   -0.012165
  43 C :    0.056900
  44 O :   -0.102791
  45 C :   -0.043024
  46 N :    0.013110
  47 C :   -0.155994
  48 S :    0.516509
  49 C :   -0.032082
  50 C :   -0.064373
  51 C :    0.038525
  52 C :   -0.039303
  53 C :    0.001054
  54 C :   -0.020738
  55 C :   -0.019163
  56 C :    0.036614
  57 N :    0.017242
  58 C :    0.038403
  59 C :   -0.023947
  60 C :   -0.042060
  61 C :   -0.024125
  62 C :   -0.001454
  63 C :    0.094335
  64 C :   -0.099149
  65 C :    0.083977
  66 O :   -0.127258
  67 C :   -0.031547
  68 C :    0.049559
  69 C :   -0.029368
  70 C :   -0.022582
  71 C :    0.032024
  72 C :    0.004598
  73 C :    0.058917
  74 C :   -0.116238
  75 C :   -0.017097
  76 N :   -0.029919
  77 C :   -0.023527
  78 N :   -0.033502
  79 C :   -0.031506
  80 N :   -0.010225
  81 C :   -0.032399
  82 N :   -0.013152
  83 H :    0.052085
  84 H :    0.053676
  85 H :    0.044675
  86 H :    0.033054
  87 H :    0.034099
  88 H :    0.027938
  89 H :    0.033091
  90 H :    0.029902
  91 H :    0.037208
  92 H :    0.014222
  93 H :    0.031580
  94 H :    0.034771
  95 H :    0.046182
  96 H :    0.046201
  97 H :    0.013478
  98 H :    0.033692
  99 H :    0.031176
 100 H :    0.035413
 101 H :    0.034693
 102 H :    0.028721
 103 H :    0.030025
 104 H :    0.027655
 105 H :    0.034394
 106 H :    0.048315
 107 H :    0.054844
 108 H :    0.052687

  Mayer bond orders larger than 0.100000
B(  0-C ,  1-C ) :   1.3532 B(  0-C ,  9-C ) :   1.3410 B(  0-C , 13-C ) :   0.9511
B(  1-C ,  2-C ) :   1.3982 B(  1-C , 83-H ) :   0.9845 B(  2-C ,  3-C ) :   1.0867
B(  2-C ,  5-C ) :   1.4026 B(  3-C ,  4-N ) :   3.0437 B(  5-C ,  6-C ) :   1.0835
B(  5-C ,  8-C ) :   1.3624 B(  6-C ,  7-N ) :   3.0453 B(  8-C ,  9-C ) :   1.3622
B(  8-C , 84-H ) :   1.0155 B(  9-C , 10-C ) :   0.9366 B( 10-C , 11-O ) :   2.1858
B( 10-C , 12-C ) :   0.9280 B( 12-C , 13-C ) :   1.0969 B( 12-C , 19-C ) :   1.5058
B( 13-C , 14-C ) :   1.6244 B( 14-C , 15-C ) :   1.1548 B( 14-C , 17-C ) :   1.1387
B( 15-C , 16-N ) :   2.9561 B( 17-C , 18-N ) :   2.9709 B( 19-C , 20-C ) :   1.1986
B( 19-C , 85-H ) :   0.9280 B( 20-C , 21-C ) :   1.2391 B( 20-C , 25-C ) :   1.2834
B( 21-C , 22-C ) :   1.2930 B( 21-C , 86-H ) :   1.0160 B( 22-C , 23-C ) :   1.2629
B( 22-C , 28-N ) :   1.1205 B( 23-C , 24-C ) :   1.2913 B( 23-C , 26-C ) :   1.1189
B( 24-C , 25-C ) :   1.4399 B( 24-C , 87-H ) :   1.0007 B( 25-C , 88-H ) :   0.9675
B( 26-C , 27-C ) :   1.2718 B( 26-C , 33-C ) :   1.2892 B( 27-C , 28-N ) :   1.1341
B( 27-C , 30-C ) :   1.3206 B( 28-N , 29-C ) :   0.9744 B( 29-C , 89-H ) :   0.9664
B( 29-C , 90-H ) :   0.9745 B( 29-C , 91-H ) :   0.9674 B( 30-C , 31-C ) :   1.2876
B( 30-C , 92-H ) :   0.9916 B( 31-C , 32-C ) :   1.3032 B( 31-C , 34-C ) :   1.1123
B( 32-C , 33-C ) :   1.4302 B( 32-C , 93-H ) :   0.9690 B( 33-C , 94-H ) :   1.0012
B( 34-C , 35-C ) :   1.3611 B( 34-C , 47-C ) :   0.1406 B( 34-C , 48-S ) :   1.1653
B( 35-C , 36-C ) :   1.1612 B( 35-C , 46-N ) :   1.4116 B( 36-C , 37-N ) :   1.4159
B( 36-C , 47-C ) :   1.3568 B( 37-N , 38-C ) :   1.7337 B( 38-C , 39-C ) :   0.8917
B( 38-C , 45-C ) :   1.0713 B( 39-C , 40-O ) :   2.2286 B( 39-C , 41-C ) :   1.0268
B( 41-C , 42-C ) :   1.6830 B( 41-C , 95-H ) :   0.9989 B( 42-C , 43-C ) :   1.0285
B( 42-C , 96-H ) :   0.9984 B( 43-C , 44-O ) :   2.2288 B( 43-C , 45-C ) :   0.8920
B( 45-C , 46-N ) :   1.7360 B( 47-C , 48-S ) :   1.1698 B( 47-C , 49-C ) :   1.1096
B( 49-C , 50-C ) :   1.2908 B( 49-C , 54-C ) :   1.3079 B( 50-C , 51-C ) :   1.3206
B( 50-C , 97-H ) :   0.9900 B( 51-C , 52-C ) :   1.2787 B( 51-C , 57-N ) :   1.1238
B( 52-C , 53-C ) :   1.2966 B( 52-C , 55-C ) :   1.1159 B( 53-C , 54-C ) :   1.4259
B( 53-C , 98-H ) :   1.0013 B( 54-C , 99-H ) :   0.9691 B( 55-C , 56-C ) :   1.2667
B( 55-C , 62-C ) :   1.3102 B( 56-C , 57-N ) :   1.1325 B( 56-C , 59-C ) :   1.2929
B( 57-N , 58-C ) :   0.9775 B( 58-C ,100-H ) :   0.9666 B( 58-C ,101-H ) :   0.9688
B( 58-C ,102-H ) :   0.9732 B( 59-C , 60-C ) :   1.3101 B( 59-C ,103-H ) :   1.0125
B( 60-C , 61-C ) :   1.2922 B( 60-C , 63-C ) :   1.0596 B( 61-C , 62-C ) :   1.4356
B( 61-C ,104-H ) :   0.9832 B( 62-C ,105-H ) :   0.9978 B( 63-C , 64-C ) :   1.6770
B( 63-C ,106-H ) :   0.9480 B( 64-C , 65-C ) :   0.9434 B( 64-C , 73-C ) :   1.0248
B( 65-C , 66-O ) :   2.2867 B( 65-C , 67-C ) :   0.8975 B( 67-C , 68-C ) :   1.3677
B( 67-C , 72-C ) :   1.3339 B( 68-C , 69-C ) :   1.3687 B( 68-C ,107-H ) :   1.0140
B( 69-C , 70-C ) :   1.3993 B( 69-C , 81-C ) :   1.0875 B( 70-C , 71-C ) :   1.3895
B( 70-C , 79-C ) :   1.0853 B( 71-C , 72-C ) :   1.3619 B( 71-C ,108-H ) :   0.9906
B( 72-C , 73-C ) :   0.9767 B( 73-C , 74-C ) :   1.6939 B( 74-C , 75-C ) :   1.1534
B( 74-C , 77-C ) :   1.1332 B( 75-C , 76-N ) :   3.0108 B( 77-C , 78-N ) :   2.9860
B( 79-C , 80-N ) :   3.0445 B( 81-C , 82-N ) :   3.0456

-----------------------------------------------------------------------------
         ABSORPTION SPECTRUM VIA TRANSITION ELECTRIC DIPOLE MOMENTS
-----------------------------------------------------------------------------
State   Energy  Wavelength   fosc         T2         TX        TY        TZ
        (cm-1)    (nm)                  (au**2)     (au)      (au)      (au)
-----------------------------------------------------------------------------
   0   15815.5    632.3   1.356915604  28.24524  -2.94506   0.26719  -4.41593
   1   19081.0    524.1   0.327397191   5.64871   1.45738   1.58112  -1.01233
   2   19889.7    502.8   0.311478227   5.15555  -1.41806  -1.15817  -1.34286
   3   20878.8    479.0   0.218256508   3.44141  -1.35827  -0.42699  -1.18919
   4   21434.2    466.5   0.025688863   0.39456  -0.51845  -0.16812  -0.31227
   5   21642.8    462.0   0.052719238   0.80192  -0.52725  -0.71205   0.13003
   6   23919.4    418.1   0.299377378   4.12044   0.92693  -0.42510   1.75514
   7   23958.3    417.4   0.161663956   2.22143   0.82030  -0.26473   1.21592
   8   24445.9    409.1   0.157269572   2.11795   0.37704   1.03220  -0.95412
   9   24682.3    405.1   0.003433646   0.04580   0.04382  -0.20430  -0.04626
  10   24851.6    402.4   0.001790519   0.02372   0.13536   0.00177   0.07344
  11   25654.4    389.8   0.168468371   2.16188   1.08396   0.98336  -0.14109
  12   25990.8    384.8   0.000045558   0.00058   0.00258   0.00793  -0.02253
  13   26688.0    374.7   0.000644238   0.00795  -0.04922   0.06626   0.03367
  14   27151.2    368.3   0.206676220   2.50597   0.70872   1.05088   0.94834
  15   27540.5    363.1   0.009298637   0.11115  -0.12434  -0.30934   0.00014
  16   27868.8    358.8   0.006512542   0.07693  -0.08954  -0.11170   0.23757
  17   28516.7    350.7   0.009437712   0.10895  -0.26464   0.18508  -0.06829
  18   28880.7    346.3   0.008099302   0.09232   0.08905  -0.15942   0.24286
  19   29188.8    342.6   0.006280322   0.07083  -0.19074  -0.17864  -0.05039
  20   30237.4    330.7   0.020606556   0.22436   0.04371  -0.23229   0.41047
  21   30578.9    327.0   0.005664424   0.06098  -0.01776  -0.22091   0.10894
  22   30672.5    326.0   0.020142333   0.21619   0.11974  -0.27222   0.35742
  23   31070.8    321.8   0.000134253   0.00142  -0.00488   0.03725  -0.00334
  24   31240.1    320.1   0.092858163   0.97855   0.47340  -0.46346   0.73461
  25   31343.9    319.0   0.122321579   1.28477  -0.40245   0.93088  -0.50623
  26   31368.9    318.8   0.008381325   0.08796   0.13337  -0.13939   0.22527
  27   31611.2    316.3   0.050964035   0.53076  -0.33454   0.14792  -0.63005
  28   31629.2    316.2   0.218192880   2.27105   0.76838  -0.13789   1.28904
  29   31894.1    313.5   0.002555545   0.02638   0.10834  -0.02837   0.11763
  30   32259.7    310.0   0.087813873   0.89615  -0.45520   0.41492  -0.71888
  31   32974.1    303.3   0.716436231   7.15287  -1.02949   1.02685  -2.24468
  32   33246.9    300.8   0.044627202   0.44190  -0.27557   0.36873  -0.47958
  33   33667.8    297.0   0.191733457   1.87482   0.67140  -0.79293   0.89179
  34   34530.9    289.6   0.021051115   0.20070   0.11912   0.12217  -0.41422
  35   34698.0    288.2   0.023602286   0.22394  -0.43362   0.04250  -0.18467
  36   34767.6    287.6   0.000619113   0.00586  -0.07049   0.00127  -0.02986
  37   34982.2    285.9   0.070178405   0.66044   0.09809  -0.80420   0.06392
  38   35041.7    285.4   0.277753500   2.60946  -0.22521   1.31541  -0.91019
  39   35458.8    282.0   0.001439880   0.01337   0.06061   0.09327  -0.03156
  40   35715.4    280.0   0.020542462   0.18935  -0.21931  -0.01179   0.37565
  41   35827.1    279.1   0.001153286   0.01060  -0.09942  -0.01243   0.02362
  42   36153.3    276.6   0.143810252   1.30954  -0.07673   1.05451  -0.43780
  43   36337.1    275.2   0.089114883   0.80738  -0.36586   0.44503  -0.68955
  44   36380.8    274.9   0.631115388   5.71100   1.08707  -1.09831   1.82291
  45   36650.6    272.8   0.218588431   1.96346  -0.57249  -0.94495   0.86185
  46   36752.7    272.1   0.000472284   0.00423   0.02125  -0.06126  -0.00517
  47   37113.5    269.4   0.017869169   0.15851  -0.23761   0.08092  -0.30903
  48   37339.1    267.8   0.131695202   1.16113  -0.56905   0.15962  -0.90102
  49   37474.5    266.8   0.478990824   4.20792  -1.37338  -1.49644   0.28706
  50   37964.3    263.4   0.075724964   0.65666   0.27818   0.70045  -0.29773
  51   38375.2    260.6   0.016206379   0.13903   0.24028  -0.04006  -0.28230
  52   38537.8    259.5   0.168418147   1.43873  -0.52879  -1.00267   0.39213
  53   38891.0    257.1   0.031395281   0.26576  -0.44624  -0.20746  -0.15358
  54   39255.5    254.7   0.069301826   0.58119   0.52154   0.55391   0.04870
  55   39333.5    254.2   0.015507008   0.12979   0.01914  -0.18080   0.31102
  56   39561.2    252.8   0.013133436   0.10929   0.12600   0.25450  -0.16925
  57   39662.1    252.1   0.233282382   1.93634   0.35512   1.26325  -0.46308
  58   40046.3    249.7   0.030688595   0.25228  -0.47283  -0.14055   0.09465
  59   40232.1    248.6   0.002250707   0.01842  -0.00484  -0.01747  -0.13449

FINAL SINGLE POINT ENERGY     -3882.161664878286

DIPOLE MOMENT
-------------
                                X             Y             Z
Electronic contribution:      3.09906      -0.54673      -1.79363
Nuclear contribution   :     -4.38312       0.61270       1.96596
                        -----------------------------------------
Total Dipole Moment    :     -1.28405       0.06597       0.17233
                        -----------------------------------------
Magnitude (a.u.)       :      1.29724
Magnitude (Debye)      :      3.29733

Rotational constants in cm-1:     0.001313     0.000158     0.000142
Rotational constants in MHz :    39.368839     4.724786     4.254651

                             ****ORCA TERMINATED NORMALLY****
TOTAL RUN TIME: 0 days 0 hours 11 minutes 33 seconds 730 msec
