                         Program Version 4.2.0 -  RELEASE  -
|  1> # ORCA input file
|  2> # SCF done       -153.476696169084          0.000759857564
|  3> ! CAM-B3LYP def2-SVP def2/J RIJCOSX Grid4 TightSCF
|  4> %maxcore 5000
|  5> %tddft
|  6>     Mode sTDDFT
|  7>     Ethresh 5.0
|  8>     maxcore 5000
|  9> end
| 10>
| 11> %pal
| 12>   nprocs 6
| 13>   end
| 14> * xyz 0 1
| 15>    C       -2.28427         2.26368         3.21172
| 16>    N       -1.12659         2.70472         2.74860
| 17>    C       -0.62575         2.05300         1.70788
| 18>    C       -1.26955         0.97255         1.13344
| 19>    C       -2.49071         0.58506         1.70239
| 20>    N       -2.98680         1.25249         2.75314
| 21>    C       -3.24026        -0.53466         1.18400
| 22>    C       -4.41129        -0.92453         1.72781
| 23>    C       -5.20194        -2.02065         1.28851
| 24>    C       -4.97687        -2.90942         0.25146
| 25>    C       -5.98735        -3.86291         0.14529
| 26>    C       -6.99959        -3.70161         1.11266
| 27>    S       -6.69884        -2.37758         2.14267
| 28>    C       -7.97250        -4.71388         0.93009
| 29>    C       -7.57274        -5.51826        -0.15647
| 30>    C       -6.31605        -5.01028        -0.68336
| 31>    C       -5.59777        -5.50896        -1.73108
| 32>    C       -6.01526        -6.63921        -2.46469
| 33>    N       -6.34008        -7.55647        -3.07122
| 34>    C       -4.38440        -4.92549        -2.15073
| 35>    N       -3.39727        -4.45240        -2.49312
| 36>    C       -8.46102        -6.55148        -0.42077
| 37>    C       -9.54083        -6.54932         0.45329
| 38>    S       -9.44459        -5.23672         1.62173
| 39>    C      -10.64196        -7.44652         0.49352
| 40>    C      -10.81782        -8.53654        -0.39978
| 41>    C      -11.95564        -9.40300        -0.29519
| 42>    N      -12.09670       -10.43024        -1.15177
| 43>    C      -11.19599       -10.62738        -2.07277
| 44>    C      -10.08000        -9.77404        -2.17815
| 45>    N       -9.90774        -8.76923        -1.36552
| 46>    C      -12.97113        -9.24249         0.67896
| 47>    C      -12.79778        -8.15983         1.56633
| 48>    C      -11.65286        -7.28885         1.46503
| 49>    N      -11.67796        -6.33234         2.39572
| 50>    S      -12.99475        -6.50689         3.29973
| 51>    N      -13.60145        -7.79429         2.56737
| 52>    C      -14.07612       -10.12843         0.72893
| 53>    C      -15.14457       -10.08062         1.61630
| 54>    C      -16.05711       -11.10009         1.38293
| 55>    C      -15.68180       -11.93494         0.31127
| 56>    S      -14.20391       -11.45701        -0.41032
| 57>    C      -16.67714       -12.93405         0.16023
| 58>    C      -17.67750       -12.72822         1.13164
| 59>    C      -17.32063       -11.57061         1.93126
| 60>    C      -18.01954       -11.03379         2.97321
| 61>    C      -19.24241       -11.57859         3.41759
| 62>    N      -20.23746       -12.01334         3.78653
| 63>    C      -17.57071        -9.89742         3.67822
| 64>    N      -17.21951        -8.97418         4.26112
| 65>    C      -18.70473       -13.67017         1.05270
| 66>    C      -18.48147       -14.57446         0.03817
| 67>    S      -17.00129       -14.28033        -0.83742
| 68>    C      -19.30800       -15.68613        -0.35269
| 69>    N      -18.85815       -16.44114        -1.35818
| 70>    C      -19.61427       -17.46244        -1.71533
| 71>    C      -20.81677       -17.74787        -1.09039
| 72>    C      -21.20844       -16.89701        -0.04845
| 73>    N      -20.44278       -15.87016         0.31106
| 74>    C      -22.45942       -17.10573         0.66936
| 75>    C      -22.87006       -16.31377         1.65247
| 76>    H       -2.69849         2.79377         4.06078
| 77>    H        0.32241         2.41745         1.33299
| 78>    H       -0.85516         0.44763         0.28762
| 79>    H       -2.81113        -1.05011         0.33717
| 80>    H       -4.78215        -0.36120         2.57359
| 81>    H       -4.11645        -2.85904        -0.38968
| 82>    H       -8.36434        -7.28723        -1.19691
| 83>    H      -11.34883       -11.46445        -2.73875
| 84>    H       -9.32143        -9.91568        -2.93519
| 85>    H      -15.21883        -9.32686         2.37841
| 86>    H      -19.57275       -13.71776         1.68353
| 87>    H      -19.23586       -18.06660        -2.53037
| 88>    H      -21.42588       -18.58476        -1.39084
| 89>    H      -23.04487       -17.95673         0.34759
| 90>    H      -22.27419       -15.47103         1.95834
| 91>    H      -23.79801       -16.48223         2.17083
| 92> *
| 93>
| 94>                          ****END OF INPUT****

CARTESIAN COORDINATES (ANGSTROEM)
---------------------------------
  C     -2.284270    2.263680    3.211720
  N     -1.126590    2.704720    2.748600
  C     -0.625750    2.053000    1.707880
  C     -1.269550    0.972550    1.133440
  C     -2.490710    0.585060    1.702390
  N     -2.986800    1.252490    2.753140
  C     -3.240260   -0.534660    1.184000
  C     -4.411290   -0.924530    1.727810
  C     -5.201940   -2.020650    1.288510
  C     -4.976870   -2.909420    0.251460
  C     -5.987350   -3.862910    0.145290
  C     -6.999590   -3.701610    1.112660
  S     -6.698840   -2.377580    2.142670
  C     -7.972500   -4.713880    0.930090
  C     -7.572740   -5.518260   -0.156470
  C     -6.316050   -5.010280   -0.683360
  C     -5.597770   -5.508960   -1.731080
  C     -6.015260   -6.639210   -2.464690
  N     -6.340080   -7.556470   -3.071220
  C     -4.384400   -4.925490   -2.150730
  N     -3.397270   -4.452400   -2.493120
  C     -8.461020   -6.551480   -0.420770
  C     -9.540830   -6.549320    0.453290
  S     -9.444590   -5.236720    1.621730
  C    -10.641960   -7.446520    0.493520
  C    -10.817820   -8.536540   -0.399780
  C    -11.955640   -9.403000   -0.295190
  N    -12.096700  -10.430240   -1.151770
  C    -11.195990  -10.627380   -2.072770
  C    -10.080000   -9.774040   -2.178150
  N     -9.907740   -8.769230   -1.365520
  C    -12.971130   -9.242490    0.678960
  C    -12.797780   -8.159830    1.566330
  C    -11.652860   -7.288850    1.465030
  N    -11.677960   -6.332340    2.395720
  S    -12.994750   -6.506890    3.299730
  N    -13.601450   -7.794290    2.567370
  C    -14.076120  -10.128430    0.728930
  C    -15.144570  -10.080620    1.616300
  C    -16.057110  -11.100090    1.382930
  C    -15.681800  -11.934940    0.311270
  S    -14.203910  -11.457010   -0.410320
  C    -16.677140  -12.934050    0.160230
  C    -17.677500  -12.728220    1.131640
  C    -17.320630  -11.570610    1.931260
  C    -18.019540  -11.033790    2.973210
  C    -19.242410  -11.578590    3.417590
  N    -20.237460  -12.013340    3.786530
  C    -17.570710   -9.897420    3.678220
  N    -17.219510   -8.974180    4.261120
  C    -18.704730  -13.670170    1.052700
  C    -18.481470  -14.574460    0.038170
  S    -17.001290  -14.280330   -0.837420
  C    -19.308000  -15.686130   -0.352690
  N    -18.858150  -16.441140   -1.358180
  C    -19.614270  -17.462440   -1.715330
  C    -20.816770  -17.747870   -1.090390
  C    -21.208440  -16.897010   -0.048450
  N    -20.442780  -15.870160    0.311060
  C    -22.459420  -17.105730    0.669360
  C    -22.870060  -16.313770    1.652470
  H     -2.698490    2.793770    4.060780
  H      0.322410    2.417450    1.332990
  H     -0.855160    0.447630    0.287620
  H     -2.811130   -1.050110    0.337170
  H     -4.782150   -0.361200    2.573590
  H     -4.116450   -2.859040   -0.389680
  H     -8.364340   -7.287230   -1.196910
  H    -11.348830  -11.464450   -2.738750
  H     -9.321430   -9.915680   -2.935190
  H    -15.218830   -9.326860    2.378410
  H    -19.572750  -13.717760    1.683530
  H    -19.235860  -18.066600   -2.530370
  H    -21.425880  -18.584760   -1.390840
  H    -23.044870  -17.956730    0.347590
  H    -22.274190  -15.471030    1.958340
  H    -23.798010  -16.482230    2.170830

 Total Charge           Charge          ....    0
 Multiplicity           Mult            ....    1
 Number of Electrons    NEL             ....  444
 Basis Dimension        Dim             ....  954

ORBITAL ENERGIES
----------------

  NO   OCC          E(Eh)            E(eV)
   0   2.0000     -89.045215     -2423.0435
   1   2.0000     -88.984224     -2421.3838
   2   2.0000     -88.977652     -2421.2050
   3   2.0000     -88.977351     -2421.1968
   4   2.0000     -88.974340     -2421.1149
   5   2.0000     -14.453381      -393.2965
   6   2.0000     -14.453308      -393.2945
   7   2.0000     -14.446720      -393.1152
   8   2.0000     -14.440170      -392.9370
   9   2.0000     -14.425710      -392.5435
  10   2.0000     -14.425242      -392.5308
  11   2.0000     -14.419578      -392.3767
  12   2.0000     -14.419343      -392.3703
  13   2.0000     -14.411989      -392.1701
  14   2.0000     -14.410133      -392.1197
  15   2.0000     -14.403414      -391.9368
  16   2.0000     -14.399723      -391.8364
  17   2.0000     -10.357522      -281.8425
  18   2.0000     -10.351744      -281.6853
  19   2.0000     -10.351031      -281.6659
  20   2.0000     -10.346005      -281.5291
  21   2.0000     -10.340405      -281.3767
  22   2.0000     -10.340257      -281.3727
  23   2.0000     -10.339934      -281.3639
  24   2.0000     -10.339386      -281.3490
  25   2.0000     -10.337880      -281.3080
  26   2.0000     -10.335856      -281.2529
  27   2.0000     -10.335599      -281.2460
  28   2.0000     -10.329723      -281.0860
  29   2.0000     -10.327771      -281.0329
  30   2.0000     -10.327516      -281.0260
  31   2.0000     -10.326669      -281.0029
  32   2.0000     -10.326071      -280.9867
  33   2.0000     -10.324460      -280.9428
  34   2.0000     -10.324057      -280.9319
  35   2.0000     -10.320449      -280.8337
  36   2.0000     -10.320401      -280.8324
  37   2.0000     -10.320181      -280.8264
  38   2.0000     -10.318748      -280.7874
  39   2.0000     -10.316933      -280.7380
  40   2.0000     -10.316584      -280.7285
  41   2.0000     -10.314854      -280.6815
  42   2.0000     -10.314340      -280.6675
  43   2.0000     -10.313336      -280.6401
  44   2.0000     -10.313206      -280.6366
  45   2.0000     -10.311640      -280.5940
  46   2.0000     -10.303449      -280.3711
  47   2.0000     -10.298592      -280.2389
  48   2.0000     -10.296716      -280.1879
  49   2.0000     -10.292348      -280.0690
  50   2.0000     -10.291802      -280.0542
  51   2.0000     -10.291081      -280.0346
  52   2.0000     -10.289761      -279.9986
  53   2.0000     -10.288359      -279.9605
  54   2.0000     -10.287011      -279.9238
  55   2.0000     -10.285925      -279.8942
  56   2.0000     -10.284455      -279.8542
  57   2.0000     -10.280886      -279.7571
  58   2.0000     -10.278799      -279.7004
  59   2.0000     -10.276238      -279.6307
  60   2.0000     -10.273892      -279.5668
  61   2.0000      -8.136128      -221.3953
  62   2.0000      -8.078918      -219.8385
  63   2.0000      -8.071352      -219.6327
  64   2.0000      -8.070707      -219.6151
  65   2.0000      -8.066359      -219.4968
  66   2.0000      -6.107203      -166.1854
  67   2.0000      -6.099446      -165.9744
  68   2.0000      -6.098944      -165.9607
  69   2.0000      -6.048011      -164.5747
  70   2.0000      -6.043914      -164.4633
  71   2.0000      -6.041521      -164.3982
  72   2.0000      -6.040467      -164.3695
  73   2.0000      -6.040139      -164.3605
  74   2.0000      -6.036233      -164.2542
  75   2.0000      -6.035989      -164.2476
  76   2.0000      -6.035519      -164.2348
  77   2.0000      -6.034094      -164.1961
  78   2.0000      -6.033202      -164.1718
  79   2.0000      -6.031056      -164.1134
  80   2.0000      -6.028920      -164.0553
  81   2.0000      -1.141722       -31.0678
  82   2.0000      -1.101261       -29.9668
  83   2.0000      -1.086917       -29.5765
  84   2.0000      -1.074207       -29.2307
  85   2.0000      -1.037224       -28.2243
  86   2.0000      -1.031982       -28.0817
  87   2.0000      -1.025546       -27.9065
  88   2.0000      -1.016614       -27.6635
  89   2.0000      -1.010405       -27.4945
  90   2.0000      -1.003204       -27.2986
  91   2.0000      -1.000177       -27.2162
  92   2.0000      -0.997111       -27.1328
  93   2.0000      -0.990146       -26.9432
  94   2.0000      -0.985096       -26.8058
  95   2.0000      -0.981456       -26.7068
  96   2.0000      -0.974494       -26.5173
  97   2.0000      -0.967132       -26.3170
  98   2.0000      -0.950111       -25.8538
  99   2.0000      -0.943599       -25.6766
 100   2.0000      -0.914681       -24.8897
 101   2.0000      -0.910891       -24.7866
 102   2.0000      -0.897603       -24.4250
 103   2.0000      -0.890937       -24.2436
 104   2.0000      -0.884579       -24.0706
 105   2.0000      -0.874727       -23.8025
 106   2.0000      -0.867388       -23.6028
 107   2.0000      -0.854582       -23.2544
 108   2.0000      -0.853903       -23.2359
 109   2.0000      -0.847299       -23.0562
 110   2.0000      -0.844208       -22.9721
 111   2.0000      -0.840078       -22.8597
 112   2.0000      -0.814709       -22.1694
 113   2.0000      -0.796640       -21.6777
 114   2.0000      -0.790669       -21.5152
 115   2.0000      -0.778795       -21.1921
 116   2.0000      -0.769348       -20.9350
 117   2.0000      -0.761564       -20.7232
 118   2.0000      -0.757456       -20.6114
 119   2.0000      -0.748999       -20.3813
 120   2.0000      -0.741207       -20.1693
 121   2.0000      -0.735069       -20.0022
 122   2.0000      -0.720875       -19.6160
 123   2.0000      -0.710187       -19.3252
 124   2.0000      -0.699049       -19.0221
 125   2.0000      -0.695346       -18.9213
 126   2.0000      -0.688517       -18.7355
 127   2.0000      -0.679558       -18.4917
 128   2.0000      -0.674399       -18.3513
 129   2.0000      -0.671003       -18.2589
 130   2.0000      -0.663784       -18.0625
 131   2.0000      -0.653983       -17.7958
 132   2.0000      -0.649091       -17.6627
 133   2.0000      -0.642913       -17.4945
 134   2.0000      -0.633831       -17.2474
 135   2.0000      -0.627959       -17.0876
 136   2.0000      -0.618044       -16.8178
 137   2.0000      -0.616043       -16.7634
 138   2.0000      -0.613473       -16.6935
 139   2.0000      -0.609507       -16.5855
 140   2.0000      -0.604423       -16.4472
 141   2.0000      -0.600546       -16.3417
 142   2.0000      -0.593306       -16.1447
 143   2.0000      -0.585925       -15.9438
 144   2.0000      -0.580314       -15.7911
 145   2.0000      -0.571167       -15.5422
 146   2.0000      -0.570851       -15.5336
 147   2.0000      -0.565995       -15.4015
 148   2.0000      -0.560400       -15.2493
 149   2.0000      -0.552728       -15.0405
 150   2.0000      -0.541106       -14.7243
 151   2.0000      -0.540318       -14.7028
 152   2.0000      -0.540243       -14.7008
 153   2.0000      -0.539826       -14.6894
 154   2.0000      -0.537223       -14.6186
 155   2.0000      -0.536355       -14.5950
 156   2.0000      -0.534030       -14.5317
 157   2.0000      -0.526451       -14.3255
 158   2.0000      -0.524794       -14.2804
 159   2.0000      -0.513264       -13.9666
 160   2.0000      -0.512606       -13.9487
 161   2.0000      -0.506589       -13.7850
 162   2.0000      -0.502109       -13.6631
 163   2.0000      -0.499637       -13.5958
 164   2.0000      -0.496341       -13.5061
 165   2.0000      -0.493604       -13.4316
 166   2.0000      -0.492855       -13.4113
 167   2.0000      -0.489415       -13.3177
 168   2.0000      -0.488347       -13.2886
 169   2.0000      -0.485287       -13.2053
 170   2.0000      -0.483910       -13.1679
 171   2.0000      -0.482258       -13.1229
 172   2.0000      -0.479742       -13.0544
 173   2.0000      -0.475501       -12.9390
 174   2.0000      -0.473608       -12.8875
 175   2.0000      -0.463804       -12.6208
 176   2.0000      -0.462139       -12.5755
 177   2.0000      -0.458149       -12.4669
 178   2.0000      -0.456303       -12.4166
 179   2.0000      -0.453959       -12.3529
 180   2.0000      -0.451886       -12.2964
 181   2.0000      -0.450872       -12.2689
 182   2.0000      -0.450467       -12.2578
 183   2.0000      -0.447607       -12.1800
 184   2.0000      -0.443418       -12.0660
 185   2.0000      -0.440178       -11.9778
 186   2.0000      -0.439599       -11.9621
 187   2.0000      -0.438861       -11.9420
 188   2.0000      -0.436325       -11.8730
 189   2.0000      -0.436260       -11.8712
 190   2.0000      -0.433317       -11.7911
 191   2.0000      -0.430227       -11.7071
 192   2.0000      -0.428405       -11.6575
 193   2.0000      -0.424783       -11.5589
 194   2.0000      -0.422437       -11.4951
 195   2.0000      -0.418436       -11.3862
 196   2.0000      -0.416885       -11.3440
 197   2.0000      -0.415511       -11.3066
 198   2.0000      -0.403869       -10.9898
 199   2.0000      -0.399715       -10.8768
 200   2.0000      -0.399094       -10.8599
 201   2.0000      -0.383627       -10.4390
 202   2.0000      -0.382681       -10.4133
 203   2.0000      -0.379974       -10.3396
 204   2.0000      -0.378890       -10.3101
 205   2.0000      -0.370870       -10.0919
 206   2.0000      -0.363603        -9.8941
 207   2.0000      -0.361736        -9.8433
 208   2.0000      -0.353533        -9.6201
 209   2.0000      -0.349342        -9.5061
 210   2.0000      -0.340261        -9.2590
 211   2.0000      -0.333952        -9.0873
 212   2.0000      -0.333232        -9.0677
 213   2.0000      -0.331804        -9.0288
 214   2.0000      -0.328952        -8.9512
 215   2.0000      -0.322926        -8.7873
 216   2.0000      -0.320172        -8.7123
 217   2.0000      -0.314942        -8.5700
 218   2.0000      -0.309455        -8.4207
 219   2.0000      -0.296353        -8.0642
 220   2.0000      -0.265606        -7.2275
 221   2.0000      -0.229786        -6.2528
 222   0.0000      -0.119032        -3.2390
 223   0.0000      -0.094709        -2.5772
 224   0.0000      -0.087464        -2.3800
 225   0.0000      -0.049063        -1.3351
 226   0.0000      -0.031275        -0.8510

MULLIKEN ATOMIC CHARGES
-----------------------
   0 C :    0.071577
   1 N :   -0.112023
   2 C :    0.069870
   3 C :   -0.033901
   4 C :    0.027466
   5 N :   -0.098259
   6 C :   -0.013927
   7 C :    0.080194
   8 C :   -0.073904
   9 C :   -0.023614
  10 C :   -0.003472
  11 C :   -0.102980
  12 S :    0.196485
  13 C :   -0.071623
  14 C :    0.042193
  15 C :    0.312095
  16 C :   -0.311339
  17 C :   -0.185168
  18 N :    0.166401
  19 C :   -0.188304
  20 N :    0.167632
  21 C :   -0.069637
  22 C :   -0.187387
  23 S :    0.202911
  24 C :    0.200989
  25 C :   -0.072668
  26 C :   -0.053270
  27 N :   -0.086628
  28 C :    0.050178
  29 C :    0.037017
  30 N :   -0.018930
  31 C :    0.174870
  32 C :   -0.003936
  33 C :   -0.031116
  34 N :   -0.339601
  35 S :    0.566258
  36 N :   -0.277931
  37 C :   -0.173661
  38 C :   -0.070479
  39 C :    0.035405
  40 C :   -0.068264
  41 S :    0.196188
  42 C :   -0.101843
  43 C :    0.004782
  44 C :    0.306628
  45 C :   -0.310633
  46 C :   -0.194336
  47 N :    0.174741
  48 C :   -0.188807
  49 N :    0.166510
  50 C :   -0.042238
  51 C :   -0.035420
  52 S :    0.232292
  53 C :   -0.077160
  54 N :   -0.093335
  55 C :    0.088246
  56 C :   -0.047244
  57 C :    0.046656
  58 N :   -0.047181
  59 C :   -0.022103
  60 C :    0.037987
  61 H :    0.012907
  62 H :    0.008806
  63 H :   -0.005085
  64 H :   -0.015330
  65 H :    0.004928
  66 H :    0.005641
  67 H :    0.018070
  68 H :    0.020564
  69 H :    0.033086
  70 H :    0.017744
  71 H :    0.013081
  72 H :    0.007535
  73 H :   -0.006148
  74 H :   -0.016118
  75 H :    0.047893
  76 H :    0.029178
Sum of atomic charges:    0.0000000

LOEWDIN ATOMIC CHARGES
----------------------
   0 C :    0.044854
   1 N :   -0.099356
   2 C :    0.048923
   3 C :   -0.063669
   4 C :    0.033852
   5 N :   -0.094244
   6 C :   -0.041093
   7 C :   -0.003353
   8 C :   -0.169053
   9 C :   -0.020027
  10 C :   -0.069244
  11 C :   -0.178438
  12 S :    0.483573
  13 C :   -0.185743
  14 C :   -0.075668
  15 C :    0.085020
  16 C :   -0.109129
  17 C :   -0.013875
  18 N :   -0.040726
  19 C :   -0.015835
  20 N :   -0.040853
  21 C :   -0.015187
  22 C :   -0.161797
  23 S :    0.509271
  24 C :   -0.049231
  25 C :   -0.006979
  26 C :   -0.017969
  27 N :   -0.049296
  28 C :    0.021068
  29 C :    0.020172
  30 N :   -0.018384
  31 C :   -0.040173
  32 C :   -0.040687
  33 C :   -0.048117
  34 N :   -0.309479
  35 S :    0.685619
  36 N :   -0.270594
  37 C :   -0.166974
  38 C :   -0.012990
  39 C :   -0.075360
  40 C :   -0.184277
  41 S :    0.506575
  42 C :   -0.176107
  43 C :   -0.074035
  44 C :    0.083566
  45 C :   -0.109959
  46 C :   -0.017156
  47 N :   -0.039303
  48 C :   -0.016139
  49 N :   -0.040390
  50 C :   -0.004992
  51 C :   -0.188454
  52 S :    0.510638
  53 C :    0.013234
  54 N :   -0.112360
  55 C :    0.054268
  56 C :   -0.071743
  57 C :    0.042536
  58 N :   -0.084297
  59 C :   -0.048864
  60 C :    0.015575
  61 H :    0.017546
  62 H :    0.025938
  63 H :    0.033392
  64 H :    0.028773
  65 H :    0.034935
  66 H :    0.039294
  67 H :    0.035446
  68 H :    0.030861
  69 H :    0.034938
  70 H :    0.037049
  71 H :    0.043694
  72 H :    0.027265
  73 H :    0.033173
  74 H :    0.028005
  75 H :    0.033207
  76 H :    0.029336

  Mayer bond orders larger than 0.100000
B(  0-C ,  1-N ) :   1.5023 B(  0-C ,  5-N ) :   1.5308 B(  0-C , 61-H ) :   0.9748
B(  1-N ,  2-C ) :   1.5391 B(  2-C ,  3-C ) :   1.3890 B(  2-C , 62-H ) :   0.9809
B(  3-C ,  4-C ) :   1.3357 B(  3-C , 63-H ) :   0.9766 B(  4-C ,  5-N ) :   1.5116
B(  4-C ,  6-C ) :   1.0930 B(  6-C ,  7-C ) :   1.7197 B(  6-C , 64-H ) :   0.9754
B(  7-C ,  8-C ) :   1.0861 B(  7-C , 65-H ) :   0.9573 B(  8-C ,  9-C ) :   1.4555
B(  8-C , 12-S ) :   1.1024 B(  9-C , 10-C ) :   1.3079 B(  9-C , 66-H ) :   0.9913
B( 10-C , 11-C ) :   1.4196 B( 10-C , 15-C ) :   0.9975 B( 11-C , 12-S ) :   1.1328
B( 11-C , 13-C ) :   1.1959 B( 13-C , 14-C ) :   1.4047 B( 13-C , 23-S ) :   1.0977
B( 14-C , 15-C ) :   0.9954 B( 14-C , 21-C ) :   1.2573 B( 15-C , 16-C ) :   1.7047
B( 16-C , 17-C ) :   1.1401 B( 16-C , 19-C ) :   1.1335 B( 17-C , 18-N ) :   2.9896
B( 19-C , 20-N ) :   2.9903 B( 21-C , 22-C ) :   1.4176 B( 21-C , 67-H ) :   0.9810
B( 22-C , 23-S ) :   1.0980 B( 22-C , 24-C ) :   1.1859 B( 24-C , 25-C ) :   1.2736
B( 24-C , 31-C ) :   0.1320 B( 24-C , 33-C ) :   1.2004 B( 25-C , 26-C ) :   1.1237
B( 25-C , 30-N ) :   1.4695 B( 26-C , 27-N ) :   1.3955 B( 26-C , 31-C ) :   1.2694
B( 27-N , 28-C ) :   1.6524 B( 28-C , 29-C ) :   1.1913 B( 28-C , 68-H ) :   0.9737
B( 29-C , 30-N ) :   1.6708 B( 29-C , 69-H ) :   0.9755 B( 31-C , 32-C ) :   1.2092
B( 31-C , 37-C ) :   1.2019 B( 32-C , 33-C ) :   1.1075 B( 32-C , 36-N ) :   1.5064
B( 33-C , 34-N ) :   1.4646 B( 34-N , 35-S ) :   1.2693 B( 34-N , 36-N ) :   0.1543
B( 35-S , 36-N ) :   1.2917 B( 37-C , 38-C ) :   1.4184 B( 37-C , 41-S ) :   1.0875
B( 38-C , 39-C ) :   1.2772 B( 38-C , 70-H ) :   0.9836 B( 39-C , 40-C ) :   1.4131
B( 39-C , 44-C ) :   0.9883 B( 40-C , 41-S ) :   1.0745 B( 40-C , 42-C ) :   1.1989
B( 42-C , 43-C ) :   1.4223 B( 42-C , 52-S ) :   1.1278 B( 43-C , 44-C ) :   0.9982
B( 43-C , 50-C ) :   1.2604 B( 44-C , 45-C ) :   1.7073 B( 45-C , 46-C ) :   1.1333
B( 45-C , 48-C ) :   1.1397 B( 46-C , 47-N ) :   3.0030 B( 48-C , 49-N ) :   2.9869
B( 50-C , 51-C ) :   1.4873 B( 50-C , 71-H ) :   1.0079 B( 51-C , 52-S ) :   1.1091
B( 51-C , 53-C ) :   1.0102 B( 51-C , 58-N ) :  -0.1007 B( 53-C , 54-N ) :   1.5851
B( 53-C , 58-N ) :   1.6157 B( 54-N , 55-C ) :   1.5383 B( 55-C , 56-C ) :   1.3806
B( 55-C , 72-H ) :   0.9792 B( 56-C , 57-C ) :   1.3329 B( 56-C , 73-H ) :   0.9745
B( 57-C , 58-N ) :   1.5108 B( 57-C , 59-C ) :   1.0605 B( 59-C , 60-C ) :   1.9503
B( 59-C , 74-H ) :   0.9672 B( 60-C , 75-H ) :   0.9425 B( 60-C , 76-H ) :   0.9480

-----------------------------------------------------------------------------
         ABSORPTION SPECTRUM VIA TRANSITION ELECTRIC DIPOLE MOMENTS
-----------------------------------------------------------------------------
State   Energy  Wavelength   fosc         T2         TX        TY        TZ
        (cm-1)    (nm)                  (au**2)     (au)      (au)      (au)
-----------------------------------------------------------------------------
   0    9134.7   1094.7   0.794194288  28.62250  -4.10302  -3.43319   0.02966
   1   12308.0    812.5   0.008485958   0.22698  -0.40472  -0.21794   0.12522
   2   13801.2    724.6   0.004128825   0.09849   0.27074   0.11202  -0.11244
   3   17918.0    558.1   0.000446354   0.00820   0.03322  -0.04114  -0.07352
   4   22215.9    450.1   0.073747338   1.09284  -0.77528  -0.70002  -0.04194
   5   23696.9    422.0   0.001646213   0.02287  -0.09896   0.07470  -0.08659
   6   24130.7    414.4   0.029137993   0.39753   0.33800   0.49066   0.20623
   7   25316.1    395.0   0.846222529  11.00433  -2.42121  -2.25563  -0.23286
   8   25849.6    386.9   0.627888143   7.99658   1.70991   2.14218   0.69560
   9   26159.7    382.3   0.078243367   0.98467  -0.73705  -0.66166  -0.06024
  10   26553.3    376.6   0.021235600   0.26328   0.44366   0.12602  -0.22486
  11   27236.1    367.2   0.108687961   1.31375   0.98344   0.51042  -0.29337
  12   29139.0    343.2   0.496875029   5.61368   1.83117   1.50260  -0.05175
  13   29901.5    334.4   0.084374242   0.92895  -0.83252  -0.38710   0.29328
  14   30368.0    329.3   0.156356054   1.69502   0.19958  -0.83567  -0.97818
  15   31109.9    321.4   0.143603054   1.51964   0.52248   0.99581   0.50500
  16   31455.0    317.9   0.193603778   2.02628  -1.20294  -0.29387   0.70204
  17   31647.7    316.0   0.003237602   0.03368  -0.09019   0.10936  -0.11656
  18   31656.7    315.9   0.000692907   0.00721  -0.05358   0.06553  -0.00640
  19   31859.1    313.9   0.150512431   1.55530  -0.61135   0.51417   0.95770
  20   31943.9    313.0   0.541876692   5.58455  -0.84407   1.21919   1.84002
  21   32027.3    312.2   0.180045225   1.85070   1.17886   0.56162  -0.38154
  22   32089.2    311.6   0.000309509   0.00318   0.04620   0.03168   0.00609
  23   32483.9    307.8   0.032162926   0.32596   0.06738  -0.38169  -0.41920
  24   32887.8    304.1   0.078529478   0.78609  -0.58192  -0.65300  -0.14507
  25   33892.2    295.1   0.083183358   0.80800   0.12945   0.69864   0.55059
  26   34259.3    291.9   0.118732878   1.14095  -0.93607  -0.37456   0.35274
  27   34561.8    289.3   0.003058706   0.02914   0.09027  -0.13685   0.04752
  28   34722.3    288.0   0.259709375   2.46238   1.35184   0.68050  -0.41451
  29   34975.4    285.9   0.044993758   0.42351  -0.31361   0.26719   0.50376
  30   35560.8    281.2   0.000446736   0.00414  -0.00842   0.02704  -0.05774
  31   35636.1    280.6   0.060923464   0.56282  -0.22821  -0.58878  -0.40507
  32   35907.4    278.5   0.874782040   8.02032  -0.54203   1.78157   2.13367
  33   36310.8    275.4   0.006368857   0.05774   0.12179  -0.14596   0.14699
  34   36348.4    275.1   0.002758235   0.02498   0.06847  -0.09967   0.10178
  35   36748.6    272.1   0.002718988   0.02436  -0.08064   0.09374  -0.09522
  36   36841.3    271.4   0.006777541   0.06056  -0.15102  -0.19051  -0.03822
  37   37093.1    269.6   0.043129158   0.38278   0.05283  -0.41436  -0.45639
  38   37654.2    265.6   0.092174466   0.80589  -0.11590   0.59883   0.65867
  39   37728.2    265.1   0.009607287   0.08383  -0.15548  -0.22659  -0.09120
  40   37936.5    263.6   0.049102000   0.42611   0.26488  -0.29998  -0.51571
  41   38172.5    262.0   0.000392115   0.00338  -0.02915   0.04161  -0.02829
  42   38673.7    258.6   0.000011370   0.00010   0.00312  -0.00385   0.00850
  43   39159.9    255.4   0.252419334   2.12205  -1.05919  -0.99430  -0.10743
  44   39687.1    252.0   0.005816296   0.04825   0.08546   0.17478   0.10196
  45   39981.2    250.1   0.000595306   0.00490   0.01898   0.06664  -0.01005
  46   40201.8    248.7   0.006796559   0.05566   0.16203  -0.05274  -0.16316

FINAL SINGLE POINT ENERGY     -4330.576334247462

DIPOLE MOMENT
-------------
                                X             Y             Z
Electronic contribution:     -0.29951       3.87092       3.95506
Nuclear contribution   :     -0.43520      -5.61146      -5.01385
                        -----------------------------------------
Total Dipole Moment    :     -0.73472      -1.74054      -1.05879
                        -----------------------------------------
Magnitude (a.u.)       :      2.16571
Magnitude (Debye)      :      5.50481

Rotational constants in cm-1:     0.003871     0.000307     0.000284
Rotational constants in MHz :   116.055034     9.188897     8.515128

                             ****ORCA TERMINATED NORMALLY****
TOTAL RUN TIME: 0 days 0 hours 6 minutes 22 seconds 466 msec
