                         Program Version 4.2.0 -  RELEASE  -
|  1> # ORCA input file
|  2> # SCF done       -151.911922678726          0.000314168356
|  3> ! CAM-B3LYP def2-SVP def2/J RIJCOSX Grid4 TightSCF
|  4> %maxcore 5000
|  5> %tddft
|  6>     Mode sTDDFT
|  7>     Ethresh 5.0
|  8>     maxcore 5000
|  9> end
| 10>
| 11> %pal
| 12>   nprocs 6
| 13>   end
| 14> * xyz 0 1
| 15>    C       -1.45696        -0.17783         1.21750
| 16>    N       -0.56634        -1.06132         0.82124
| 17>    C        0.02043        -1.75155         1.80516
| 18>    N       -0.25495        -1.58438         3.10446
| 19>    C       -1.16397        -0.67201         3.37090
| 20>    N       -1.80009         0.06503         2.47363
| 21>    C        1.00855        -2.72805         1.46069
| 22>    C        1.45727        -3.07118         0.20083
| 23>    C        2.44003        -4.05696         0.26430
| 24>    C        2.72573        -4.45316         1.58856
| 25>    S        1.78911        -3.61974         2.74343
| 26>    C        3.74190        -5.44026         1.55552
| 27>    C        4.09985        -5.66790         0.21147
| 28>    C        3.28488        -4.81579        -0.64306
| 29>    C        3.30096        -4.75297        -2.00460
| 30>    C        4.14991        -5.56084        -2.79248
| 31>    N        4.82462        -6.21358        -3.45000
| 32>    C        2.45737        -3.88292        -2.72874
| 33>    N        1.77801        -3.18067        -3.32823
| 34>    C        5.11453        -6.60645         0.07381
| 35>    C        5.53611        -7.10441         1.30082
| 36>    S        4.64149        -6.39922         2.64234
| 37>    C        6.55836        -8.05616         1.57631
| 38>    C        7.42756        -8.61389         0.60586
| 39>    C        8.44895        -9.57009         0.94347
| 40>    N        9.25718       -10.03774        -0.03307
| 41>    C        9.10652        -9.62820        -1.24841
| 42>    C        8.09535        -8.68740        -1.58257
| 43>    N        7.30304        -8.21486        -0.67896
| 44>    F        7.94259        -8.25870        -2.82792
| 45>    F        9.93190       -10.10411        -2.17069
| 46>    C        8.65686       -10.02351         2.26982
| 47>    C        7.80131        -9.45165         3.23582
| 48>    C        6.78143        -8.49642         2.89873
| 49>    N        6.10318        -8.10135         3.97762
| 50>    S        6.68121        -8.84676         5.27474
| 51>    N        7.81965        -9.70893         4.54485
| 52>    C        9.65060       -10.96534         2.65991
| 53>    C       10.51493       -11.70360         1.86060
| 54>    C       11.36192       -12.50854         2.61169
| 55>    C       11.15008       -12.38310         3.99943
| 56>    S        9.89174       -11.29327         4.37198
| 57>    C       12.07503       -13.21970         4.67226
| 58>    C       12.87134       -13.87597         3.70921
| 59>    C       12.44112       -13.45942         2.38472
| 60>    C       12.93321       -13.88054         1.18531
| 61>    C       13.98876       -14.81313         1.08991
| 62>    N       14.84686       -15.56787         0.99972
| 63>    C       12.41609       -13.42927        -0.04877
| 64>    N       12.00238       -13.08400        -1.06032
| 65>    C       13.82349       -14.71532         4.28412
| 66>    C       13.74733       -14.69077         5.66249
| 67>    S       12.49660       -13.63465         6.27092
| 68>    C       14.55929       -15.40567         6.59962
| 69>    N       15.51906       -16.21036         6.13043
| 70>    C       16.22574       -16.82783         7.05243
| 71>    N       16.05902       -16.71255         8.36143
| 72>    C       15.08293       -15.89413         8.72259
| 73>    N       14.30762       -15.22032         7.90128
| 74>    H       -1.95152         0.40136         0.44765
| 75>    H       -1.41155        -0.51065         4.41284
| 76>    H        1.07242        -2.60897        -0.68970
| 77>    H        5.54808        -6.92844        -0.85384
| 78>    H       10.50517       -11.63280         0.78960
| 79>    H       14.54344       -15.31771         3.76104
| 80>    H       17.01277       -17.48768         6.70910
| 81>    H       14.90730       -15.76735         9.78372
| 82> *
| 83>
| 84>                          ****END OF INPUT****

CARTESIAN COORDINATES (ANGSTROEM)
---------------------------------
  C     -1.456960   -0.177830    1.217500
  N     -0.566340   -1.061320    0.821240
  C      0.020430   -1.751550    1.805160
  N     -0.254950   -1.584380    3.104460
  C     -1.163970   -0.672010    3.370900
  N     -1.800090    0.065030    2.473630
  C      1.008550   -2.728050    1.460690
  C      1.457270   -3.071180    0.200830
  C      2.440030   -4.056960    0.264300
  C      2.725730   -4.453160    1.588560
  S      1.789110   -3.619740    2.743430
  C      3.741900   -5.440260    1.555520
  C      4.099850   -5.667900    0.211470
  C      3.284880   -4.815790   -0.643060
  C      3.300960   -4.752970   -2.004600
  C      4.149910   -5.560840   -2.792480
  N      4.824620   -6.213580   -3.450000
  C      2.457370   -3.882920   -2.728740
  N      1.778010   -3.180670   -3.328230
  C      5.114530   -6.606450    0.073810
  C      5.536110   -7.104410    1.300820
  S      4.641490   -6.399220    2.642340
  C      6.558360   -8.056160    1.576310
  C      7.427560   -8.613890    0.605860
  C      8.448950   -9.570090    0.943470
  N      9.257180  -10.037740   -0.033070
  C      9.106520   -9.628200   -1.248410
  C      8.095350   -8.687400   -1.582570
  N      7.303040   -8.214860   -0.678960
  F      7.942590   -8.258700   -2.827920
  F      9.931900  -10.104110   -2.170690
  C      8.656860  -10.023510    2.269820
  C      7.801310   -9.451650    3.235820
  C      6.781430   -8.496420    2.898730
  N      6.103180   -8.101350    3.977620
  S      6.681210   -8.846760    5.274740
  N      7.819650   -9.708930    4.544850
  C      9.650600  -10.965340    2.659910
  C     10.514930  -11.703600    1.860600
  C     11.361920  -12.508540    2.611690
  C     11.150080  -12.383100    3.999430
  S      9.891740  -11.293270    4.371980
  C     12.075030  -13.219700    4.672260
  C     12.871340  -13.875970    3.709210
  C     12.441120  -13.459420    2.384720
  C     12.933210  -13.880540    1.185310
  C     13.988760  -14.813130    1.089910
  N     14.846860  -15.567870    0.999720
  C     12.416090  -13.429270   -0.048770
  N     12.002380  -13.084000   -1.060320
  C     13.823490  -14.715320    4.284120
  C     13.747330  -14.690770    5.662490
  S     12.496600  -13.634650    6.270920
  C     14.559290  -15.405670    6.599620
  N     15.519060  -16.210360    6.130430
  C     16.225740  -16.827830    7.052430
  N     16.059020  -16.712550    8.361430
  C     15.082930  -15.894130    8.722590
  N     14.307620  -15.220320    7.901280
  H     -1.951520    0.401360    0.447650
  H     -1.411550   -0.510650    4.412840
  H      1.072420   -2.608970   -0.689700
  H      5.548080   -6.928440   -0.853840
  H     10.505170  -11.632800    0.789600
  H     14.543440  -15.317710    3.761040
  H     17.012770  -17.487680    6.709100
  H     14.907300  -15.767350    9.783720

 Total Charge           Charge          ....    0
 Multiplicity           Mult            ....    1
 Number of Electrons    NEL             ....  432
 Basis Dimension        Dim             ....  886

ORBITAL ENERGIES
----------------

  NO   OCC          E(Eh)            E(eV)
   0   2.0000     -89.058554     -2423.4065
   1   2.0000     -88.990536     -2421.5556
   2   2.0000     -88.990447     -2421.5532
   3   2.0000     -88.986378     -2421.4425
   4   2.0000     -88.986370     -2421.4422
   5   2.0000     -24.818561      -675.3474
   6   2.0000     -24.818388      -675.3427
   7   2.0000     -14.467202      -393.6726
   8   2.0000     -14.467103      -393.6699
   9   2.0000     -14.459789      -393.4709
  10   2.0000     -14.459639      -393.4668
  11   2.0000     -14.427560      -392.5939
  12   2.0000     -14.427547      -392.5935
  13   2.0000     -14.426572      -392.5670
  14   2.0000     -14.426553      -392.5665
  15   2.0000     -14.426228      -392.5576
  16   2.0000     -14.426168      -392.5560
  17   2.0000     -14.425329      -392.5331
  18   2.0000     -14.425239      -392.5307
  19   2.0000     -14.419251      -392.3678
  20   2.0000     -14.419178      -392.3658
  21   2.0000     -10.437499      -284.0188
  22   2.0000     -10.437209      -284.0109
  23   2.0000     -10.373537      -282.2783
  24   2.0000     -10.373488      -282.2770
  25   2.0000     -10.361748      -281.9575
  26   2.0000     -10.361694      -281.9560
  27   2.0000     -10.358691      -281.8743
  28   2.0000     -10.358682      -281.8741
  29   2.0000     -10.357298      -281.8364
  30   2.0000     -10.357222      -281.8343
  31   2.0000     -10.356547      -281.8160
  32   2.0000     -10.356280      -281.8087
  33   2.0000     -10.352138      -281.6960
  34   2.0000     -10.351876      -281.6889
  35   2.0000     -10.349368      -281.6206
  36   2.0000     -10.349338      -281.6198
  37   2.0000     -10.335175      -281.2344
  38   2.0000     -10.335146      -281.2336
  39   2.0000     -10.328121      -281.0425
  40   2.0000     -10.327934      -281.0374
  41   2.0000     -10.327487      -281.0252
  42   2.0000     -10.327378      -281.0222
  43   2.0000     -10.326844      -281.0077
  44   2.0000     -10.326744      -281.0050
  45   2.0000     -10.326662      -281.0028
  46   2.0000     -10.326637      -281.0021
  47   2.0000     -10.326357      -280.9945
  48   2.0000     -10.326230      -280.9910
  49   2.0000     -10.315893      -280.7097
  50   2.0000     -10.315852      -280.7086
  51   2.0000     -10.304797      -280.4078
  52   2.0000     -10.304715      -280.4055
  53   2.0000     -10.303239      -280.3654
  54   2.0000     -10.303179      -280.3638
  55   2.0000     -10.301096      -280.3071
  56   2.0000     -10.301001      -280.3045
  57   2.0000     -10.296730      -280.1883
  58   2.0000     -10.296636      -280.1857
  59   2.0000      -8.149378      -221.7559
  60   2.0000      -8.084518      -219.9909
  61   2.0000      -8.084470      -219.9896
  62   2.0000      -8.079621      -219.8577
  63   2.0000      -8.079566      -219.8562
  64   2.0000      -6.120456      -166.5461
  65   2.0000      -6.112839      -166.3388
  66   2.0000      -6.112071      -166.3179
  67   2.0000      -6.053688      -164.7292
  68   2.0000      -6.053619      -164.7273
  69   2.0000      -6.049398      -164.6125
  70   2.0000      -6.049368      -164.6117
  71   2.0000      -6.049042      -164.6028
  72   2.0000      -6.048990      -164.6014
  73   2.0000      -6.047212      -164.5530
  74   2.0000      -6.047161      -164.5516
  75   2.0000      -6.044424      -164.4771
  76   2.0000      -6.044371      -164.4757
  77   2.0000      -6.042094      -164.4137
  78   2.0000      -6.042056      -164.4127
  79   2.0000      -1.348034       -36.6819
  80   2.0000      -1.333907       -36.2974
  81   2.0000      -1.155889       -31.4533
  82   2.0000      -1.129015       -30.7221
  83   2.0000      -1.128999       -30.7216
  84   2.0000      -1.120039       -30.4778
  85   2.0000      -1.046905       -28.4877
  86   2.0000      -1.043249       -28.3883
  87   2.0000      -1.041669       -28.3453
  88   2.0000      -1.019477       -27.7414
  89   2.0000      -1.019057       -27.7299
  90   2.0000      -1.015790       -27.6410
  91   2.0000      -1.009329       -27.4652
  92   2.0000      -1.005058       -27.3490
  93   2.0000      -1.003773       -27.3140
  94   2.0000      -1.003666       -27.3111
  95   2.0000      -0.998930       -27.1823
  96   2.0000      -0.998878       -27.1808
  97   2.0000      -0.994985       -27.0749
  98   2.0000      -0.985001       -26.8032
  99   2.0000      -0.975524       -26.5453
 100   2.0000      -0.954411       -25.9708
 101   2.0000      -0.951475       -25.8910
 102   2.0000      -0.917482       -24.9659
 103   2.0000      -0.906825       -24.6760
 104   2.0000      -0.896259       -24.3884
 105   2.0000      -0.886096       -24.1119
 106   2.0000      -0.867727       -23.6121
 107   2.0000      -0.865467       -23.5506
 108   2.0000      -0.853777       -23.2325
 109   2.0000      -0.853257       -23.2183
 110   2.0000      -0.836807       -22.7707
 111   2.0000      -0.820909       -22.3381
 112   2.0000      -0.819931       -22.3115
 113   2.0000      -0.795675       -21.6514
 114   2.0000      -0.787849       -21.4385
 115   2.0000      -0.779029       -21.1985
 116   2.0000      -0.776664       -21.1341
 117   2.0000      -0.769341       -20.9348
 118   2.0000      -0.766819       -20.8662
 119   2.0000      -0.757087       -20.6014
 120   2.0000      -0.755683       -20.5632
 121   2.0000      -0.728564       -19.8252
 122   2.0000      -0.704054       -19.1583
 123   2.0000      -0.699634       -19.0380
 124   2.0000      -0.698714       -19.0130
 125   2.0000      -0.689413       -18.7599
 126   2.0000      -0.688655       -18.7392
 127   2.0000      -0.680589       -18.5198
 128   2.0000      -0.676413       -18.4061
 129   2.0000      -0.674287       -18.3483
 130   2.0000      -0.664912       -18.0932
 131   2.0000      -0.656731       -17.8705
 132   2.0000      -0.648203       -17.6385
 133   2.0000      -0.647108       -17.6087
 134   2.0000      -0.638690       -17.3796
 135   2.0000      -0.634131       -17.2556
 136   2.0000      -0.623407       -16.9638
 137   2.0000      -0.621295       -16.9063
 138   2.0000      -0.620666       -16.8892
 139   2.0000      -0.617820       -16.8117
 140   2.0000      -0.614169       -16.7124
 141   2.0000      -0.605638       -16.4802
 142   2.0000      -0.603252       -16.4153
 143   2.0000      -0.591202       -16.0874
 144   2.0000      -0.580852       -15.8058
 145   2.0000      -0.574127       -15.6228
 146   2.0000      -0.567292       -15.4368
 147   2.0000      -0.561396       -15.2764
 148   2.0000      -0.559266       -15.2184
 149   2.0000      -0.556840       -15.1524
 150   2.0000      -0.556745       -15.1498
 151   2.0000      -0.543132       -14.7794
 152   2.0000      -0.542488       -14.7619
 153   2.0000      -0.536971       -14.6117
 154   2.0000      -0.536616       -14.6021
 155   2.0000      -0.528076       -14.3697
 156   2.0000      -0.527386       -14.3509
 157   2.0000      -0.523951       -14.2574
 158   2.0000      -0.521407       -14.1882
 159   2.0000      -0.515936       -14.0393
 160   2.0000      -0.511751       -13.9254
 161   2.0000      -0.509915       -13.8755
 162   2.0000      -0.504261       -13.7216
 163   2.0000      -0.500920       -13.6307
 164   2.0000      -0.498845       -13.5743
 165   2.0000      -0.496288       -13.5047
 166   2.0000      -0.495042       -13.4708
 167   2.0000      -0.493296       -13.4233
 168   2.0000      -0.489968       -13.3327
 169   2.0000      -0.489893       -13.3307
 170   2.0000      -0.481414       -13.0999
 171   2.0000      -0.474586       -12.9141
 172   2.0000      -0.473614       -12.8877
 173   2.0000      -0.461401       -12.5554
 174   2.0000      -0.459446       -12.5022
 175   2.0000      -0.459138       -12.4938
 176   2.0000      -0.458835       -12.4855
 177   2.0000      -0.458298       -12.4709
 178   2.0000      -0.456842       -12.4313
 179   2.0000      -0.456273       -12.4158
 180   2.0000      -0.451542       -12.2871
 181   2.0000      -0.451481       -12.2854
 182   2.0000      -0.443818       -12.0769
 183   2.0000      -0.441227       -12.0064
 184   2.0000      -0.440935       -11.9985
 185   2.0000      -0.436711       -11.8835
 186   2.0000      -0.436633       -11.8814
 187   2.0000      -0.435895       -11.8613
 188   2.0000      -0.435261       -11.8441
 189   2.0000      -0.433817       -11.8048
 190   2.0000      -0.424160       -11.5420
 191   2.0000      -0.423811       -11.5325
 192   2.0000      -0.420013       -11.4291
 193   2.0000      -0.419478       -11.4146
 194   2.0000      -0.411852       -11.2071
 195   2.0000      -0.410864       -11.1802
 196   2.0000      -0.410821       -11.1790
 197   2.0000      -0.407803       -11.0969
 198   2.0000      -0.400613       -10.9012
 199   2.0000      -0.400097       -10.8872
 200   2.0000      -0.378191       -10.2911
 201   2.0000      -0.375622       -10.2212
 202   2.0000      -0.375240       -10.2108
 203   2.0000      -0.361257        -9.8303
 204   2.0000      -0.352258        -9.5854
 205   2.0000      -0.349582        -9.5126
 206   2.0000      -0.349551        -9.5118
 207   2.0000      -0.347543        -9.4571
 208   2.0000      -0.347492        -9.4557
 209   2.0000      -0.346323        -9.4239
 210   2.0000      -0.345911        -9.4127
 211   2.0000      -0.322544        -8.7769
 212   2.0000      -0.319274        -8.6879
 213   2.0000      -0.316950        -8.6246
 214   2.0000      -0.284661        -7.7460
 215   2.0000      -0.245735        -6.6868
 216   0.0000      -0.128311        -3.4915
 217   0.0000      -0.100876        -2.7450
 218   0.0000      -0.096259        -2.6193
 219   0.0000      -0.050175        -1.3653
 220   0.0000      -0.048453        -1.3185

MULLIKEN ATOMIC CHARGES
-----------------------
   0 C :    0.105961
   1 N :   -0.072215
   2 C :   -0.078502
   3 N :   -0.099593
   4 C :    0.106316
   5 N :   -0.128592
   6 C :   -0.039278
   7 C :   -0.033622
   8 C :    0.006487
   9 C :   -0.094352
  10 S :    0.241213
  11 C :   -0.076518
  12 C :    0.045170
  13 C :    0.303570
  14 C :   -0.306023
  15 C :   -0.189813
  16 N :    0.180923
  17 C :   -0.194811
  18 N :    0.180578
  19 C :   -0.061171
  20 C :   -0.178581
  21 S :    0.202487
  22 C :    0.196862
  23 C :   -0.072605
  24 C :   -0.072371
  25 N :   -0.006028
  26 C :    0.153658
  27 C :    0.153539
  28 N :   -0.002603
  29 F :   -0.124962
  30 F :   -0.125450
  31 C :    0.194098
  32 C :   -0.020121
  33 C :   -0.019472
  34 N :   -0.332703
  35 S :    0.564925
  36 N :   -0.331415
  37 C :   -0.178083
  38 C :   -0.061596
  39 C :    0.043140
  40 C :   -0.076267
  41 S :    0.203897
  42 C :   -0.096598
  43 C :    0.007387
  44 C :    0.306188
  45 C :   -0.304301
  46 C :   -0.196271
  47 N :    0.180292
  48 C :   -0.194521
  49 N :    0.185573
  50 C :   -0.036424
  51 C :   -0.040122
  52 S :    0.241791
  53 C :   -0.077724
  54 N :   -0.073336
  55 C :    0.106184
  56 N :   -0.128525
  57 C :    0.105679
  58 N :   -0.098463
  59 H :    0.028384
  60 H :    0.025235
  61 H :    0.023399
  62 H :    0.024782
  63 H :    0.025928
  64 H :    0.024739
  65 H :    0.028528
  66 H :    0.026116
Sum of atomic charges:   -0.0000000

LOEWDIN ATOMIC CHARGES
----------------------
   0 C :    0.078179
   1 N :   -0.098920
   2 C :    0.032941
   3 N :   -0.119373
   4 C :    0.076494
   5 N :   -0.112110
   6 C :   -0.198826
   7 C :    0.009499
   8 C :   -0.073054
   9 C :   -0.168803
  10 S :    0.516503
  11 C :   -0.186287
  12 C :   -0.068497
  13 C :    0.078468
  14 C :   -0.100996
  15 C :   -0.018833
  16 N :   -0.028793
  17 C :   -0.018631
  18 N :   -0.029873
  19 C :   -0.012306
  20 C :   -0.162087
  21 S :    0.510998
  22 C :   -0.044699
  23 C :   -0.005648
  24 C :   -0.005480
  25 N :   -0.031762
  26 C :    0.064408
  27 C :    0.064496
  28 N :   -0.031656
  29 F :   -0.014477
  30 F :   -0.014836
  31 C :   -0.044806
  32 C :   -0.048386
  33 C :   -0.048276
  34 N :   -0.302255
  35 S :    0.681246
  36 N :   -0.302141
  37 C :   -0.161925
  38 C :   -0.012325
  39 C :   -0.068444
  40 C :   -0.186141
  41 S :    0.510894
  42 C :   -0.168829
  43 C :   -0.072928
  44 C :    0.078462
  45 C :   -0.101066
  46 C :   -0.018624
  47 N :   -0.029880
  48 C :   -0.019120
  49 N :   -0.028521
  50 C :    0.009352
  51 C :   -0.198853
  52 S :    0.516364
  53 C :    0.032924
  54 N :   -0.098931
  55 C :    0.078223
  56 N :   -0.112179
  57 C :    0.076376
  58 N :   -0.119257
  59 H :    0.025667
  60 H :    0.024318
  61 H :    0.048172
  62 H :    0.038029
  63 H :    0.038274
  64 H :    0.048363
  65 H :    0.025721
  66 H :    0.024466

  Mayer bond orders larger than 0.100000
B(  0-C ,  1-N ) :   1.5114 B(  0-C ,  5-N ) :   1.5011 B(  0-C , 59-H ) :   0.9770
B(  1-N ,  2-C ) :   1.5886 B(  2-C ,  3-N ) :   1.5793 B(  2-C ,  6-C ) :   1.0511
B(  3-N ,  4-C ) :   1.5129 B(  4-C ,  5-N ) :   1.5084 B(  4-C , 60-H ) :   0.9772
B(  6-C ,  7-C ) :   1.4641 B(  6-C , 10-S ) :   1.0999 B(  7-C ,  8-C ) :   1.2749
B(  7-C , 61-H ) :   1.0068 B(  8-C ,  9-C ) :   1.4127 B(  8-C , 13-C ) :   0.9954
B(  9-C , 10-S ) :   1.1401 B(  9-C , 11-C ) :   1.1986 B( 11-C , 12-C ) :   1.4084
B( 11-C , 21-S ) :   1.1007 B( 12-C , 13-C ) :   0.9923 B( 12-C , 19-C ) :   1.2679
B( 13-C , 14-C ) :   1.7173 B( 14-C , 15-C ) :   1.1384 B( 14-C , 17-C ) :   1.1328
B( 15-C , 16-N ) :   2.9913 B( 17-C , 18-N ) :   3.0013 B( 19-C , 20-C ) :   1.4118
B( 19-C , 62-H ) :   0.9878 B( 20-C , 21-S ) :   1.1026 B( 20-C , 22-C ) :   1.1798
B( 22-C , 23-C ) :   1.2968 B( 22-C , 31-C ) :   0.1276 B( 22-C , 33-C ) :   1.1941
B( 23-C , 24-C ) :   1.1070 B( 23-C , 28-N ) :   1.4372 B( 24-C , 25-N ) :   1.4350
B( 24-C , 31-C ) :   1.2969 B( 25-N , 26-C ) :   1.6622 B( 26-C , 27-C ) :   1.0977
B( 26-C , 30-F ) :   1.1903 B( 27-C , 28-N ) :   1.6610 B( 27-C , 29-F ) :   1.1907
B( 31-C , 32-C ) :   1.1953 B( 31-C , 37-C ) :   1.1771 B( 32-C , 33-C ) :   1.1252
B( 32-C , 36-N ) :   1.4675 B( 33-C , 34-N ) :   1.4661 B( 34-N , 35-S ) :   1.2766
B( 34-N , 36-N ) :   0.1539 B( 35-S , 36-N ) :   1.2764 B( 37-C , 38-C ) :   1.4148
B( 37-C , 41-S ) :   1.1022 B( 38-C , 39-C ) :   1.2689 B( 38-C , 63-H ) :   0.9867
B( 39-C , 40-C ) :   1.4090 B( 39-C , 44-C ) :   0.9933 B( 40-C , 41-S ) :   1.1013
B( 40-C , 42-C ) :   1.1985 B( 42-C , 43-C ) :   1.4138 B( 42-C , 52-S ) :   1.1401
B( 43-C , 44-C ) :   0.9948 B( 43-C , 50-C ) :   1.2739 B( 44-C , 45-C ) :   1.7139
B( 45-C , 46-C ) :   1.1349 B( 45-C , 48-C ) :   1.1401 B( 46-C , 47-N ) :   3.0010
B( 48-C , 49-N ) :   2.9926 B( 50-C , 51-C ) :   1.4684 B( 50-C , 64-H ) :   1.0055
B( 51-C , 52-S ) :   1.0992 B( 51-C , 53-C ) :   1.0499 B( 53-C , 54-N ) :   1.5886
B( 53-C , 58-N ) :   1.5817 B( 54-N , 55-C ) :   1.5124 B( 55-C , 56-N ) :   1.4986
B( 55-C , 65-H ) :   0.9772 B( 56-N , 57-C ) :   1.5111 B( 57-C , 58-N ) :   1.5101
B( 57-C , 66-H ) :   0.9771

-----------------------------------------------------------------------------
         ABSORPTION SPECTRUM VIA TRANSITION ELECTRIC DIPOLE MOMENTS
-----------------------------------------------------------------------------
State   Energy  Wavelength   fosc         T2         TX        TY        TZ
        (cm-1)    (nm)                  (au**2)     (au)      (au)      (au)
-----------------------------------------------------------------------------
   0   10364.1    964.9   0.832462933  26.44284  -3.64404   3.42360  -1.20114
   1   14469.2    691.1   0.009051210   0.20594  -0.06897   0.07675   0.44192
   2   15059.2    664.0   0.000016608   0.00036   0.01326  -0.01214   0.00631
   3   19246.7    519.6   0.014693194   0.25132   0.08657  -0.07530  -0.48802
   4   24487.5    408.4   0.174477498   2.34569  -1.08326   1.02072  -0.36105
   5   25623.0    390.3   0.002799560   0.03597  -0.05727   0.00803   0.18063
   6   26067.5    383.6   0.000215379   0.00272   0.03007  -0.04219   0.00594
   7   26424.9    378.4   0.088092230   1.09749   0.18156  -0.16770  -1.01804
   8   27056.9    369.6   0.568535947   6.91760  -1.86067   1.75558  -0.61109
   9   27217.0    367.4   0.526352970   6.36668  -1.79050   1.67798  -0.58752
  10   28544.1    350.3   0.499931019   5.76594   1.69882  -1.60021   0.56504
  11   29017.8    344.6   0.039012348   0.44260  -0.02557   0.18555   0.63837
  12   30396.6    329.0   0.335529468   3.63397   0.45030  -0.16816  -1.84470
  13   30925.5    323.4   0.001044717   0.01112   0.06178   0.05393  -0.06631
  14   31080.8    321.7   0.009690599   0.10264  -0.20455   0.18071  -0.16777
  15   31810.0    314.4   0.159770133   1.65351  -0.49595   0.45271   1.09663
  16   31854.4    313.9   0.387097203   4.00061   0.17898  -0.20736  -1.98131
  17   32425.4    308.4   0.459625595   4.66654  -0.65838   0.53187   1.98751
  18   32444.5    308.2   0.496199279   5.03490  -1.48308   1.43996  -0.87286
  19   33606.6    297.6   0.000187407   0.00184   0.04242  -0.00202  -0.00570
  20   33618.4    297.5   0.000138322   0.00135  -0.00379   0.03330  -0.01522
  21   33750.3    296.3   0.018281477   0.17832   0.02656  -0.11801  -0.40459
  22   34218.3    292.2   0.001359791   0.01308  -0.08181   0.07364  -0.03107
  23   34745.5    287.8   0.148429981   1.40637  -0.84497   0.77838  -0.29414
  24   35203.5    284.1   0.307712827   2.87763  -0.34415   0.22792   1.64537
  25   35406.6    282.4   0.004357343   0.04051  -0.14235  -0.14222   0.00509
  26   35412.9    282.4   0.000301311   0.00280  -0.03562  -0.03813   0.00888
  27   36157.0    276.6   0.173160561   1.57664   0.89947  -0.83238   0.27336
  28   36313.9    275.4   0.002183155   0.01979  -0.02146  -0.12264  -0.06551
  29   36505.4    273.9   0.412237794   3.71763  -0.56143   0.02589   1.84439
  30   38056.3    262.8   0.354639075   3.06786   0.37338  -0.18300  -1.70146
  31   38216.1    261.7   0.001407235   0.01212   0.07967  -0.07316   0.02056
  32   38447.2    260.1   0.006314868   0.05407   0.00178  -0.07898  -0.21870
  33   38512.0    259.7   0.000727568   0.00622   0.05747  -0.03251   0.04313
  34   38599.9    259.1   0.001102356   0.00940  -0.06891  -0.05286   0.04312
  35   38757.4    258.0   0.010255650   0.08711   0.19025  -0.18657   0.12693
  36   38944.8    256.8   0.329208203   2.78289  -1.18679   1.11255  -0.36966
  37   40026.8    249.8   0.000166640   0.00137  -0.02527   0.01431  -0.02297
  38   40109.4    249.3   0.000240261   0.00197  -0.02499  -0.01322   0.03425
  39   40112.5    249.3   0.000201923   0.00166   0.00142  -0.01315  -0.03850
  40   40120.0    249.3   0.017924302   0.14708   0.03285  -0.09335  -0.37052
  41   40273.1    248.3   0.000061772   0.00050   0.01122   0.00735  -0.01802

FINAL SINGLE POINT ENERGY     -4406.329129267754

DIPOLE MOMENT
-------------
                                X             Y             Z
Electronic contribution:      2.32847      -1.44517     -11.15394
Nuclear contribution   :     -3.10180       1.92077      14.86995
                        -----------------------------------------
Total Dipole Moment    :     -0.77334       0.47560       3.71601
                        -----------------------------------------
Magnitude (a.u.)       :      3.82531
Magnitude (Debye)      :      9.72317

Rotational constants in cm-1:     0.002999     0.000404     0.000356
Rotational constants in MHz :    89.909948    12.110371    10.687399

                             ****ORCA TERMINATED NORMALLY****
TOTAL RUN TIME: 0 days 0 hours 5 minutes 57 seconds 310 msec
