                         Program Version 4.2.0 -  RELEASE  -
|  1> # ORCA input file
|  2> # SCF done       -196.790007477382          0.000556681797
|  3> ! CAM-B3LYP def2-SVP def2/J RIJCOSX Grid4 TightSCF
|  4> %maxcore 5000
|  5> %tddft
|  6>     Mode sTDDFT
|  7>     Ethresh 5.0
|  8>     maxcore 5000
|  9> end
| 10>
| 11> %pal
| 12>   nprocs 6
| 13>   end
| 14> * xyz 0 1
| 15>    C       -5.45371        -2.30911         1.33219
| 16>    C       -5.00494        -2.96088         0.21522
| 17>    C       -4.59001        -4.30936         0.20399
| 18>    N       -4.23544        -5.39912         0.13909
| 19>    C       -4.93469        -2.39888        -1.07837
| 20>    N       -4.86969        -2.03242        -2.16438
| 21>    C       -5.63495        -2.90050         2.65009
| 22>    C       -6.28729        -1.95857         3.48181
| 23>    C       -6.60069        -2.22055         4.79363
| 24>    C       -6.25044        -3.47176         5.31055
| 25>    C       -5.59409        -4.40581         4.47300
| 26>    C       -5.27977        -4.14183         3.14611
| 27>    S       -5.24360        -5.88398         5.31653
| 28>    C       -5.97514        -5.23742         6.76154
| 29>    C       -6.45722        -3.97964         6.62239
| 30>   Br       -6.02981        -6.28227         8.31801
| 31>    C       -6.54413        -0.71560         2.72538
| 32>    O       -7.10144         0.27119         3.15103
| 33>    C       -5.91789        -0.93023         1.39310
| 34>    C       -5.59880         0.02964         0.48451
| 35>    C       -6.01686         1.39787         0.43729
| 36>    C       -7.24287         1.89822         0.85981
| 37>    C       -7.57117         3.25145         0.77229
| 38>    C       -6.69874         4.20687         0.27682
| 39>    C       -5.46566         3.72955        -0.21258
| 40>    C       -5.14136         2.34242        -0.15010
| 41>    N       -3.93522         2.18831        -0.71265
| 42>    N       -3.60156         3.39323        -1.08897
| 43>    N       -4.44816         4.34782        -0.83210
| 44>    C       -2.35646         3.64808        -1.74498
| 45>    C       -6.99667         5.62945         0.27128
| 46>    C       -8.23645         6.14733        -0.12891
| 47>    C       -8.50550         7.56322        -0.13184
| 48>    N       -9.73042         8.00727        -0.51323
| 49>    C      -10.61410         7.15196        -0.89452
| 50>    C      -10.33365         5.75363        -0.93092
| 51>    N       -9.19397         5.28575        -0.55673
| 52>    F      -11.25532         4.89107        -1.35299
| 53>    F      -11.80899         7.61203        -1.26113
| 54>    C       -7.55141         8.49936         0.29153
| 55>    C       -6.30721         7.98495         0.68875
| 56>    C       -6.03064         6.56499         0.67427
| 57>    N       -4.79554         6.29951         1.11403
| 58>    S       -4.06358         7.67944         1.45156
| 59>    N       -5.24568         8.68887         1.09444
| 60>    C       -7.82187         9.92582         0.35863
| 61>    C       -8.47426        10.62607        -0.64245
| 62>    C       -8.67580        12.00455        -0.58575
| 63>    C       -8.27128        12.78029         0.49363
| 64>    C       -7.66822        12.07777         1.55851
| 65>    C       -7.42043        10.67490         1.48276
| 66>    N       -6.84396        10.31252         2.63928
| 67>    N       -6.75166        11.42218         3.31321
| 68>    N       -7.21278        12.50188         2.74505
| 69>    C       -6.18191        11.45923         4.62453
| 70>    C       -8.49562        14.19208         0.60897
| 71>    C       -8.55704        15.12599        -0.36945
| 72>    C       -8.19803        15.09380        -1.77583
| 73>    C       -7.21415        14.33012        -2.34419
| 74>    C       -6.84210        14.41626        -3.70166
| 75>    N       -6.51749        14.43914        -4.80231
| 76>    C       -6.39017        13.43820        -1.62553
| 77>    N       -5.64586        12.74521        -1.09415
| 78>    C       -8.87905        16.21052        -2.42087
| 79>    C       -9.43768        17.04422        -1.41868
| 80>    C       -9.18414        16.44987        -0.09084
| 81>    O       -9.46339        16.90646         0.99232
| 82>    C      -10.10725        18.20651        -1.71647
| 83>    C      -10.24019        18.55675        -3.06400
| 84>    C       -9.69199        17.70936        -4.05742
| 85>    C       -9.00859        16.53768        -3.75750
| 86>    S       -9.98072        18.32746        -5.65490
| 87>    C      -10.81693        19.69978        -4.97726
| 88>    C      -10.88044        19.69582        -3.62458
| 89>   Br      -11.52761        21.00584        -6.11961
| 90>    H       -7.09961        -1.48229         5.40174
| 91>    H       -4.77327        -4.88228         2.54980
| 92>    H       -6.93799        -3.43052         7.41129
| 93>    H       -4.87338        -0.22061        -0.28160
| 94>    H       -7.97893         1.21994         1.25717
| 95>    H       -8.53522         3.57081         1.13396
| 96>    H       -1.95507         2.69887        -2.09249
| 97>    H       -1.65476         4.11156        -1.04931
| 98>    H       -2.52132         4.32535        -2.58152
| 99>    H       -8.81585        10.08897        -1.51249
|100>    H       -9.19765        12.48021        -1.40385
|101>    H       -5.22781        10.93378         4.61990
|102>    H       -6.84906        10.97123         5.33704
|103>    H       -6.04369        12.50118         4.90323
|104>    H       -8.68491        14.55171         1.61554
|105>    H      -10.51494        18.82738        -0.93426
|106>    H       -8.61254        15.91960        -4.54637
|107>    H      -11.35853        20.46352        -3.04400
|108> *
|109>
|110>                          ****END OF INPUT****

CARTESIAN COORDINATES (ANGSTROEM)
---------------------------------
  C     -5.453710   -2.309110    1.332190
  C     -5.004940   -2.960880    0.215220
  C     -4.590010   -4.309360    0.203990
  N     -4.235440   -5.399120    0.139090
  C     -4.934690   -2.398880   -1.078370
  N     -4.869690   -2.032420   -2.164380
  C     -5.634950   -2.900500    2.650090
  C     -6.287290   -1.958570    3.481810
  C     -6.600690   -2.220550    4.793630
  C     -6.250440   -3.471760    5.310550
  C     -5.594090   -4.405810    4.473000
  C     -5.279770   -4.141830    3.146110
  S     -5.243600   -5.883980    5.316530
  C     -5.975140   -5.237420    6.761540
  C     -6.457220   -3.979640    6.622390
  Br    -6.029810   -6.282270    8.318010
  C     -6.544130   -0.715600    2.725380
  O     -7.101440    0.271190    3.151030
  C     -5.917890   -0.930230    1.393100
  C     -5.598800    0.029640    0.484510
  C     -6.016860    1.397870    0.437290
  C     -7.242870    1.898220    0.859810
  C     -7.571170    3.251450    0.772290
  C     -6.698740    4.206870    0.276820
  C     -5.465660    3.729550   -0.212580
  C     -5.141360    2.342420   -0.150100
  N     -3.935220    2.188310   -0.712650
  N     -3.601560    3.393230   -1.088970
  N     -4.448160    4.347820   -0.832100
  C     -2.356460    3.648080   -1.744980
  C     -6.996670    5.629450    0.271280
  C     -8.236450    6.147330   -0.128910
  C     -8.505500    7.563220   -0.131840
  N     -9.730420    8.007270   -0.513230
  C    -10.614100    7.151960   -0.894520
  C    -10.333650    5.753630   -0.930920
  N     -9.193970    5.285750   -0.556730
  F    -11.255320    4.891070   -1.352990
  F    -11.808990    7.612030   -1.261130
  C     -7.551410    8.499360    0.291530
  C     -6.307210    7.984950    0.688750
  C     -6.030640    6.564990    0.674270
  N     -4.795540    6.299510    1.114030
  S     -4.063580    7.679440    1.451560
  N     -5.245680    8.688870    1.094440
  C     -7.821870    9.925820    0.358630
  C     -8.474260   10.626070   -0.642450
  C     -8.675800   12.004550   -0.585750
  C     -8.271280   12.780290    0.493630
  C     -7.668220   12.077770    1.558510
  C     -7.420430   10.674900    1.482760
  N     -6.843960   10.312520    2.639280
  N     -6.751660   11.422180    3.313210
  N     -7.212780   12.501880    2.745050
  C     -6.181910   11.459230    4.624530
  C     -8.495620   14.192080    0.608970
  C     -8.557040   15.125990   -0.369450
  C     -8.198030   15.093800   -1.775830
  C     -7.214150   14.330120   -2.344190
  C     -6.842100   14.416260   -3.701660
  N     -6.517490   14.439140   -4.802310
  C     -6.390170   13.438200   -1.625530
  N     -5.645860   12.745210   -1.094150
  C     -8.879050   16.210520   -2.420870
  C     -9.437680   17.044220   -1.418680
  C     -9.184140   16.449870   -0.090840
  O     -9.463390   16.906460    0.992320
  C    -10.107250   18.206510   -1.716470
  C    -10.240190   18.556750   -3.064000
  C     -9.691990   17.709360   -4.057420
  C     -9.008590   16.537680   -3.757500
  S     -9.980720   18.327460   -5.654900
  C    -10.816930   19.699780   -4.977260
  C    -10.880440   19.695820   -3.624580
  Br   -11.527610   21.005840   -6.119610
  H     -7.099610   -1.482290    5.401740
  H     -4.773270   -4.882280    2.549800
  H     -6.937990   -3.430520    7.411290
  H     -4.873380   -0.220610   -0.281600
  H     -7.978930    1.219940    1.257170
  H     -8.535220    3.570810    1.133960
  H     -1.955070    2.698870   -2.092490
  H     -1.654760    4.111560   -1.049310
  H     -2.521320    4.325350   -2.581520
  H     -8.815850   10.088970   -1.512490
  H     -9.197650   12.480210   -1.403850
  H     -5.227810   10.933780    4.619900
  H     -6.849060   10.971230    5.337040
  H     -6.043690   12.501180    4.903230
  H     -8.684910   14.551710    1.615540
  H    -10.514940   18.827380   -0.934260
  H     -8.612540   15.919600   -4.546370
  H    -11.358530   20.463520   -3.044000

 Total Charge           Charge          ....    0
 Multiplicity           Mult            ....    1
 Number of Electrons    NEL             ....  580
 Basis Dimension        Dim             .... 1188

ORBITAL ENERGIES
----------------

  NO   OCC          E(Eh)            E(eV)
   0   2.0000    -482.886504    -13140.0098
   1   2.0000    -482.885848    -13139.9919
   2   2.0000     -89.033361     -2422.7209
   3   2.0000     -88.976739     -2421.1802
   4   2.0000     -88.975410     -2421.1440
   5   2.0000     -62.564232     -1702.4593
   6   2.0000     -62.563537     -1702.4404
   7   2.0000     -56.398185     -1534.6726
   8   2.0000     -56.397491     -1534.6537
   9   2.0000     -56.395465     -1534.5986
  10   2.0000     -56.395431     -1534.5977
  11   2.0000     -56.394773     -1534.5798
  12   2.0000     -56.394741     -1534.5789
  13   2.0000     -24.811621      -675.1585
  14   2.0000     -24.811395      -675.1524
  15   2.0000     -19.215789      -522.8882
  16   2.0000     -19.214975      -522.8661
  17   2.0000     -14.543221      -395.7412
  18   2.0000     -14.541578      -395.6965
  19   2.0000     -14.450031      -393.2053
  20   2.0000     -14.449545      -393.1921
  21   2.0000     -14.441045      -392.9608
  22   2.0000     -14.439681      -392.9237
  23   2.0000     -14.439533      -392.9197
  24   2.0000     -14.439445      -392.9173
  25   2.0000     -14.437519      -392.8649
  26   2.0000     -14.437367      -392.8607
  27   2.0000     -14.416932      -392.3047
  28   2.0000     -14.413601      -392.2140
  29   2.0000     -14.412316      -392.1790
  30   2.0000     -14.410789      -392.1375
  31   2.0000     -10.427304      -283.7414
  32   2.0000     -10.427000      -283.7331
  33   2.0000     -10.367800      -282.1222
  34   2.0000     -10.365963      -282.0722
  35   2.0000     -10.359997      -281.9098
  36   2.0000     -10.359075      -281.8848
  37   2.0000     -10.343947      -281.4731
  38   2.0000     -10.342599      -281.4364
  39   2.0000     -10.342301      -281.4283
  40   2.0000     -10.342046      -281.4214
  41   2.0000     -10.340491      -281.3791
  42   2.0000     -10.338340      -281.3205
  43   2.0000     -10.329759      -281.0870
  44   2.0000     -10.329185      -281.0714
  45   2.0000     -10.327456      -281.0244
  46   2.0000     -10.325521      -280.9717
  47   2.0000     -10.323310      -280.9115
  48   2.0000     -10.321216      -280.8546
  49   2.0000     -10.319416      -280.8056
  50   2.0000     -10.316284      -280.7204
  51   2.0000     -10.313985      -280.6578
  52   2.0000     -10.313386      -280.6415
  53   2.0000     -10.313180      -280.6359
  54   2.0000     -10.313082      -280.6332
  55   2.0000     -10.310384      -280.5598
  56   2.0000     -10.309361      -280.5320
  57   2.0000     -10.308976      -280.5215
  58   2.0000     -10.308937      -280.5204
  59   2.0000     -10.307548      -280.4827
  60   2.0000     -10.307288      -280.4756
  61   2.0000     -10.307276      -280.4752
  62   2.0000     -10.305084      -280.4156
  63   2.0000     -10.302973      -280.3581
  64   2.0000     -10.302639      -280.3491
  65   2.0000     -10.302536      -280.3463
  66   2.0000     -10.302369      -280.3417
  67   2.0000     -10.302009      -280.3319
  68   2.0000     -10.301270      -280.3118
  69   2.0000     -10.300931      -280.3026
  70   2.0000     -10.300590      -280.2933
  71   2.0000     -10.297809      -280.2176
  72   2.0000     -10.297072      -280.1976
  73   2.0000     -10.296964      -280.1946
  74   2.0000     -10.296900      -280.1929
  75   2.0000     -10.296722      -280.1880
  76   2.0000     -10.294095      -280.1166
  77   2.0000     -10.292870      -280.0832
  78   2.0000     -10.291649      -280.0500
  79   2.0000     -10.289125      -279.9813
  80   2.0000     -10.284336      -279.8510
  81   2.0000     -10.282669      -279.8057
  82   2.0000     -10.280065      -279.7348
  83   2.0000      -8.793665      -239.2878
  84   2.0000      -8.792940      -239.2681
  85   2.0000      -8.124754      -221.0858
  86   2.0000      -8.072772      -219.6713
  87   2.0000      -8.071392      -219.6338
  88   2.0000      -6.629990      -180.4112
  89   2.0000      -6.629243      -180.3909
  90   2.0000      -6.615381      -180.0137
  91   2.0000      -6.615195      -180.0086
  92   2.0000      -6.614684      -179.9947
  93   2.0000      -6.614460      -179.9886
  94   2.0000      -6.095669      -165.8716
  95   2.0000      -6.087961      -165.6618
  96   2.0000      -6.087823      -165.6581
  97   2.0000      -6.042476      -164.4241
  98   2.0000      -6.041081      -164.3862
  99   2.0000      -6.038180      -164.3072
 100   2.0000      -6.036808      -164.2699
 101   2.0000      -6.033975      -164.1928
 102   2.0000      -6.032616      -164.1558
 103   2.0000      -2.745835       -74.7180
 104   2.0000      -2.745129       -74.6988
 105   2.0000      -2.741774       -74.6075
 106   2.0000      -2.741610       -74.6030
 107   2.0000      -2.741003       -74.5865
 108   2.0000      -2.740884       -74.5833
 109   2.0000      -2.730017       -74.2876
 110   2.0000      -2.729997       -74.2870
 111   2.0000      -2.729307       -74.2682
 112   2.0000      -2.729278       -74.2674
 113   2.0000      -1.339625       -36.4531
 114   2.0000      -1.325423       -36.0666
 115   2.0000      -1.219598       -33.1870
 116   2.0000      -1.218089       -33.1459
 117   2.0000      -1.131555       -30.7912
 118   2.0000      -1.130439       -30.7608
 119   2.0000      -1.130110       -30.7519
 120   2.0000      -1.108536       -30.1648
 121   2.0000      -1.034814       -28.1587
 122   2.0000      -1.024058       -27.8660
 123   2.0000      -1.021947       -27.8086
 124   2.0000      -1.013601       -27.5815
 125   2.0000      -1.011307       -27.5191
 126   2.0000      -0.994963       -27.0743
 127   2.0000      -0.994660       -27.0661
 128   2.0000      -0.992401       -27.0046
 129   2.0000      -0.991069       -26.9684
 130   2.0000      -0.989645       -26.9296
 131   2.0000      -0.988985       -26.9116
 132   2.0000      -0.986817       -26.8527
 133   2.0000      -0.985769       -26.8241
 134   2.0000      -0.974242       -26.5105
 135   2.0000      -0.962983       -26.2041
 136   2.0000      -0.944028       -25.6883
 137   2.0000      -0.942306       -25.6414
 138   2.0000      -0.926797       -25.2194
 139   2.0000      -0.923736       -25.1361
 140   2.0000      -0.910100       -24.7651
 141   2.0000      -0.909192       -24.7404
 142   2.0000      -0.907406       -24.6918
 143   2.0000      -0.898897       -24.4602
 144   2.0000      -0.887168       -24.1411
 145   2.0000      -0.885574       -24.0977
 146   2.0000      -0.883647       -24.0453
 147   2.0000      -0.875902       -23.8345
 148   2.0000      -0.872366       -23.7383
 149   2.0000      -0.855905       -23.2904
 150   2.0000      -0.834126       -22.6977
 151   2.0000      -0.829961       -22.5844
 152   2.0000      -0.828358       -22.5408
 153   2.0000      -0.817586       -22.2476
 154   2.0000      -0.815667       -22.1954
 155   2.0000      -0.813999       -22.1500
 156   2.0000      -0.804979       -21.9046
 157   2.0000      -0.777103       -21.1460
 158   2.0000      -0.771089       -20.9824
 159   2.0000      -0.762141       -20.7389
 160   2.0000      -0.758476       -20.6392
 161   2.0000      -0.754563       -20.5327
 162   2.0000      -0.746504       -20.3134
 163   2.0000      -0.732506       -19.9325
 164   2.0000      -0.729296       -19.8451
 165   2.0000      -0.726470       -19.7683
 166   2.0000      -0.720509       -19.6060
 167   2.0000      -0.706840       -19.2341
 168   2.0000      -0.705520       -19.1982
 169   2.0000      -0.700851       -19.0711
 170   2.0000      -0.689842       -18.7715
 171   2.0000      -0.688083       -18.7237
 172   2.0000      -0.681290       -18.5388
 173   2.0000      -0.675555       -18.3828
 174   2.0000      -0.674876       -18.3643
 175   2.0000      -0.671020       -18.2594
 176   2.0000      -0.661047       -17.9880
 177   2.0000      -0.657317       -17.8865
 178   2.0000      -0.652763       -17.7626
 179   2.0000      -0.646131       -17.5821
 180   2.0000      -0.631260       -17.1775
 181   2.0000      -0.629420       -17.1274
 182   2.0000      -0.623863       -16.9762
 183   2.0000      -0.621234       -16.9046
 184   2.0000      -0.618482       -16.8297
 185   2.0000      -0.616220       -16.7682
 186   2.0000      -0.615624       -16.7520
 187   2.0000      -0.614276       -16.7153
 188   2.0000      -0.610553       -16.6140
 189   2.0000      -0.604732       -16.4556
 190   2.0000      -0.603406       -16.4195
 191   2.0000      -0.598066       -16.2742
 192   2.0000      -0.596292       -16.2259
 193   2.0000      -0.590430       -16.0664
 194   2.0000      -0.585070       -15.9206
 195   2.0000      -0.583283       -15.8719
 196   2.0000      -0.580385       -15.7931
 197   2.0000      -0.577165       -15.7054
 198   2.0000      -0.567362       -15.4387
 199   2.0000      -0.566660       -15.4196
 200   2.0000      -0.556593       -15.1457
 201   2.0000      -0.552544       -15.0355
 202   2.0000      -0.550869       -14.9899
 203   2.0000      -0.547192       -14.8899
 204   2.0000      -0.546454       -14.8698
 205   2.0000      -0.541219       -14.7273
 206   2.0000      -0.539864       -14.6904
 207   2.0000      -0.538523       -14.6540
 208   2.0000      -0.535744       -14.5783
 209   2.0000      -0.534170       -14.5355
 210   2.0000      -0.533183       -14.5087
 211   2.0000      -0.526944       -14.3389
 212   2.0000      -0.521864       -14.2006
 213   2.0000      -0.518472       -14.1083
 214   2.0000      -0.515995       -14.0409
 215   2.0000      -0.514539       -14.0013
 216   2.0000      -0.511089       -13.9075
 217   2.0000      -0.510330       -13.8868
 218   2.0000      -0.508818       -13.8457
 219   2.0000      -0.507727       -13.8160
 220   2.0000      -0.507373       -13.8063
 221   2.0000      -0.506694       -13.7878
 222   2.0000      -0.505070       -13.7437
 223   2.0000      -0.503663       -13.7054
 224   2.0000      -0.502148       -13.6641
 225   2.0000      -0.501700       -13.6520
 226   2.0000      -0.494488       -13.4557
 227   2.0000      -0.493320       -13.4239
 228   2.0000      -0.493079       -13.4174
 229   2.0000      -0.490617       -13.3504
 230   2.0000      -0.480669       -13.0797
 231   2.0000      -0.477402       -12.9908
 232   2.0000      -0.473310       -12.8794
 233   2.0000      -0.470721       -12.8090
 234   2.0000      -0.468970       -12.7613
 235   2.0000      -0.463151       -12.6030
 236   2.0000      -0.460042       -12.5184
 237   2.0000      -0.457527       -12.4499
 238   2.0000      -0.454650       -12.3716
 239   2.0000      -0.452099       -12.3022
 240   2.0000      -0.450244       -12.2518
 241   2.0000      -0.447770       -12.1844
 242   2.0000      -0.447293       -12.1715
 243   2.0000      -0.445817       -12.1313
 244   2.0000      -0.445013       -12.1094
 245   2.0000      -0.442644       -12.0450
 246   2.0000      -0.440745       -11.9933
 247   2.0000      -0.439255       -11.9527
 248   2.0000      -0.437733       -11.9113
 249   2.0000      -0.436775       -11.8852
 250   2.0000      -0.428752       -11.6669
 251   2.0000      -0.426120       -11.5953
 252   2.0000      -0.423376       -11.5206
 253   2.0000      -0.421412       -11.4672
 254   2.0000      -0.420325       -11.4376
 255   2.0000      -0.415369       -11.3028
 256   2.0000      -0.412607       -11.2276
 257   2.0000      -0.410173       -11.1614
 258   2.0000      -0.408973       -11.1287
 259   2.0000      -0.408428       -11.1139
 260   2.0000      -0.406113       -11.0509
 261   2.0000      -0.404665       -11.0115
 262   2.0000      -0.398433       -10.8419
 263   2.0000      -0.396950       -10.8016
 264   2.0000      -0.393166       -10.6986
 265   2.0000      -0.392161       -10.6712
 266   2.0000      -0.388423       -10.5695
 267   2.0000      -0.387077       -10.5329
 268   2.0000      -0.378121       -10.2892
 269   2.0000      -0.375954       -10.2302
 270   2.0000      -0.375197       -10.2096
 271   2.0000      -0.370583       -10.0841
 272   2.0000      -0.370352       -10.0778
 273   2.0000      -0.367752       -10.0070
 274   2.0000      -0.366146        -9.9634
 275   2.0000      -0.356197        -9.6926
 276   2.0000      -0.344650        -9.3784
 277   2.0000      -0.340167        -9.2564
 278   2.0000      -0.334727        -9.1084
 279   2.0000      -0.333618        -9.0782
 280   2.0000      -0.329565        -8.9679
 281   2.0000      -0.324081        -8.8187
 282   2.0000      -0.319632        -8.6976
 283   2.0000      -0.316329        -8.6077
 284   2.0000      -0.315142        -8.5754
 285   2.0000      -0.308056        -8.3826
 286   2.0000      -0.295196        -8.0327
 287   2.0000      -0.293485        -7.9861
 288   2.0000      -0.284225        -7.7342
 289   2.0000      -0.262254        -7.1363
 290   0.0000      -0.104650        -2.8477
 291   0.0000      -0.087456        -2.3798
 292   0.0000      -0.081512        -2.2180
 293   0.0000      -0.058084        -1.5805
 294   0.0000      -0.056902        -1.5484

MULLIKEN ATOMIC CHARGES
-----------------------
   0 C :    0.293883
   1 C :   -0.339108
   2 C :   -0.187277
   3 N :    0.152256
   4 C :   -0.205424
   5 N :    0.167377
   6 C :    0.021437
   7 C :   -0.020553
   8 C :   -0.074669
   9 C :    0.121194
  10 C :   -0.089205
  11 C :   -0.023800
  12 S :    0.185940
  13 C :   -0.123494
  14 C :    0.039602
  15 Br:    0.023318
  16 C :    0.148129
  17 O :   -0.143701
  18 C :   -0.075926
  19 C :   -0.045102
  20 C :    0.027808
  21 C :    0.022881
  22 C :    0.008847
  23 C :   -0.045555
  24 C :    0.013847
  25 C :   -0.026001
  26 N :   -0.055697
  27 N :   -0.075763
  28 N :   -0.040058
  29 C :    0.146924
  30 C :    0.098760
  31 C :   -0.066316
  32 C :   -0.071258
  33 N :    0.022619
  34 C :    0.127277
  35 C :    0.129566
  36 N :    0.026053
  37 F :   -0.139741
  38 F :   -0.142196
  39 C :    0.100172
  40 C :   -0.007987
  41 C :   -0.012658
  42 N :   -0.266281
  43 S :    0.534442
  44 N :   -0.257345
  45 C :   -0.039806
  46 C :    0.020158
  47 C :   -0.014060
  48 C :    0.000975
  49 C :   -0.001131
  50 C :    0.016174
  51 N :   -0.044583
  52 N :   -0.075249
  53 N :   -0.048243
  54 C :    0.149440
  55 C :    0.025988
  56 C :   -0.114922
  57 C :    0.265412
  58 C :   -0.332317
  59 C :   -0.184709
  60 N :    0.155541
  61 C :   -0.191374
  62 N :    0.176486
  63 C :   -0.000969
  64 C :    0.004083
  65 C :    0.134164
  66 O :   -0.138567
  67 C :   -0.070130
  68 C :    0.111292
  69 C :   -0.087752
  70 C :   -0.019616
  71 S :    0.185819
  72 C :   -0.125426
  73 C :    0.042168
  74 Br:    0.024484
  75 H :   -0.010978
  76 H :   -0.004823
  77 H :   -0.003824
  78 H :    0.043486
  79 H :   -0.006447
  80 H :   -0.024323
  81 H :    0.056491
  82 H :    0.052502
  83 H :    0.053970
  84 H :   -0.025320
  85 H :   -0.009237
  86 H :    0.051308
  87 H :    0.053022
  88 H :    0.054474
  89 H :    0.033286
  90 H :   -0.008086
  91 H :   -0.004218
  92 H :   -0.001827
Sum of atomic charges:   -0.0000000

LOEWDIN ATOMIC CHARGES
----------------------
   0 C :    0.075215
   1 C :   -0.136381
   2 C :   -0.017661
   3 N :   -0.053253
   4 C :   -0.026344
   5 N :   -0.045334
   6 C :   -0.020853
   7 C :   -0.050493
   8 C :    0.021564
   9 C :   -0.032437
  10 C :   -0.143404
  11 C :   -0.009967
  12 S :    0.432174
  13 C :   -0.271260
  14 C :   -0.070490
  15 Br:    0.136737
  16 C :    0.083327
  17 O :   -0.135133
  18 C :   -0.089974
  19 C :    0.087685
  20 C :   -0.047563
  21 C :    0.030178
  22 C :   -0.002976
  23 C :    0.001077
  24 C :   -0.045478
  25 C :   -0.040589
  26 N :   -0.098568
  27 N :    0.159066
  28 N :   -0.081110
  29 C :    0.033732
  30 C :   -0.012884
  31 C :   -0.006731
  32 C :   -0.007860
  33 N :   -0.035782
  34 C :    0.054039
  35 C :    0.053888
  36 N :   -0.034573
  37 F :   -0.030397
  38 F :   -0.032113
  39 C :   -0.010485
  40 C :   -0.040503
  41 C :   -0.040168
  42 N :   -0.279972
  43 S :    0.679984
  44 N :   -0.270321
  45 C :   -0.000471
  46 C :    0.002198
  47 C :    0.004851
  48 C :   -0.043272
  49 C :   -0.038972
  50 C :   -0.036456
  51 N :   -0.083381
  52 N :    0.160342
  53 N :   -0.094787
  54 C :    0.033819
  55 C :    0.087711
  56 C :   -0.086610
  57 C :    0.066433
  58 C :   -0.134612
  59 C :   -0.019774
  60 N :   -0.051731
  61 C :   -0.019231
  62 N :   -0.039377
  63 C :   -0.018767
  64 C :   -0.052768
  65 C :    0.084164
  66 O :   -0.137931
  67 C :    0.023323
  68 C :   -0.032971
  69 C :   -0.142818
  70 C :   -0.012139
  71 S :    0.432466
  72 C :   -0.271456
  73 C :   -0.069899
  74 Br:    0.137662
  75 H :    0.040599
  76 H :    0.041191
  77 H :    0.038706
  78 H :    0.049703
  79 H :    0.035206
  80 H :    0.032029
  81 H :    0.043794
  82 H :    0.040307
  83 H :    0.042155
  84 H :    0.032094
  85 H :    0.032526
  86 H :    0.041232
  87 H :    0.040673
  88 H :    0.043135
  89 H :    0.051512
  90 H :    0.041878
  91 H :    0.040770
  92 H :    0.039338

  Mayer bond orders larger than 0.100000
B(  0-C ,  1-C ) :   1.6534 B(  0-C ,  6-C ) :   1.0089 B(  0-C , 18-C ) :   1.0430
B(  1-C ,  2-C ) :   1.1389 B(  1-C ,  4-C ) :   1.1387 B(  2-C ,  3-N ) :   2.9756
B(  4-C ,  5-N ) :   2.9998 B(  6-C ,  7-C ) :   1.2721 B(  6-C , 11-C ) :   1.4064
B(  7-C ,  8-C ) :   1.4243 B(  7-C , 16-C ) :   0.9433 B(  8-C ,  9-C ) :   1.2475
B(  8-C , 75-H ) :   1.0161 B(  9-C , 10-C ) :   1.3026 B(  9-C , 14-C ) :   1.1628
B( 10-C , 11-C ) :   1.3339 B( 10-C , 12-S ) :   1.0849 B( 11-C , 76-H ) :   0.9801
B( 12-S , 13-C ) :   1.0861 B( 13-C , 14-C ) :   1.6195 B( 13-C , 15-Br) :   1.0186
B( 14-C , 77-H ) :   1.0001 B( 16-C , 17-O ) :   2.2226 B( 16-C , 18-C ) :   0.9357
B( 18-C , 19-C ) :   1.6133 B( 19-C , 20-C ) :   1.1246 B( 19-C , 78-H ) :   0.9481
B( 20-C , 21-C ) :   1.4136 B( 20-C , 23-C ) :   0.1075 B( 20-C , 25-C ) :   1.1704
B( 21-C , 22-C ) :   1.2534 B( 21-C , 79-H ) :   0.9829 B( 22-C , 23-C ) :   1.4850
B( 22-C , 80-H ) :   0.9939 B( 23-C , 24-C ) :   1.2495 B( 23-C , 30-C ) :   0.9423
B( 24-C , 25-C ) :   1.2272 B( 24-C , 28-N ) :   1.4500 B( 25-C , 26-N ) :   1.4874
B( 26-N , 27-N ) :   1.2228 B( 26-N , 28-N ) :   0.1659 B( 27-N , 28-N ) :   1.2367
B( 27-N , 29-C ) :   0.9519 B( 29-C , 81-H ) :   0.9671 B( 29-C , 82-H ) :   0.9703
B( 29-C , 83-H ) :   0.9691 B( 30-C , 31-C ) :   1.3854 B( 30-C , 39-C ) :   0.1459
B( 30-C , 41-C ) :   1.2627 B( 31-C , 32-C ) :   1.0955 B( 31-C , 36-N ) :   1.3994
B( 32-C , 33-N ) :   1.3991 B( 32-C , 39-C ) :   1.3863 B( 33-N , 34-C ) :   1.7136
B( 34-C , 35-C ) :   1.0773 B( 34-C , 38-F ) :   1.1746 B( 35-C , 36-N ) :   1.7153
B( 35-C , 37-F ) :   1.1777 B( 39-C , 40-C ) :   1.2608 B( 39-C , 45-C ) :   0.9446
B( 40-C , 41-C ) :   1.0974 B( 40-C , 44-N ) :   1.4906 B( 41-C , 42-N ) :   1.4924
B( 42-N , 43-S ) :   1.3000 B( 42-N , 44-N ) :   0.1614 B( 43-S , 44-N ) :   1.3080
B( 45-C , 46-C ) :   1.4877 B( 45-C , 48-C ) :   0.1147 B( 45-C , 50-C ) :   1.2535
B( 46-C , 47-C ) :   1.2481 B( 46-C , 84-H ) :   0.9939 B( 47-C , 48-C ) :   1.4095
B( 47-C , 85-H ) :   0.9934 B( 48-C , 49-C ) :   1.2083 B( 48-C , 55-C ) :   1.0481
B( 49-C , 50-C ) :   1.2269 B( 49-C , 53-N ) :   1.4996 B( 50-C , 51-N ) :   1.4497
B( 51-N , 52-N ) :   1.2322 B( 51-N , 53-N ) :   0.1664 B( 52-N , 53-N ) :   1.2283
B( 52-N , 54-C ) :   0.9529 B( 54-C , 86-H ) :   0.9695 B( 54-C , 87-H ) :   0.9701
B( 54-C , 88-H ) :   0.9667 B( 55-C , 56-C ) :   1.6945 B( 55-C , 89-H ) :   0.9474
B( 56-C , 57-C ) :   1.0181 B( 56-C , 65-C ) :   0.9338 B( 57-C , 58-C ) :   1.6669
B( 57-C , 63-C ) :   1.0144 B( 58-C , 59-C ) :   1.1295 B( 58-C , 61-C ) :   1.1602
B( 59-C , 60-N ) :   2.9908 B( 61-C , 62-N ) :   3.0051 B( 63-C , 64-C ) :   1.2752
B( 63-C , 70-C ) :   1.4116 B( 64-C , 65-C ) :   0.9183 B( 64-C , 67-C ) :   1.4207
B( 65-C , 66-O ) :   2.2760 B( 67-C , 68-C ) :   1.2546 B( 67-C , 90-H ) :   1.0164
B( 68-C , 69-C ) :   1.3045 B( 68-C , 73-C ) :   1.1633 B( 69-C , 70-C ) :   1.3297
B( 69-C , 71-S ) :   1.0843 B( 70-C , 91-H ) :   0.9842 B( 71-S , 72-C ) :   1.0868
B( 72-C , 73-C ) :   1.6195 B( 72-C , 74-Br) :   1.0187 B( 73-C , 92-H ) :   0.9998

-----------------------------------------------------------------------------
         ABSORPTION SPECTRUM VIA TRANSITION ELECTRIC DIPOLE MOMENTS
-----------------------------------------------------------------------------
State   Energy  Wavelength   fosc         T2         TX        TY        TZ
        (cm-1)    (nm)                  (au**2)     (au)      (au)      (au)
-----------------------------------------------------------------------------
   0   17724.4    564.2   1.127484778  20.94182   0.70966  -4.45006   0.79699
   1   21959.8    455.4   0.039282099   0.58890  -0.33933  -0.17052   0.66684
   2   22918.6    436.3   0.267845602   3.84744  -0.23552   1.79865  -0.74621
   3   23874.3    418.9   0.180770237   2.49271  -0.22319   1.54450  -0.23966
   4   27015.6    370.2   0.027519912   0.33536   0.11540  -0.53301   0.19479
   5   27476.9    363.9   0.061305545   0.73453  -0.55882   0.53699   0.36590
   6   27536.9    363.1   0.109930327   1.31425  -0.70325   0.60216  -0.67609
   7   28298.3    353.4   0.085957081   0.99999   0.19767  -0.28154   0.93897
   8   28699.2    348.4   0.189826344   2.17752   0.53663   0.47639  -1.28942
   9   29154.8    343.0   0.148254392   1.67407  -0.44140   1.08293  -0.55362
  10   29360.5    340.6   0.039739071   0.44558  -0.14795  -0.37098  -0.53486
  11   29605.4    337.8   0.044586664   0.49580   0.18213  -0.27534   0.62195
  12   29756.7    336.1   0.024874520   0.27520   0.16747  -0.04140  -0.49542
  13   30319.7    329.8   0.002516467   0.02732   0.04769  -0.15732   0.01735
  14   30368.0    329.3   0.152727561   1.65568  -0.26296   1.16032  -0.49010
  15   30648.6    326.3   0.135532857   1.45583   0.34443  -1.11230   0.31619
  16   31059.6    322.0   0.090035358   0.95432  -0.37985   0.57431  -0.69296
  17   31656.7    315.9   0.167263136   1.73944  -0.55166  -1.14198   0.36194
  18   32296.6    309.6   0.345261448   3.51939   1.72714  -0.00325   0.73238
  19   32649.6    306.3   0.040377253   0.40713  -0.39365  -0.25049   0.43523
  20   32715.7    305.7   0.332350206   3.34438  -0.80214   1.53091  -0.59770
  21   32764.6    305.2   0.134311443   1.34954  -0.56749   1.00640  -0.12102
  22   33140.3    301.7   0.243218674   2.41610  -0.43584  -0.01562   1.49195
  23   33209.9    301.1   0.299126568   2.96526   0.25827   0.51565  -1.62255
  24   33911.3    294.9   0.019481271   0.18912  -0.07036   0.14017  -0.40562
  25   33931.4    294.7   0.018294069   0.17749   0.22674  -0.14156   0.32565
  26   34229.2    292.1   0.067374326   0.64800  -0.02327  -0.05489  -0.80277
  27   34381.8    290.9   0.225989385   2.16389  -0.93288   1.12796  -0.14602
  28   34607.7    289.0   0.052903803   0.50326  -0.48842  -0.00373   0.51448
  29   35108.9    284.8   0.006650326   0.06236   0.10559   0.18012   0.13699
  30   35432.6    282.2   0.053398635   0.49614  -0.10459   0.69045  -0.09207
  31   35885.2    278.7   0.026575047   0.24380   0.26021   0.27660  -0.31557
  32   36316.9    275.4   0.091764562   0.83184  -0.08925   0.64764  -0.63595
  33   36676.3    272.7   0.050698151   0.45507  -0.20727   0.30729  -0.56364
  34   36980.8    270.4   0.043083740   0.38354   0.40764  -0.01550  -0.46597
  35   37624.2    265.8   0.071853424   0.62872  -0.25426   0.67383   0.33170
  36   37834.3    264.3   0.179524158   1.56211  -0.47182   0.67306   0.94153
  37   38124.4    262.3   0.154747615   1.33628   0.53260  -1.01185  -0.16964
  38   38550.7    259.4   0.026079065   0.22271   0.28888   0.37207  -0.02856
  39   38606.3    259.0   0.026750602   0.22811   0.12395   0.23534  -0.39669
  40   38888.7    257.1   0.000953723   0.00807  -0.07425  -0.04339  -0.02604
  41   38917.8    257.0   0.010815115   0.09149   0.15482  -0.25533   0.04820
  42   39098.1    255.8   0.001587063   0.01336   0.07255  -0.05499   0.07124
  43   39532.1    253.0   0.009654940   0.08040   0.26423   0.07843   0.06661
  44   39837.5    251.0   0.000733062   0.00606   0.00605  -0.01364   0.07639
  45   40054.7    249.7   0.078590121   0.64594   0.22484  -0.73081   0.24758
  46   40089.9    249.4   0.043777870   0.35950   0.34559  -0.40412   0.27703

FINAL SINGLE POINT ENERGY     -9447.193396845887

DIPOLE MOMENT
-------------
                                X             Y             Z
Electronic contribution:    -44.75852       1.14449       3.35364
Nuclear contribution   :     44.26252       0.73779      -0.94633
                        -----------------------------------------
Total Dipole Moment    :     -0.49600       1.88228       2.40731
                        -----------------------------------------
Magnitude (a.u.)       :      3.09582
Magnitude (Debye)      :      7.86896

Rotational constants in cm-1:     0.001933     0.000164     0.000160
Rotational constants in MHz :    57.935196     4.908102     4.797262

                             ****ORCA TERMINATED NORMALLY****
TOTAL RUN TIME: 0 days 0 hours 10 minutes 31 seconds 695 msec
