                         Program Version 4.2.0 -  RELEASE  -
|  1> # ORCA input file
|  2> # SCF done       -200.268176467829          0.000447278630
|  3> ! CAM-B3LYP def2-SVP def2/J RIJCOSX Grid4 TightSCF
|  4> %maxcore 5000
|  5> %tddft
|  6>     Mode sTDDFT
|  7>     Ethresh 5.0
|  8>     maxcore 5000
|  9> end
| 10>
| 11> %pal
| 12>   nprocs 6
| 13>   end
| 14> * xyz 0 1
| 15>    C       -7.05883        -1.71066         2.42988
| 16>    C       -6.35427        -2.32909         3.43087
| 17>    C       -6.71987        -3.56501         4.00426
| 18>    N       -6.96393        -4.56659         4.50895
| 19>    C       -5.16387        -1.84486         4.01234
| 20>    N       -4.19190        -1.51976         4.53072
| 21>    C       -8.27244        -2.22706         1.80377
| 22>    C       -8.64910        -1.35372         0.75258
| 23>    C       -9.76582        -1.55114        -0.02237
| 24>    C      -10.55263        -2.67448         0.25324
| 25>    C      -10.16853        -3.54723         1.30021
| 26>    C       -9.03874        -3.34266         2.08423
| 27>    S      -11.28181        -4.86956         1.46877
| 28>    C      -12.23559        -4.24095         0.15075
| 29>    C      -11.74672        -3.09946        -0.38998
| 30>   Br      -13.78327        -5.15257        -0.38526
| 31>    C       -7.67245        -0.25920         0.66552
| 32>    O       -7.64924         0.62173        -0.17619
| 33>    C       -6.73312        -0.45681         1.77701
| 34>    C       -5.78539         0.45003         2.17950
| 35>    C       -5.48265         1.70618         1.63783
| 36>    C       -4.62712         2.62107         2.25813
| 37>    C       -4.49268         3.86510         1.60816
| 38>    C       -3.72955         4.75787         2.41232
| 39>    C       -3.25703         4.21357         3.56622
| 40>    S       -3.75636         2.54861         3.74825
| 41>    C       -2.42704         4.87512         4.60367
| 42>    F       -3.54143         6.05683         2.13062
| 43>    C       -5.22623         3.89986         0.41543
| 44>    S       -6.13883         2.43588         0.18990
| 45>    C       -5.30678         4.90707        -0.57961
| 46>    C       -6.44553         4.98464        -1.41805
| 47>    C       -6.59519         6.00700        -2.41674
| 48>    N       -7.66839         5.99572        -3.21110
| 49>    C       -8.58462         5.06662        -3.07284
| 50>    C       -8.46857         4.09132        -2.02939
| 51>    N       -7.42099         4.08893        -1.24420
| 52>    C       -9.47945         3.11723        -1.82855
| 53>    N      -10.31006         2.33977        -1.69913
| 54>    C       -9.69216         5.04353        -3.95542
| 55>    N      -10.60010         4.98688        -4.65117
| 56>    C       -5.62742         7.02392        -2.61537
| 57>    C       -4.44659         6.88408        -1.85135
| 58>    C       -4.28228         5.83411        -0.86884
| 59>    N       -3.05486         5.83261        -0.35464
| 60>    S       -2.21013         7.03785        -0.97804
| 61>    N       -3.34166         7.61557        -1.96613
| 62>    C       -5.86275         8.06333        -3.54454
| 63>    C       -5.07362         9.15720        -3.88995
| 64>    C       -5.69176        10.05482        -4.79593
| 65>    C       -4.80827        11.11180        -5.14359
| 66>    C       -3.61198        11.07434        -4.50315
| 67>    S       -3.49011         9.68692        -3.44108
| 68>    C       -2.49615        12.04401        -4.62347
| 69>    F       -5.09935        12.04638        -6.07123
| 70>    C       -6.98582         9.66898        -5.14325
| 71>    S       -7.37493         8.13141        -4.41129
| 72>    C       -7.95567        10.32593        -5.92893
| 73>    C       -8.13256        11.66466        -6.11383
| 74>    C       -7.59105        12.81972        -5.43412
| 75>    C       -7.17326        12.88217        -4.12845
| 76>    C       -6.66491        14.04706        -3.51997
| 77>    N       -6.20594        14.95158        -2.98217
| 78>    C       -7.25034        11.81230        -3.21656
| 79>    N       -7.32306        10.99444        -2.41331
| 80>    C       -7.78050        13.96643        -6.31493
| 81>    C       -8.61612        13.57992        -7.39373
| 82>    C       -8.94235        12.14567        -7.26846
| 83>    O       -9.66829        11.48152        -7.96962
| 84>    C       -9.00529        14.45823        -8.37553
| 85>    C       -8.53920        15.77497        -8.29541
| 86>    C       -7.69368        16.14602        -7.22230
| 87>    C       -7.30726        15.26080        -6.22340
| 88>    S       -7.22485        17.81516        -7.32602
| 89>    C       -8.16160        17.99220        -8.78629
| 90>    C       -8.79225        16.85994        -9.17882
| 91>   Br       -8.21555        19.65327        -9.65425
| 92>    H      -10.02589        -0.85695        -0.80626
| 93>    H       -8.79539        -4.03391         2.87365
| 94>    H      -12.20684        -2.57534        -1.20756
| 95>    H       -5.20448         0.21211         3.06359
| 96>    H       -2.25895         5.91471         4.33249
| 97>    H       -1.46477         4.37276         4.69873
| 98>    H       -2.92161         4.83387         5.57343
| 99>    H       -2.68316        12.72905        -5.44727
|100>    H       -1.55545        11.52325        -4.79202
|101>    H       -2.39931        12.62141        -3.70391
|102>    H       -8.64662         9.68720        -6.47111
|103>    H       -9.64820        14.14063        -9.18133
|104>    H       -6.65592        15.58503        -5.42884
|105>    H       -9.41029        16.79038       -10.05524
|106> *
|107>
|108>                          ****END OF INPUT****

CARTESIAN COORDINATES (ANGSTROEM)
---------------------------------
  C     -7.058830   -1.710660    2.429880
  C     -6.354270   -2.329090    3.430870
  C     -6.719870   -3.565010    4.004260
  N     -6.963930   -4.566590    4.508950
  C     -5.163870   -1.844860    4.012340
  N     -4.191900   -1.519760    4.530720
  C     -8.272440   -2.227060    1.803770
  C     -8.649100   -1.353720    0.752580
  C     -9.765820   -1.551140   -0.022370
  C    -10.552630   -2.674480    0.253240
  C    -10.168530   -3.547230    1.300210
  C     -9.038740   -3.342660    2.084230
  S    -11.281810   -4.869560    1.468770
  C    -12.235590   -4.240950    0.150750
  C    -11.746720   -3.099460   -0.389980
  Br   -13.783270   -5.152570   -0.385260
  C     -7.672450   -0.259200    0.665520
  O     -7.649240    0.621730   -0.176190
  C     -6.733120   -0.456810    1.777010
  C     -5.785390    0.450030    2.179500
  C     -5.482650    1.706180    1.637830
  C     -4.627120    2.621070    2.258130
  C     -4.492680    3.865100    1.608160
  C     -3.729550    4.757870    2.412320
  C     -3.257030    4.213570    3.566220
  S     -3.756360    2.548610    3.748250
  C     -2.427040    4.875120    4.603670
  F     -3.541430    6.056830    2.130620
  C     -5.226230    3.899860    0.415430
  S     -6.138830    2.435880    0.189900
  C     -5.306780    4.907070   -0.579610
  C     -6.445530    4.984640   -1.418050
  C     -6.595190    6.007000   -2.416740
  N     -7.668390    5.995720   -3.211100
  C     -8.584620    5.066620   -3.072840
  C     -8.468570    4.091320   -2.029390
  N     -7.420990    4.088930   -1.244200
  C     -9.479450    3.117230   -1.828550
  N    -10.310060    2.339770   -1.699130
  C     -9.692160    5.043530   -3.955420
  N    -10.600100    4.986880   -4.651170
  C     -5.627420    7.023920   -2.615370
  C     -4.446590    6.884080   -1.851350
  C     -4.282280    5.834110   -0.868840
  N     -3.054860    5.832610   -0.354640
  S     -2.210130    7.037850   -0.978040
  N     -3.341660    7.615570   -1.966130
  C     -5.862750    8.063330   -3.544540
  C     -5.073620    9.157200   -3.889950
  C     -5.691760   10.054820   -4.795930
  C     -4.808270   11.111800   -5.143590
  C     -3.611980   11.074340   -4.503150
  S     -3.490110    9.686920   -3.441080
  C     -2.496150   12.044010   -4.623470
  F     -5.099350   12.046380   -6.071230
  C     -6.985820    9.668980   -5.143250
  S     -7.374930    8.131410   -4.411290
  C     -7.955670   10.325930   -5.928930
  C     -8.132560   11.664660   -6.113830
  C     -7.591050   12.819720   -5.434120
  C     -7.173260   12.882170   -4.128450
  C     -6.664910   14.047060   -3.519970
  N     -6.205940   14.951580   -2.982170
  C     -7.250340   11.812300   -3.216560
  N     -7.323060   10.994440   -2.413310
  C     -7.780500   13.966430   -6.314930
  C     -8.616120   13.579920   -7.393730
  C     -8.942350   12.145670   -7.268460
  O     -9.668290   11.481520   -7.969620
  C     -9.005290   14.458230   -8.375530
  C     -8.539200   15.774970   -8.295410
  C     -7.693680   16.146020   -7.222300
  C     -7.307260   15.260800   -6.223400
  S     -7.224850   17.815160   -7.326020
  C     -8.161600   17.992200   -8.786290
  C     -8.792250   16.859940   -9.178820
  Br    -8.215550   19.653270   -9.654250
  H    -10.025890   -0.856950   -0.806260
  H     -8.795390   -4.033910    2.873650
  H    -12.206840   -2.575340   -1.207560
  H     -5.204480    0.212110    3.063590
  H     -2.258950    5.914710    4.332490
  H     -1.464770    4.372760    4.698730
  H     -2.921610    4.833870    5.573430
  H     -2.683160   12.729050   -5.447270
  H     -1.555450   11.523250   -4.792020
  H     -2.399310   12.621410   -3.703910
  H     -8.646620    9.687200   -6.471110
  H     -9.648200   14.140630   -9.181330
  H     -6.655920   15.585030   -5.428840
  H     -9.410290   16.790380  -10.055240

 Total Charge           Charge          ....    0
 Multiplicity           Mult            ....    1
 Number of Electrons    NEL             ....  624
 Basis Dimension        Dim             .... 1212

ORBITAL ENERGIES
----------------

  NO   OCC          E(Eh)            E(eV)
   0   2.0000    -482.885867    -13139.9925
   1   2.0000    -482.883532    -13139.9289
   2   2.0000     -89.055160     -2423.3141
   3   2.0000     -88.976370     -2421.1701
   4   2.0000     -88.975925     -2421.1580
   5   2.0000     -88.974137     -2421.1093
   6   2.0000     -88.972601     -2421.0676
   7   2.0000     -88.968725     -2420.9621
   8   2.0000     -88.966922     -2420.9130
   9   2.0000     -62.563615     -1702.4425
  10   2.0000     -62.561241     -1702.3779
  11   2.0000     -56.397567     -1534.6558
  12   2.0000     -56.395191     -1534.5912
  13   2.0000     -56.394849     -1534.5819
  14   2.0000     -56.394812     -1534.5808
  15   2.0000     -56.392474     -1534.5172
  16   2.0000     -56.392444     -1534.5164
  17   2.0000     -24.798918      -674.8129
  18   2.0000     -24.792967      -674.6509
  19   2.0000     -19.224190      -523.1168
  20   2.0000     -19.216126      -522.8974
  21   2.0000     -14.476835      -393.9347
  22   2.0000     -14.472581      -393.8190
  23   2.0000     -14.465685      -393.6313
  24   2.0000     -14.462442      -393.5430
  25   2.0000     -14.438248      -392.8847
  26   2.0000     -14.436890      -392.8478
  27   2.0000     -14.417852      -392.3297
  28   2.0000     -14.415517      -392.2662
  29   2.0000     -14.414785      -392.2462
  30   2.0000     -14.413064      -392.1994
  31   2.0000     -10.394390      -282.8457
  32   2.0000     -10.393029      -282.8087
  33   2.0000     -10.371108      -282.2122
  34   2.0000     -10.366614      -282.0899
  35   2.0000     -10.365171      -282.0507
  36   2.0000     -10.364896      -282.0432
  37   2.0000     -10.360330      -281.9189
  38   2.0000     -10.359939      -281.9083
  39   2.0000     -10.358960      -281.8816
  40   2.0000     -10.358946      -281.8813
  41   2.0000     -10.356929      -281.8264
  42   2.0000     -10.355411      -281.7851
  43   2.0000     -10.343055      -281.4488
  44   2.0000     -10.342487      -281.4334
  45   2.0000     -10.341474      -281.4058
  46   2.0000     -10.340480      -281.3788
  47   2.0000     -10.337061      -281.2857
  48   2.0000     -10.336422      -281.2683
  49   2.0000     -10.331495      -281.1343
  50   2.0000     -10.330325      -281.1024
  51   2.0000     -10.329688      -281.0851
  52   2.0000     -10.328446      -281.0513
  53   2.0000     -10.326764      -281.0055
  54   2.0000     -10.326323      -280.9935
  55   2.0000     -10.326267      -280.9920
  56   2.0000     -10.324465      -280.9430
  57   2.0000     -10.323066      -280.9049
  58   2.0000     -10.322078      -280.8780
  59   2.0000     -10.321533      -280.8632
  60   2.0000     -10.320917      -280.8464
  61   2.0000     -10.320568      -280.8369
  62   2.0000     -10.318683      -280.7856
  63   2.0000     -10.317788      -280.7613
  64   2.0000     -10.316297      -280.7207
  65   2.0000     -10.315633      -280.7027
  66   2.0000     -10.313956      -280.6570
  67   2.0000     -10.308690      -280.5137
  68   2.0000     -10.307888      -280.4919
  69   2.0000     -10.307704      -280.4869
  70   2.0000     -10.307621      -280.4846
  71   2.0000     -10.305828      -280.4358
  72   2.0000     -10.305532      -280.4278
  73   2.0000     -10.305406      -280.4244
  74   2.0000     -10.304820      -280.4084
  75   2.0000     -10.301651      -280.3222
  76   2.0000     -10.301541      -280.3192
  77   2.0000     -10.300994      -280.3043
  78   2.0000     -10.299040      -280.2511
  79   2.0000     -10.296982      -280.1951
  80   2.0000     -10.294328      -280.1229
  81   2.0000     -10.293088      -280.0892
  82   2.0000     -10.291574      -280.0480
  83   2.0000     -10.287779      -279.9447
  84   2.0000     -10.286586      -279.9122
  85   2.0000      -8.793072      -239.2716
  86   2.0000      -8.790670      -239.2063
  87   2.0000      -8.146446      -221.6761
  88   2.0000      -8.071973      -219.6495
  89   2.0000      -8.070104      -219.5987
  90   2.0000      -8.069500      -219.5823
  91   2.0000      -8.064689      -219.4513
  92   2.0000      -8.062669      -219.3964
  93   2.0000      -8.062374      -219.3884
  94   2.0000      -6.629391      -180.3949
  95   2.0000      -6.626983      -180.3294
  96   2.0000      -6.614791      -179.9976
  97   2.0000      -6.614604      -179.9925
  98   2.0000      -6.612407      -179.9327
  99   2.0000      -6.612189      -179.9268
 100   2.0000      -6.117553      -166.4671
 101   2.0000      -6.109765      -166.2552
 102   2.0000      -6.109134      -166.2380
 103   2.0000      -6.041663      -164.4020
 104   2.0000      -6.039804      -164.3514
 105   2.0000      -6.039164      -164.3340
 106   2.0000      -6.037385      -164.2856
 107   2.0000      -6.035495      -164.2342
 108   2.0000      -6.034449      -164.2057
 109   2.0000      -6.034151      -164.1976
 110   2.0000      -6.033182      -164.1712
 111   2.0000      -6.032341      -164.1483
 112   2.0000      -6.032271      -164.1464
 113   2.0000      -6.031457      -164.1243
 114   2.0000      -6.031345      -164.1212
 115   2.0000      -6.029541      -164.0722
 116   2.0000      -6.028239      -164.0367
 117   2.0000      -6.027822      -164.0254
 118   2.0000      -6.026702      -163.9949
 119   2.0000      -6.023823      -163.9165
 120   2.0000      -6.023550      -163.9091
 121   2.0000      -2.745209       -74.7009
 122   2.0000      -2.742846       -74.6366
 123   2.0000      -2.741190       -74.5916
 124   2.0000      -2.741034       -74.5873
 125   2.0000      -2.738752       -74.5252
 126   2.0000      -2.738629       -74.5219
 127   2.0000      -2.729425       -74.2714
 128   2.0000      -2.729412       -74.2711
 129   2.0000      -2.727028       -74.2062
 130   2.0000      -2.727004       -74.2056
 131   2.0000      -1.309425       -35.6313
 132   2.0000      -1.306073       -35.5400
 133   2.0000      -1.154544       -31.4167
 134   2.0000      -1.139903       -31.0183
 135   2.0000      -1.136210       -30.9178
 136   2.0000      -1.131565       -30.7914
 137   2.0000      -1.064160       -28.9573
 138   2.0000      -1.030321       -28.0365
 139   2.0000      -1.026091       -27.9214
 140   2.0000      -1.022923       -27.8352
 141   2.0000      -1.022464       -27.8227
 142   2.0000      -1.020126       -27.7590
 143   2.0000      -1.013287       -27.5729
 144   2.0000      -1.012725       -27.5577
 145   2.0000      -1.011317       -27.5193
 146   2.0000      -1.006536       -27.3892
 147   2.0000      -0.995185       -27.0804
 148   2.0000      -0.993182       -27.0259
 149   2.0000      -0.990954       -26.9652
 150   2.0000      -0.990185       -26.9443
 151   2.0000      -0.989922       -26.9371
 152   2.0000      -0.965213       -26.2648
 153   2.0000      -0.960037       -26.1239
 154   2.0000      -0.943658       -25.6782
 155   2.0000      -0.941892       -25.6302
 156   2.0000      -0.923722       -25.1357
 157   2.0000      -0.920822       -25.0568
 158   2.0000      -0.909239       -24.7417
 159   2.0000      -0.908451       -24.7202
 160   2.0000      -0.907559       -24.6959
 161   2.0000      -0.893878       -24.3237
 162   2.0000      -0.886083       -24.1115
 163   2.0000      -0.884641       -24.0723
 164   2.0000      -0.878336       -23.9007
 165   2.0000      -0.870942       -23.6995
 166   2.0000      -0.865064       -23.5396
 167   2.0000      -0.858321       -23.3561
 168   2.0000      -0.846804       -23.0427
 169   2.0000      -0.845388       -23.0042
 170   2.0000      -0.841921       -22.9098
 171   2.0000      -0.829330       -22.5672
 172   2.0000      -0.828228       -22.5372
 173   2.0000      -0.818581       -22.2747
 174   2.0000      -0.811856       -22.0917
 175   2.0000      -0.798656       -21.7325
 176   2.0000      -0.789669       -21.4880
 177   2.0000      -0.785454       -21.3733
 178   2.0000      -0.779959       -21.2238
 179   2.0000      -0.764476       -20.8024
 180   2.0000      -0.761535       -20.7224
 181   2.0000      -0.751514       -20.4497
 182   2.0000      -0.748546       -20.3690
 183   2.0000      -0.731113       -19.8946
 184   2.0000      -0.717739       -19.5307
 185   2.0000      -0.713236       -19.4081
 186   2.0000      -0.709120       -19.2961
 187   2.0000      -0.701052       -19.0766
 188   2.0000      -0.693999       -18.8847
 189   2.0000      -0.691726       -18.8228
 190   2.0000      -0.685595       -18.6560
 191   2.0000      -0.679467       -18.4892
 192   2.0000      -0.672759       -18.3067
 193   2.0000      -0.668502       -18.1909
 194   2.0000      -0.666331       -18.1318
 195   2.0000      -0.664082       -18.0706
 196   2.0000      -0.661119       -17.9900
 197   2.0000      -0.654930       -17.8216
 198   2.0000      -0.652538       -17.7565
 199   2.0000      -0.647861       -17.6292
 200   2.0000      -0.642588       -17.4857
 201   2.0000      -0.637240       -17.3402
 202   2.0000      -0.626758       -17.0550
 203   2.0000      -0.624368       -16.9899
 204   2.0000      -0.621231       -16.9045
 205   2.0000      -0.617306       -16.7977
 206   2.0000      -0.606899       -16.5146
 207   2.0000      -0.600801       -16.3486
 208   2.0000      -0.598803       -16.2943
 209   2.0000      -0.593676       -16.1547
 210   2.0000      -0.589817       -16.0497
 211   2.0000      -0.587201       -15.9786
 212   2.0000      -0.578308       -15.7366
 213   2.0000      -0.575200       -15.6520
 214   2.0000      -0.572357       -15.5746
 215   2.0000      -0.570430       -15.5222
 216   2.0000      -0.564912       -15.3720
 217   2.0000      -0.562915       -15.3177
 218   2.0000      -0.556549       -15.1445
 219   2.0000      -0.552293       -15.0286
 220   2.0000      -0.547944       -14.9103
 221   2.0000      -0.544989       -14.8299
 222   2.0000      -0.543895       -14.8001
 223   2.0000      -0.543116       -14.7789
 224   2.0000      -0.539818       -14.6892
 225   2.0000      -0.537436       -14.6244
 226   2.0000      -0.534695       -14.5498
 227   2.0000      -0.531913       -14.4741
 228   2.0000      -0.524529       -14.2732
 229   2.0000      -0.521479       -14.1902
 230   2.0000      -0.518666       -14.1136
 231   2.0000      -0.517270       -14.0756
 232   2.0000      -0.516294       -14.0491
 233   2.0000      -0.514219       -13.9926
 234   2.0000      -0.513549       -13.9744
 235   2.0000      -0.511317       -13.9136
 236   2.0000      -0.509666       -13.8687
 237   2.0000      -0.508220       -13.8294
 238   2.0000      -0.505645       -13.7593
 239   2.0000      -0.505147       -13.7457
 240   2.0000      -0.504934       -13.7399
 241   2.0000      -0.499914       -13.6034
 242   2.0000      -0.497362       -13.5339
 243   2.0000      -0.495720       -13.4892
 244   2.0000      -0.494872       -13.4661
 245   2.0000      -0.493934       -13.4406
 246   2.0000      -0.493664       -13.4333
 247   2.0000      -0.488979       -13.3058
 248   2.0000      -0.485569       -13.2130
 249   2.0000      -0.484187       -13.1754
 250   2.0000      -0.480983       -13.0882
 251   2.0000      -0.477477       -12.9928
 252   2.0000      -0.473584       -12.8869
 253   2.0000      -0.470362       -12.7992
 254   2.0000      -0.468467       -12.7476
 255   2.0000      -0.465628       -12.6704
 256   2.0000      -0.462701       -12.5907
 257   2.0000      -0.461569       -12.5599
 258   2.0000      -0.459377       -12.5003
 259   2.0000      -0.457911       -12.4604
 260   2.0000      -0.455200       -12.3866
 261   2.0000      -0.453102       -12.3295
 262   2.0000      -0.450260       -12.2522
 263   2.0000      -0.450082       -12.2473
 264   2.0000      -0.449287       -12.2257
 265   2.0000      -0.447895       -12.1878
 266   2.0000      -0.446943       -12.1619
 267   2.0000      -0.444481       -12.0950
 268   2.0000      -0.443590       -12.0707
 269   2.0000      -0.440270       -11.9804
 270   2.0000      -0.439786       -11.9672
 271   2.0000      -0.437217       -11.8973
 272   2.0000      -0.433919       -11.8075
 273   2.0000      -0.433351       -11.7921
 274   2.0000      -0.430705       -11.7201
 275   2.0000      -0.428418       -11.6579
 276   2.0000      -0.427657       -11.6371
 277   2.0000      -0.425385       -11.5753
 278   2.0000      -0.424726       -11.5574
 279   2.0000      -0.423032       -11.5113
 280   2.0000      -0.421143       -11.4599
 281   2.0000      -0.417743       -11.3674
 282   2.0000      -0.414643       -11.2830
 283   2.0000      -0.411285       -11.1916
 284   2.0000      -0.409228       -11.1357
 285   2.0000      -0.408229       -11.1085
 286   2.0000      -0.404586       -11.0093
 287   2.0000      -0.393366       -10.7040
 288   2.0000      -0.390402       -10.6234
 289   2.0000      -0.385672       -10.4947
 290   2.0000      -0.384744       -10.4694
 291   2.0000      -0.379172       -10.3178
 292   2.0000      -0.375402       -10.2152
 293   2.0000      -0.373406       -10.1609
 294   2.0000      -0.372818       -10.1449
 295   2.0000      -0.363179        -9.8826
 296   2.0000      -0.360094        -9.7987
 297   2.0000      -0.358742        -9.7619
 298   2.0000      -0.357959        -9.7405
 299   2.0000      -0.340983        -9.2786
 300   2.0000      -0.336036        -9.1440
 301   2.0000      -0.328971        -8.9518
 302   2.0000      -0.325980        -8.8704
 303   2.0000      -0.322786        -8.7835
 304   2.0000      -0.315623        -8.5885
 305   2.0000      -0.315345        -8.5810
 306   2.0000      -0.310642        -8.4530
 307   2.0000      -0.304533        -8.2868
 308   2.0000      -0.293192        -7.9782
 309   2.0000      -0.292733        -7.9657
 310   2.0000      -0.279237        -7.5984
 311   2.0000      -0.241951        -6.5838
 312   0.0000      -0.141813        -3.8589
 313   0.0000      -0.091408        -2.4873
 314   0.0000      -0.087209        -2.3731
 315   0.0000      -0.064712        -1.7609
 316   0.0000      -0.060830        -1.6553

MULLIKEN ATOMIC CHARGES
-----------------------
   0 C :    0.315096
   1 C :   -0.352686
   2 C :   -0.186905
   3 N :    0.153266
   4 C :   -0.189297
   5 N :    0.150027
   6 C :    0.017852
   7 C :   -0.013195
   8 C :   -0.065952
   9 C :    0.116766
  10 C :   -0.092247
  11 C :   -0.025011
  12 S :    0.186608
  13 C :   -0.122929
  14 C :    0.039280
  15 Br:    0.025033
  16 C :    0.164462
  17 O :   -0.178349
  18 C :   -0.088378
  19 C :   -0.050683
  20 C :   -0.072192
  21 C :   -0.073149
  22 C :    0.152923
  23 C :    0.218770
  24 C :   -0.300591
  25 S :    0.156915
  26 C :    0.119632
  27 F :   -0.183962
  28 C :   -0.210080
  29 S :    0.244054
  30 C :    0.127828
  31 C :   -0.043558
  32 C :   -0.065208
  33 N :   -0.001380
  34 C :   -0.087892
  35 C :   -0.126364
  36 N :    0.031096
  37 C :   -0.202452
  38 N :    0.239059
  39 C :   -0.241138
  40 N :    0.249144
  41 C :    0.184906
  42 C :    0.032623
  43 C :   -0.022733
  44 N :   -0.258357
  45 S :    0.559103
  46 N :   -0.332729
  47 C :   -0.214203
  48 C :   -0.030318
  49 C :    0.093353
  50 C :    0.223531
  51 C :   -0.276103
  52 S :    0.174285
  53 C :    0.116629
  54 F :   -0.188937
  55 C :   -0.136687
  56 S :    0.212370
  57 C :    0.064219
  58 C :   -0.123444
  59 C :    0.293974
  60 C :   -0.352759
  61 C :   -0.188595
  62 N :    0.152558
  63 C :   -0.196793
  64 N :    0.165176
  65 C :    0.007966
  66 C :    0.004647
  67 C :    0.131322
  68 O :   -0.136799
  69 C :   -0.074643
  70 C :    0.115413
  71 C :   -0.087479
  72 C :   -0.026916
  73 S :    0.184116
  74 C :   -0.125481
  75 C :    0.040548
  76 Br:    0.023310
  77 H :   -0.000707
  78 H :   -0.006292
  79 H :    0.002220
  80 H :    0.012039
  81 H :    0.032808
  82 H :    0.042254
  83 H :    0.040908
  84 H :    0.036464
  85 H :    0.032811
  86 H :    0.051879
  87 H :    0.030261
  88 H :   -0.008383
  89 H :   -0.005068
  90 H :   -0.002477
Sum of atomic charges:   -0.0000000

LOEWDIN ATOMIC CHARGES
----------------------
   0 C :    0.075730
   1 C :   -0.142042
   2 C :   -0.018487
   3 N :   -0.053099
   4 C :   -0.022011
   5 N :   -0.052767
   6 C :   -0.020757
   7 C :   -0.051245
   8 C :    0.028028
   9 C :   -0.031806
  10 C :   -0.143777
  11 C :   -0.010231
  12 S :    0.433025
  13 C :   -0.271600
  14 C :   -0.067569
  15 Br:    0.137951
  16 C :    0.086343
  17 O :   -0.162834
  18 C :   -0.098291
  19 C :    0.047236
  20 C :   -0.204564
  21 C :   -0.166998
  22 C :   -0.086342
  23 C :    0.034319
  24 C :   -0.188603
  25 S :    0.427251
  26 C :   -0.056024
  27 F :   -0.058186
  28 C :   -0.153667
  29 S :    0.573468
  30 C :   -0.047139
  31 C :   -0.005028
  32 C :   -0.011746
  33 N :   -0.016317
  34 C :   -0.019244
  35 C :   -0.019535
  36 N :   -0.006743
  37 C :   -0.028869
  38 N :   -0.005532
  39 C :   -0.039004
  40 N :    0.002090
  41 C :   -0.033671
  42 C :   -0.032515
  43 C :   -0.038861
  44 N :   -0.263387
  45 S :    0.683306
  46 N :   -0.294826
  47 C :   -0.165293
  48 C :   -0.162534
  49 C :   -0.079890
  50 C :    0.022857
  51 C :   -0.183679
  52 S :    0.461330
  53 C :   -0.055953
  54 F :   -0.058948
  55 C :   -0.173038
  56 S :    0.516080
  57 C :    0.039594
  58 C :   -0.078477
  59 C :    0.067830
  60 C :   -0.142681
  61 C :   -0.018670
  62 N :   -0.058437
  63 C :   -0.017021
  64 N :   -0.057539
  65 C :   -0.013839
  66 C :   -0.052466
  67 C :    0.083288
  68 O :   -0.137614
  69 C :    0.023300
  70 C :   -0.033880
  71 C :   -0.142395
  72 C :   -0.012733
  73 S :    0.430999
  74 C :   -0.272733
  75 C :   -0.069468
  76 Br:    0.136487
  77 H :    0.045549
  78 H :    0.040909
  79 H :    0.041187
  80 H :    0.045338
  81 H :    0.042093
  82 H :    0.042710
  83 H :    0.041581
  84 H :    0.043088
  85 H :    0.039337
  86 H :    0.047241
  87 H :    0.049491
  88 H :    0.041746
  89 H :    0.040650
  90 H :    0.039174

  Mayer bond orders larger than 0.100000
B(  0-C ,  1-C ) :   1.6266 B(  0-C ,  6-C ) :   1.0031 B(  0-C , 18-C ) :   1.0725
B(  1-C ,  2-C ) :   1.1449 B(  1-C ,  4-C ) :   1.1460 B(  2-C ,  3-N ) :   2.9705
B(  4-C ,  5-N ) :   2.9642 B(  6-C ,  7-C ) :   1.2699 B(  6-C , 11-C ) :   1.4132
B(  7-C ,  8-C ) :   1.4241 B(  7-C , 16-C ) :   0.9626 B(  8-C ,  9-C ) :   1.2397
B(  8-C , 77-H ) :   1.0174 B(  9-C , 10-C ) :   1.3041 B(  9-C , 14-C ) :   1.1650
B( 10-C , 11-C ) :   1.3271 B( 10-C , 12-S ) :   1.0890 B( 11-C , 78-H ) :   0.9811
B( 12-S , 13-C ) :   1.0849 B( 13-C , 14-C ) :   1.6162 B( 13-C , 15-Br) :   1.0195
B( 14-C , 79-H ) :   1.0010 B( 16-C , 17-O ) :   2.1052 B( 16-C , 18-C ) :   0.9773
B( 18-C , 19-C ) :   1.5210 B( 19-C , 20-C ) :   1.2649 B( 19-C , 80-H ) :   0.9443
B( 20-C , 21-C ) :   1.3675 B( 20-C , 29-S ) :   1.0906 B( 21-C , 22-C ) :   1.2838
B( 21-C , 25-S ) :   1.0881 B( 22-C , 23-C ) :   1.0842 B( 22-C , 28-C ) :   1.3008
B( 23-C , 24-C ) :   1.6397 B( 23-C , 27-F ) :   1.1417 B( 24-C , 25-S ) :   1.0663
B( 24-C , 26-C ) :   1.0674 B( 26-C , 81-H ) :   0.9550 B( 26-C , 82-H ) :   0.9475
B( 26-C , 83-H ) :   0.9482 B( 28-C , 29-S ) :   1.1410 B( 28-C , 30-C ) :   1.1847
B( 30-C , 31-C ) :   1.2565 B( 30-C , 41-C ) :   0.1148 B( 30-C , 43-C ) :   1.2049
B( 31-C , 32-C ) :   1.1276 B( 31-C , 36-N ) :   1.4173 B( 32-C , 33-N ) :   1.4046
B( 32-C , 41-C ) :   1.2352 B( 33-N , 34-C ) :   1.6841 B( 34-C , 35-C ) :   1.2171
B( 34-C , 39-C ) :   1.1616 B( 35-C , 36-N ) :   1.7044 B( 35-C , 37-C ) :   1.1700
B( 37-C , 38-N ) :   3.0182 B( 39-C , 40-N ) :   3.0393 B( 41-C , 42-C ) :   1.1830
B( 41-C , 47-C ) :   1.2267 B( 42-C , 43-C ) :   1.0906 B( 42-C , 46-N ) :   1.4830
B( 43-C , 44-N ) :   1.5306 B( 44-N , 45-S ) :   1.2938 B( 44-N , 46-N ) :   0.1442
B( 45-S , 46-N ) :   1.2562 B( 47-C , 48-C ) :   1.4573 B( 47-C , 56-S ) :   1.1431
B( 48-C , 49-C ) :   1.2593 B( 48-C , 52-S ) :   1.0831 B( 49-C , 50-C ) :   1.1014
B( 49-C , 55-C ) :   1.3531 B( 50-C , 51-C ) :   1.6343 B( 50-C , 54-F ) :   1.1132
B( 51-C , 52-S ) :   1.0417 B( 51-C , 53-C ) :   1.0676 B( 53-C , 84-H ) :   0.9564
B( 53-C , 85-H ) :   0.9449 B( 53-C , 86-H ) :   0.9470 B( 55-C , 56-S ) :   1.0712
B( 55-C , 57-C ) :   1.1329 B( 57-C , 58-C ) :   1.6641 B( 57-C , 87-H ) :   0.9321
B( 58-C , 59-C ) :   1.0458 B( 58-C , 67-C ) :   0.9391 B( 59-C , 60-C ) :   1.6268
B( 59-C , 65-C ) :   1.0193 B( 60-C , 61-C ) :   1.1369 B( 60-C , 63-C ) :   1.1793
B( 61-C , 62-N ) :   2.9851 B( 63-C , 64-N ) :   2.9943 B( 65-C , 66-C ) :   1.2761
B( 65-C , 72-C ) :   1.4152 B( 66-C , 67-C ) :   0.9182 B( 66-C , 69-C ) :   1.4213
B( 67-C , 68-O ) :   2.2767 B( 69-C , 70-C ) :   1.2504 B( 69-C , 88-H ) :   1.0166
B( 70-C , 71-C ) :   1.3078 B( 70-C , 75-C ) :   1.1621 B( 71-C , 72-C ) :   1.3248
B( 71-C , 73-S ) :   1.0851 B( 72-C , 89-H ) :   0.9834 B( 73-S , 74-C ) :   1.0853
B( 74-C , 75-C ) :   1.6199 B( 74-C , 76-Br) :   1.0186 B( 75-C , 90-H ) :   1.0004

-----------------------------------------------------------------------------
         ABSORPTION SPECTRUM VIA TRANSITION ELECTRIC DIPOLE MOMENTS
-----------------------------------------------------------------------------
State   Energy  Wavelength   fosc         T2         TX        TY        TZ
        (cm-1)    (nm)                  (au**2)     (au)      (au)      (au)
-----------------------------------------------------------------------------
   0    6702.9   1491.9   0.529008831  25.98218   0.23792  -4.24380   2.81348
   1   14581.1    685.8   0.014199092   0.32059  -0.35574   0.41737   0.14085
   2   17884.7    559.1   0.456523917   8.40345   0.40838  -2.64611   1.11120
   3   18187.4    549.8   0.041389376   0.74919   0.74447   0.30097  -0.32307
   4   18491.9    540.8   0.277195101   4.93493   0.55746   2.09027  -0.50493
   5   19497.2    512.9   0.005266605   0.08893  -0.19218  -0.22765   0.01312
   6   21291.4    469.7   0.013424417   0.20757  -0.20477   0.25214   0.31948
   7   21650.8    461.9   0.023895141   0.36334   0.35822  -0.28671   0.39092
   8   22438.8    445.7   0.027439055   0.40257  -0.40740  -0.39103  -0.28929
   9   22939.2    435.9   0.070099682   1.00604   0.75076   0.64812  -0.14950
  10   23378.0    427.8   0.021651527   0.30490  -0.44125  -0.24771   0.22099
  11   24193.3    413.3   0.066578661   0.90597   0.20962   0.76192  -0.53058
  12   24594.1    406.6   0.047371249   0.63410   0.35267  -0.44385   0.55922
  13   25052.0    399.2   0.010720837   0.14088   0.09467  -0.10634  -0.34729
  14   25548.8    391.4   0.017312716   0.22309  -0.00473   0.28557  -0.37618
  15   25808.3    387.5   0.056418321   0.71968   0.57509   0.54565   0.30200
  16   26078.5    383.5   0.088429822   1.11633  -0.82951  -0.04274  -0.65301
  17   26251.1    380.9   0.018070677   0.22662  -0.02082   0.45400  -0.14167
  18   26843.3    372.5   0.142884457   1.75237   0.11427  -1.24701   0.42928
  19   27118.3    368.8   0.033682773   0.40890   0.29406   0.08899   0.56081
  20   27469.7    364.0   0.117954538   1.41363   0.05186   1.16334  -0.23998
  21   27797.5    359.7   0.135770686   1.60796  -1.24178  -0.23193  -0.11029
  22   29013.6    344.7   0.075529642   0.85702  -0.80916  -0.44426  -0.07016
  23   29052.9    344.2   0.013057168   0.14796  -0.22722  -0.20074   0.23671
  24   29220.7    342.2   0.257680704   2.90314  -1.21725  -0.02406  -1.19199
  25   29510.5    338.9   0.253260962   2.82532  -0.01288   1.12649  -1.24747
  26   30470.4    328.2   0.479492038   5.18059   1.83041   0.16771   1.34241
  27   30677.3    326.0   0.019215903   0.20621  -0.19854  -0.40393   0.06028
  28   30858.4    324.1   0.420608669   4.48725   1.67716   1.29050   0.09485
  29   31212.2    320.4   0.065584615   0.69176  -0.47554  -0.34982   0.58587
  30   31326.1    319.2   0.003218326   0.03382   0.17750  -0.03646   0.03142
  31   31729.1    315.2   0.092471920   0.95946   0.26428  -0.85156   0.40555
  32   31969.5    312.8   0.001175115   0.01210  -0.10162  -0.01943  -0.03737
  33   32377.5    308.9   0.030681166   0.31196   0.25387   0.49278   0.06842
  34   32487.3    307.8   0.042312884   0.42878  -0.52633  -0.38881   0.02414
  35   32978.2    303.2   0.005459623   0.05450  -0.17721   0.03100  -0.14879
  36   33344.9    299.9   0.080161225   0.79143  -0.85601  -0.23553  -0.05655
  37   33505.6    298.5   0.123095553   1.20948   0.81012   0.23091   0.70701
  38   33635.7    297.3   0.212945579   2.08422   1.13246   0.10278   0.88949
  39   33869.5    295.3   0.039184452   0.38087   0.35223  -0.40323   0.30695
  40   34333.8    291.3   0.328041397   3.14545   0.46237  -1.16928   1.25078
  41   34464.7    290.2   0.108395819   1.03541  -0.81030  -0.20722  -0.57956
  42   34992.8    285.8   0.258739752   2.43422  -0.97759   0.10078  -1.21177
  43   35160.5    284.4   0.158728672   1.48620   0.18203  -0.61470   1.03692
  44   35269.3    283.5   0.014062357   0.13126  -0.21107  -0.29104  -0.04483
  45   35493.8    281.7   0.081732623   0.75809   0.68571  -0.15998   0.51215
  46   35637.9    280.6   0.089386001   0.82572   0.23385   0.77328  -0.41601
  47   35851.3    278.9   0.073727329   0.67702   0.29302   0.66840  -0.38000
  48   35923.6    278.4   0.011823511   0.10835   0.06236  -0.28686   0.14891
  49   36043.6    277.4   0.049874544   0.45554  -0.37985  -0.50094   0.24559
  50   36317.3    275.4   0.013452596   0.12195  -0.31792  -0.14439  -0.00470
  51   36583.1    273.4   0.008091959   0.07282   0.16083   0.14918  -0.15716
  52   37041.2    270.0   0.120356887   1.06970   0.87265   0.55371   0.03985
  53   37326.5    267.9   0.040523356   0.35741  -0.51593  -0.27905   0.11554
  54   37535.7    266.4   0.009951659   0.08728   0.15549   0.03595   0.24862
  55   37701.2    265.2   0.046216171   0.40357   0.14132  -0.52952   0.32125
  56   37734.8    265.0   0.016387462   0.14297   0.05137  -0.29793   0.22708
  57   38107.2    262.4   0.010442492   0.09021  -0.10431   0.28076   0.02256
  58   38464.6    260.0   0.163610035   1.40031   0.87802   0.77697  -0.16035
  59   38778.5    257.9   0.013372869   0.11353  -0.21291  -0.25187  -0.06900
  60   38877.9    257.2   0.159812143   1.35326   0.37471   1.09920  -0.06789
  61   38969.7    256.6   0.002649885   0.02239  -0.01162   0.02123  -0.14765
  62   39293.4    254.5   0.033924824   0.28423   0.44760   0.28877  -0.02247
  63   39542.7    252.9   0.042777681   0.35614  -0.32212  -0.22168  -0.45082
  64   39611.7    252.5   0.012378437   0.10288  -0.23493   0.21513  -0.03743
  65   39633.9    252.3   0.258136371   2.14416   0.75093   1.25462  -0.07865
  66   39759.6    251.5   0.025379181   0.21014  -0.42273  -0.04435  -0.17168
  67   39907.9    250.6   0.029384306   0.24240  -0.02663  -0.24621   0.42552
  68   40247.2    248.5   0.050822732   0.41572  -0.04301  -0.63816  -0.08135

FINAL SINGLE POINT ENERGY    -10894.399859020194

DIPOLE MOMENT
-------------
                                X             Y             Z
Electronic contribution:    -78.58987      13.32744     -56.92438
Nuclear contribution   :     80.55420     -11.40899      55.49344
                        -----------------------------------------
Total Dipole Moment    :      1.96432       1.91845      -1.43095
                        -----------------------------------------
Magnitude (a.u.)       :      3.09623
Magnitude (Debye)      :      7.86999

Rotational constants in cm-1:     0.001177     0.000199     0.000174
Rotational constants in MHz :    35.275399     5.972047     5.208665

                             ****ORCA TERMINATED NORMALLY****
TOTAL RUN TIME: 0 days 0 hours 11 minutes 30 seconds 846 msec
