                         Program Version 4.2.0 -  RELEASE  -
|  1> # ORCA input file
|  2> # SCF done       -179.827191180250          0.000690335342
|  3> ! CAM-B3LYP def2-SVP def2/J RIJCOSX Grid4 TightSCF
|  4> %maxcore 5000
|  5> %tddft
|  6>     Mode sTDDFT
|  7>     Ethresh 5.0
|  8>     maxcore 5000
|  9> end
| 10>
| 11> %pal
| 12>   nprocs 6
| 13>   end
| 14> * xyz 0 1
| 15>    C       -0.75062         0.07118        -2.18441
| 16>    S       -0.24802        -1.45209        -2.80066
| 17>    C       -0.40202        -2.20525        -1.24353
| 18>    C       -0.81875        -1.26918        -0.29259
| 19>    C       -1.03242         0.01891        -0.86351
| 20>    C       -1.01780        -1.39972         1.13827
| 21>    O       -1.68892        -0.64254         1.79906
| 22>    C       -0.24705        -2.51950         1.90184
| 23>    F        0.95644        -2.78255         1.36848
| 24>    F       -0.04004        -2.15775         3.16670
| 25>    F       -0.93284        -3.67551         1.93177
| 26>    C       -0.20628        -3.60792        -1.12183
| 27>    C        0.27700        -4.39285        -2.11233
| 28>    C        0.45696        -5.79429        -1.98893
| 29>    S        0.10011        -6.70024        -0.53962
| 30>    C        0.94254        -6.65244        -2.95121
| 31>    C        1.46897        -6.51836        -4.31494
| 32>    O        1.56896        -5.54662        -5.02159
| 33>    N        1.87088        -7.80476        -4.65885
| 34>    C        2.45555        -8.13692        -5.94071
| 35>    C        1.38778        -8.57868        -6.93520
| 36>    C        1.65690        -8.74730        -3.66371
| 37>    O        1.98890        -9.90550        -3.74659
| 38>    C        1.01339        -8.00797        -2.55940
| 39>    C        0.57215        -8.22324        -1.26872
| 40>    C        0.47250        -9.37205        -0.42312
| 41>    N        0.18358       -10.66312        -0.77947
| 42>    C       -0.24870       -11.15363        -2.06678
| 43>    C       -1.56577       -10.52188        -2.50710
| 44>    C        0.17175       -11.51607         0.34652
| 45>    O       -0.08937       -12.70077         0.28210
| 46>    C        0.50428       -10.65830         1.45853
| 47>    C        0.64991        -9.34109         0.95366
| 48>    C        1.01391        -8.47329         2.05277
| 49>    O        1.23238        -7.28186         2.10903
| 50>    N        1.07754        -9.33666         3.16205
| 51>    C        1.34942        -8.83025         4.48588
| 52>    C        0.07100        -8.66923         5.30429
| 53>    C        0.76776       -10.63395         2.82633
| 54>    C        0.76061       -11.70700         3.75405
| 55>    C        0.41112       -12.96964         3.40600
| 56>    C        0.41723       -14.03405         4.34620
| 57>    S       -0.08469       -15.66555         3.91994
| 58>    C        0.27781       -16.07156         5.59115
| 59>    N        0.70721       -15.04456         6.27326
| 60>    N        0.78098       -13.93732         5.59683
| 61>    C        0.10734       -17.38711         6.10997
| 62>    C        0.44321       -17.70153         7.37852
| 63>    C        0.29491       -18.99173         7.96835
| 64>    S        0.88931       -19.26300         9.58669
| 65>    C        0.38684       -20.90970         9.57316
| 66>    C       -0.23211       -21.23118         8.35501
| 67>    C       -0.27056       -20.13265         7.46278
| 68>    C       -0.76905       -22.54242         8.06740
| 69>    O       -0.72954       -23.52581         8.76856
| 70>    C       -1.48372       -22.66940         6.68681
| 71>    F       -0.65116       -22.43191         5.65728
| 72>    F       -1.98259       -23.88901         6.51283
| 73>    F       -2.50546       -21.80301         6.56243
| 74>    C        0.60263       -21.77007        10.69901
| 75>    C        1.21502       -21.38959        11.82111
| 76>    H       -0.80785         0.91477        -2.84293
| 77>    H       -1.36114         0.85368        -0.27200
| 78>    H       -0.47578        -4.08184        -0.19082
| 79>    H        0.56156        -3.97443        -3.07000
| 80>    H        3.17727        -8.94045        -5.77533
| 81>    H        2.96886        -7.24357        -6.30359
| 82>    H        0.87290        -9.46293        -6.56644
| 83>    H        1.85014        -8.81634        -7.88880
| 84>    H        0.66243        -7.78258        -7.08660
| 85>    H       -0.37901       -12.23146        -1.93524
| 86>    H        0.53391       -10.98407        -2.80803
| 87>    H       -2.33680       -10.69053        -1.75802
| 88>    H       -1.88679       -10.97218        -3.44204
| 89>    H       -1.45790        -9.45012        -2.65989
| 90>    H        1.81940        -7.85320         4.34330
| 91>    H        2.05555        -9.49308         4.99291
| 92>    H       -0.60350        -7.97686         4.80648
| 93>    H        0.31197        -8.27280         6.28650
| 94>    H       -0.43628        -9.62361         5.42657
| 95>    H        1.04568       -11.51424         4.77778
| 96>    H        0.11465       -13.20460         2.39316
| 97>    H       -0.29977       -18.12216         5.43255
| 98>    H        0.86310       -16.92494         8.00231
| 99>    H       -0.69952       -20.16765         6.47968
|100>    H        0.23337       -22.77924        10.58638
|101>    H        1.59418       -20.38813        11.95041
|102>    H        1.35431       -22.07187        12.64030
|103> *
|104>
|105>                          ****END OF INPUT****

CARTESIAN COORDINATES (ANGSTROEM)
---------------------------------
  C     -0.750620    0.071180   -2.184410
  S     -0.248020   -1.452090   -2.800660
  C     -0.402020   -2.205250   -1.243530
  C     -0.818750   -1.269180   -0.292590
  C     -1.032420    0.018910   -0.863510
  C     -1.017800   -1.399720    1.138270
  O     -1.688920   -0.642540    1.799060
  C     -0.247050   -2.519500    1.901840
  F      0.956440   -2.782550    1.368480
  F     -0.040040   -2.157750    3.166700
  F     -0.932840   -3.675510    1.931770
  C     -0.206280   -3.607920   -1.121830
  C      0.277000   -4.392850   -2.112330
  C      0.456960   -5.794290   -1.988930
  S      0.100110   -6.700240   -0.539620
  C      0.942540   -6.652440   -2.951210
  C      1.468970   -6.518360   -4.314940
  O      1.568960   -5.546620   -5.021590
  N      1.870880   -7.804760   -4.658850
  C      2.455550   -8.136920   -5.940710
  C      1.387780   -8.578680   -6.935200
  C      1.656900   -8.747300   -3.663710
  O      1.988900   -9.905500   -3.746590
  C      1.013390   -8.007970   -2.559400
  C      0.572150   -8.223240   -1.268720
  C      0.472500   -9.372050   -0.423120
  N      0.183580  -10.663120   -0.779470
  C     -0.248700  -11.153630   -2.066780
  C     -1.565770  -10.521880   -2.507100
  C      0.171750  -11.516070    0.346520
  O     -0.089370  -12.700770    0.282100
  C      0.504280  -10.658300    1.458530
  C      0.649910   -9.341090    0.953660
  C      1.013910   -8.473290    2.052770
  O      1.232380   -7.281860    2.109030
  N      1.077540   -9.336660    3.162050
  C      1.349420   -8.830250    4.485880
  C      0.071000   -8.669230    5.304290
  C      0.767760  -10.633950    2.826330
  C      0.760610  -11.707000    3.754050
  C      0.411120  -12.969640    3.406000
  C      0.417230  -14.034050    4.346200
  S     -0.084690  -15.665550    3.919940
  C      0.277810  -16.071560    5.591150
  N      0.707210  -15.044560    6.273260
  N      0.780980  -13.937320    5.596830
  C      0.107340  -17.387110    6.109970
  C      0.443210  -17.701530    7.378520
  C      0.294910  -18.991730    7.968350
  S      0.889310  -19.263000    9.586690
  C      0.386840  -20.909700    9.573160
  C     -0.232110  -21.231180    8.355010
  C     -0.270560  -20.132650    7.462780
  C     -0.769050  -22.542420    8.067400
  O     -0.729540  -23.525810    8.768560
  C     -1.483720  -22.669400    6.686810
  F     -0.651160  -22.431910    5.657280
  F     -1.982590  -23.889010    6.512830
  F     -2.505460  -21.803010    6.562430
  C      0.602630  -21.770070   10.699010
  C      1.215020  -21.389590   11.821110
  H     -0.807850    0.914770   -2.842930
  H     -1.361140    0.853680   -0.272000
  H     -0.475780   -4.081840   -0.190820
  H      0.561560   -3.974430   -3.070000
  H      3.177270   -8.940450   -5.775330
  H      2.968860   -7.243570   -6.303590
  H      0.872900   -9.462930   -6.566440
  H      1.850140   -8.816340   -7.888800
  H      0.662430   -7.782580   -7.086600
  H     -0.379010  -12.231460   -1.935240
  H      0.533910  -10.984070   -2.808030
  H     -2.336800  -10.690530   -1.758020
  H     -1.886790  -10.972180   -3.442040
  H     -1.457900   -9.450120   -2.659890
  H      1.819400   -7.853200    4.343300
  H      2.055550   -9.493080    4.992910
  H     -0.603500   -7.976860    4.806480
  H      0.311970   -8.272800    6.286500
  H     -0.436280   -9.623610    5.426570
  H      1.045680  -11.514240    4.777780
  H      0.114650  -13.204600    2.393160
  H     -0.299770  -18.122160    5.432550
  H      0.863100  -16.924940    8.002310
  H     -0.699520  -20.167650    6.479680
  H      0.233370  -22.779240   10.586380
  H      1.594180  -20.388130   11.950410
  H      1.354310  -22.071870   12.640300

 Total Charge           Charge          ....    0
 Multiplicity           Mult            ....    1
 Number of Electrons    NEL             ....  468
 Basis Dimension        Dim             .... 1005

ORBITAL ENERGIES
----------------

  NO   OCC          E(Eh)            E(eV)
   0   2.0000     -88.978824     -2421.2369
   1   2.0000     -88.977823     -2421.2097
   2   2.0000     -88.975420     -2421.1443
   3   2.0000     -88.974008     -2421.1058
   4   2.0000     -24.810524      -675.1287
   5   2.0000     -24.810006      -675.1146
   6   2.0000     -24.809162      -675.0916
   7   2.0000     -24.807438      -675.0447
   8   2.0000     -24.803496      -674.9374
   9   2.0000     -24.800290      -674.8502
  10   2.0000     -19.238116      -523.4958
  11   2.0000     -19.234982      -523.4105
  12   2.0000     -19.218047      -522.9496
  13   2.0000     -19.215579      -522.8825
  14   2.0000     -19.192890      -522.2651
  15   2.0000     -19.192771      -522.2619
  16   2.0000     -14.458713      -393.4416
  17   2.0000     -14.456426      -393.3794
  18   2.0000     -14.456093      -393.3703
  19   2.0000     -14.441713      -392.9790
  20   2.0000     -14.438773      -392.8990
  21   2.0000     -10.518789      -286.2308
  22   2.0000     -10.518187      -286.2144
  23   2.0000     -10.402050      -283.0542
  24   2.0000     -10.397356      -282.9264
  25   2.0000     -10.390726      -282.7460
  26   2.0000     -10.387554      -282.6597
  27   2.0000     -10.377942      -282.3982
  28   2.0000     -10.375172      -282.3228
  29   2.0000     -10.348997      -281.6105
  30   2.0000     -10.345540      -281.5165
  31   2.0000     -10.344746      -281.4948
  32   2.0000     -10.341916      -281.4178
  33   2.0000     -10.341396      -281.4037
  34   2.0000     -10.334293      -281.2104
  35   2.0000     -10.332459      -281.1605
  36   2.0000     -10.332377      -281.1583
  37   2.0000     -10.320145      -280.8254
  38   2.0000     -10.308776      -280.5161
  39   2.0000     -10.308425      -280.5065
  40   2.0000     -10.307962      -280.4939
  41   2.0000     -10.304268      -280.3934
  42   2.0000     -10.304229      -280.3923
  43   2.0000     -10.303990      -280.3858
  44   2.0000     -10.303048      -280.3602
  45   2.0000     -10.302421      -280.3431
  46   2.0000     -10.300011      -280.2775
  47   2.0000     -10.299928      -280.2753
  48   2.0000     -10.298576      -280.2385
  49   2.0000     -10.297864      -280.2191
  50   2.0000     -10.296022      -280.1690
  51   2.0000     -10.295820      -280.1635
  52   2.0000     -10.290444      -280.0172
  53   2.0000     -10.289293      -279.9859
  54   2.0000     -10.288625      -279.9677
  55   2.0000     -10.286232      -279.9026
  56   2.0000     -10.267473      -279.3921
  57   2.0000     -10.263967      -279.2967
  58   2.0000     -10.262285      -279.2510
  59   2.0000     -10.262241      -279.2498
  60   2.0000     -10.258690      -279.1531
  61   2.0000      -8.073848      -219.7006
  62   2.0000      -8.073277      -219.6850
  63   2.0000      -8.071743      -219.6433
  64   2.0000      -8.069933      -219.5940
  65   2.0000      -6.042844      -164.4341
  66   2.0000      -6.042615      -164.4279
  67   2.0000      -6.040334      -164.3658
  68   2.0000      -6.039135      -164.3332
  69   2.0000      -6.038760      -164.3230
  70   2.0000      -6.038210      -164.3081
  71   2.0000      -6.037030      -164.2760
  72   2.0000      -6.036355      -164.2576
  73   2.0000      -6.035465      -164.2333
  74   2.0000      -6.034703      -164.2126
  75   2.0000      -6.034197      -164.1989
  76   2.0000      -6.032434      -164.1509
  77   2.0000      -1.397331       -38.0233
  78   2.0000      -1.395785       -37.9812
  79   2.0000      -1.300549       -35.3897
  80   2.0000      -1.300248       -35.3815
  81   2.0000      -1.299185       -35.3526
  82   2.0000      -1.296336       -35.2751
  83   2.0000      -1.163617       -31.6636
  84   2.0000      -1.154674       -31.4203
  85   2.0000      -1.151174       -31.3250
  86   2.0000      -1.144288       -31.1376
  87   2.0000      -1.139775       -31.0149
  88   2.0000      -1.136285       -30.9199
  89   2.0000      -1.129177       -30.7265
  90   2.0000      -1.067056       -29.0361
  91   2.0000      -1.058838       -28.8125
  92   2.0000      -1.054526       -28.6951
  93   2.0000      -1.008713       -27.4485
  94   2.0000      -1.006510       -27.3885
  95   2.0000      -1.000865       -27.2349
  96   2.0000      -0.952472       -25.9181
  97   2.0000      -0.933315       -25.3968
  98   2.0000      -0.928543       -25.2669
  99   2.0000      -0.923445       -25.1282
 100   2.0000      -0.908003       -24.7080
 101   2.0000      -0.904485       -24.6123
 102   2.0000      -0.891675       -24.2637
 103   2.0000      -0.886983       -24.1360
 104   2.0000      -0.876970       -23.8636
 105   2.0000      -0.871891       -23.7254
 106   2.0000      -0.866067       -23.5669
 107   2.0000      -0.861348       -23.4385
 108   2.0000      -0.834999       -22.7215
 109   2.0000      -0.824583       -22.4380
 110   2.0000      -0.818882       -22.2829
 111   2.0000      -0.818303       -22.2672
 112   2.0000      -0.815611       -22.1939
 113   2.0000      -0.811990       -22.0954
 114   2.0000      -0.800424       -21.7806
 115   2.0000      -0.786877       -21.4120
 116   2.0000      -0.759673       -20.6717
 117   2.0000      -0.756323       -20.5806
 118   2.0000      -0.753945       -20.5159
 119   2.0000      -0.749089       -20.3837
 120   2.0000      -0.740162       -20.1408
 121   2.0000      -0.732954       -19.9447
 122   2.0000      -0.725126       -19.7317
 123   2.0000      -0.717180       -19.5155
 124   2.0000      -0.706066       -19.2130
 125   2.0000      -0.699453       -19.0331
 126   2.0000      -0.696739       -18.9592
 127   2.0000      -0.687255       -18.7012
 128   2.0000      -0.684190       -18.6178
 129   2.0000      -0.682782       -18.5795
 130   2.0000      -0.680923       -18.5288
 131   2.0000      -0.680658       -18.5216
 132   2.0000      -0.679769       -18.4974
 133   2.0000      -0.671554       -18.2739
 134   2.0000      -0.664399       -18.0792
 135   2.0000      -0.659471       -17.9451
 136   2.0000      -0.658446       -17.9172
 137   2.0000      -0.646887       -17.6027
 138   2.0000      -0.637043       -17.3348
 139   2.0000      -0.625847       -17.0302
 140   2.0000      -0.621096       -16.9009
 141   2.0000      -0.620804       -16.8929
 142   2.0000      -0.609846       -16.5947
 143   2.0000      -0.605867       -16.4865
 144   2.0000      -0.589318       -16.0362
 145   2.0000      -0.582935       -15.8625
 146   2.0000      -0.581425       -15.8214
 147   2.0000      -0.580155       -15.7868
 148   2.0000      -0.576536       -15.6884
 149   2.0000      -0.568403       -15.4670
 150   2.0000      -0.564912       -15.3720
 151   2.0000      -0.562778       -15.3140
 152   2.0000      -0.560922       -15.2635
 153   2.0000      -0.560159       -15.2427
 154   2.0000      -0.557395       -15.1675
 155   2.0000      -0.555622       -15.1192
 156   2.0000      -0.552685       -15.0393
 157   2.0000      -0.550735       -14.9863
 158   2.0000      -0.548998       -14.9390
 159   2.0000      -0.547335       -14.8937
 160   2.0000      -0.543423       -14.7873
 161   2.0000      -0.541271       -14.7287
 162   2.0000      -0.537255       -14.6195
 163   2.0000      -0.531786       -14.4706
 164   2.0000      -0.531238       -14.4557
 165   2.0000      -0.528810       -14.3896
 166   2.0000      -0.527465       -14.3531
 167   2.0000      -0.524567       -14.2742
 168   2.0000      -0.522934       -14.2298
 169   2.0000      -0.518010       -14.0958
 170   2.0000      -0.517131       -14.0718
 171   2.0000      -0.514874       -14.0104
 172   2.0000      -0.514105       -13.9895
 173   2.0000      -0.512271       -13.9396
 174   2.0000      -0.511838       -13.9278
 175   2.0000      -0.509461       -13.8631
 176   2.0000      -0.507711       -13.8155
 177   2.0000      -0.505901       -13.7663
 178   2.0000      -0.504963       -13.7407
 179   2.0000      -0.504101       -13.7173
 180   2.0000      -0.502652       -13.6779
 181   2.0000      -0.497206       -13.5297
 182   2.0000      -0.496447       -13.5090
 183   2.0000      -0.492738       -13.4081
 184   2.0000      -0.491613       -13.3775
 185   2.0000      -0.490533       -13.3481
 186   2.0000      -0.487728       -13.2717
 187   2.0000      -0.484081       -13.1725
 188   2.0000      -0.480489       -13.0748
 189   2.0000      -0.478050       -13.0084
 190   2.0000      -0.476848       -12.9757
 191   2.0000      -0.474032       -12.8991
 192   2.0000      -0.473156       -12.8752
 193   2.0000      -0.471685       -12.8352
 194   2.0000      -0.470428       -12.8010
 195   2.0000      -0.469476       -12.7751
 196   2.0000      -0.464218       -12.6320
 197   2.0000      -0.461492       -12.5578
 198   2.0000      -0.457202       -12.4411
 199   2.0000      -0.454848       -12.3770
 200   2.0000      -0.454315       -12.3625
 201   2.0000      -0.450907       -12.2698
 202   2.0000      -0.448131       -12.1943
 203   2.0000      -0.444436       -12.0937
 204   2.0000      -0.443152       -12.0588
 205   2.0000      -0.433937       -11.8080
 206   2.0000      -0.432008       -11.7555
 207   2.0000      -0.430483       -11.7140
 208   2.0000      -0.430118       -11.7041
 209   2.0000      -0.428940       -11.6720
 210   2.0000      -0.423329       -11.5194
 211   2.0000      -0.412897       -11.2355
 212   2.0000      -0.401880       -10.9357
 213   2.0000      -0.397274       -10.8104
 214   2.0000      -0.393443       -10.7061
 215   2.0000      -0.380879       -10.3642
 216   2.0000      -0.367432        -9.9983
 217   2.0000      -0.358949        -9.7675
 218   2.0000      -0.357240        -9.7210
 219   2.0000      -0.356948        -9.7131
 220   2.0000      -0.356246        -9.6940
 221   2.0000      -0.350852        -9.5472
 222   2.0000      -0.349181        -9.5017
 223   2.0000      -0.345424        -9.3995
 224   2.0000      -0.343740        -9.3536
 225   2.0000      -0.338347        -9.2069
 226   2.0000      -0.337761        -9.1909
 227   2.0000      -0.326525        -8.8852
 228   2.0000      -0.326186        -8.8760
 229   2.0000      -0.321576        -8.7505
 230   2.0000      -0.316397        -8.6096
 231   2.0000      -0.284285        -7.7358
 232   2.0000      -0.274599        -7.4722
 233   2.0000      -0.241770        -6.5789
 234   0.0000      -0.097183        -2.6445
 235   0.0000      -0.076243        -2.0747
 236   0.0000      -0.065597        -1.7850
 237   0.0000      -0.048713        -1.3255
 238   0.0000      -0.029083        -0.7914

MULLIKEN ATOMIC CHARGES
-----------------------
   0 C :   -0.048128
   1 S :    0.139535
   2 C :   -0.072239
   3 C :    0.018910
   4 C :    0.041186
   5 C :   -0.005062
   6 O :   -0.146380
   7 C :    0.489143
   8 F :   -0.156233
   9 F :   -0.138007
  10 F :   -0.161761
  11 C :   -0.002653
  12 C :   -0.012740
  13 C :   -0.114031
  14 S :    0.228056
  15 C :   -0.010214
  16 C :    0.187499
  17 O :   -0.165842
  18 N :   -0.304876
  19 C :    0.134209
  20 C :   -0.007347
  21 C :    0.181529
  22 O :   -0.171095
  23 C :    0.089876
  24 C :   -0.272434
  25 C :    0.151114
  26 N :   -0.247536
  27 C :    0.088671
  28 C :   -0.010966
  29 C :    0.164225
  30 O :   -0.206782
  31 C :   -0.073656
  32 C :   -0.075433
  33 C :    0.145637
  34 O :   -0.188941
  35 N :   -0.261876
  36 C :    0.097620
  37 C :    0.003616
  38 C :    0.153685
  39 C :   -0.028866
  40 C :    0.084728
  41 C :   -0.119247
  42 S :    0.124884
  43 C :   -0.104643
  44 N :   -0.052537
  45 N :   -0.041979
  46 C :    0.058080
  47 C :    0.070141
  48 C :   -0.074839
  49 S :    0.158185
  50 C :   -0.119622
  51 C :    0.010248
  52 C :    0.029743
  53 C :    0.021366
  54 O :   -0.144893
  55 C :    0.473837
  56 F :   -0.169532
  57 F :   -0.132790
  58 F :   -0.168795
  59 C :    0.002617
  60 C :   -0.004078
  61 H :    0.040512
  62 H :    0.010986
  63 H :    0.012854
  64 H :    0.024991
  65 H :    0.034726
  66 H :    0.033768
  67 H :    0.024524
  68 H :    0.024189
  69 H :    0.026178
  70 H :    0.040200
  71 H :    0.050174
  72 H :    0.020189
  73 H :    0.023029
  74 H :    0.021534
  75 H :    0.045055
  76 H :    0.029654
  77 H :    0.028752
  78 H :    0.025688
  79 H :    0.019879
  80 H :    0.003284
  81 H :    0.014411
  82 H :   -0.008122
  83 H :    0.014363
  84 H :    0.008642
  85 H :    0.029744
  86 H :    0.029182
  87 H :    0.039324
Sum of atomic charges:   -0.0000000

LOEWDIN ATOMIC CHARGES
----------------------
   0 C :   -0.171085
   1 S :    0.473601
   2 C :   -0.140388
   3 C :   -0.113317
   4 C :   -0.028421
   5 C :    0.038237
   6 O :   -0.102899
   7 C :    0.141496
   8 F :   -0.052363
   9 F :   -0.037180
  10 F :   -0.054586
  11 C :   -0.033231
  12 C :   -0.029026
  13 C :   -0.134785
  14 S :    0.527456
  15 C :   -0.094151
  16 C :    0.088781
  17 O :   -0.164505
  18 N :   -0.029584
  19 C :    0.044019
  20 C :   -0.059446
  21 C :    0.095504
  22 O :   -0.156938
  23 C :   -0.088967
  24 C :   -0.142904
  25 C :    0.044346
  26 N :    0.011005
  27 C :    0.027100
  28 C :   -0.064273
  29 C :    0.081672
  30 O :   -0.196972
  31 C :   -0.123491
  32 C :   -0.123194
  33 C :    0.073359
  34 O :   -0.193920
  35 N :   -0.000493
  36 C :    0.036976
  37 C :   -0.060162
  38 C :    0.083230
  39 C :   -0.018296
  40 C :   -0.000697
  41 C :   -0.157133
  42 S :    0.405997
  43 C :   -0.144887
  44 N :   -0.080892
  45 N :   -0.070080
  46 C :   -0.054056
  47 C :    0.003415
  48 C :   -0.172140
  49 S :    0.479384
  50 C :   -0.117895
  51 C :   -0.117286
  52 C :   -0.028815
  53 C :    0.040956
  54 O :   -0.106224
  55 C :    0.142118
  56 F :   -0.061986
  57 F :   -0.034033
  58 F :   -0.061986
  59 C :   -0.044455
  60 C :   -0.013367
  61 H :    0.030134
  62 H :    0.039916
  63 H :    0.023109
  64 H :    0.036160
  65 H :    0.033235
  66 H :    0.033092
  67 H :    0.027225
  68 H :    0.031075
  69 H :    0.028156
  70 H :    0.035082
  71 H :    0.023679
  72 H :    0.027024
  73 H :    0.031603
  74 H :    0.019874
  75 H :    0.038389
  76 H :    0.025886
  77 H :    0.031730
  78 H :    0.032120
  79 H :    0.023908
  80 H :    0.037613
  81 H :    0.038448
  82 H :    0.032056
  83 H :    0.039791
  84 H :    0.028799
  85 H :    0.041424
  86 H :    0.018979
  87 H :    0.033348

  Mayer bond orders larger than 0.100000
B(  0-C ,  1-S ) :   1.1418 B(  0-C ,  4-C ) :   1.5884 B(  0-C , 61-H ) :   0.9715
B(  1-S ,  2-C ) :   1.1743 B(  2-C ,  3-C ) :   1.4224 B(  2-C , 11-C ) :   1.1512
B(  3-C ,  4-C ) :   1.2464 B(  3-C ,  5-C ) :   0.9684 B(  4-C , 62-H ) :   0.9994
B(  5-C ,  6-O ) :   2.1941 B(  5-C ,  7-C ) :   0.8793 B(  7-C ,  8-F ) :   1.1458
B(  7-C ,  9-F ) :   1.1909 B(  7-C , 10-F ) :   1.0917 B( 11-C , 12-C ) :   1.6490
B( 11-C , 63-H ) :   0.9557 B( 12-C , 13-C ) :   1.1755 B( 12-C , 64-H ) :   0.9654
B( 13-C , 14-S ) :   1.1284 B( 13-C , 15-C ) :   1.4937 B( 14-S , 24-C ) :   1.1926
B( 15-C , 16-C ) :   0.9013 B( 15-C , 23-C ) :   1.2446 B( 16-C , 17-O ) :   2.1790
B( 16-C , 18-N ) :   1.0634 B( 18-N , 19-C ) :   0.9162 B( 18-N , 21-C ) :   1.0960
B( 19-C , 20-C ) :   1.1287 B( 19-C , 65-H ) :   0.9403 B( 19-C , 66-H ) :   0.9407
B( 20-C , 67-H ) :   0.9689 B( 20-C , 68-H ) :   0.9704 B( 20-C , 69-H ) :   0.9688
B( 21-C , 22-O ) :   2.1012 B( 21-C , 23-C ) :   0.8785 B( 23-C , 24-C ) :   1.4854
B( 24-C , 25-C ) :   1.0915 B( 25-C , 26-N ) :   1.2239 B( 25-C , 32-C ) :   1.3856
B( 26-N , 27-C ) :   0.9318 B( 26-N , 29-C ) :   1.0491 B( 27-C , 28-C ) :   1.1145
B( 27-C , 70-H ) :   0.9243 B( 27-C , 71-H ) :   0.9282 B( 28-C , 72-H ) :   0.9650
B( 28-C , 73-H ) :   0.9672 B( 28-C , 74-H ) :   0.9687 B( 29-C , 30-O ) :   2.0257
B( 29-C , 31-C ) :   0.9980 B( 30-O , 81-H ) :   0.1096 B( 31-C , 32-C ) :   1.2320
B( 31-C , 38-C ) :   1.3463 B( 32-C , 33-C ) :   0.9582 B( 33-C , 34-O ) :   2.1352
B( 33-C , 35-N ) :   1.0431 B( 35-N , 36-C ) :   0.9420 B( 35-N , 38-C ) :   1.1644
B( 36-C , 37-C ) :   1.1225 B( 36-C , 75-H ) :   0.9280 B( 36-C , 76-H ) :   0.9500
B( 37-C , 77-H ) :   0.9638 B( 37-C , 78-H ) :   0.9676 B( 37-C , 79-H ) :   0.9682
B( 38-C , 39-C ) :   1.1322 B( 39-C , 40-C ) :   1.6563 B( 39-C , 80-H ) :   0.9720
B( 40-C , 41-C ) :   1.1076 B( 40-C , 81-H ) :   0.9255 B( 41-C , 42-S ) :   1.0958
B( 41-C , 45-N ) :   1.6646 B( 42-S , 43-C ) :   1.1044 B( 43-C , 44-N ) :   1.6645
B( 43-C , 46-C ) :   1.1080 B( 44-N , 45-N ) :   1.2380 B( 46-C , 47-C ) :   1.7432
B( 46-C , 82-H ) :   0.9472 B( 47-C , 48-C ) :   1.0815 B( 47-C , 83-H ) :   0.9670
B( 48-C , 49-S ) :   1.1065 B( 48-C , 52-C ) :   1.5362 B( 49-S , 50-C ) :   1.1818
B( 50-C , 51-C ) :   1.4326 B( 50-C , 59-C ) :   1.1456 B( 51-C , 52-C ) :   1.2407
B( 51-C , 53-C ) :   0.9718 B( 52-C , 84-H ) :   0.9626 B( 53-C , 54-O ) :   2.1543
B( 53-C , 55-C ) :   0.8872 B( 55-C , 56-F ) :   1.1168 B( 55-C , 57-F ) :   1.1945
B( 55-C , 58-F ) :   1.1241 B( 59-C , 60-C ) :   1.8912 B( 59-C , 85-H ) :   0.9476
B( 60-C , 86-H ) :   0.9554 B( 60-C , 87-H ) :   0.9495

-----------------------------------------------------------------------------
         ABSORPTION SPECTRUM VIA TRANSITION ELECTRIC DIPOLE MOMENTS
-----------------------------------------------------------------------------
State   Energy  Wavelength   fosc         T2         TX        TY        TZ
        (cm-1)    (nm)                  (au**2)     (au)      (au)      (au)
-----------------------------------------------------------------------------
   0   15518.5    644.4   0.930874386  19.74770   0.33121  -3.17253   3.09404
   1   21799.3    458.7   0.142718451   2.15533  -0.35960   0.39548   1.36734
   2   25088.1    398.6   0.700545457   9.19271   0.14090   2.47480  -1.74592
   3   25250.8    396.0   0.350416991   4.56862   0.26595  -2.12054  -0.03446
   4   25674.3    389.5   0.366502841   4.69953   0.27904  -2.14679  -0.11392
   5   26631.7    375.5   0.000178100   0.00220   0.04054  -0.01821   0.01505
   6   27913.7    358.2   0.001811837   0.02137  -0.05431  -0.13441   0.01878
   7   28300.0    353.4   0.014175835   0.16491  -0.15143   0.18066  -0.33066
   8   28363.5    352.6   0.051887371   0.60225   0.22076  -0.16947   0.72443
   9   29489.5    339.1   0.350203112   3.90956  -0.59520   1.61238   0.97752
  10   30780.3    324.9   0.107523923   1.15003   0.57307   0.85340   0.30549
  11   31037.2    322.2   0.026824979   0.28453  -0.01649   0.38071   0.37326
  12   32357.6    309.0   0.208854862   2.12493  -0.06773   1.10496  -0.94837
  13   33862.6    295.3   0.020188435   0.19627  -0.07762   0.40356  -0.16549
  14   34155.2    292.8   0.080110903   0.77217   0.07731   0.75886  -0.43626
  15   34811.1    287.3   0.070157297   0.66348  -0.20041  -0.66098   0.43177
  16   35795.2    279.4   0.022517181   0.20709   0.17751  -0.17598  -0.38028
  17   35958.1    278.1   0.031494375   0.28834  -0.03619   0.38807  -0.36938
  18   36385.9    274.8   0.001789763   0.01619   0.10642   0.03257  -0.06170
  19   36593.0    273.3   0.042338970   0.38091  -0.24682   0.08997   0.55847
  20   36971.8    270.5   0.025189357   0.22430   0.07202   0.30773  -0.35272
  21   37206.3    268.8   0.004469811   0.03955  -0.17855   0.00848   0.08717
  22   37585.9    266.1   0.106041043   0.92881   0.34765   0.81790  -0.37281
  23   37743.3    264.9   0.041656944   0.36335  -0.23526   0.49284   0.25516
  24   38212.2    261.7   0.079973584   0.68900  -0.15988  -0.79301  -0.18593
  25   38602.8    259.0   0.241315291   2.05798   0.11851  -1.32397  -0.53949
  26   39257.7    254.7   0.126930397   1.06443  -0.40060  -0.08194   0.94722
  27   40042.3    249.7   0.025107681   0.20643  -0.07321   0.31108  -0.32295
  28   40228.1    248.6   0.059188920   0.48438  -0.01259  -0.41570   0.55804

FINAL SINGLE POINT ENERGY     -4453.571333605850

DIPOLE MOMENT
-------------
                                X             Y             Z
Electronic contribution:     -9.79582     -15.45763      32.79614
Nuclear contribution   :      9.91238      15.98395     -33.24492
                        -----------------------------------------
Total Dipole Moment    :      0.11656       0.52632      -0.44878
                        -----------------------------------------
Magnitude (a.u.)       :      0.70143
Magnitude (Debye)      :      1.78289

Rotational constants in cm-1:     0.002276     0.000286     0.000260
Rotational constants in MHz :    68.238375     8.561746     7.808586

                             ****ORCA TERMINATED NORMALLY****
TOTAL RUN TIME: 0 days 0 hours 6 minutes 47 seconds 686 msec
