                         Program Version 4.2.0 -  RELEASE  -
|  1> # ORCA input file
|  2> # SCF done       -168.220266114460          0.000948372508
|  3> ! CAM-B3LYP def2-SVP def2/J RIJCOSX Grid4 TightSCF
|  4> %maxcore 5000
|  5> %tddft
|  6>     Mode sTDDFT
|  7>     Ethresh 5.0
|  8>     maxcore 5000
|  9> end
| 10>
| 11> %pal
| 12>   nprocs 6
| 13>   end
| 14> * xyz 0 1
| 15>    C        9.50284        -0.02035         3.84584
| 16>    C       10.49892         0.44101         4.65034
| 17>    S       12.04198        -0.11041         4.11140
| 18>    C       11.33676        -0.98258         2.77177
| 19>   Cl       12.29403        -1.85982         1.68560
| 20>    C        9.98034        -0.83719         2.77107
| 21>    C        8.85908        -1.30021         1.95148
| 22>    O        8.90989        -1.97585         0.94952
| 23>    C        7.64700        -0.68672         2.58446
| 24>    C        8.06051         0.07618         3.75883
| 25>    C        7.26962         0.73193         4.66192
| 26>    C        7.83021         1.41123         5.76601
| 27>    N        8.27092         1.97130         6.66450
| 28>    C        5.86203         0.81140         4.63192
| 29>    N        4.71979         0.91746         4.66927
| 30>    C        6.38830        -0.68815         2.07027
| 31>    C        5.88587        -1.45760         0.98378
| 32>    S        4.52234        -0.84029         0.09587
| 33>    C        4.53546        -2.20599        -0.95572
| 34>    C        3.57262        -2.36229        -2.02654
| 35>    O        3.56552        -3.28871        -2.79919
| 36>    C        5.52601        -3.11478        -0.60015
| 37>    C        6.27326        -2.69362         0.50304
| 38>    C        5.72772        -4.39035        -1.27576
| 39>    N        6.36445        -4.52565        -2.47244
| 40>    C        6.97400        -3.46515        -3.23479
| 41>    C        8.32054        -3.04993        -2.64744
| 42>    C        6.41888        -5.87763        -2.87659
| 43>    O        6.95918        -6.24583        -3.90030
| 44>    C        5.74065        -6.59188        -1.82001
| 45>    C        5.34093        -5.63451        -0.83928
| 46>    C        4.64056        -6.32869         0.21714
| 47>    O        4.13280        -5.94530         1.24869
| 48>    N        4.65393        -7.67415        -0.19899
| 49>    C        4.07589        -8.71128         0.61981
| 50>    C        5.13884        -9.47306         1.40855
| 51>    C        5.30608        -7.84197        -1.40215
| 52>    C        5.46646        -9.10264        -2.03895
| 53>    C        6.14535        -9.24314        -3.20328
| 54>    C        6.35742       -10.48263        -3.86859
| 55>    S        7.24452       -10.50567        -5.35407
| 56>    C        7.06629       -12.22205        -5.50462
| 57>    C        7.73201       -12.88003        -6.59684
| 58>    O        7.68700       -14.06242        -6.86492
| 59>    C        6.34777       -12.75023        -4.42459
| 60>    C        5.98038       -11.76128        -3.50257
| 61>    C        6.05967       -14.14819        -4.20066
| 62>    C        5.66533       -15.07990        -5.08732
| 63>    C        5.78132       -16.53466        -4.73280
| 64>    O        5.90684       -16.99404        -3.62495
| 65>    C        5.76489       -17.21572        -6.03058
| 66>    C        5.95104       -18.48281        -6.49849
| 67>    S        5.80166       -18.52050        -8.23895
| 68>    C        5.48030       -16.82773        -8.31564
| 69>    C        5.49566       -16.27007        -7.07632
| 70>    C        5.28831       -14.96315        -6.49170
| 71>    C        4.66918       -13.90930        -7.10096
| 72>    C        4.31990       -13.95276        -8.46716
| 73>    N        4.03738       -13.97513        -9.57829
| 74>    C        4.27961       -12.72960        -6.43771
| 75>    N        3.90079       -11.77507        -5.92464
| 76>   Cl        6.28302       -19.88653        -5.61137
| 77>    H       10.43827         1.06790         5.51773
| 78>    H        5.66728        -0.00365         2.50127
| 79>    H        2.82824        -1.54693        -2.08203
| 80>    H        7.06039        -3.28050         0.93672
| 81>    H        6.28892        -2.61404        -3.27638
| 82>    H        7.11292        -3.85815        -4.24542
| 83>    H        8.21350        -2.68446        -1.62824
| 84>    H        8.75695        -2.26226        -3.25532
| 85>    H        8.99992        -3.89881        -2.64138
| 86>    H        3.49075        -9.39070        -0.00622
| 87>    H        3.39988        -8.20425         1.31413
| 88>    H        5.85946        -9.94289         0.74248
| 89>    H        4.66780       -10.24174         2.01490
| 90>    H        5.67127        -8.79026         2.06590
| 91>    H        5.02603        -9.96444        -1.56053
| 92>    H        6.56788        -8.36746        -3.67815
| 93>    H        8.32931       -12.18289        -7.21410
| 94>    H        5.42256       -11.98341        -2.61100
| 95>    H        6.21930       -14.49903        -3.18534
| 96>    H        5.31979       -16.36131        -9.26724
| 97> *
| 98>
| 99>                          ****END OF INPUT****

CARTESIAN COORDINATES (ANGSTROEM)
---------------------------------
  C      9.502840   -0.020350    3.845840
  C     10.498920    0.441010    4.650340
  S     12.041980   -0.110410    4.111400
  C     11.336760   -0.982580    2.771770
  Cl    12.294030   -1.859820    1.685600
  C      9.980340   -0.837190    2.771070
  C      8.859080   -1.300210    1.951480
  O      8.909890   -1.975850    0.949520
  C      7.647000   -0.686720    2.584460
  C      8.060510    0.076180    3.758830
  C      7.269620    0.731930    4.661920
  C      7.830210    1.411230    5.766010
  N      8.270920    1.971300    6.664500
  C      5.862030    0.811400    4.631920
  N      4.719790    0.917460    4.669270
  C      6.388300   -0.688150    2.070270
  C      5.885870   -1.457600    0.983780
  S      4.522340   -0.840290    0.095870
  C      4.535460   -2.205990   -0.955720
  C      3.572620   -2.362290   -2.026540
  O      3.565520   -3.288710   -2.799190
  C      5.526010   -3.114780   -0.600150
  C      6.273260   -2.693620    0.503040
  C      5.727720   -4.390350   -1.275760
  N      6.364450   -4.525650   -2.472440
  C      6.974000   -3.465150   -3.234790
  C      8.320540   -3.049930   -2.647440
  C      6.418880   -5.877630   -2.876590
  O      6.959180   -6.245830   -3.900300
  C      5.740650   -6.591880   -1.820010
  C      5.340930   -5.634510   -0.839280
  C      4.640560   -6.328690    0.217140
  O      4.132800   -5.945300    1.248690
  N      4.653930   -7.674150   -0.198990
  C      4.075890   -8.711280    0.619810
  C      5.138840   -9.473060    1.408550
  C      5.306080   -7.841970   -1.402150
  C      5.466460   -9.102640   -2.038950
  C      6.145350   -9.243140   -3.203280
  C      6.357420  -10.482630   -3.868590
  S      7.244520  -10.505670   -5.354070
  C      7.066290  -12.222050   -5.504620
  C      7.732010  -12.880030   -6.596840
  O      7.687000  -14.062420   -6.864920
  C      6.347770  -12.750230   -4.424590
  C      5.980380  -11.761280   -3.502570
  C      6.059670  -14.148190   -4.200660
  C      5.665330  -15.079900   -5.087320
  C      5.781320  -16.534660   -4.732800
  O      5.906840  -16.994040   -3.624950
  C      5.764890  -17.215720   -6.030580
  C      5.951040  -18.482810   -6.498490
  S      5.801660  -18.520500   -8.238950
  C      5.480300  -16.827730   -8.315640
  C      5.495660  -16.270070   -7.076320
  C      5.288310  -14.963150   -6.491700
  C      4.669180  -13.909300   -7.100960
  C      4.319900  -13.952760   -8.467160
  N      4.037380  -13.975130   -9.578290
  C      4.279610  -12.729600   -6.437710
  N      3.900790  -11.775070   -5.924640
  Cl     6.283020  -19.886530   -5.611370
  H     10.438270    1.067900    5.517730
  H      5.667280   -0.003650    2.501270
  H      2.828240   -1.546930   -2.082030
  H      7.060390   -3.280500    0.936720
  H      6.288920   -2.614040   -3.276380
  H      7.112920   -3.858150   -4.245420
  H      8.213500   -2.684460   -1.628240
  H      8.756950   -2.262260   -3.255320
  H      8.999920   -3.898810   -2.641380
  H      3.490750   -9.390700   -0.006220
  H      3.399880   -8.204250    1.314130
  H      5.859460   -9.942890    0.742480
  H      4.667800  -10.241740    2.014900
  H      5.671270   -8.790260    2.065900
  H      5.026030   -9.964440   -1.560530
  H      6.567880   -8.367460   -3.678150
  H      8.329310  -12.182890   -7.214100
  H      5.422560  -11.983410   -2.611000
  H      6.219300  -14.499030   -3.185340
  H      5.319790  -16.361310   -9.267240

 Total Charge           Charge          ....    0
 Multiplicity           Mult            ....    1
 Number of Electrons    NEL             ....  472
 Basis Dimension        Dim             ....  992

ORBITAL ENERGIES
----------------

  NO   OCC          E(Eh)            E(eV)
   0   2.0000    -101.627215     -2765.4171
   1   2.0000    -101.613997     -2765.0574
   2   2.0000     -89.004017     -2421.9224
   3   2.0000     -88.994534     -2421.6644
   4   2.0000     -88.989496     -2421.5273
   5   2.0000     -88.979347     -2421.2511
   6   2.0000     -19.235917      -523.4359
   7   2.0000     -19.232048      -523.3306
   8   2.0000     -19.221727      -523.0498
   9   2.0000     -19.218444      -522.9604
  10   2.0000     -19.191931      -522.2390
  11   2.0000     -19.185731      -522.0703
  12   2.0000     -14.453060      -393.2878
  13   2.0000     -14.451584      -393.2476
  14   2.0000     -14.431410      -392.6986
  15   2.0000     -14.429567      -392.6485
  16   2.0000     -14.416344      -392.2887
  17   2.0000     -14.414449      -392.2371
  18   2.0000     -10.393415      -282.8192
  19   2.0000     -10.386980      -282.6441
  20   2.0000     -10.379732      -282.4469
  21   2.0000     -10.374538      -282.3055
  22   2.0000     -10.373589      -282.2797
  23   2.0000     -10.372151      -282.2406
  24   2.0000     -10.372137      -282.2402
  25   2.0000     -10.370468      -282.1948
  26   2.0000     -10.360217      -281.9158
  27   2.0000     -10.359588      -281.8987
  28   2.0000     -10.345467      -281.5145
  29   2.0000     -10.342941      -281.4457
  30   2.0000     -10.342826      -281.4426
  31   2.0000     -10.342085      -281.4224
  32   2.0000     -10.341673      -281.4112
  33   2.0000     -10.339950      -281.3643
  34   2.0000     -10.339713      -281.3579
  35   2.0000     -10.333087      -281.1776
  36   2.0000     -10.331293      -281.1288
  37   2.0000     -10.331156      -281.1251
  38   2.0000     -10.327613      -281.0286
  39   2.0000     -10.324159      -280.9347
  40   2.0000     -10.324003      -280.9304
  41   2.0000     -10.323239      -280.9096
  42   2.0000     -10.321236      -280.8551
  43   2.0000     -10.318165      -280.7715
  44   2.0000     -10.317220      -280.7458
  45   2.0000     -10.317034      -280.7408
  46   2.0000     -10.316020      -280.7132
  47   2.0000     -10.314446      -280.6703
  48   2.0000     -10.310832      -280.5720
  49   2.0000     -10.309760      -280.5428
  50   2.0000     -10.309106      -280.5250
  51   2.0000     -10.307723      -280.4874
  52   2.0000     -10.305381      -280.4237
  53   2.0000     -10.303743      -280.3791
  54   2.0000     -10.301280      -280.3121
  55   2.0000     -10.298988      -280.2497
  56   2.0000     -10.296807      -280.1904
  57   2.0000     -10.296179      -280.1733
  58   2.0000     -10.266224      -279.3582
  59   2.0000     -10.260099      -279.1915
  60   2.0000     -10.259344      -279.1709
  61   2.0000     -10.257118      -279.1104
  62   2.0000      -9.581955      -260.7382
  63   2.0000      -9.568791      -260.3800
  64   2.0000      -8.099673      -220.4033
  65   2.0000      -8.090186      -220.1452
  66   2.0000      -8.085193      -220.0093
  67   2.0000      -8.074950      -219.7306
  68   2.0000      -7.352564      -200.0734
  69   2.0000      -7.342017      -199.7864
  70   2.0000      -7.341465      -199.7714
  71   2.0000      -7.339428      -199.7160
  72   2.0000      -7.328820      -199.4273
  73   2.0000      -7.328297      -199.4131
  74   2.0000      -6.069044      -165.1471
  75   2.0000      -6.064403      -165.0208
  76   2.0000      -6.061990      -164.9551
  77   2.0000      -6.059164      -164.8782
  78   2.0000      -6.055148      -164.7690
  79   2.0000      -6.054553      -164.7528
  80   2.0000      -6.052751      -164.7037
  81   2.0000      -6.049969      -164.6280
  82   2.0000      -6.047480      -164.5603
  83   2.0000      -6.043881      -164.4624
  84   2.0000      -6.039867      -164.3531
  85   2.0000      -6.037578      -164.2908
  86   2.0000      -1.153357       -31.3844
  87   2.0000      -1.145334       -31.1661
  88   2.0000      -1.135602       -30.9013
  89   2.0000      -1.133581       -30.8463
  90   2.0000      -1.132268       -30.8106
  91   2.0000      -1.124746       -30.6059
  92   2.0000      -1.064671       -28.9712
  93   2.0000      -1.055549       -28.7230
  94   2.0000      -1.049100       -28.5475
  95   2.0000      -1.034111       -28.1396
  96   2.0000      -1.028247       -27.9800
  97   2.0000      -1.019752       -27.7489
  98   2.0000      -1.014831       -27.6150
  99   2.0000      -1.008955       -27.4551
 100   2.0000      -1.006857       -27.3980
 101   2.0000      -0.998764       -27.1778
 102   2.0000      -0.993383       -27.0313
 103   2.0000      -0.984175       -26.7808
 104   2.0000      -0.965704       -26.2781
 105   2.0000      -0.950982       -25.8775
 106   2.0000      -0.929011       -25.2797
 107   2.0000      -0.925019       -25.1710
 108   2.0000      -0.919873       -25.0310
 109   2.0000      -0.911400       -24.8004
 110   2.0000      -0.905857       -24.6496
 111   2.0000      -0.893332       -24.3088
 112   2.0000      -0.885868       -24.1057
 113   2.0000      -0.870813       -23.6960
 114   2.0000      -0.857943       -23.3458
 115   2.0000      -0.857550       -23.3351
 116   2.0000      -0.843267       -22.9465
 117   2.0000      -0.842825       -22.9344
 118   2.0000      -0.828336       -22.5402
 119   2.0000      -0.818878       -22.2828
 120   2.0000      -0.808275       -21.9943
 121   2.0000      -0.797214       -21.6933
 122   2.0000      -0.784146       -21.3377
 123   2.0000      -0.777420       -21.1547
 124   2.0000      -0.766556       -20.8590
 125   2.0000      -0.759570       -20.6690
 126   2.0000      -0.751010       -20.4360
 127   2.0000      -0.740121       -20.1397
 128   2.0000      -0.727697       -19.8017
 129   2.0000      -0.717244       -19.5172
 130   2.0000      -0.709625       -19.3099
 131   2.0000      -0.704562       -19.1721
 132   2.0000      -0.694905       -18.9093
 133   2.0000      -0.692467       -18.8430
 134   2.0000      -0.688017       -18.7219
 135   2.0000      -0.682210       -18.5639
 136   2.0000      -0.673801       -18.3350
 137   2.0000      -0.671584       -18.2747
 138   2.0000      -0.667108       -18.1529
 139   2.0000      -0.650966       -17.7137
 140   2.0000      -0.640127       -17.4187
 141   2.0000      -0.630025       -17.1439
 142   2.0000      -0.624686       -16.9986
 143   2.0000      -0.616627       -16.7793
 144   2.0000      -0.615631       -16.7522
 145   2.0000      -0.613554       -16.6957
 146   2.0000      -0.611278       -16.6337
 147   2.0000      -0.609113       -16.5748
 148   2.0000      -0.597848       -16.2683
 149   2.0000      -0.589923       -16.0526
 150   2.0000      -0.580648       -15.8002
 151   2.0000      -0.577042       -15.7021
 152   2.0000      -0.575779       -15.6677
 153   2.0000      -0.569222       -15.4893
 154   2.0000      -0.566804       -15.4235
 155   2.0000      -0.562964       -15.3190
 156   2.0000      -0.550842       -14.9892
 157   2.0000      -0.549538       -14.9537
 158   2.0000      -0.547873       -14.9084
 159   2.0000      -0.546749       -14.8778
 160   2.0000      -0.544277       -14.8105
 161   2.0000      -0.538656       -14.6576
 162   2.0000      -0.535119       -14.5613
 163   2.0000      -0.533767       -14.5245
 164   2.0000      -0.531283       -14.4569
 165   2.0000      -0.529838       -14.4176
 166   2.0000      -0.529056       -14.3963
 167   2.0000      -0.525600       -14.3023
 168   2.0000      -0.524926       -14.2840
 169   2.0000      -0.521602       -14.1935
 170   2.0000      -0.518920       -14.1205
 171   2.0000      -0.517965       -14.0945
 172   2.0000      -0.514290       -13.9945
 173   2.0000      -0.513278       -13.9670
 174   2.0000      -0.507392       -13.8068
 175   2.0000      -0.506147       -13.7729
 176   2.0000      -0.503893       -13.7116
 177   2.0000      -0.501881       -13.6569
 178   2.0000      -0.498908       -13.5760
 179   2.0000      -0.498549       -13.5662
 180   2.0000      -0.495744       -13.4899
 181   2.0000      -0.491378       -13.3711
 182   2.0000      -0.490983       -13.3603
 183   2.0000      -0.481423       -13.1002
 184   2.0000      -0.478108       -13.0100
 185   2.0000      -0.475066       -12.9272
 186   2.0000      -0.473437       -12.8829
 187   2.0000      -0.472511       -12.8577
 188   2.0000      -0.467156       -12.7119
 189   2.0000      -0.465580       -12.6691
 190   2.0000      -0.464693       -12.6450
 191   2.0000      -0.462206       -12.5773
 192   2.0000      -0.459138       -12.4938
 193   2.0000      -0.456773       -12.4294
 194   2.0000      -0.454760       -12.3746
 195   2.0000      -0.452785       -12.3209
 196   2.0000      -0.452151       -12.3037
 197   2.0000      -0.450574       -12.2607
 198   2.0000      -0.449563       -12.2332
 199   2.0000      -0.446474       -12.1492
 200   2.0000      -0.443200       -12.0601
 201   2.0000      -0.443077       -12.0568
 202   2.0000      -0.441385       -12.0107
 203   2.0000      -0.441047       -12.0015
 204   2.0000      -0.437259       -11.8984
 205   2.0000      -0.436383       -11.8746
 206   2.0000      -0.430330       -11.7099
 207   2.0000      -0.428327       -11.6554
 208   2.0000      -0.427755       -11.6398
 209   2.0000      -0.425791       -11.5864
 210   2.0000      -0.423714       -11.5298
 211   2.0000      -0.421790       -11.4775
 212   2.0000      -0.415649       -11.3104
 213   2.0000      -0.413035       -11.2393
 214   2.0000      -0.406370       -11.0579
 215   2.0000      -0.403706       -10.9854
 216   2.0000      -0.400111       -10.8876
 217   2.0000      -0.385225       -10.4825
 218   2.0000      -0.375408       -10.2154
 219   2.0000      -0.366029        -9.9602
 220   2.0000      -0.363674        -9.8961
 221   2.0000      -0.351043        -9.5524
 222   2.0000      -0.348756        -9.4901
 223   2.0000      -0.347584        -9.4582
 224   2.0000      -0.347192        -9.4476
 225   2.0000      -0.346368        -9.4252
 226   2.0000      -0.338797        -9.2191
 227   2.0000      -0.330041        -8.9809
 228   2.0000      -0.329644        -8.9701
 229   2.0000      -0.328074        -8.9273
 230   2.0000      -0.321685        -8.7535
 231   2.0000      -0.313158        -8.5215
 232   2.0000      -0.307317        -8.3625
 233   2.0000      -0.307214        -8.3597
 234   2.0000      -0.301911        -8.2154
 235   2.0000      -0.246495        -6.7075
 236   0.0000      -0.112979        -3.0743
 237   0.0000      -0.095534        -2.5996
 238   0.0000      -0.077759        -2.1159
 239   0.0000      -0.067002        -1.8232
 240   0.0000      -0.046272        -1.2591

MULLIKEN ATOMIC CHARGES
-----------------------
   0 C :    0.032963
   1 C :   -0.128656
   2 S :    0.195229
   3 C :   -0.166627
   4 Cl:    0.005423
   5 C :    0.071746
   6 C :    0.152876
   7 O :   -0.130889
   8 C :   -0.099819
   9 C :    0.289731
  10 C :   -0.323839
  11 C :   -0.192669
  12 N :    0.161852
  13 C :   -0.189521
  14 N :    0.167330
  15 C :    0.041332
  16 C :   -0.120766
  17 S :    0.188029
  18 C :   -0.143615
  19 C :    0.183631
  20 O :   -0.164118
  21 C :   -0.017632
  22 C :    0.113136
  23 C :    0.054140
  24 N :   -0.240527
  25 C :    0.122608
  26 C :   -0.010821
  27 C :    0.176123
  28 O :   -0.208206
  29 C :   -0.076444
  30 C :    0.006326
  31 C :    0.126890
  32 O :   -0.188930
  33 N :   -0.273008
  34 C :    0.097159
  35 C :    0.004294
  36 C :    0.139198
  37 C :   -0.015276
  38 C :    0.089687
  39 C :   -0.058275
  40 S :    0.199624
  41 C :   -0.193900
  42 C :    0.202963
  43 O :   -0.200950
  44 C :    0.092305
  45 C :   -0.003550
  46 C :   -0.001483
  47 C :   -0.102407
  48 C :    0.130283
  49 O :   -0.126360
  50 C :    0.093834
  51 C :   -0.173830
  52 S :    0.183992
  53 C :   -0.121477
  54 C :    0.023650
  55 C :    0.308791
  56 C :   -0.326930
  57 C :   -0.190164
  58 N :    0.160163
  59 C :   -0.198090
  60 N :    0.174908
  61 Cl:   -0.002697
  62 H :    0.057439
  63 H :    0.026986
  64 H :   -0.005825
  65 H :    0.013405
  66 H :    0.015739
  67 H :    0.042962
  68 H :    0.027023
  69 H :    0.018358
  70 H :    0.025055
  71 H :    0.025737
  72 H :    0.045265
  73 H :    0.011556
  74 H :    0.024194
  75 H :    0.029145
  76 H :   -0.026651
  77 H :    0.009141
  78 H :   -0.007887
  79 H :   -0.011592
  80 H :    0.029643
  81 H :    0.051567
Sum of atomic charges:    0.0000000

LOEWDIN ATOMIC CHARGES
----------------------
   0 C :   -0.059342
   1 C :   -0.147100
   2 S :    0.483804
   3 C :   -0.270769
   4 Cl:    0.196549
   5 C :   -0.118363
   6 C :    0.084897
   7 O :   -0.128461
   8 C :   -0.077718
   9 C :    0.072526
  10 C :   -0.129972
  11 C :   -0.015030
  12 N :   -0.044989
  13 C :   -0.025760
  14 N :   -0.037901
  15 C :    0.051123
  16 C :   -0.168573
  17 S :    0.492891
  18 C :   -0.214232
  19 C :    0.090693
  20 O :   -0.116825
  21 C :   -0.031660
  22 C :    0.016272
  23 C :    0.077447
  24 N :    0.016239
  25 C :    0.038463
  26 C :   -0.063783
  27 C :    0.084558
  28 O :   -0.197343
  29 C :   -0.121047
  30 C :   -0.120372
  31 C :    0.079557
  32 O :   -0.197194
  33 N :   -0.007903
  34 C :    0.035617
  35 C :   -0.061794
  36 C :    0.080855
  37 C :   -0.031251
  38 C :    0.010571
  39 C :   -0.143376
  40 S :    0.507967
  41 C :   -0.232073
  42 C :    0.084958
  43 O :   -0.144169
  44 C :   -0.030897
  45 C :   -0.028768
  46 C :    0.058910
  47 C :   -0.056364
  48 C :    0.084875
  49 O :   -0.130113
  50 C :   -0.114968
  51 C :   -0.273160
  52 S :    0.476774
  53 C :   -0.147112
  54 C :   -0.047695
  55 C :    0.081964
  56 C :   -0.132088
  57 C :   -0.015718
  58 N :   -0.049631
  59 C :   -0.021976
  60 N :   -0.048299
  61 Cl:    0.190226
  62 H :    0.038956
  63 H :    0.047022
  64 H :    0.000599
  65 H :    0.042154
  66 H :    0.023089
  67 H :    0.037318
  68 H :    0.024738
  69 H :    0.029254
  70 H :    0.029966
  71 H :    0.023115
  72 H :    0.038781
  73 H :    0.020214
  74 H :    0.030742
  75 H :    0.032276
  76 H :    0.028966
  77 H :    0.037950
  78 H :    0.000096
  79 H :    0.032872
  80 H :    0.049677
  81 H :    0.038267

  Mayer bond orders larger than 0.100000
B(  0-C ,  1-C ) :   1.5431 B(  0-C ,  5-C ) :   1.2224 B(  0-C ,  9-C ) :   1.0010
B(  1-C ,  2-S ) :   1.1650 B(  1-C , 62-H ) :   0.9535 B(  2-S ,  3-C ) :   1.1553
B(  3-C ,  4-Cl) :   1.1324 B(  3-C ,  5-C ) :   1.4703 B(  5-C ,  6-C ) :   0.9583
B(  6-C ,  7-O ) :   2.2059 B(  6-C ,  8-C ) :   0.9259 B(  8-C ,  9-C ) :   1.0590
B(  8-C , 15-C ) :   1.6811 B(  9-C , 10-C ) :   1.6654 B( 10-C , 11-C ) :   1.1457
B( 10-C , 13-C ) :   1.1329 B( 11-C , 12-N ) :   2.9925 B( 13-C , 14-N ) :   2.9802
B( 15-C , 16-C ) :   1.1201 B( 15-C , 63-H ) :   0.9277 B( 16-C , 17-S ) :   1.1472
B( 16-C , 22-C ) :   1.4303 B( 17-S , 18-C ) :   1.1369 B( 18-C , 19-C ) :   0.9877
B( 18-C , 21-C ) :   1.4789 B( 19-C , 20-O ) :   2.1445 B( 19-C , 64-H ) :   0.9572
B( 21-C , 22-C ) :   1.3522 B( 21-C , 23-C ) :   0.9315 B( 22-C , 65-H ) :   0.9912
B( 23-C , 24-N ) :   1.2253 B( 23-C , 30-C ) :   1.4843 B( 24-N , 25-C ) :   0.9438
B( 24-N , 27-C ) :   1.0421 B( 25-C , 26-C ) :   1.1182 B( 25-C , 66-H ) :   0.9460
B( 25-C , 67-H ) :   0.9310 B( 26-C , 68-H ) :   0.9667 B( 26-C , 69-H ) :   0.9652
B( 26-C , 70-H ) :   0.9635 B( 27-C , 28-O ) :   2.0220 B( 27-C , 29-C ) :   0.9974
B( 28-O , 77-H ) :   0.1158 B( 29-C , 30-C ) :   1.2020 B( 29-C , 36-C ) :   1.3777
B( 30-C , 31-C ) :   0.9512 B( 31-C , 32-O ) :   2.1754 B( 31-C , 33-N ) :   1.0254
B( 33-N , 34-C ) :   0.9459 B( 33-N , 36-C ) :   1.1525 B( 34-C , 35-C ) :   1.1200
B( 34-C , 71-H ) :   0.9506 B( 34-C , 72-H ) :   0.9270 B( 35-C , 73-H ) :   0.9684
B( 35-C , 74-H ) :   0.9680 B( 35-C , 75-H ) :   0.9636 B( 36-C , 37-C ) :   1.1479
B( 37-C , 38-C ) :   1.6466 B( 37-C , 76-H ) :   0.9630 B( 38-C , 39-C ) :   1.1093
B( 38-C , 77-H ) :   0.9362 B( 39-C , 40-S ) :   1.1753 B( 39-C , 45-C ) :   1.4386
B( 40-S , 41-C ) :   1.1212 B( 41-C , 42-C ) :   1.0424 B( 41-C , 44-C ) :   1.4131
B( 42-C , 43-O ) :   2.0812 B( 42-C , 78-H ) :   0.9559 B( 44-C , 45-C ) :   1.3136
B( 44-C , 46-C ) :   1.0080 B( 45-C , 79-H ) :   0.9991 B( 46-C , 47-C ) :   1.8095
B( 46-C , 80-H ) :   0.9417 B( 47-C , 48-C ) :   0.9292 B( 47-C , 55-C ) :   0.9848
B( 48-C , 49-O ) :   2.2862 B( 48-C , 50-C ) :   0.9251 B( 50-C , 51-C ) :   1.4766
B( 50-C , 54-C ) :   1.2260 B( 51-C , 52-S ) :   1.1559 B( 51-C , 61-Cl) :   1.1261
B( 52-S , 53-C ) :   1.1580 B( 53-C , 54-C ) :   1.5503 B( 53-C , 81-H ) :   0.9576
B( 54-C , 55-C ) :   1.0181 B( 55-C , 56-C ) :   1.6930 B( 56-C , 57-C ) :   1.1316
B( 56-C , 59-C ) :   1.1617 B( 57-C , 58-N ) :   3.0088 B( 59-C , 60-N ) :   3.0138

-----------------------------------------------------------------------------
         ABSORPTION SPECTRUM VIA TRANSITION ELECTRIC DIPOLE MOMENTS
-----------------------------------------------------------------------------
State   Energy  Wavelength   fosc         T2         TX        TY        TZ
        (cm-1)    (nm)                  (au**2)     (au)      (au)      (au)
-----------------------------------------------------------------------------
   0   13661.1    732.0   0.011273968   0.27168  -0.05621   0.51647   0.04219
   1   18378.8    544.1   0.426201125   7.63438   0.06444   2.57763   0.99301
   2   21393.1    467.4   0.232644378   3.58010   0.56717   1.78888   0.24151
   3   24371.6    410.3   0.402279962   5.43399   1.03504   0.87989   1.89433
   4   25117.3    398.1   0.029868740   0.39149   0.26124   0.32160   0.46884
   5   25948.3    385.4   0.019269805   0.24448  -0.35308  -0.27291  -0.21292
   6   26869.6    372.2   0.012245450   0.15003   0.03025  -0.36269  -0.13256
   7   27047.7    369.7   0.055236487   0.67231  -0.71501   0.30947  -0.25554
   8   27328.0    365.9   0.000944215   0.01137   0.09302   0.00085  -0.05216
   9   27986.6    357.3   0.030380206   0.35737  -0.01530   0.24052   0.54707
  10   28338.6    352.9   0.016504377   0.19173  -0.04964  -0.39224  -0.18819
  11   28631.3    349.3   0.006273607   0.07214  -0.14863   0.03315   0.22124
  12   29327.5    341.0   0.365426810   4.10205  -1.15810  -0.75715  -1.47904
  13   29578.6    338.1   0.019160911   0.21326  -0.17572  -0.30712  -0.29675
  14   29743.0    336.2   0.037820543   0.41862   0.23362  -0.60050  -0.05862
  15   29798.4    335.6   0.034084946   0.37657  -0.14396  -0.37860  -0.46099
  16   30604.9    326.7   0.432925011   4.65691   0.12289   1.72607   1.28937
  17   30996.0    322.6   0.040891712   0.43431   0.25973  -0.50654  -0.33207
  18   31193.2    320.6   0.013746281   0.14508  -0.10214   0.35326   0.09925
  19   31720.5    315.3   0.053679268   0.55711  -0.00984  -0.68802  -0.28920
  20   31972.6    312.8   0.005959674   0.06136  -0.24668  -0.00653  -0.02166
  21   32485.0    307.8   0.285554238   2.89388  -0.71797   0.77521   1.33321
  22   33327.0    300.1   0.218648690   2.15986  -0.34511   0.80134   1.18263
  23   33353.4    299.8   0.218305002   2.15476  -1.35935   0.22873  -0.50459
  24   33437.8    299.1   0.297625485   2.93027  -1.31214   0.25468   1.06944
  25   33961.7    294.4   0.027971601   0.27115   0.10609  -0.38232   0.33723
  26   34130.5    293.0   0.179898306   1.73524   0.20934  -1.19930  -0.50308
  27   34442.0    290.3   0.108094619   1.03321   1.00111   0.07504   0.15923
  28   35026.8    285.5   0.039825357   0.37431  -0.48534  -0.36840  -0.05514
  29   35046.3    285.3   0.013888982   0.13047   0.03381   0.35413   0.06259
  30   35408.4    282.4   0.076801181   0.71406  -0.18520  -0.63642   0.52416
  31   36033.3    277.5   0.037725499   0.34467  -0.44454   0.38248   0.02754
  32   36105.5    277.0   0.002066453   0.01884  -0.12542   0.00484  -0.05558
  33   36309.4    275.4   0.392859297   3.56200  -1.70818   0.62706   0.50093
  34   36931.2    270.8   0.002723790   0.02428  -0.09362  -0.06559   0.10589
  35   37450.0    267.0   0.184708447   1.62372   1.13988  -0.33817  -0.45828
  36   37959.7    263.4   0.041605782   0.36083  -0.18786   0.43127  -0.37356
  37   38035.8    262.9   0.623891151   5.39998  -0.51062   2.26089  -0.16627
  38   38247.6    261.5   0.016975562   0.14612  -0.03798   0.29073   0.24526
  39   38358.7    260.7   0.042079040   0.36114   0.14460  -0.41272  -0.41218
  40   39013.9    256.3   0.001794891   0.01515   0.09839   0.06064  -0.04229
  41   39100.3    255.8   0.030553330   0.25725   0.40088   0.21865  -0.22076
  42   39517.0    253.1   0.112749997   0.93931   0.50349   0.22379   0.79732
  43   39636.1    252.3   0.053355062   0.44316   0.19455  -0.56233  -0.29849
  44   40137.6    249.1   0.026442380   0.21688   0.17067   0.22304   0.37149

FINAL SINGLE POINT ENERGY     -4977.777187160315

DIPOLE MOMENT
-------------
                                X             Y             Z
Electronic contribution:     16.30667     -19.83624      -6.31702
Nuclear contribution   :    -14.02613      20.37099       6.93730
                        -----------------------------------------
Total Dipole Moment    :      2.28055       0.53475       0.62028
                        -----------------------------------------
Magnitude (a.u.)       :      2.42314
Magnitude (Debye)      :      6.15913

Rotational constants in cm-1:     0.002596     0.000297     0.000289
Rotational constants in MHz :    77.839974     8.907397     8.668262

                             ****ORCA TERMINATED NORMALLY****
TOTAL RUN TIME: 0 days 0 hours 7 minutes 19 seconds 283 msec
