                         Program Version 4.2.0 -  RELEASE  -
|  1> # ORCA input file
|  2> # SCF done       -138.390245502734          0.000914356936
|  3> ! CAM-B3LYP def2-SVP def2/J RIJCOSX Grid4 TightSCF
|  4> %maxcore 5000
|  5> %tddft
|  6>     Mode sTDDFT
|  7>     Ethresh 5.0
|  8>     maxcore 5000
|  9> end
| 10>
| 11> %pal
| 12>   nprocs 6
| 13>   end
| 14> * xyz 0 1
| 15>    C        4.30634         3.47847        -0.58160
| 16>    C        4.15845         4.81793        -0.38927
| 17>    S        5.26900         5.40489         0.79259
| 18>    C        5.95056         3.81432         1.03911
| 19>   Cl        7.20536         3.55191         2.14483
| 20>    C        5.33338         2.90216         0.23478
| 21>    C        5.43585         1.46395        -0.02600
| 22>    O        6.16359         0.65907         0.50576
| 23>    C        4.38737         1.19295        -1.06475
| 24>    C        3.70892         2.44243        -1.39728
| 25>    C        2.72216         2.64635        -2.32236
| 26>    C        2.17752         3.93011        -2.54376
| 27>    N        1.72506         4.96620        -2.73604
| 28>    C        2.14773         1.65615        -3.14468
| 29>    N        1.64564         0.89507        -3.84211
| 30>    C        4.06092        -0.03989        -1.51605
| 31>    C        4.77965        -1.25637        -1.23108
| 32>    C        4.11308        -2.43968        -0.88077
| 33>    N        4.74134        -3.57014        -0.66284
| 34>    C        6.07045        -3.57278        -0.75919
| 35>    N        6.79778        -2.50989        -1.10084
| 36>    C        6.17321        -1.38573        -1.34844
| 37>    C        6.76625        -4.82628        -0.51575
| 38>    C        6.07910        -6.01690        -0.25077
| 39>    N        6.70526        -7.15836        -0.07835
| 40>    C        8.03812        -7.14668        -0.15517
| 41>    N        8.79055        -6.06673        -0.37632
| 42>    C        8.16237        -4.92575        -0.55323
| 43>    C        8.70363        -8.41536        -0.00344
| 44>    S        7.76734        -9.85160         0.15429
| 45>    C        9.20576       -10.81389         0.21830
| 46>    C        9.12444       -12.23570         0.46870
| 47>    O       10.07058       -12.97985         0.56724
| 48>    C       10.35403       -10.03265         0.11978
| 49>    C       10.05617        -8.66613         0.01156
| 50>    C       11.71176       -10.54960         0.18430
| 51>    N       12.27358       -11.38413        -0.74028
| 52>    C       11.67817       -11.82468        -1.97605
| 53>    C       11.50766       -10.67598        -2.96631
| 54>    C       13.60007       -11.72290        -0.39256
| 55>    O       14.30553       -12.43129        -1.08275
| 56>    C       13.82906       -11.03211         0.85363
| 57>    C       12.64203       -10.29358         1.16199
| 58>    C       12.84370        -9.62110         2.42365
| 59>    O       12.13957        -8.88647         3.08343
| 60>    N       14.14745       -10.00236         2.80394
| 61>    C       14.74553        -9.49014         4.01196
| 62>    C       15.73076        -8.35913         3.72498
| 63>    C       14.73364       -10.83967         1.88127
| 64>    C       16.04819       -11.39636         2.04519
| 65>    C       16.61796       -12.18359         1.13156
| 66>    H        3.47551         5.50045        -0.85511
| 67>    H        3.17927        -0.16067        -2.13397
| 68>    H        3.03800        -2.45997        -0.75449
| 69>    H        6.78602        -0.56464        -1.69369
| 70>    H        4.99977        -6.03369        -0.18705
| 71>    H        8.77417        -4.05312        -0.73653
| 72>    H        8.08602       -12.59863         0.58699
| 73>    H       10.79158        -7.88634        -0.06058
| 74>    H       10.71777       -12.30391        -1.77211
| 75>    H       12.36463       -12.57217        -2.38340
| 76>    H       10.82842        -9.92126        -2.57462
| 77>    H       11.10370       -11.05490        -3.90096
| 78>    H       12.46874       -10.20839        -3.16744
| 79>    H       15.23384       -10.30332         4.55678
| 80>    H       13.91770        -9.10945         4.61731
| 81>    H       16.54117        -8.70043         3.08449
| 82>    H       16.15115        -7.99091         4.65689
| 83>    H       15.21821        -7.53998         3.22673
| 84>    H       16.57073       -11.15496         2.96052
| 85>    H       16.11447       -12.43699         0.21372
| 86>    H       17.60194       -12.59271         1.28387
| 87> *
| 88>
| 89>                          ****END OF INPUT****

CARTESIAN COORDINATES (ANGSTROEM)
---------------------------------
  C      4.306340    3.478470   -0.581600
  C      4.158450    4.817930   -0.389270
  S      5.269000    5.404890    0.792590
  C      5.950560    3.814320    1.039110
  Cl     7.205360    3.551910    2.144830
  C      5.333380    2.902160    0.234780
  C      5.435850    1.463950   -0.026000
  O      6.163590    0.659070    0.505760
  C      4.387370    1.192950   -1.064750
  C      3.708920    2.442430   -1.397280
  C      2.722160    2.646350   -2.322360
  C      2.177520    3.930110   -2.543760
  N      1.725060    4.966200   -2.736040
  C      2.147730    1.656150   -3.144680
  N      1.645640    0.895070   -3.842110
  C      4.060920   -0.039890   -1.516050
  C      4.779650   -1.256370   -1.231080
  C      4.113080   -2.439680   -0.880770
  N      4.741340   -3.570140   -0.662840
  C      6.070450   -3.572780   -0.759190
  N      6.797780   -2.509890   -1.100840
  C      6.173210   -1.385730   -1.348440
  C      6.766250   -4.826280   -0.515750
  C      6.079100   -6.016900   -0.250770
  N      6.705260   -7.158360   -0.078350
  C      8.038120   -7.146680   -0.155170
  N      8.790550   -6.066730   -0.376320
  C      8.162370   -4.925750   -0.553230
  C      8.703630   -8.415360   -0.003440
  S      7.767340   -9.851600    0.154290
  C      9.205760  -10.813890    0.218300
  C      9.124440  -12.235700    0.468700
  O     10.070580  -12.979850    0.567240
  C     10.354030  -10.032650    0.119780
  C     10.056170   -8.666130    0.011560
  C     11.711760  -10.549600    0.184300
  N     12.273580  -11.384130   -0.740280
  C     11.678170  -11.824680   -1.976050
  C     11.507660  -10.675980   -2.966310
  C     13.600070  -11.722900   -0.392560
  O     14.305530  -12.431290   -1.082750
  C     13.829060  -11.032110    0.853630
  C     12.642030  -10.293580    1.161990
  C     12.843700   -9.621100    2.423650
  O     12.139570   -8.886470    3.083430
  N     14.147450  -10.002360    2.803940
  C     14.745530   -9.490140    4.011960
  C     15.730760   -8.359130    3.724980
  C     14.733640  -10.839670    1.881270
  C     16.048190  -11.396360    2.045190
  C     16.617960  -12.183590    1.131560
  H      3.475510    5.500450   -0.855110
  H      3.179270   -0.160670   -2.133970
  H      3.038000   -2.459970   -0.754490
  H      6.786020   -0.564640   -1.693690
  H      4.999770   -6.033690   -0.187050
  H      8.774170   -4.053120   -0.736530
  H      8.086020  -12.598630    0.586990
  H     10.791580   -7.886340   -0.060580
  H     10.717770  -12.303910   -1.772110
  H     12.364630  -12.572170   -2.383400
  H     10.828420   -9.921260   -2.574620
  H     11.103700  -11.054900   -3.900960
  H     12.468740  -10.208390   -3.167440
  H     15.233840  -10.303320    4.556780
  H     13.917700   -9.109450    4.617310
  H     16.541170   -8.700430    3.084490
  H     16.151150   -7.990910    4.656890
  H     15.218210   -7.539980    3.226730
  H     16.570730  -11.154960    2.960520
  H     16.114470  -12.436990    0.213720
  H     17.601940  -12.592710    1.283870

 Total Charge           Charge          ....    0
 Multiplicity           Mult            ....    1
 Number of Electrons    NEL             ....  374
 Basis Dimension        Dim             ....  831

ORBITAL ENERGIES
----------------

  NO   OCC          E(Eh)            E(eV)
   0   2.0000    -101.628424     -2765.4500
   1   2.0000     -89.006285     -2421.9842
   2   2.0000     -88.971993     -2421.0510
   3   2.0000     -19.236647      -523.4558
   4   2.0000     -19.212549      -522.8000
   5   2.0000     -19.175961      -521.8044
   6   2.0000     -19.175444      -521.7904
   7   2.0000     -14.440316      -392.9410
   8   2.0000     -14.438470      -392.8907
   9   2.0000     -14.435146      -392.8003
  10   2.0000     -14.432952      -392.7406
  11   2.0000     -14.429851      -392.6562
  12   2.0000     -14.428666      -392.6240
  13   2.0000     -14.421981      -392.4420
  14   2.0000     -14.420850      -392.4113
  15   2.0000     -10.393732      -282.8278
  16   2.0000     -10.388943      -282.6975
  17   2.0000     -10.367882      -282.1244
  18   2.0000     -10.363780      -282.0128
  19   2.0000     -10.363046      -281.9928
  20   2.0000     -10.361202      -281.9426
  21   2.0000     -10.360746      -281.9302
  22   2.0000     -10.360660      -281.9279
  23   2.0000     -10.358758      -281.8761
  24   2.0000     -10.345163      -281.5062
  25   2.0000     -10.344796      -281.4962
  26   2.0000     -10.342170      -281.4247
  27   2.0000     -10.339243      -281.3451
  28   2.0000     -10.336750      -281.2773
  29   2.0000     -10.334441      -281.2144
  30   2.0000     -10.330855      -281.1169
  31   2.0000     -10.330179      -281.0985
  32   2.0000     -10.327715      -281.0314
  33   2.0000     -10.327658      -281.0299
  34   2.0000     -10.325937      -280.9830
  35   2.0000     -10.325577      -280.9732
  36   2.0000     -10.315458      -280.6979
  37   2.0000     -10.312974      -280.6303
  38   2.0000     -10.312246      -280.6105
  39   2.0000     -10.306477      -280.4535
  40   2.0000     -10.303292      -280.3668
  41   2.0000     -10.298959      -280.2489
  42   2.0000     -10.297579      -280.2114
  43   2.0000     -10.290059      -280.0068
  44   2.0000     -10.287516      -279.9375
  45   2.0000     -10.278467      -279.6913
  46   2.0000     -10.270251      -279.4677
  47   2.0000     -10.256656      -279.0978
  48   2.0000     -10.251838      -278.9667
  49   2.0000     -10.246910      -278.8326
  50   2.0000     -10.244622      -278.7704
  51   2.0000      -9.583155      -260.7709
  52   2.0000      -8.102029      -220.4674
  53   2.0000      -8.066990      -219.5140
  54   2.0000      -7.353807      -200.1073
  55   2.0000      -7.343213      -199.8190
  56   2.0000      -7.342613      -199.8027
  57   2.0000      -6.071371      -165.2104
  58   2.0000      -6.066748      -165.0846
  59   2.0000      -6.064341      -165.0191
  60   2.0000      -6.035960      -164.2468
  61   2.0000      -6.031883      -164.1359
  62   2.0000      -6.029706      -164.0766
  63   2.0000      -1.154149       -31.4060
  64   2.0000      -1.126116       -30.6432
  65   2.0000      -1.118560       -30.4376
  66   2.0000      -1.111860       -30.2553
  67   2.0000      -1.107309       -30.1314
  68   2.0000      -1.094685       -29.7879
  69   2.0000      -1.051160       -28.6035
  70   2.0000      -1.050181       -28.5769
  71   2.0000      -1.042094       -28.3568
  72   2.0000      -1.031056       -28.0565
  73   2.0000      -1.012368       -27.5479
  74   2.0000      -1.001697       -27.2576
  75   2.0000      -0.999918       -27.2092
  76   2.0000      -0.996135       -27.1062
  77   2.0000      -0.989340       -26.9213
  78   2.0000      -0.969398       -26.3786
  79   2.0000      -0.946895       -25.7663
  80   2.0000      -0.921436       -25.0735
  81   2.0000      -0.914830       -24.8938
  82   2.0000      -0.910353       -24.7720
  83   2.0000      -0.884035       -24.0558
  84   2.0000      -0.875509       -23.8238
  85   2.0000      -0.864702       -23.5297
  86   2.0000      -0.855915       -23.2906
  87   2.0000      -0.847363       -23.0579
  88   2.0000      -0.845269       -23.0009
  89   2.0000      -0.808543       -22.0016
  90   2.0000      -0.808188       -21.9919
  91   2.0000      -0.788972       -21.4690
  92   2.0000      -0.777059       -21.1448
  93   2.0000      -0.775087       -21.0912
  94   2.0000      -0.767789       -20.8926
  95   2.0000      -0.761850       -20.7310
  96   2.0000      -0.749536       -20.3959
  97   2.0000      -0.742750       -20.2113
  98   2.0000      -0.738832       -20.1046
  99   2.0000      -0.711487       -19.3606
 100   2.0000      -0.702113       -19.1055
 101   2.0000      -0.697706       -18.9855
 102   2.0000      -0.690279       -18.7834
 103   2.0000      -0.684638       -18.6299
 104   2.0000      -0.676887       -18.4190
 105   2.0000      -0.665142       -18.0994
 106   2.0000      -0.647894       -17.6301
 107   2.0000      -0.645253       -17.5582
 108   2.0000      -0.643693       -17.5158
 109   2.0000      -0.638863       -17.3843
 110   2.0000      -0.631992       -17.1974
 111   2.0000      -0.626708       -17.0536
 112   2.0000      -0.623197       -16.9580
 113   2.0000      -0.603819       -16.4308
 114   2.0000      -0.591752       -16.1024
 115   2.0000      -0.589693       -16.0464
 116   2.0000      -0.587291       -15.9810
 117   2.0000      -0.575183       -15.6515
 118   2.0000      -0.572555       -15.5800
 119   2.0000      -0.565562       -15.3897
 120   2.0000      -0.562833       -15.3155
 121   2.0000      -0.558975       -15.2105
 122   2.0000      -0.550052       -14.9677
 123   2.0000      -0.544839       -14.8258
 124   2.0000      -0.540223       -14.7002
 125   2.0000      -0.539126       -14.6704
 126   2.0000      -0.536125       -14.5887
 127   2.0000      -0.533299       -14.5118
 128   2.0000      -0.528378       -14.3779
 129   2.0000      -0.527817       -14.3626
 130   2.0000      -0.524026       -14.2595
 131   2.0000      -0.520040       -14.1510
 132   2.0000      -0.518984       -14.1223
 133   2.0000      -0.517296       -14.0764
 134   2.0000      -0.512661       -13.9502
 135   2.0000      -0.510622       -13.8947
 136   2.0000      -0.509959       -13.8767
 137   2.0000      -0.507811       -13.8182
 138   2.0000      -0.504751       -13.7350
 139   2.0000      -0.501252       -13.6398
 140   2.0000      -0.500026       -13.6064
 141   2.0000      -0.499489       -13.5918
 142   2.0000      -0.494225       -13.4486
 143   2.0000      -0.486447       -13.2369
 144   2.0000      -0.482841       -13.1388
 145   2.0000      -0.471280       -12.8242
 146   2.0000      -0.468517       -12.7490
 147   2.0000      -0.465966       -12.6796
 148   2.0000      -0.465867       -12.6769
 149   2.0000      -0.460382       -12.5276
 150   2.0000      -0.459398       -12.5009
 151   2.0000      -0.457338       -12.4448
 152   2.0000      -0.453991       -12.3537
 153   2.0000      -0.449330       -12.2269
 154   2.0000      -0.447106       -12.1664
 155   2.0000      -0.446332       -12.1453
 156   2.0000      -0.445187       -12.1141
 157   2.0000      -0.441325       -12.0091
 158   2.0000      -0.436215       -11.8700
 159   2.0000      -0.432251       -11.7622
 160   2.0000      -0.430968       -11.7272
 161   2.0000      -0.429498       -11.6872
 162   2.0000      -0.425265       -11.5721
 163   2.0000      -0.416047       -11.3212
 164   2.0000      -0.415721       -11.3124
 165   2.0000      -0.413222       -11.2443
 166   2.0000      -0.411568       -11.1993
 167   2.0000      -0.409603       -11.1459
 168   2.0000      -0.408136       -11.1059
 169   2.0000      -0.402157       -10.9433
 170   2.0000      -0.390363       -10.6223
 171   2.0000      -0.384306       -10.4575
 172   2.0000      -0.375717       -10.2238
 173   2.0000      -0.360429        -9.8078
 174   2.0000      -0.349864        -9.5203
 175   2.0000      -0.341950        -9.3049
 176   2.0000      -0.339769        -9.2456
 177   2.0000      -0.335556        -9.1309
 178   2.0000      -0.334579        -9.1044
 179   2.0000      -0.333853        -9.0846
 180   2.0000      -0.330312        -8.9883
 181   2.0000      -0.327950        -8.9240
 182   2.0000      -0.319676        -8.6988
 183   2.0000      -0.316254        -8.6057
 184   2.0000      -0.299858        -8.1595
 185   2.0000      -0.295023        -8.0280
 186   2.0000      -0.237968        -6.4755
 187   0.0000      -0.109204        -2.9716
 188   0.0000      -0.071555        -1.9471
 189   0.0000      -0.062653        -1.7049
 190   0.0000      -0.047396        -1.2897
 191   0.0000      -0.024350        -0.6626

MULLIKEN ATOMIC CHARGES
-----------------------
   0 C :    0.031227
   1 C :   -0.127303
   2 S :    0.197949
   3 C :   -0.168484
   4 Cl:    0.008627
   5 C :    0.073119
   6 C :    0.138654
   7 O :   -0.119983
   8 C :   -0.089406
   9 C :    0.290853
  10 C :   -0.317844
  11 C :   -0.192681
  12 N :    0.164600
  13 C :   -0.191400
  14 N :    0.167078
  15 C :   -0.022453
  16 C :   -0.025394
  17 C :    0.060938
  18 N :   -0.050887
  19 C :   -0.061306
  20 N :   -0.055461
  21 C :    0.113346
  22 C :    0.010439
  23 C :    0.059811
  24 N :   -0.063385
  25 C :   -0.055381
  26 N :   -0.042669
  27 C :    0.062321
  28 C :   -0.037460
  29 S :    0.206579
  30 C :   -0.165829
  31 C :    0.178229
  32 O :   -0.179797
  33 C :    0.023210
  34 C :    0.023266
  35 C :    0.063806
  36 N :   -0.239715
  37 C :    0.122333
  38 C :   -0.007380
  39 C :    0.171890
  40 O :   -0.209057
  41 C :   -0.077103
  42 C :   -0.006669
  43 C :    0.127318
  44 O :   -0.192115
  45 N :   -0.274029
  46 C :    0.100134
  47 C :    0.007577
  48 C :    0.116034
  49 C :   -0.036322
  50 C :    0.016671
  51 H :    0.057920
  52 H :    0.042614
  53 H :    0.014423
  54 H :    0.011218
  55 H :    0.024424
  56 H :    0.023323
  57 H :   -0.014673
  58 H :    0.007976
  59 H :    0.018862
  60 H :    0.041975
  61 H :    0.021086
  62 H :    0.018009
  63 H :    0.020942
  64 H :    0.021894
  65 H :    0.041823
  66 H :    0.014092
  67 H :    0.018579
  68 H :    0.026907
  69 H :   -0.020917
  70 H :    0.055852
  71 H :    0.027171
Sum of atomic charges:    0.0000000

LOEWDIN ATOMIC CHARGES
----------------------
   0 C :   -0.060165
   1 C :   -0.146819
   2 S :    0.486356
   3 C :   -0.269975
   4 Cl:    0.198983
   5 C :   -0.119147
   6 C :    0.080795
   7 O :   -0.121262
   8 C :   -0.075090
   9 C :    0.072705
  10 C :   -0.127424
  11 C :   -0.015576
  12 N :   -0.042360
  13 C :   -0.023469
  14 N :   -0.037827
  15 C :    0.073389
  16 C :   -0.084751
  17 C :    0.067904
  18 N :   -0.079173
  19 C :    0.046610
  20 N :   -0.075726
  21 C :    0.089090
  22 C :   -0.093339
  23 C :    0.079291
  24 N :   -0.092562
  25 C :    0.022591
  26 N :   -0.076958
  27 C :    0.080894
  28 C :   -0.175450
  29 S :    0.507692
  30 C :   -0.229523
  31 C :    0.084183
  32 O :   -0.132253
  33 C :   -0.031326
  34 C :   -0.002799
  35 C :    0.075964
  36 N :    0.012408
  37 C :    0.037306
  38 C :   -0.063320
  39 C :    0.084546
  40 O :   -0.199671
  41 C :   -0.127877
  42 C :   -0.119441
  43 C :    0.079950
  44 O :   -0.198104
  45 N :   -0.008145
  46 C :    0.035348
  47 C :   -0.061610
  48 C :    0.084961
  49 C :   -0.054829
  50 C :    0.024975
  51 H :    0.039259
  52 H :    0.049909
  53 H :    0.030564
  54 H :    0.029092
  55 H :    0.031634
  56 H :    0.031981
  57 H :   -0.004214
  58 H :    0.043813
  59 H :    0.021741
  60 H :    0.036543
  61 H :    0.022243
  62 H :    0.028998
  63 H :    0.027898
  64 H :    0.021815
  65 H :    0.036880
  66 H :    0.021624
  67 H :    0.028705
  68 H :    0.031331
  69 H :    0.028510
  70 H :    0.033195
  71 H :    0.028510

  Mayer bond orders larger than 0.100000
B(  0-C ,  1-C ) :   1.5381 B(  0-C ,  5-C ) :   1.2196 B(  0-C ,  9-C ) :   1.0089
B(  1-C ,  2-S ) :   1.1676 B(  1-C , 51-H ) :   0.9540 B(  2-S ,  3-C ) :   1.1564
B(  3-C ,  4-Cl) :   1.1363 B(  3-C ,  5-C ) :   1.4710 B(  5-C ,  6-C ) :   0.9510
B(  6-C ,  7-O ) :   2.2517 B(  6-C ,  8-C ) :   0.9176 B(  8-C ,  9-C ) :   1.0383
B(  8-C , 15-C ) :   1.7484 B(  9-C , 10-C ) :   1.6758 B( 10-C , 11-C ) :   1.1423
B( 10-C , 13-C ) :   1.1369 B( 11-C , 12-N ) :   2.9929 B( 13-C , 14-N ) :   2.9749
B( 15-C , 16-C ) :   1.0217 B( 15-C , 52-H ) :   0.9405 B( 16-C , 17-C ) :   1.3231
B( 16-C , 21-C ) :   1.3118 B( 17-C , 18-N ) :   1.5616 B( 17-C , 53-H ) :   0.9917
B( 18-N , 19-C ) :   1.5760 B( 19-C , 20-N ) :   1.5650 B( 19-C , 22-C ) :   0.9742
B( 20-N , 21-C ) :   1.5802 B( 21-C , 54-H ) :   0.9842 B( 22-C , 23-C ) :   1.3379
B( 22-C , 27-C ) :   1.3329 B( 23-C , 24-N ) :   1.5533 B( 23-C , 55-H ) :   0.9760
B( 24-N , 25-C ) :   1.5831 B( 25-C , 26-N ) :   1.5938 B( 25-C , 28-C ) :   1.0092
B( 26-N , 27-C ) :   1.5509 B( 27-C , 56-H ) :   0.9771 B( 28-C , 29-S ) :   1.1727
B( 28-C , 34-C ) :   1.4727 B( 29-S , 30-C ) :   1.1141 B( 30-C , 31-C ) :   1.0054
B( 30-C , 33-C ) :   1.4728 B( 31-C , 32-O ) :   2.1274 B( 31-C , 57-H ) :   0.9547
B( 33-C , 34-C ) :   1.2968 B( 33-C , 35-C ) :   0.9511 B( 34-C , 58-H ) :   1.0125
B( 35-C , 36-N ) :   1.2158 B( 35-C , 42-C ) :   1.4908 B( 36-N , 37-C ) :   0.9489
B( 36-N , 39-C ) :   1.0376 B( 37-C , 38-C ) :   1.1139 B( 37-C , 59-H ) :   0.9463
B( 37-C , 60-H ) :   0.9293 B( 38-C , 61-H ) :   0.9704 B( 38-C , 62-H ) :   0.9664
B( 38-C , 63-H ) :   0.9646 B( 39-C , 40-O ) :   2.0433 B( 39-C , 41-C ) :   0.9950
B( 41-C , 42-C ) :   1.1875 B( 41-C , 48-C ) :   1.4069 B( 42-C , 43-C ) :   0.9568
B( 43-C , 44-O ) :   2.1656 B( 43-C , 45-N ) :   1.0239 B( 45-N , 46-C ) :   0.9495
B( 45-N , 48-C ) :   1.1603 B( 46-C , 47-C ) :   1.1188 B( 46-C , 64-H ) :   0.9510
B( 46-C , 65-H ) :   0.9273 B( 47-C , 66-H ) :   0.9687 B( 47-C , 67-H ) :   0.9678
B( 47-C , 68-H ) :   0.9639 B( 48-C , 49-C ) :   1.1181 B( 49-C , 50-C ) :   1.8953
B( 49-C , 69-H ) :   0.9540 B( 50-C , 70-H ) :   0.9266 B( 50-C , 71-H ) :   0.9445

-----------------------------------------------------------------------------
         ABSORPTION SPECTRUM VIA TRANSITION ELECTRIC DIPOLE MOMENTS
-----------------------------------------------------------------------------
State   Energy  Wavelength   fosc         T2         TX        TY        TZ
        (cm-1)    (nm)                  (au**2)     (au)      (au)      (au)
-----------------------------------------------------------------------------
   0   18316.6    546.0   0.036280786   0.65209   0.67721   0.23457   0.37210
   1   21617.0    462.6   0.097359165   1.48272  -0.98498   0.24893  -0.67124
   2   24771.1    403.7   0.800551398  10.63947   1.61519  -2.68796   0.89750
   3   25150.9    397.6   0.225120818   2.94672   0.51466   1.22390   1.08808
   4   27842.1    359.2   0.026839849   0.31736  -0.29331   0.45647  -0.15153
   5   28939.1    345.6   0.019363303   0.22028  -0.24920   0.39533  -0.04350
   6   29180.7    342.7   0.334768521   3.77680   0.80728  -1.75356   0.22391
   7   29452.0    339.5   0.153273530   1.71328  -0.09276   1.26757   0.31295
   8   30056.7    332.7   0.005014165   0.05492   0.02323   0.09046   0.21494
   9   30517.2    327.7   0.001282471   0.01383  -0.02432   0.11439  -0.01256
  10   31318.6    319.3   0.005404686   0.05681   0.07132  -0.22592  -0.02618
  11   31601.8    316.4   0.003404652   0.03547  -0.18010  -0.03674   0.04104
  12   32333.0    309.3   0.057022488   0.58060  -0.15487   0.71046   0.22772
  13   32607.4    306.7   0.130787435   1.32046   0.05258   1.11190   0.28527
  14   32879.1    304.1   0.048621063   0.48683   0.42620   0.22532   0.50439
  15   32934.5    303.6   0.001744442   0.01744  -0.08152  -0.06754   0.07893
  16   34365.2    291.0   0.378640158   3.62730   0.77188  -1.66210   0.51858
  17   35177.8    284.3   0.016317962   0.15271   0.00676   0.37913  -0.09449
  18   35928.1    278.3   0.038659638   0.35424  -0.10091   0.55908   0.17743
  19   36101.4    277.0   0.084939646   0.77457   0.20764  -0.85077   0.08741
  20   36121.3    276.8   0.000184632   0.00168   0.01393   0.01988  -0.03307
  21   36321.7    275.3   0.012770044   0.11574  -0.05614   0.31644  -0.11163
  22   36890.1    271.1   0.334542658   2.98550  -0.24768  -1.46928  -0.87485
  23   37004.3    270.2   0.117498914   1.04534   0.72395  -0.64777   0.31879
  24   37349.4    267.7   0.287637490   2.53535  -1.19024   0.24239  -1.02953
  25   38132.5    262.2   0.243017497   2.09806   1.31828   0.08773   0.59373
  26   38249.2    261.4   0.205180387   1.76599   0.45708   0.79890   0.95856
  27   38755.8    258.0   0.016577393   0.14082   0.26213   0.13202   0.23383
  28   39813.8    251.2   0.029365400   0.24282  -0.47445   0.10872  -0.07674
  29   39969.4    250.2   0.011611147   0.09564   0.22561   0.07515   0.19771
  30   40102.6    249.4   0.019620372   0.16107   0.00821  -0.26447  -0.30176

FINAL SINGLE POINT ENERGY     -3376.897611345076

DIPOLE MOMENT
-------------
                                X             Y             Z
Electronic contribution:    -57.02266      76.49551      -0.75045
Nuclear contribution   :     56.83673     -73.83368       1.45623
                        -----------------------------------------
Total Dipole Moment    :     -0.18592       2.66183       0.70578
                        -----------------------------------------
Magnitude (a.u.)       :      2.76008
Magnitude (Debye)      :      7.01556

Rotational constants in cm-1:     0.003463     0.000445     0.000408
Rotational constants in MHz :   103.828069    13.332997    12.246326

                             ****ORCA TERMINATED NORMALLY****
TOTAL RUN TIME: 0 days 0 hours 5 minutes 6 seconds 180 msec
