                         Program Version 4.2.0 -  RELEASE  -
|  1> # ORCA input file
|  2> # SCF done       -213.303497310859          0.000662069885
|  3> ! CAM-B3LYP def2-SVP def2/J RIJCOSX Grid4 TightSCF
|  4> %maxcore 5000
|  5> %tddft
|  6>     Mode sTDDFT
|  7>     Ethresh 5.0
|  8>     maxcore 5000
|  9> end
| 10>
| 11> %pal
| 12>   nprocs 6
| 13>   end
| 14> * xyz 0 1
| 15>    C       13.00427        -2.02404        -3.77018
| 16>    C       13.66181        -3.20878        -3.88367
| 17>    S       15.01553        -3.07205        -4.94594
| 18>    C       14.69813        -1.37728        -5.23791
| 19>   Cl       15.68806        -0.45816        -6.25879
| 20>    C       13.59639        -0.97286        -4.54552
| 21>    C       12.82941         0.26558        -4.36653
| 22>    O       13.04568         1.36495        -4.81079
| 23>    C       11.65068        -0.14546        -3.53123
| 24>    C       11.86760        -1.49300        -3.04245
| 25>    C       11.27629        -2.11540        -1.97474
| 26>    C       11.62153        -3.43269        -1.60852
| 27>    N       11.86735        -4.51298        -1.31013
| 28>    C       10.31927        -1.53825        -1.12151
| 29>    N        9.54215        -1.12014        -0.38601
| 30>    C       10.59998         0.70809        -3.43409
| 31>    C        9.26112         0.46170        -3.00691
| 32>    C        8.48664         1.52139        -2.48607
| 33>    C        7.14538         1.32425        -2.03571
| 34>    N        6.51070         2.31035        -1.36562
| 35>    C        7.07714         3.46603        -1.28468
| 36>    C        8.35646         3.70695        -1.86608
| 37>    N        9.04314         2.75163        -2.39668
| 38>    F        8.89747         4.91710        -1.83122
| 39>    F        6.45560         4.41323        -0.58926
| 40>    C        6.46186         0.10202        -2.22193
| 41>    C        7.21130        -0.95129        -2.77070
| 42>    C        8.59688        -0.77403        -3.15029
| 43>    N        9.09525        -1.88087        -3.70782
| 44>    S        7.95967        -3.01237        -3.74410
| 45>    N        6.77272        -2.17544        -3.07456
| 46>    C        5.04808         0.09848        -1.98045
| 47>    N        4.28356        -0.86561        -1.39220
| 48>    C        4.73510        -2.08209        -0.75384
| 49>    C        4.28730        -3.31648        -1.52875
| 50>    C        2.92874        -0.47852        -1.32403
| 51>    O        2.07566        -1.14865        -0.77262
| 52>    C        2.88331         0.81543        -1.96657
| 53>    C        4.20849         1.14784        -2.33886
| 54>    C        4.17896         2.41199        -3.04735
| 55>    O        5.04446         3.08213        -3.56815
| 56>    N        2.81901         2.77281        -3.03176
| 57>    C        2.37847         4.02176        -3.60760
| 58>    C        1.98885         3.86291        -5.07562
| 59>    C        2.03899         1.84458        -2.39158
| 60>    C        0.61956         1.95402        -2.34880
| 61>    C       -0.23372         1.35280        -1.48583
| 62>    C        0.06425         0.68746        -0.25603
| 63>    C       -0.80740        -0.31876         0.21536
| 64>    C       -0.55220        -1.04429         1.42112
| 65>    N       -1.38084        -2.04896         1.79092
| 66>    C       -2.39546        -2.32340         1.04300
| 67>    C       -2.67179        -1.57505        -0.13842
| 68>    N       -1.89736        -0.61974        -0.52841
| 69>    F       -3.74722        -1.84240        -0.87236
| 70>    F       -3.18754        -3.32460         1.40723
| 71>    C        0.52274        -0.72177         2.27577
| 72>    C        1.37968         0.30055         1.82778
| 73>    C        1.15415         0.99351         0.58054
| 74>    N        2.08128         1.93139         0.36902
| 75>    S        3.13940         1.91076         1.56422
| 76>    N        2.48603         0.73761         2.43969
| 77>    C        0.71850        -1.45996         3.48426
| 78>    C        1.26196        -1.05292         4.65725
| 79>    C        1.69126        -2.09034         5.65532
| 80>    O        1.43578        -3.26774         5.62052
| 81>    C        2.51174        -1.34827         6.61947
| 82>    C        3.27176        -1.63167         7.71480
| 83>    S        3.97238        -0.16891         8.36793
| 84>    C        3.22008         0.80799         7.16046
| 85>    C        2.48286         0.05086         6.30459
| 86>    C        1.61180         0.26170         5.16474
| 87>    C        1.08255         1.47365         4.81058
| 88>    C        1.50270         2.66948         5.42932
| 89>    N        1.84784         3.65475         5.90513
| 90>    C        0.05720         1.66650         3.86692
| 91>    N       -0.79363         1.88335         3.12668
| 92>   Cl        3.55918        -3.14091         8.42616
| 93>    H       13.44410        -4.15440        -3.42837
| 94>    H       10.79520         1.72667        -3.75509
| 95>    H        4.29712        -2.10692         0.24988
| 96>    H        5.82139        -2.04556        -0.67012
| 97>    H        4.63757        -4.21101        -1.02216
| 98>    H        4.69637        -3.29479        -2.53452
| 99>    H        3.20225        -3.34427        -1.57950
|100>    H        3.22377         4.71175        -3.53476
|101>    H        1.54850         4.41495        -3.01683
|102>    H        2.84483         3.51429        -5.64774
|103>    H        1.67127         4.82139        -5.47628
|104>    H        1.17830         3.14764        -5.19564
|105>    H        0.17898         2.53975        -3.14494
|106>    H       -1.28835         1.36141        -1.72878
|107>    H        0.40373        -2.49819         3.44700
|108>    H        3.38279         1.86748         7.16390
|109> *
|110>
|111>                          ****END OF INPUT****

CARTESIAN COORDINATES (ANGSTROEM)
---------------------------------
  C     13.004270   -2.024040   -3.770180
  C     13.661810   -3.208780   -3.883670
  S     15.015530   -3.072050   -4.945940
  C     14.698130   -1.377280   -5.237910
  Cl    15.688060   -0.458160   -6.258790
  C     13.596390   -0.972860   -4.545520
  C     12.829410    0.265580   -4.366530
  O     13.045680    1.364950   -4.810790
  C     11.650680   -0.145460   -3.531230
  C     11.867600   -1.493000   -3.042450
  C     11.276290   -2.115400   -1.974740
  C     11.621530   -3.432690   -1.608520
  N     11.867350   -4.512980   -1.310130
  C     10.319270   -1.538250   -1.121510
  N      9.542150   -1.120140   -0.386010
  C     10.599980    0.708090   -3.434090
  C      9.261120    0.461700   -3.006910
  C      8.486640    1.521390   -2.486070
  C      7.145380    1.324250   -2.035710
  N      6.510700    2.310350   -1.365620
  C      7.077140    3.466030   -1.284680
  C      8.356460    3.706950   -1.866080
  N      9.043140    2.751630   -2.396680
  F      8.897470    4.917100   -1.831220
  F      6.455600    4.413230   -0.589260
  C      6.461860    0.102020   -2.221930
  C      7.211300   -0.951290   -2.770700
  C      8.596880   -0.774030   -3.150290
  N      9.095250   -1.880870   -3.707820
  S      7.959670   -3.012370   -3.744100
  N      6.772720   -2.175440   -3.074560
  C      5.048080    0.098480   -1.980450
  N      4.283560   -0.865610   -1.392200
  C      4.735100   -2.082090   -0.753840
  C      4.287300   -3.316480   -1.528750
  C      2.928740   -0.478520   -1.324030
  O      2.075660   -1.148650   -0.772620
  C      2.883310    0.815430   -1.966570
  C      4.208490    1.147840   -2.338860
  C      4.178960    2.411990   -3.047350
  O      5.044460    3.082130   -3.568150
  N      2.819010    2.772810   -3.031760
  C      2.378470    4.021760   -3.607600
  C      1.988850    3.862910   -5.075620
  C      2.038990    1.844580   -2.391580
  C      0.619560    1.954020   -2.348800
  C     -0.233720    1.352800   -1.485830
  C      0.064250    0.687460   -0.256030
  C     -0.807400   -0.318760    0.215360
  C     -0.552200   -1.044290    1.421120
  N     -1.380840   -2.048960    1.790920
  C     -2.395460   -2.323400    1.043000
  C     -2.671790   -1.575050   -0.138420
  N     -1.897360   -0.619740   -0.528410
  F     -3.747220   -1.842400   -0.872360
  F     -3.187540   -3.324600    1.407230
  C      0.522740   -0.721770    2.275770
  C      1.379680    0.300550    1.827780
  C      1.154150    0.993510    0.580540
  N      2.081280    1.931390    0.369020
  S      3.139400    1.910760    1.564220
  N      2.486030    0.737610    2.439690
  C      0.718500   -1.459960    3.484260
  C      1.261960   -1.052920    4.657250
  C      1.691260   -2.090340    5.655320
  O      1.435780   -3.267740    5.620520
  C      2.511740   -1.348270    6.619470
  C      3.271760   -1.631670    7.714800
  S      3.972380   -0.168910    8.367930
  C      3.220080    0.807990    7.160460
  C      2.482860    0.050860    6.304590
  C      1.611800    0.261700    5.164740
  C      1.082550    1.473650    4.810580
  C      1.502700    2.669480    5.429320
  N      1.847840    3.654750    5.905130
  C      0.057200    1.666500    3.866920
  N     -0.793630    1.883350    3.126680
  Cl     3.559180   -3.140910    8.426160
  H     13.444100   -4.154400   -3.428370
  H     10.795200    1.726670   -3.755090
  H      4.297120   -2.106920    0.249880
  H      5.821390   -2.045560   -0.670120
  H      4.637570   -4.211010   -1.022160
  H      4.696370   -3.294790   -2.534520
  H      3.202250   -3.344270   -1.579500
  H      3.223770    4.711750   -3.534760
  H      1.548500    4.414950   -3.016830
  H      2.844830    3.514290   -5.647740
  H      1.671270    4.821390   -5.476280
  H      1.178300    3.147640   -5.195640
  H      0.178980    2.539750   -3.144940
  H     -1.288350    1.361410   -1.728780
  H      0.403730   -2.498190    3.447000
  H      3.382790    1.867480    7.163900

 Total Charge           Charge          ....    0
 Multiplicity           Mult            ....    1
 Number of Electrons    NEL             ....  580
 Basis Dimension        Dim             .... 1196

ORBITAL ENERGIES
----------------

  NO   OCC          E(Eh)            E(eV)
   0   2.0000    -101.616191     -2765.1171
   1   2.0000    -101.614110     -2765.0605
   2   2.0000     -89.050456     -2423.1861
   3   2.0000     -89.044375     -2423.0206
   4   2.0000     -88.991808     -2421.5902
   5   2.0000     -88.989907     -2421.5385
   6   2.0000     -24.818382      -675.3425
   7   2.0000     -24.816485      -675.2909
   8   2.0000     -24.815724      -675.2702
   9   2.0000     -24.815090      -675.2529
  10   2.0000     -19.218149      -522.9524
  11   2.0000     -19.216319      -522.9026
  12   2.0000     -19.206618      -522.6386
  13   2.0000     -19.200867      -522.4822
  14   2.0000     -14.465104      -393.6155
  15   2.0000     -14.463806      -393.5802
  16   2.0000     -14.460149      -393.4807
  17   2.0000     -14.455831      -393.3632
  18   2.0000     -14.455395      -393.3513
  19   2.0000     -14.455118      -393.3438
  20   2.0000     -14.454813      -393.3355
  21   2.0000     -14.452988      -393.2858
  22   2.0000     -14.450143      -393.2084
  23   2.0000     -14.448222      -393.1561
  24   2.0000     -14.423685      -392.4884
  25   2.0000     -14.420883      -392.4122
  26   2.0000     -14.420289      -392.3960
  27   2.0000     -14.418417      -392.3451
  28   2.0000     -10.435865      -283.9743
  29   2.0000     -10.433337      -283.9055
  30   2.0000     -10.431829      -283.8645
  31   2.0000     -10.429444      -283.7996
  32   2.0000     -10.386693      -282.6363
  33   2.0000     -10.381295      -282.4894
  34   2.0000     -10.374912      -282.3157
  35   2.0000     -10.373920      -282.2887
  36   2.0000     -10.372797      -282.2581
  37   2.0000     -10.372000      -282.2365
  38   2.0000     -10.355439      -281.7858
  39   2.0000     -10.354833      -281.7693
  40   2.0000     -10.352122      -281.6956
  41   2.0000     -10.349859      -281.6340
  42   2.0000     -10.349772      -281.6316
  43   2.0000     -10.349218      -281.6166
  44   2.0000     -10.347027      -281.5569
  45   2.0000     -10.346703      -281.5481
  46   2.0000     -10.346637      -281.5463
  47   2.0000     -10.345773      -281.5228
  48   2.0000     -10.344622      -281.4915
  49   2.0000     -10.343644      -281.4649
  50   2.0000     -10.338691      -281.3301
  51   2.0000     -10.337181      -281.2890
  52   2.0000     -10.329836      -281.0891
  53   2.0000     -10.327732      -281.0319
  54   2.0000     -10.326285      -280.9925
  55   2.0000     -10.325457      -280.9700
  56   2.0000     -10.323267      -280.9104
  57   2.0000     -10.322624      -280.8929
  58   2.0000     -10.320783      -280.8428
  59   2.0000     -10.318856      -280.7904
  60   2.0000     -10.318407      -280.7781
  61   2.0000     -10.317853      -280.7630
  62   2.0000     -10.317406      -280.7509
  63   2.0000     -10.315593      -280.7016
  64   2.0000     -10.314338      -280.6674
  65   2.0000     -10.311474      -280.5895
  66   2.0000     -10.309328      -280.5311
  67   2.0000     -10.308841      -280.5178
  68   2.0000     -10.307456      -280.4801
  69   2.0000     -10.305264      -280.4205
  70   2.0000     -10.304966      -280.4124
  71   2.0000     -10.303080      -280.3611
  72   2.0000     -10.298679      -280.2413
  73   2.0000     -10.296700      -280.1874
  74   2.0000     -10.276015      -279.6246
  75   2.0000     -10.271068      -279.4900
  76   2.0000     -10.270795      -279.4826
  77   2.0000     -10.249577      -278.9052
  78   2.0000      -9.570955      -260.4389
  79   2.0000      -9.568915      -260.3834
  80   2.0000      -8.141459      -221.5404
  81   2.0000      -8.134981      -221.3641
  82   2.0000      -8.087530      -220.0729
  83   2.0000      -8.085611      -220.0207
  84   2.0000      -7.341551      -199.7738
  85   2.0000      -7.339548      -199.7193
  86   2.0000      -7.331021      -199.4872
  87   2.0000      -7.330486      -199.4727
  88   2.0000      -7.328941      -199.4306
  89   2.0000      -7.328425      -199.4166
  90   2.0000      -6.112460      -166.3285
  91   2.0000      -6.105930      -166.1508
  92   2.0000      -6.104746      -166.1186
  93   2.0000      -6.104396      -166.1091
  94   2.0000      -6.098263      -165.9422
  95   2.0000      -6.098059      -165.9366
  96   2.0000      -6.056920      -164.8172
  97   2.0000      -6.055014      -164.7653
  98   2.0000      -6.052338      -164.6925
  99   2.0000      -6.050390      -164.6395
 100   2.0000      -6.049746      -164.6220
 101   2.0000      -6.047842      -164.5701
 102   2.0000      -1.345945       -36.6250
 103   2.0000      -1.345210       -36.6050
 104   2.0000      -1.331262       -36.2255
 105   2.0000      -1.330865       -36.2147
 106   2.0000      -1.148100       -31.2414
 107   2.0000      -1.146324       -31.1931
 108   2.0000      -1.141030       -31.0490
 109   2.0000      -1.136333       -30.9212
 110   2.0000      -1.135633       -30.9021
 111   2.0000      -1.133658       -30.8484
 112   2.0000      -1.115802       -30.3625
 113   2.0000      -1.114222       -30.3195
 114   2.0000      -1.076174       -29.2842
 115   2.0000      -1.067154       -29.0387
 116   2.0000      -1.040278       -28.3074
 117   2.0000      -1.040077       -28.3019
 118   2.0000      -1.036775       -28.2121
 119   2.0000      -1.034669       -28.1548
 120   2.0000      -1.020109       -27.7586
 121   2.0000      -1.016992       -27.6738
 122   2.0000      -1.002986       -27.2926
 123   2.0000      -0.999247       -27.1909
 124   2.0000      -0.998995       -27.1840
 125   2.0000      -0.993629       -27.0380
 126   2.0000      -0.987385       -26.8681
 127   2.0000      -0.984773       -26.7970
 128   2.0000      -0.980007       -26.6674
 129   2.0000      -0.975809       -26.5531
 130   2.0000      -0.951961       -25.9042
 131   2.0000      -0.949714       -25.8430
 132   2.0000      -0.936483       -25.4830
 133   2.0000      -0.923243       -25.1227
 134   2.0000      -0.915524       -24.9127
 135   2.0000      -0.904661       -24.6171
 136   2.0000      -0.902262       -24.5518
 137   2.0000      -0.891374       -24.2555
 138   2.0000      -0.888434       -24.1755
 139   2.0000      -0.882806       -24.0224
 140   2.0000      -0.877813       -23.8865
 141   2.0000      -0.863671       -23.5017
 142   2.0000      -0.853268       -23.2186
 143   2.0000      -0.831654       -22.6305
 144   2.0000      -0.829359       -22.5680
 145   2.0000      -0.825091       -22.4519
 146   2.0000      -0.821895       -22.3649
 147   2.0000      -0.816254       -22.2114
 148   2.0000      -0.809920       -22.0390
 149   2.0000      -0.801748       -21.8167
 150   2.0000      -0.784362       -21.3436
 151   2.0000      -0.779616       -21.2144
 152   2.0000      -0.768483       -20.9115
 153   2.0000      -0.763678       -20.7807
 154   2.0000      -0.762880       -20.7590
 155   2.0000      -0.756437       -20.5837
 156   2.0000      -0.752636       -20.4803
 157   2.0000      -0.748063       -20.3558
 158   2.0000      -0.745022       -20.2731
 159   2.0000      -0.723944       -19.6995
 160   2.0000      -0.714104       -19.4318
 161   2.0000      -0.708909       -19.2904
 162   2.0000      -0.699836       -19.0435
 163   2.0000      -0.696457       -18.9516
 164   2.0000      -0.694007       -18.8849
 165   2.0000      -0.686907       -18.6917
 166   2.0000      -0.685856       -18.6631
 167   2.0000      -0.676345       -18.4043
 168   2.0000      -0.675202       -18.3732
 169   2.0000      -0.675002       -18.3677
 170   2.0000      -0.672774       -18.3071
 171   2.0000      -0.665313       -18.1041
 172   2.0000      -0.664616       -18.0851
 173   2.0000      -0.658922       -17.9302
 174   2.0000      -0.657438       -17.8898
 175   2.0000      -0.646209       -17.5842
 176   2.0000      -0.637851       -17.3568
 177   2.0000      -0.631770       -17.1913
 178   2.0000      -0.627997       -17.0887
 179   2.0000      -0.622546       -16.9403
 180   2.0000      -0.619218       -16.8498
 181   2.0000      -0.618881       -16.8406
 182   2.0000      -0.617213       -16.7952
 183   2.0000      -0.616659       -16.7802
 184   2.0000      -0.608121       -16.5478
 185   2.0000      -0.606087       -16.4925
 186   2.0000      -0.603559       -16.4237
 187   2.0000      -0.599297       -16.3077
 188   2.0000      -0.591708       -16.1012
 189   2.0000      -0.587398       -15.9839
 190   2.0000      -0.583868       -15.8879
 191   2.0000      -0.577500       -15.7146
 192   2.0000      -0.574927       -15.6446
 193   2.0000      -0.572316       -15.5735
 194   2.0000      -0.571639       -15.5551
 195   2.0000      -0.568098       -15.4587
 196   2.0000      -0.565953       -15.4004
 197   2.0000      -0.558747       -15.2043
 198   2.0000      -0.556058       -15.1311
 199   2.0000      -0.552229       -15.0269
 200   2.0000      -0.551128       -14.9970
 201   2.0000      -0.546366       -14.8674
 202   2.0000      -0.544311       -14.8114
 203   2.0000      -0.537773       -14.6336
 204   2.0000      -0.537255       -14.6194
 205   2.0000      -0.536288       -14.5931
 206   2.0000      -0.533704       -14.5228
 207   2.0000      -0.530503       -14.4357
 208   2.0000      -0.529774       -14.4159
 209   2.0000      -0.528026       -14.3683
 210   2.0000      -0.525493       -14.2994
 211   2.0000      -0.523984       -14.2583
 212   2.0000      -0.523361       -14.2414
 213   2.0000      -0.521288       -14.1850
 214   2.0000      -0.519010       -14.1230
 215   2.0000      -0.517405       -14.0793
 216   2.0000      -0.515769       -14.0348
 217   2.0000      -0.511982       -13.9317
 218   2.0000      -0.511537       -13.9196
 219   2.0000      -0.509517       -13.8647
 220   2.0000      -0.506677       -13.7874
 221   2.0000      -0.503186       -13.6924
 222   2.0000      -0.502251       -13.6669
 223   2.0000      -0.497562       -13.5393
 224   2.0000      -0.495519       -13.4838
 225   2.0000      -0.494222       -13.4485
 226   2.0000      -0.492318       -13.3967
 227   2.0000      -0.487982       -13.2787
 228   2.0000      -0.485943       -13.2232
 229   2.0000      -0.485027       -13.1983
 230   2.0000      -0.483633       -13.1603
 231   2.0000      -0.479935       -13.0597
 232   2.0000      -0.479221       -13.0403
 233   2.0000      -0.471794       -12.8382
 234   2.0000      -0.468104       -12.7378
 235   2.0000      -0.462998       -12.5988
 236   2.0000      -0.461507       -12.5582
 237   2.0000      -0.458224       -12.4689
 238   2.0000      -0.457603       -12.4520
 239   2.0000      -0.455366       -12.3911
 240   2.0000      -0.454671       -12.3722
 241   2.0000      -0.453005       -12.3269
 242   2.0000      -0.452117       -12.3027
 243   2.0000      -0.448964       -12.2169
 244   2.0000      -0.447662       -12.1815
 245   2.0000      -0.445391       -12.1197
 246   2.0000      -0.443387       -12.0652
 247   2.0000      -0.441842       -12.0231
 248   2.0000      -0.440707       -11.9922
 249   2.0000      -0.438174       -11.9233
 250   2.0000      -0.435873       -11.8607
 251   2.0000      -0.434075       -11.8118
 252   2.0000      -0.432704       -11.7745
 253   2.0000      -0.431272       -11.7355
 254   2.0000      -0.428830       -11.6691
 255   2.0000      -0.425910       -11.5896
 256   2.0000      -0.424314       -11.5462
 257   2.0000      -0.419726       -11.4213
 258   2.0000      -0.417768       -11.3681
 259   2.0000      -0.417121       -11.3504
 260   2.0000      -0.416788       -11.3414
 261   2.0000      -0.413691       -11.2571
 262   2.0000      -0.410998       -11.1838
 263   2.0000      -0.407813       -11.0972
 264   2.0000      -0.407306       -11.0834
 265   2.0000      -0.402968       -10.9653
 266   2.0000      -0.401527       -10.9261
 267   2.0000      -0.400421       -10.8960
 268   2.0000      -0.399122       -10.8607
 269   2.0000      -0.383266       -10.4292
 270   2.0000      -0.378963       -10.3121
 271   2.0000      -0.376008       -10.2317
 272   2.0000      -0.375234       -10.2106
 273   2.0000      -0.366221        -9.9654
 274   2.0000      -0.361495        -9.8368
 275   2.0000      -0.360074        -9.7981
 276   2.0000      -0.351173        -9.5559
 277   2.0000      -0.343242        -9.3401
 278   2.0000      -0.342249        -9.3131
 279   2.0000      -0.341687        -9.2978
 280   2.0000      -0.339642        -9.2421
 281   2.0000      -0.337027        -9.1710
 282   2.0000      -0.330623        -8.9967
 283   2.0000      -0.328443        -8.9374
 284   2.0000      -0.319601        -8.6968
 285   2.0000      -0.310036        -8.4365
 286   2.0000      -0.306428        -8.3383
 287   2.0000      -0.301451        -8.2029
 288   2.0000      -0.284341        -7.7373
 289   2.0000      -0.250283        -6.8105
 290   0.0000      -0.131607        -3.5812
 291   0.0000      -0.118898        -3.2354
 292   0.0000      -0.075006        -2.0410
 293   0.0000      -0.073184        -1.9914
 294   0.0000      -0.061329        -1.6689

MULLIKEN ATOMIC CHARGES
-----------------------
   0 C :    0.008281
   1 C :   -0.131068
   2 S :    0.181355
   3 C :   -0.173561
   4 Cl:   -0.000328
   5 C :    0.096806
   6 C :    0.124847
   7 O :   -0.121612
   8 C :   -0.120148
   9 C :    0.334822
  10 C :   -0.325055
  11 C :   -0.205560
  12 N :    0.157387
  13 C :   -0.189992
  14 N :    0.154698
  15 C :   -0.046180
  16 C :    0.110390
  17 C :   -0.043460
  18 C :   -0.054621
  19 N :    0.025521
  20 C :    0.147157
  21 C :    0.150866
  22 N :    0.017315
  23 F :   -0.130381
  24 F :   -0.140441
  25 C :    0.047950
  26 C :    0.076944
  27 C :   -0.063579
  28 N :   -0.284440
  29 S :    0.552540
  30 N :   -0.272035
  31 C :    0.028047
  32 N :   -0.232560
  33 C :    0.135743
  34 C :   -0.004193
  35 C :    0.138147
  36 O :   -0.215841
  37 C :   -0.052324
  38 C :   -0.028397
  39 C :    0.144605
  40 O :   -0.197723
  41 N :   -0.261275
  42 C :    0.103827
  43 C :    0.002806
  44 C :    0.181241
  45 C :   -0.017771
  46 C :   -0.041999
  47 C :    0.113236
  48 C :   -0.028794
  49 C :   -0.028933
  50 N :    0.022104
  51 C :    0.139145
  52 C :    0.132814
  53 N :    0.016906
  54 F :   -0.136803
  55 F :   -0.133342
  56 C :    0.078968
  57 C :    0.000792
  58 C :    0.027904
  59 N :   -0.277826
  60 S :    0.558693
  61 N :   -0.288497
  62 C :   -0.039470
  63 C :   -0.119836
  64 C :    0.127061
  65 O :   -0.122666
  66 C :    0.097445
  67 C :   -0.173100
  68 S :    0.182544
  69 C :   -0.131416
  70 C :    0.008643
  71 C :    0.332602
  72 C :   -0.333620
  73 C :   -0.203847
  74 N :    0.159462
  75 C :   -0.186566
  76 N :    0.162110
  77 Cl:   -0.001287
  78 H :    0.051039
  79 H :    0.041717
  80 H :    0.023663
  81 H :    0.030900
  82 H :    0.012453
  83 H :    0.018839
  84 H :    0.030761
  85 H :    0.040608
  86 H :    0.029431
  87 H :    0.033025
  88 H :    0.026215
  89 H :    0.016536
  90 H :    0.002097
  91 H :    0.026406
  92 H :    0.042107
  93 H :    0.053024
Sum of atomic charges:   -0.0000000

LOEWDIN ATOMIC CHARGES
----------------------
   0 C :   -0.054347
   1 C :   -0.154127
   2 S :    0.471251
   3 C :   -0.272896
   4 Cl:    0.191784
   5 C :   -0.117675
   6 C :    0.081500
   7 O :   -0.126577
   8 C :   -0.073353
   9 C :    0.078421
  10 C :   -0.138298
  11 C :   -0.017981
  12 N :   -0.055954
  13 C :   -0.015057
  14 N :   -0.062431
  15 C :    0.076482
  16 C :   -0.043427
  17 C :    0.021501
  18 C :    0.009842
  19 N :   -0.024588
  20 C :    0.059792
  21 C :    0.075265
  22 N :   -0.042770
  23 F :   -0.018825
  24 F :   -0.028314
  25 C :   -0.017811
  26 C :   -0.038403
  27 C :   -0.038341
  28 N :   -0.284651
  29 S :    0.682645
  30 N :   -0.268909
  31 C :    0.071490
  32 N :    0.016971
  33 C :    0.043111
  34 C :   -0.064866
  35 C :    0.074502
  36 O :   -0.198940
  37 C :   -0.126451
  38 C :   -0.095652
  39 C :    0.085297
  40 O :   -0.193537
  41 N :    0.008727
  42 C :    0.038604
  43 C :   -0.060567
  44 C :    0.099653
  45 C :   -0.035067
  46 C :    0.035392
  47 C :    0.002526
  48 C :    0.012738
  49 C :    0.020344
  50 N :   -0.036818
  51 C :    0.064374
  52 C :    0.059007
  53 N :   -0.035276
  54 F :   -0.026708
  55 F :   -0.022459
  56 C :   -0.030688
  57 C :   -0.033048
  58 C :   -0.033967
  59 N :   -0.266799
  60 S :    0.690389
  61 N :   -0.289217
  62 C :    0.079104
  63 C :   -0.070301
  64 C :    0.081635
  65 O :   -0.126779
  66 C :   -0.117561
  67 C :   -0.272738
  68 S :    0.472640
  69 C :   -0.153985
  70 C :   -0.053975
  71 C :    0.079039
  72 C :   -0.136940
  73 C :   -0.017781
  74 N :   -0.054946
  75 C :   -0.015976
  76 N :   -0.056719
  77 Cl:    0.191625
  78 H :    0.036532
  79 H :    0.052811
  80 H :    0.029932
  81 H :    0.028377
  82 H :    0.027205
  83 H :    0.016472
  84 H :    0.026661
  85 H :    0.037654
  86 H :    0.028069
  87 H :    0.033362
  88 H :    0.032065
  89 H :    0.021284
  90 H :    0.039983
  91 H :    0.046336
  92 H :    0.053083
  93 H :    0.037020

  Mayer bond orders larger than 0.100000
B(  0-C ,  1-C ) :   1.5534 B(  0-C ,  5-C ) :   1.2196 B(  0-C ,  9-C ) :   1.0148
B(  1-C ,  2-S ) :   1.1551 B(  1-C , 78-H ) :   0.9548 B(  2-S ,  3-C ) :   1.1489
B(  3-C ,  4-Cl) :   1.1283 B(  3-C ,  5-C ) :   1.4850 B(  5-C ,  6-C ) :   0.9236
B(  6-C ,  7-O ) :   2.2838 B(  6-C ,  8-C ) :   0.9320 B(  8-C ,  9-C ) :   1.0386
B(  8-C , 15-C ) :   1.6638 B(  9-C , 10-C ) :   1.6468 B( 10-C , 11-C ) :   1.1440
B( 10-C , 13-C ) :   1.1692 B( 11-C , 12-N ) :   2.9998 B( 13-C , 14-N ) :   2.9840
B( 15-C , 16-C ) :   1.1033 B( 15-C , 79-H ) :   0.9363 B( 16-C , 17-C ) :   1.3016
B( 16-C , 25-C ) :   0.1350 B( 16-C , 27-C ) :   1.1839 B( 17-C , 18-C ) :   1.1220
B( 17-C , 22-N ) :   1.4456 B( 18-C , 19-N ) :   1.4214 B( 18-C , 25-C ) :   1.3402
B( 19-N , 20-C ) :   1.6753 B( 20-C , 21-C ) :   1.0832 B( 20-C , 24-F ) :   1.1788
B( 21-C , 22-N ) :   1.6938 B( 21-C , 23-F ) :   1.1876 B( 25-C , 26-C ) :   1.2380
B( 25-C , 31-C ) :   1.0136 B( 26-C , 27-C ) :   1.1069 B( 26-C , 30-N ) :   1.5064
B( 27-C , 28-N ) :   1.5129 B( 28-N , 29-S ) :   1.2716 B( 28-N , 30-N ) :   0.1466
B( 29-S , 30-N ) :   1.2850 B( 31-C , 32-N ) :   1.2446 B( 31-C , 38-C ) :   1.4066
B( 32-N , 33-C ) :   0.9330 B( 32-N , 35-C ) :   1.0489 B( 33-C , 34-C ) :   1.1114
B( 33-C , 80-H ) :   0.9393 B( 33-C , 81-H ) :   0.9481 B( 34-C , 82-H ) :   0.9654
B( 34-C , 83-H ) :   0.9594 B( 34-C , 84-H ) :   0.9642 B( 35-C , 36-O ) :   2.0236
B( 35-C , 37-C ) :   1.0053 B( 37-C , 38-C ) :   1.2597 B( 37-C , 44-C ) :   1.3220
B( 38-C , 39-C ) :   0.9513 B( 39-C , 40-O ) :   2.1133 B( 39-C , 41-N ) :   1.0427
B( 41-N , 42-C ) :   0.9421 B( 41-N , 44-C ) :   1.1972 B( 42-C , 43-C ) :   1.1209
B( 42-C , 85-H ) :   0.9310 B( 42-C , 86-H ) :   0.9493 B( 43-C , 87-H ) :   0.9628
B( 43-C , 88-H ) :   0.9670 B( 43-C , 89-H ) :   0.9680 B( 44-C , 45-C ) :   1.1124
B( 45-C , 46-C ) :   1.6912 B( 45-C , 90-H ) :   0.9447 B( 46-C , 47-C ) :   1.1402
B( 46-C , 91-H ) :   0.9400 B( 47-C , 48-C ) :   1.3050 B( 47-C , 56-C ) :   0.1412
B( 47-C , 58-C ) :   1.2023 B( 48-C , 49-C ) :   1.1335 B( 48-C , 53-N ) :   1.4393
B( 49-C , 50-N ) :   1.4491 B( 49-C , 56-C ) :   1.3082 B( 50-N , 51-C ) :   1.6941
B( 51-C , 52-C ) :   1.0887 B( 51-C , 55-F ) :   1.1841 B( 52-C , 53-N ) :   1.7001
B( 52-C , 54-F ) :   1.1813 B( 56-C , 57-C ) :   1.2178 B( 56-C , 62-C ) :   1.0787
B( 57-C , 58-C ) :   1.1177 B( 57-C , 61-N ) :   1.5006 B( 58-C , 59-N ) :   1.4960
B( 59-N , 60-S ) :   1.2956 B( 59-N , 61-N ) :   0.1461 B( 60-S , 61-N ) :   1.2732
B( 62-C , 63-C ) :   1.6827 B( 62-C , 92-H ) :   0.9374 B( 63-C , 64-C ) :   0.9323
B( 63-C , 71-C ) :   1.0315 B( 64-C , 65-O ) :   2.2845 B( 64-C , 66-C ) :   0.9228
B( 66-C , 67-C ) :   1.4822 B( 66-C , 70-C ) :   1.2215 B( 67-C , 68-S ) :   1.1508
B( 67-C , 77-Cl) :   1.1280 B( 68-S , 69-C ) :   1.1563 B( 69-C , 70-C ) :   1.5519
B( 69-C , 93-H ) :   0.9546 B( 70-C , 71-C ) :   1.0171 B( 71-C , 72-C ) :   1.6535
B( 72-C , 73-C ) :   1.1438 B( 72-C , 75-C ) :   1.1711 B( 73-C , 74-N ) :   3.0013
B( 75-C , 76-N ) :   2.9851

-----------------------------------------------------------------------------
         ABSORPTION SPECTRUM VIA TRANSITION ELECTRIC DIPOLE MOMENTS
-----------------------------------------------------------------------------
State   Energy  Wavelength   fosc         T2         TX        TY        TZ
        (cm-1)    (nm)                  (au**2)     (au)      (au)      (au)
-----------------------------------------------------------------------------
   0    8881.3   1126.0   0.236180463   8.75477  -2.64935   0.43164   1.24475
   1   11650.3    858.3   0.189980114   5.36842   2.24730  -0.55568  -0.09642
   2   17389.4    575.1   0.358329906   6.78380   0.01102  -0.47116   2.56158
   3   20286.2    492.9   0.171435552   2.78211  -1.57297   0.52817  -0.17008
   4   20992.6    476.4   0.018038064   0.28288  -0.36806  -0.23485  -0.30373
   5   21749.7    459.8   0.034086743   0.51595  -0.53009   0.27885  -0.39648
   6   22214.3    450.2   0.076687963   1.13650   0.39833   0.14839  -0.97766
   7   22497.9    444.5   0.156186781   2.28549  -1.39704   0.56310  -0.12916
   8   23475.4    426.0   0.049936296   0.70029  -0.55617   0.24656  -0.57461
   9   23753.9    421.0   0.031007426   0.42974   0.36502   0.20221  -0.50558
  10   23837.3    419.5   0.046104033   0.63673   0.11801  -0.77849  -0.12943
  11   25004.4    399.9   0.017237863   0.22696   0.07353   0.29903  -0.36350
  12   25402.7    393.7   0.018332039   0.23758   0.15415   0.45988   0.04829
  13   26166.4    382.2   0.009582065   0.12056   0.12018  -0.30040   0.12599
  14   26593.0    376.0   0.003470607   0.04296  -0.08196  -0.18751  -0.03299
  15   26616.8    375.7   0.003874442   0.04792  -0.09220  -0.17593   0.09202
  16   27333.4    365.9   0.010173409   0.12253  -0.12501   0.31224  -0.09700
  17   27886.2    358.6   0.020823870   0.24584  -0.04747  -0.45516  -0.19083
  18   28088.8    356.0   0.273418226   3.20457   1.67361   0.50737   0.38233
  19   28311.4    353.2   0.070621805   0.82121   0.50874   0.70410   0.25815
  20   28443.9    351.6   0.054890950   0.63531  -0.23893  -0.73690   0.18763
  21   28747.6    347.9   0.229004347   2.62251   0.16258  -1.44294  -0.71695
  22   29109.6    343.5   0.006297529   0.07122  -0.09030  -0.21094   0.13628
  23   29614.6    337.7   0.115400055   1.28285   0.52640   0.99880   0.09025
  24   29766.7    335.9   0.015981668   0.17675  -0.05859  -0.03812   0.41457
  25   30246.4    330.6   0.010265534   0.11173   0.13434   0.27557  -0.13321
  26   30620.3    326.6   0.015344398   0.16497   0.12712   0.38253   0.04986
  27   30759.7    325.1   0.072042863   0.77105  -0.79549  -0.21231   0.30525
  28   31282.9    319.7   0.043415477   0.45689   0.41356  -0.53209  -0.05239
  29   31347.1    319.0   0.040356381   0.42383   0.10041   0.24647  -0.59414
  30   31385.1    318.6   0.052582237   0.55156  -0.12676  -0.31884   0.65866
  31   31451.0    318.0   0.034143365   0.35739   0.12993  -0.25502   0.52486
  32   31733.8    315.1   0.011470603   0.11900  -0.23267  -0.23686  -0.09360
  33   31810.4    314.4   0.018800518   0.19457  -0.01069   0.37742  -0.22806
  34   32374.5    308.9   0.041995428   0.42705   0.24310  -0.14467   0.58909
  35   32542.7    307.3   0.040871531   0.41347   0.63480   0.08558   0.05639
  36   32916.4    303.8   0.046727920   0.46735  -0.62701   0.00176  -0.27240
  37   33067.6    302.4   0.044829999   0.44631  -0.37449  -0.52796   0.16530
  38   33547.1    298.1   0.087352842   0.85723   0.77729  -0.42373  -0.27110
  39   33809.8    295.8   0.114971831   1.11950   0.16724  -0.38627   0.97074
  40   34113.4    293.1   0.029036650   0.28022   0.39241  -0.34981  -0.06214
  41   34346.8    291.1   0.074574164   0.71479   0.59565  -0.46825  -0.37514
  42   34491.4    289.9   0.063039090   0.60169   0.62419   0.05718  -0.45696
  43   34609.2    288.9   0.142866048   1.35898   0.04784   0.51217  -1.04612
  44   34679.0    288.4   0.001682914   0.01598  -0.04514   0.11210   0.03705
  45   34766.5    287.6   0.027461175   0.26004   0.37019  -0.32403  -0.13417
  46   35113.5    284.8   0.035372340   0.33164   0.53258   0.09157  -0.19904
  47   35335.4    283.0   0.005873858   0.05473   0.05007   0.22704  -0.02595
  48   35572.0    281.1   0.007835233   0.07251  -0.25266  -0.09031  -0.02279
  49   35737.6    279.8   0.136866407   1.26080  -1.01635   0.44668  -0.16825
  50   36061.2    277.3   0.083365108   0.76106   0.04684  -0.15951   0.85640
  51   36217.7    276.1   0.024972478   0.22699   0.26951  -0.16212   0.35788
  52   36375.3    274.9   0.069812585   0.63183  -0.61361   0.01922  -0.50493
  53   36395.8    274.8   0.075563670   0.68350  -0.20839   0.41271   0.68538
  54   36560.7    273.5   0.055609471   0.50074   0.32085  -0.58794   0.22829
  55   36721.6    272.3   0.086414780   0.77472  -0.35205  -0.80523   0.04882
  56   36896.5    271.0   0.105854275   0.94449   0.68023   0.33458  -0.60814
  57   37153.6    269.2   0.165412350   1.46569  -0.93300  -0.15146   0.75648
  58   37344.8    267.8   0.043752558   0.38570   0.38637   0.36817  -0.31760
  59   37603.4    265.9   0.029494897   0.25822  -0.35470  -0.04449   0.36116
  60   37616.2    265.8   0.065517645   0.57340   0.64139  -0.38137   0.12874
  61   38012.6    263.1   0.020866109   0.18071  -0.36774  -0.17811  -0.11730
  62   38560.0    259.3   0.123140935   1.05134   0.63137  -0.50123   0.63362
  63   38616.9    259.0   0.051014550   0.43490   0.49527   0.41290   0.13830
  64   38735.0    258.2   0.026834603   0.22807  -0.24242   0.05896   0.40722
  65   38860.3    257.3   0.249288599   2.11189  -1.05155  -0.69784   0.72052
  66   39052.7    256.1   0.125945277   1.06171  -0.10602  -0.03472   1.02434
  67   39119.0    255.6   0.082463062   0.69398   0.68611  -0.39973  -0.25188
  68   39220.7    255.0   0.205149097   1.72199  -0.28145   1.15540  -0.55481
  69   39322.8    254.3   0.083713541   0.70085   0.67071  -0.41611   0.27901
  70   39436.8    253.6   0.063494970   0.53005  -0.08365   0.40840  -0.59688
  71   39501.0    253.2   0.022155687   0.18465  -0.20562  -0.37608   0.03056
  72   39773.0    251.4   0.025133786   0.20804   0.06729  -0.33779  -0.29901
  73   39837.2    251.0   0.103309409   0.85374  -0.60168   0.35213   0.60641
  74   39904.8    250.6   0.031725487   0.26173  -0.40591   0.00298  -0.31139
  75   40235.8    248.5   0.061764241   0.50536  -0.01362   0.71044  -0.02128
  76   40310.9    248.1   0.090242906   0.73700  -0.09875  -0.85269  -0.01263

FINAL SINGLE POINT ENERGY     -5889.888925610447

DIPOLE MOMENT
-------------
                                X             Y             Z
Electronic contribution:     23.41145      -8.46636      25.77225
Nuclear contribution   :    -23.08421       8.18082     -27.49622
                        -----------------------------------------
Total Dipole Moment    :      0.32724      -0.28554      -1.72397
                        -----------------------------------------
Magnitude (a.u.)       :      1.77783
Magnitude (Debye)      :      4.51889

Rotational constants in cm-1:     0.001128     0.000389     0.000351
Rotational constants in MHz :    33.816482    11.654124    10.520025

                             ****ORCA TERMINATED NORMALLY****
TOTAL RUN TIME: 0 days 0 hours 12 minutes 45 seconds 270 msec
