                         Program Version 4.2.0 -  RELEASE  -
|  1> # ORCA input file
|  2> # SCF done       -156.138647605219          0.000605840590
|  3> ! CAM-B3LYP def2-SVP def2/J RIJCOSX Grid4 TightSCF
|  4> %maxcore 5000
|  5> %tddft
|  6>     Mode sTDDFT
|  7>     Ethresh 5.0
|  8>     maxcore 5000
|  9> end
| 10>
| 11> %pal
| 12>   nprocs 6
| 13>   end
| 14> * xyz 0 1
| 15>    C        3.03442         1.11701        -1.99847
| 16>    N        2.77853         1.56539        -0.74001
| 17>    C        3.33408         1.02670         0.47598
| 18>    C        4.80661         1.39567         0.63457
| 19>    C        1.92283         2.68805        -0.75705
| 20>    O        1.54966         3.25896         0.25205
| 21>    C        1.65624         2.90381        -2.15655
| 22>    C        2.36787         1.90287        -2.89487
| 23>    C        2.10215         2.11375        -4.30301
| 24>    O        2.47300         1.53867        -5.30134
| 25>    N        1.24875         3.23621        -4.32387
| 26>    C        0.71115         3.73523        -5.56576
| 27>    C       -0.72566         3.27070        -5.79370
| 28>    C        0.97424         3.70766        -3.05846
| 29>    C        0.13692         4.82802        -2.80747
| 30>    C       -0.15125         5.25386        -1.55317
| 31>    C       -1.00218         6.35379        -1.25845
| 32>    S       -1.39058         6.71579         0.40343
| 33>    C       -2.42592         8.02830        -0.05523
| 34>    C       -2.42529         8.19661        -1.44253
| 35>    C       -1.63560         7.23801        -2.10226
| 36>    C       -3.03146         9.30820        -2.16523
| 37>    O       -3.22978         9.32928        -3.35479
| 38>    C       -3.18872         8.69038         0.94655
| 39>    C       -4.37596         9.30120         0.72587
| 40>    C       -5.16117         9.93401         1.73167
| 41>    S       -6.76883        10.47673         1.33137
| 42>    C       -7.06636        11.01054         2.95447
| 43>    C       -5.93725        10.81129         3.75076
| 44>    C       -4.88236        10.19296         3.05329
| 45>    C       -5.76398        11.29639         5.11655
| 46>    O       -4.88925        10.93990         5.86485
| 47>    C       -8.37131        11.47346         3.27881
| 48>    C       -8.93738        11.42557         4.50649
| 49>    C      -10.27402        11.83716         4.78201
| 50>    S      -10.97846        11.47199         6.32057
| 51>    C      -12.50860        12.13012         5.84274
| 52>    C      -13.57650        12.14747         6.80652
| 53>    O      -14.71945        12.50052         6.60758
| 54>    C      -12.44947        12.64067         4.54256
| 55>    C      -11.17738        12.49571         3.97194
| 56>    C      -13.53401        13.29809         3.84736
| 57>    C      -14.82075        12.91809         3.76279
| 58>    C      -15.85669        13.90393         3.30099
| 59>    O      -15.64987        14.93152         2.70565
| 60>    C      -17.11888        13.34514         3.79249
| 61>    C      -18.42528        13.73064         3.85896
| 62>    S      -19.38726        12.49922         4.64062
| 63>    C      -18.01889        11.47303         4.85947
| 64>    C      -16.89037        12.05000         4.36759
| 65>    C      -15.49146        11.70895         4.22951
| 66>    C      -14.97043        10.45056         4.32966
| 67>    C      -13.65425        10.09815         3.97406
| 68>    N      -12.60687         9.75257         3.65474
| 69>    C      -15.75864         9.36034         4.75677
| 70>    N      -16.38435         8.46693         5.11065
| 71>   Cl      -19.12020        15.16897         3.29776
| 72>    H        3.66694         0.26476        -2.16457
| 73>    H        3.21218        -0.06090         0.47680
| 74>    H        2.75062         1.45366         1.29621
| 75>    H        5.39356         0.99941        -0.19121
| 76>    H        5.19158         0.98607         1.56422
| 77>    H        4.92161         2.47666         0.65548
| 78>    H        1.35408         3.33270        -6.35380
| 79>    H        0.77602         4.82700        -5.58326
| 80>    H       -0.76235         2.18460        -5.82471
| 81>    H       -1.09199         3.65795        -6.74046
| 82>    H       -1.38051         3.61574        -4.99640
| 83>    H       -0.28099         5.34161        -3.66024
| 84>    H        0.26776         4.72695        -0.70592
| 85>    H       -1.53137         7.23651        -3.17201
| 86>    H       -3.26233        10.18716        -1.53251
| 87>    H       -2.80704         8.61734         1.95548
| 88>    H       -4.81425         9.27706        -0.26210
| 89>    H       -3.94294         9.97535         3.52788
| 90>    H       -6.49173        12.07478         5.41625
| 91>    H       -8.96578        11.80441         2.43824
| 92>    H       -8.39847        10.99027         5.33563
| 93>    H      -13.26096        11.78237         7.80221
| 94>    H      -10.94713        12.83344         2.97802
| 95>    H      -13.27905        14.23317         3.35777
| 96>    H      -18.13940        10.52677         5.34845
| 97> *
| 98>
| 99>                          ****END OF INPUT****

CARTESIAN COORDINATES (ANGSTROEM)
---------------------------------
  C      3.034420    1.117010   -1.998470
  N      2.778530    1.565390   -0.740010
  C      3.334080    1.026700    0.475980
  C      4.806610    1.395670    0.634570
  C      1.922830    2.688050   -0.757050
  O      1.549660    3.258960    0.252050
  C      1.656240    2.903810   -2.156550
  C      2.367870    1.902870   -2.894870
  C      2.102150    2.113750   -4.303010
  O      2.473000    1.538670   -5.301340
  N      1.248750    3.236210   -4.323870
  C      0.711150    3.735230   -5.565760
  C     -0.725660    3.270700   -5.793700
  C      0.974240    3.707660   -3.058460
  C      0.136920    4.828020   -2.807470
  C     -0.151250    5.253860   -1.553170
  C     -1.002180    6.353790   -1.258450
  S     -1.390580    6.715790    0.403430
  C     -2.425920    8.028300   -0.055230
  C     -2.425290    8.196610   -1.442530
  C     -1.635600    7.238010   -2.102260
  C     -3.031460    9.308200   -2.165230
  O     -3.229780    9.329280   -3.354790
  C     -3.188720    8.690380    0.946550
  C     -4.375960    9.301200    0.725870
  C     -5.161170    9.934010    1.731670
  S     -6.768830   10.476730    1.331370
  C     -7.066360   11.010540    2.954470
  C     -5.937250   10.811290    3.750760
  C     -4.882360   10.192960    3.053290
  C     -5.763980   11.296390    5.116550
  O     -4.889250   10.939900    5.864850
  C     -8.371310   11.473460    3.278810
  C     -8.937380   11.425570    4.506490
  C    -10.274020   11.837160    4.782010
  S    -10.978460   11.471990    6.320570
  C    -12.508600   12.130120    5.842740
  C    -13.576500   12.147470    6.806520
  O    -14.719450   12.500520    6.607580
  C    -12.449470   12.640670    4.542560
  C    -11.177380   12.495710    3.971940
  C    -13.534010   13.298090    3.847360
  C    -14.820750   12.918090    3.762790
  C    -15.856690   13.903930    3.300990
  O    -15.649870   14.931520    2.705650
  C    -17.118880   13.345140    3.792490
  C    -18.425280   13.730640    3.858960
  S    -19.387260   12.499220    4.640620
  C    -18.018890   11.473030    4.859470
  C    -16.890370   12.050000    4.367590
  C    -15.491460   11.708950    4.229510
  C    -14.970430   10.450560    4.329660
  C    -13.654250   10.098150    3.974060
  N    -12.606870    9.752570    3.654740
  C    -15.758640    9.360340    4.756770
  N    -16.384350    8.466930    5.110650
  Cl   -19.120200   15.168970    3.297760
  H      3.666940    0.264760   -2.164570
  H      3.212180   -0.060900    0.476800
  H      2.750620    1.453660    1.296210
  H      5.393560    0.999410   -0.191210
  H      5.191580    0.986070    1.564220
  H      4.921610    2.476660    0.655480
  H      1.354080    3.332700   -6.353800
  H      0.776020    4.827000   -5.583260
  H     -0.762350    2.184600   -5.824710
  H     -1.091990    3.657950   -6.740460
  H     -1.380510    3.615740   -4.996400
  H     -0.280990    5.341610   -3.660240
  H      0.267760    4.726950   -0.705920
  H     -1.531370    7.236510   -3.172010
  H     -3.262330   10.187160   -1.532510
  H     -2.807040    8.617340    1.955480
  H     -4.814250    9.277060   -0.262100
  H     -3.942940    9.975350    3.527880
  H     -6.491730   12.074780    5.416250
  H     -8.965780   11.804410    2.438240
  H     -8.398470   10.990270    5.335630
  H    -13.260960   11.782370    7.802210
  H    -10.947130   12.833440    2.978020
  H    -13.279050   14.233170    3.357770
  H    -18.139400   10.526770    5.348450

 Total Charge           Charge          ....    0
 Multiplicity           Mult            ....    1
 Number of Electrons    NEL             ....  434
 Basis Dimension        Dim             ....  943

ORBITAL ENERGIES
----------------

  NO   OCC          E(Eh)            E(eV)
   0   2.0000    -101.616870     -2765.1356
   1   2.0000     -88.992979     -2421.6221
   2   2.0000     -88.985267     -2421.4122
   3   2.0000     -88.979452     -2421.2540
   4   2.0000     -88.972086     -2421.0535
   5   2.0000     -19.225530      -523.1533
   6   2.0000     -19.222062      -523.0589
   7   2.0000     -19.218766      -522.9692
   8   2.0000     -19.213298      -522.8204
   9   2.0000     -19.184785      -522.0445
  10   2.0000     -19.181956      -521.9676
  11   2.0000     -14.448839      -393.1729
  12   2.0000     -14.446874      -393.1194
  13   2.0000     -14.420579      -392.4039
  14   2.0000     -14.419680      -392.3794
  15   2.0000     -10.378020      -282.4003
  16   2.0000     -10.375591      -282.3342
  17   2.0000     -10.374804      -282.3128
  18   2.0000     -10.368029      -282.1284
  19   2.0000     -10.366883      -282.0972
  20   2.0000     -10.364885      -282.0429
  21   2.0000     -10.359641      -281.9002
  22   2.0000     -10.349975      -281.6371
  23   2.0000     -10.347790      -281.5777
  24   2.0000     -10.337883      -281.3081
  25   2.0000     -10.335259      -281.2367
  26   2.0000     -10.333840      -281.1981
  27   2.0000     -10.328217      -281.0451
  28   2.0000     -10.327619      -281.0288
  29   2.0000     -10.323658      -280.9210
  30   2.0000     -10.323396      -280.9139
  31   2.0000     -10.322552      -280.8909
  32   2.0000     -10.322339      -280.8851
  33   2.0000     -10.321388      -280.8592
  34   2.0000     -10.320636      -280.8388
  35   2.0000     -10.319693      -280.8131
  36   2.0000     -10.314691      -280.6770
  37   2.0000     -10.314689      -280.6770
  38   2.0000     -10.313299      -280.6391
  39   2.0000     -10.311467      -280.5893
  40   2.0000     -10.309721      -280.5418
  41   2.0000     -10.308801      -280.5167
  42   2.0000     -10.305617      -280.4301
  43   2.0000     -10.305484      -280.4265
  44   2.0000     -10.304321      -280.3948
  45   2.0000     -10.300412      -280.2885
  46   2.0000     -10.300269      -280.2846
  47   2.0000     -10.297310      -280.2041
  48   2.0000     -10.297102      -280.1984
  49   2.0000     -10.294824      -280.1364
  50   2.0000     -10.290285      -280.0129
  51   2.0000     -10.289944      -280.0036
  52   2.0000     -10.289508      -279.9917
  53   2.0000     -10.262887      -279.2673
  54   2.0000     -10.260569      -279.2043
  55   2.0000     -10.254345      -279.0349
  56   2.0000     -10.252720      -278.9907
  57   2.0000      -9.571682      -260.4587
  58   2.0000      -8.088676      -220.1041
  59   2.0000      -8.080895      -219.8923
  60   2.0000      -8.075379      -219.7422
  61   2.0000      -8.067913      -219.5391
  62   2.0000      -7.342297      -199.7941
  63   2.0000      -7.331726      -199.5064
  64   2.0000      -7.331193      -199.4919
  65   2.0000      -6.058033      -164.8475
  66   2.0000      -6.053438      -164.7224
  67   2.0000      -6.050968      -164.6552
  68   2.0000      -6.049854      -164.6249
  69   2.0000      -6.045932      -164.5182
  70   2.0000      -6.044474      -164.4785
  71   2.0000      -6.043441      -164.4504
  72   2.0000      -6.040418      -164.3681
  73   2.0000      -6.037734      -164.2951
  74   2.0000      -6.037030      -164.2759
  75   2.0000      -6.032888      -164.1632
  76   2.0000      -6.030284      -164.0924
  77   2.0000      -1.139345       -31.0032
  78   2.0000      -1.137617       -30.9561
  79   2.0000      -1.132251       -30.8101
  80   2.0000      -1.126482       -30.6531
  81   2.0000      -1.126411       -30.6512
  82   2.0000      -1.119781       -30.4708
  83   2.0000      -1.057241       -28.7690
  84   2.0000      -1.048861       -28.5409
  85   2.0000      -1.037741       -28.2384
  86   2.0000      -1.020137       -27.7594
  87   2.0000      -1.012976       -27.5645
  88   2.0000      -1.008874       -27.4529
  89   2.0000      -1.001494       -27.2520
  90   2.0000      -0.998070       -27.1589
  91   2.0000      -0.988006       -26.8850
  92   2.0000      -0.954771       -25.9806
  93   2.0000      -0.937151       -25.5012
  94   2.0000      -0.925015       -25.1709
  95   2.0000      -0.920331       -25.0435
  96   2.0000      -0.911528       -24.8039
  97   2.0000      -0.903178       -24.5767
  98   2.0000      -0.895627       -24.3712
  99   2.0000      -0.872704       -23.7475
 100   2.0000      -0.866740       -23.5852
 101   2.0000      -0.865777       -23.5590
 102   2.0000      -0.859395       -23.3853
 103   2.0000      -0.851070       -23.1588
 104   2.0000      -0.838295       -22.8112
 105   2.0000      -0.831949       -22.6385
 106   2.0000      -0.816619       -22.2213
 107   2.0000      -0.813605       -22.1393
 108   2.0000      -0.795320       -21.6417
 109   2.0000      -0.784010       -21.3340
 110   2.0000      -0.773513       -21.0483
 111   2.0000      -0.757227       -20.6052
 112   2.0000      -0.756085       -20.5741
 113   2.0000      -0.755233       -20.5509
 114   2.0000      -0.751640       -20.4532
 115   2.0000      -0.727367       -19.7927
 116   2.0000      -0.719324       -19.5738
 117   2.0000      -0.705736       -19.2040
 118   2.0000      -0.698619       -19.0104
 119   2.0000      -0.695038       -18.9130
 120   2.0000      -0.684373       -18.6227
 121   2.0000      -0.678137       -18.4531
 122   2.0000      -0.675733       -18.3876
 123   2.0000      -0.671584       -18.2747
 124   2.0000      -0.662574       -18.0296
 125   2.0000      -0.652848       -17.7649
 126   2.0000      -0.647235       -17.6122
 127   2.0000      -0.640766       -17.4361
 128   2.0000      -0.634475       -17.2649
 129   2.0000      -0.622899       -16.9499
 130   2.0000      -0.618586       -16.8326
 131   2.0000      -0.613735       -16.7006
 132   2.0000      -0.605074       -16.4649
 133   2.0000      -0.601674       -16.3724
 134   2.0000      -0.598328       -16.2813
 135   2.0000      -0.591386       -16.0924
 136   2.0000      -0.587692       -15.9919
 137   2.0000      -0.578934       -15.7536
 138   2.0000      -0.578474       -15.7411
 139   2.0000      -0.573257       -15.5991
 140   2.0000      -0.568551       -15.4711
 141   2.0000      -0.559692       -15.2300
 142   2.0000      -0.558048       -15.1852
 143   2.0000      -0.550316       -14.9749
 144   2.0000      -0.545135       -14.8339
 145   2.0000      -0.541831       -14.7440
 146   2.0000      -0.536756       -14.6059
 147   2.0000      -0.533646       -14.5212
 148   2.0000      -0.531171       -14.4539
 149   2.0000      -0.530641       -14.4395
 150   2.0000      -0.528267       -14.3749
 151   2.0000      -0.527062       -14.3421
 152   2.0000      -0.526279       -14.3208
 153   2.0000      -0.524099       -14.2615
 154   2.0000      -0.522553       -14.2194
 155   2.0000      -0.518456       -14.1079
 156   2.0000      -0.513491       -13.9728
 157   2.0000      -0.511555       -13.9201
 158   2.0000      -0.507670       -13.8144
 159   2.0000      -0.506930       -13.7943
 160   2.0000      -0.505410       -13.7529
 161   2.0000      -0.503823       -13.7097
 162   2.0000      -0.500816       -13.6279
 163   2.0000      -0.498817       -13.5735
 164   2.0000      -0.495217       -13.4755
 165   2.0000      -0.493753       -13.4357
 166   2.0000      -0.487726       -13.2717
 167   2.0000      -0.484511       -13.1842
 168   2.0000      -0.480833       -13.0841
 169   2.0000      -0.478644       -13.0246
 170   2.0000      -0.476071       -12.9546
 171   2.0000      -0.475077       -12.9275
 172   2.0000      -0.471858       -12.8399
 173   2.0000      -0.468923       -12.7600
 174   2.0000      -0.463454       -12.6112
 175   2.0000      -0.460590       -12.5333
 176   2.0000      -0.458771       -12.4838
 177   2.0000      -0.455922       -12.4063
 178   2.0000      -0.455247       -12.3879
 179   2.0000      -0.454612       -12.3706
 180   2.0000      -0.452086       -12.3019
 181   2.0000      -0.450038       -12.2462
 182   2.0000      -0.448518       -12.2048
 183   2.0000      -0.444308       -12.0902
 184   2.0000      -0.443387       -12.0652
 185   2.0000      -0.442235       -12.0338
 186   2.0000      -0.441566       -12.0156
 187   2.0000      -0.437198       -11.8968
 188   2.0000      -0.434801       -11.8315
 189   2.0000      -0.433178       -11.7874
 190   2.0000      -0.432304       -11.7636
 191   2.0000      -0.429089       -11.6761
 192   2.0000      -0.426953       -11.6180
 193   2.0000      -0.422535       -11.4978
 194   2.0000      -0.416863       -11.3434
 195   2.0000      -0.410503       -11.1704
 196   2.0000      -0.403123       -10.9695
 197   2.0000      -0.400099       -10.8872
 198   2.0000      -0.395753       -10.7690
 199   2.0000      -0.372636       -10.1399
 200   2.0000      -0.367429        -9.9983
 201   2.0000      -0.351165        -9.5557
 202   2.0000      -0.344066        -9.3625
 203   2.0000      -0.342525        -9.3206
 204   2.0000      -0.341224        -9.2852
 205   2.0000      -0.339667        -9.2428
 206   2.0000      -0.338162        -9.2018
 207   2.0000      -0.335165        -9.1203
 208   2.0000      -0.333428        -9.0730
 209   2.0000      -0.329736        -8.9726
 210   2.0000      -0.324766        -8.8373
 211   2.0000      -0.324392        -8.8272
 212   2.0000      -0.308754        -8.4016
 213   2.0000      -0.308249        -8.3879
 214   2.0000      -0.298898        -8.1334
 215   2.0000      -0.267532        -7.2799
 216   2.0000      -0.239854        -6.5268
 217   0.0000      -0.098881        -2.6907
 218   0.0000      -0.085257        -2.3200
 219   0.0000      -0.069030        -1.8784
 220   0.0000      -0.046713        -1.2711
 221   0.0000      -0.045272        -1.2319

MULLIKEN ATOMIC CHARGES
-----------------------
   0 C :    0.034051
   1 N :   -0.257757
   2 C :    0.110958
   3 C :   -0.002082
   4 C :    0.173040
   5 O :   -0.220255
   6 C :   -0.110229
   7 C :    0.006399
   8 C :    0.162029
   9 O :   -0.186014
  10 N :   -0.270064
  11 C :    0.095712
  12 C :    0.004307
  13 C :    0.156962
  14 C :   -0.031617
  15 C :    0.092689
  16 C :   -0.080731
  17 S :    0.177222
  18 C :   -0.098580
  19 C :    0.014921
  20 C :   -0.014763
  21 C :    0.120036
  22 O :   -0.186204
  23 C :    0.036210
  24 C :    0.063566
  25 C :   -0.082192
  26 S :    0.161341
  27 C :   -0.104597
  28 C :    0.015927
  29 C :   -0.013271
  30 C :    0.124951
  31 O :   -0.180319
  32 C :    0.051847
  33 C :    0.066319
  34 C :   -0.065825
  35 S :    0.176921
  36 C :   -0.190150
  37 C :    0.204469
  38 O :   -0.199741
  39 C :    0.078571
  40 C :    0.005180
  41 C :   -0.001674
  42 C :   -0.101529
  43 C :    0.132945
  44 O :   -0.124002
  45 C :    0.093431
  46 C :   -0.174261
  47 S :    0.187385
  48 C :   -0.118512
  49 C :    0.021129
  50 C :    0.309381
  51 C :   -0.332500
  52 C :   -0.188661
  53 N :    0.171542
  54 C :   -0.192341
  55 N :    0.159861
  56 Cl:   -0.000314
  57 H :    0.013999
  58 H :    0.018984
  59 H :    0.042111
  60 H :    0.014776
  61 H :    0.022115
  62 H :    0.030018
  63 H :    0.043615
  64 H :    0.022975
  65 H :    0.030338
  66 H :    0.022723
  67 H :    0.015140
  68 H :   -0.026986
  69 H :    0.008465
  70 H :   -0.001887
  71 H :   -0.005653
  72 H :    0.003744
  73 H :    0.001794
  74 H :    0.000127
  75 H :   -0.007184
  76 H :    0.002617
  77 H :    0.001302
  78 H :   -0.009877
  79 H :   -0.009425
  80 H :    0.032462
  81 H :    0.052595
Sum of atomic charges:   -0.0000000

LOEWDIN ATOMIC CHARGES
----------------------
   0 C :    0.084954
   1 N :    0.000579
   2 C :    0.037805
   3 C :   -0.060551
   4 C :    0.075408
   5 O :   -0.211824
   6 C :   -0.135696
   7 C :   -0.126828
   8 C :    0.082136
   9 O :   -0.190590
  10 N :   -0.009493
  11 C :    0.034728
  12 C :   -0.061520
  13 C :    0.086432
  14 C :   -0.047794
  15 C :    0.016132
  16 C :   -0.173435
  17 S :    0.473811
  18 C :   -0.144966
  19 C :   -0.115312
  20 C :   -0.012550
  21 C :    0.097255
  22 O :   -0.139250
  23 C :   -0.035208
  24 C :   -0.028388
  25 C :   -0.168065
  26 S :    0.464617
  27 C :   -0.148453
  28 C :   -0.109217
  29 C :   -0.017875
  30 C :    0.099084
  31 O :   -0.133145
  32 C :   -0.022971
  33 C :   -0.029652
  34 C :   -0.140214
  35 S :    0.489413
  36 C :   -0.233650
  37 C :    0.084967
  38 O :   -0.143948
  39 C :   -0.029019
  40 C :   -0.033181
  41 C :    0.059638
  42 C :   -0.055000
  43 C :    0.085053
  44 O :   -0.128126
  45 C :   -0.115327
  46 C :   -0.272429
  47 S :    0.479393
  48 C :   -0.147041
  49 C :   -0.048486
  50 C :    0.082259
  51 C :   -0.131539
  52 C :   -0.019921
  53 N :   -0.051979
  54 C :   -0.015683
  55 N :   -0.048538
  56 Cl:    0.192041
  57 H :    0.031764
  58 H :    0.024216
  59 H :    0.035926
  60 H :    0.022230
  61 H :    0.029843
  62 H :    0.031386
  63 H :    0.037874
  64 H :    0.022097
  65 H :    0.032452
  66 H :    0.030430
  67 H :    0.021610
  68 H :    0.028225
  69 H :    0.037091
  70 H :    0.035953
  71 H :   -0.002079
  72 H :    0.034549
  73 H :    0.032372
  74 H :    0.037243
  75 H :   -0.002142
  76 H :    0.034804
  77 H :    0.033070
  78 H :   -0.000386
  79 H :    0.033501
  80 H :    0.050694
  81 H :    0.038438

  Mayer bond orders larger than 0.100000
B(  0-C ,  1-N ) :   1.1853 B(  0-C ,  7-C ) :   1.4632 B(  0-C , 57-H ) :   0.9901
B(  1-N ,  2-C ) :   0.9433 B(  1-N ,  4-C ) :   1.0605 B(  2-C ,  3-C ) :   1.1185
B(  2-C , 58-H ) :   0.9540 B(  2-C , 59-H ) :   0.9343 B(  3-C , 60-H ) :   0.9694
B(  3-C , 61-H ) :   0.9687 B(  3-C , 62-H ) :   0.9672 B(  4-C ,  5-O ) :   2.0089
B(  4-C ,  6-C ) :   1.0109 B(  5-O , 69-H ) :   0.1170 B(  6-C ,  7-C ) :   1.2014
B(  6-C , 13-C ) :   1.3776 B(  7-C ,  8-C ) :   0.9493 B(  8-C ,  9-O ) :   2.1766
B(  8-C , 10-N ) :   1.0167 B( 10-N , 11-C ) :   0.9482 B( 10-N , 13-C ) :   1.1558
B( 11-C , 12-C ) :   1.1199 B( 11-C , 63-H ) :   0.9272 B( 11-C , 64-H ) :   0.9503
B( 12-C , 65-H ) :   0.9638 B( 12-C , 66-H ) :   0.9679 B( 12-C , 67-H ) :   0.9684
B( 13-C , 14-C ) :   1.1571 B( 14-C , 15-C ) :   1.6415 B( 14-C , 68-H ) :   0.9631
B( 15-C , 16-C ) :   1.1133 B( 15-C , 69-H ) :   0.9377 B( 16-C , 17-S ) :   1.1112
B( 16-C , 20-C ) :   1.4751 B( 17-S , 18-C ) :   1.1648 B( 18-C , 19-C ) :   1.4015
B( 18-C , 23-C ) :   1.1230 B( 19-C , 20-C ) :   1.2688 B( 19-C , 21-C ) :   0.9749
B( 20-C , 70-H ) :   1.0008 B( 21-C , 22-O ) :   2.1709 B( 21-C , 71-H ) :   0.9583
B( 23-C , 24-C ) :   1.7075 B( 23-C , 72-H ) :   0.9560 B( 24-C , 25-C ) :   1.1189
B( 24-C , 73-H ) :   0.9587 B( 25-C , 26-S ) :   1.1103 B( 25-C , 29-C ) :   1.4919
B( 26-S , 27-C ) :   1.1604 B( 27-C , 28-C ) :   1.4119 B( 27-C , 32-C ) :   1.1244
B( 28-C , 29-C ) :   1.2625 B( 28-C , 30-C ) :   0.9727 B( 29-C , 74-H ) :   1.0004
B( 30-C , 31-O ) :   2.1776 B( 30-C , 75-H ) :   0.9583 B( 32-C , 33-C ) :   1.7119
B( 32-C , 76-H ) :   0.9512 B( 33-C , 34-C ) :   1.1197 B( 33-C , 77-H ) :   0.9581
B( 34-C , 35-S ) :   1.1647 B( 34-C , 40-C ) :   1.4563 B( 35-S , 36-C ) :   1.1125
B( 36-C , 37-C ) :   1.0406 B( 36-C , 39-C ) :   1.4296 B( 37-C , 38-O ) :   2.0869
B( 37-C , 78-H ) :   0.9553 B( 39-C , 40-C ) :   1.3099 B( 39-C , 41-C ) :   0.9994
B( 40-C , 79-H ) :   0.9973 B( 41-C , 42-C ) :   1.8199 B( 41-C , 80-H ) :   0.9422
B( 42-C , 43-C ) :   0.9271 B( 42-C , 50-C ) :   0.9832 B( 43-C , 44-O ) :   2.2886
B( 43-C , 45-C ) :   0.9250 B( 45-C , 46-C ) :   1.4759 B( 45-C , 49-C ) :   1.2245
B( 46-C , 47-S ) :   1.1572 B( 46-C , 56-Cl) :   1.1287 B( 47-S , 48-C ) :   1.1597
B( 48-C , 49-C ) :   1.5517 B( 48-C , 81-H ) :   0.9555 B( 49-C , 50-C ) :   1.0202
B( 50-C , 51-C ) :   1.6927 B( 51-C , 52-C ) :   1.1639 B( 51-C , 54-C ) :   1.1319
B( 52-C , 53-N ) :   3.0080 B( 54-C , 55-N ) :   3.0076

-----------------------------------------------------------------------------
         ABSORPTION SPECTRUM VIA TRANSITION ELECTRIC DIPOLE MOMENTS
-----------------------------------------------------------------------------
State   Energy  Wavelength   fosc         T2         TX        TY        TZ
        (cm-1)    (nm)                  (au**2)     (au)      (au)      (au)
-----------------------------------------------------------------------------
   0   19133.6    522.6   1.175888844  20.23231   3.43052  -2.67904  -1.13428
   1   21906.6    456.5   0.217334723   3.26610  -1.12806  -0.12620   1.40629
   2   23904.9    418.3   0.538317879   7.41357  -2.10288   0.50780   1.65336
   3   24870.6    402.1   0.592337377   7.84078  -2.16101   1.35226   1.15853
   4   26322.9    379.9   0.066856855   0.83616  -0.74598   0.32674  -0.41583
   5   26860.4    372.3   0.023552297   0.28867  -0.00271   0.53491   0.05036
   6   27617.9    362.1   0.114964219   1.37040   0.01331  -0.91606  -0.72873
   7   28132.9    355.5   0.153704354   1.79865   0.71253   0.26350   1.10522
   8   28876.0    346.3   0.031662688   0.36098  -0.19565   0.02939   0.56731
   9   29427.6    339.8   0.020025304   0.22403   0.46463   0.08542   0.02913
  10   29768.4    335.9   0.072504574   0.80184   0.66904   0.52666  -0.27721
  11   30790.8    324.8   0.018503408   0.19784   0.29045   0.20257   0.26915
  12   31137.8    321.2   0.033004235   0.34895   0.50260   0.19921   0.23802
  13   31927.9    313.2   0.041338630   0.42625  -0.49345  -0.42071  -0.07588
  14   32064.4    311.9   0.000974586   0.01001  -0.08602   0.05038   0.00830
  15   32495.3    307.7   0.079095509   0.80132   0.82340  -0.10546  -0.33497
  16   32778.6    305.1   0.013932566   0.13993  -0.29553  -0.19449  -0.12151
  17   33501.6    298.5   0.082926683   0.81490   0.85343  -0.29261  -0.03050
  18   33803.2    295.8   0.044391536   0.43233  -0.58494   0.29706  -0.04393
  19   34114.8    293.1   0.013133097   0.12674  -0.14881  -0.16901  -0.27573
  20   34786.9    287.5   0.071697327   0.67852  -0.68323   0.42747  -0.17026
  21   35533.6    281.4   0.028167534   0.26097  -0.21973  -0.15977  -0.43262
  22   35830.9    279.1   0.104951307   0.96429   0.57622  -0.17512   0.77562
  23   36221.1    276.1   0.028843352   0.26216  -0.09997   0.45742  -0.20720
  24   36743.5    272.2   0.057017638   0.51086   0.35092  -0.27676  -0.55778
  25   36998.0    270.3   0.450834417   4.01157  -1.41552   0.89907   1.09524
  26   37460.6    266.9   0.050532780   0.44409  -0.57526   0.32292   0.09433
  27   37611.9    265.9   0.095603286   0.83680   0.62921  -0.44273   0.49486
  28   38368.4    260.6   0.116063498   0.99586  -0.21453   0.63749   0.73718
  29   38660.3    258.7   0.437308265   3.72390  -1.43804   1.25627  -0.27879
  30   38917.4    257.0   0.090899733   0.76894  -0.71353   0.42044  -0.28818
  31   38980.5    256.5   0.005402270   0.04563  -0.19817  -0.00801   0.07931
  32   39253.0    254.8   0.064535566   0.54126   0.15087   0.16167   0.70168
  33   39259.3    254.7   0.050948638   0.42723  -0.28635   0.51010  -0.29160
  34   39469.2    253.4   0.066600769   0.55552   0.17292  -0.22040   0.69068
  35   39684.3    252.0   0.042059162   0.34891  -0.28471   0.39135  -0.33868
  36   39907.2    250.6   0.003461010   0.02855  -0.05808   0.11356  -0.11083
  37   40214.8    248.7   0.026589534   0.21767  -0.23359   0.16289  -0.36956

FINAL SINGLE POINT ENERGY     -4335.256928391082

DIPOLE MOMENT
-------------
                                X             Y             Z
Electronic contribution:   -121.84797      64.86006      41.42313
Nuclear contribution   :    121.72751     -64.00292     -40.62079
                        -----------------------------------------
Total Dipole Moment    :     -0.12046       0.85713       0.80235
                        -----------------------------------------
Magnitude (a.u.)       :      1.18023
Magnitude (Debye)      :      2.99991

Rotational constants in cm-1:     0.002897     0.000246     0.000242
Rotational constants in MHz :    86.839200     7.386205     7.251359

                             ****ORCA TERMINATED NORMALLY****
TOTAL RUN TIME: 0 days 0 hours 6 minutes 12 seconds 50 msec
