                         Program Version 4.2.0 -  RELEASE  -
|  1> # ORCA input file
|  2> # SCF done       -149.151644890659          0.000509962198
|  3> ! CAM-B3LYP def2-SVP def2/J RIJCOSX Grid4 TightSCF
|  4> %maxcore 5000
|  5> %tddft
|  6>     Mode sTDDFT
|  7>     Ethresh 5.0
|  8>     maxcore 5000
|  9> end
| 10>
| 11> %pal
| 12>   nprocs 6
| 13>   end
| 14> * xyz 0 1
| 15>    C        0.11795        -0.88075         5.46863
| 16>    N       -1.01053        -1.07954         4.73374
| 17>    C       -1.79108        -2.29170         4.70204
| 18>    C       -2.41255        -2.60875         6.05849
| 19>    C       -1.34186         0.06859         3.98424
| 20>    O       -2.30163         0.11830         3.23471
| 21>    C       -0.32157         1.02409         4.32529
| 22>    C        0.57082         0.38748         5.25245
| 23>    C        1.61521         1.33102         5.58625
| 24>    O        2.57664         1.26514         6.31897
| 25>    N        1.28643         2.47984         4.83698
| 26>    C        2.13806         3.64320         4.87009
| 27>    C        3.07899         3.69271         3.66805
| 28>    C        0.14466         2.30592         4.08355
| 29>    C       -0.37621         3.33469         3.24242
| 30>    C       -1.52765         3.24264         2.54553
| 31>    C       -1.98431         4.30479         1.67687
| 32>    C       -1.12131         5.15284         1.03066
| 33>    S       -1.90872         6.31728         0.05222
| 34>    C       -3.43331         5.70670         0.50818
| 35>    C       -3.34727         4.63756         1.35732
| 36>    C       -4.59435         4.03374         1.85819
| 37>    O       -5.69046         4.49620         1.64677
| 38>    O       -4.37858         2.91573         2.56996
| 39>    C       -5.44352         2.25741         3.12132
| 40>    C       -5.21679         1.07292         3.69903
| 41>    C       -6.18233         0.26039         4.36277
| 42>    S       -5.66800        -1.25686         5.02350
| 43>    C       -7.25722        -1.60369         5.64523
| 44>    C       -8.13658        -0.58300         5.32685
| 45>    C       -7.52641         0.47608         4.61252
| 46>    O       -8.13484         1.61422         4.18591
| 47>    C       -9.38490         1.90648         4.77321
| 48>    C      -10.36258         0.74984         4.65420
| 49>    S       -9.83796        -0.61927         5.74386
| 50>    C       -7.47343        -2.80230         6.37146
| 51>    S       -8.98316        -3.21432         7.11076
| 52>    C       -8.31299        -4.69566         7.74211
| 53>    C       -9.12330        -5.47221         8.63394
| 54>    O      -10.29979        -5.28350         8.85169
| 55>    C       -6.98159        -4.86035         7.35637
| 56>    C       -6.52264        -3.77664         6.59404
| 57>    C       -6.13821        -5.98830         7.65435
| 58>    S       -4.39899        -5.75735         7.64426
| 59>    C       -4.13347        -7.42943         8.02170
| 60>    O       -2.92558        -7.94238         8.17159
| 61>    C       -1.82058        -7.08419         8.01469
| 62>    C       -5.32349        -8.12992         8.13503
| 63>    C       -5.35997        -9.56542         8.44846
| 64>    O       -4.35591       -10.22348         8.60240
| 65>    C       -6.74132       -10.16637         8.57079
| 66>    C       -6.44564        -7.28920         7.91636
| 67>    H        0.52313        -1.66032         6.08634
| 68>    H       -1.15588        -3.12238         4.37511
| 69>    H       -2.57543        -2.13082         3.95736
| 70>    H       -1.64384        -2.74638         6.81512
| 71>    H       -2.99431        -3.52350         5.99005
| 72>    H       -3.06996        -1.80190         6.37108
| 73>    H        2.72722         3.55745         5.78780
| 74>    H        1.52726         4.54840         4.92899
| 75>    H        3.71847         2.81363         3.66480
| 76>    H        3.70579         4.57834         3.72569
| 77>    H        2.52108         3.71599         2.73426
| 78>    H        0.19697         4.24955         3.19066
| 79>    H       -2.14287         2.35863         2.62449
| 80>    H       -0.04989         5.12622         1.04392
| 81>    H       -4.33682         6.14930         0.13795
| 82>    H       -6.40197         2.75118         3.05158
| 83>    H       -4.21065         0.67713         3.66232
| 84>    H       -9.75294         2.77830         4.22643
| 85>    H       -9.25320         2.17361         5.83085
| 86>    H      -11.35625         1.03831         4.98849
| 87>    H      -10.40466         0.38258         3.62857
| 88>    H       -8.56700        -6.26994         9.16387
| 89>    H       -5.52261        -3.70403         6.20391
| 90>    H       -0.93670        -7.69656         8.17827
| 91>    H       -1.85050        -6.26849         8.74477
| 92>    H       -1.79784        -6.65686         7.00645
| 93>    H       -7.27830       -10.06350         7.63040
| 94>    H       -7.30382        -9.65813         9.35077
| 95>    H       -6.65057       -11.22021         8.81985
| 96>    H       -7.45593        -7.65241         7.91535
| 97> *
| 98>
| 99>                          ****END OF INPUT****

CARTESIAN COORDINATES (ANGSTROEM)
---------------------------------
  C      0.117950   -0.880750    5.468630
  N     -1.010530   -1.079540    4.733740
  C     -1.791080   -2.291700    4.702040
  C     -2.412550   -2.608750    6.058490
  C     -1.341860    0.068590    3.984240
  O     -2.301630    0.118300    3.234710
  C     -0.321570    1.024090    4.325290
  C      0.570820    0.387480    5.252450
  C      1.615210    1.331020    5.586250
  O      2.576640    1.265140    6.318970
  N      1.286430    2.479840    4.836980
  C      2.138060    3.643200    4.870090
  C      3.078990    3.692710    3.668050
  C      0.144660    2.305920    4.083550
  C     -0.376210    3.334690    3.242420
  C     -1.527650    3.242640    2.545530
  C     -1.984310    4.304790    1.676870
  C     -1.121310    5.152840    1.030660
  S     -1.908720    6.317280    0.052220
  C     -3.433310    5.706700    0.508180
  C     -3.347270    4.637560    1.357320
  C     -4.594350    4.033740    1.858190
  O     -5.690460    4.496200    1.646770
  O     -4.378580    2.915730    2.569960
  C     -5.443520    2.257410    3.121320
  C     -5.216790    1.072920    3.699030
  C     -6.182330    0.260390    4.362770
  S     -5.668000   -1.256860    5.023500
  C     -7.257220   -1.603690    5.645230
  C     -8.136580   -0.583000    5.326850
  C     -7.526410    0.476080    4.612520
  O     -8.134840    1.614220    4.185910
  C     -9.384900    1.906480    4.773210
  C    -10.362580    0.749840    4.654200
  S     -9.837960   -0.619270    5.743860
  C     -7.473430   -2.802300    6.371460
  S     -8.983160   -3.214320    7.110760
  C     -8.312990   -4.695660    7.742110
  C     -9.123300   -5.472210    8.633940
  O    -10.299790   -5.283500    8.851690
  C     -6.981590   -4.860350    7.356370
  C     -6.522640   -3.776640    6.594040
  C     -6.138210   -5.988300    7.654350
  S     -4.398990   -5.757350    7.644260
  C     -4.133470   -7.429430    8.021700
  O     -2.925580   -7.942380    8.171590
  C     -1.820580   -7.084190    8.014690
  C     -5.323490   -8.129920    8.135030
  C     -5.359970   -9.565420    8.448460
  O     -4.355910  -10.223480    8.602400
  C     -6.741320  -10.166370    8.570790
  C     -6.445640   -7.289200    7.916360
  H      0.523130   -1.660320    6.086340
  H     -1.155880   -3.122380    4.375110
  H     -2.575430   -2.130820    3.957360
  H     -1.643840   -2.746380    6.815120
  H     -2.994310   -3.523500    5.990050
  H     -3.069960   -1.801900    6.371080
  H      2.727220    3.557450    5.787800
  H      1.527260    4.548400    4.928990
  H      3.718470    2.813630    3.664800
  H      3.705790    4.578340    3.725690
  H      2.521080    3.715990    2.734260
  H      0.196970    4.249550    3.190660
  H     -2.142870    2.358630    2.624490
  H     -0.049890    5.126220    1.043920
  H     -4.336820    6.149300    0.137950
  H     -6.401970    2.751180    3.051580
  H     -4.210650    0.677130    3.662320
  H     -9.752940    2.778300    4.226430
  H     -9.253200    2.173610    5.830850
  H    -11.356250    1.038310    4.988490
  H    -10.404660    0.382580    3.628570
  H     -8.567000   -6.269940    9.163870
  H     -5.522610   -3.704030    6.203910
  H     -0.936700   -7.696560    8.178270
  H     -1.850500   -6.268490    8.744770
  H     -1.797840   -6.656860    7.006450
  H     -7.278300  -10.063500    7.630400
  H     -7.303820   -9.658130    9.350770
  H     -6.650570  -11.220210    8.819850
  H     -7.455930   -7.652410    7.915350

 Total Charge           Charge          ....    0
 Multiplicity           Mult            ....    1
 Number of Electrons    NEL             ....  410
 Basis Dimension        Dim             ....  898

ORBITAL ENERGIES
----------------

  NO   OCC          E(Eh)            E(eV)
   0   2.0000     -88.975992     -2421.1598
   1   2.0000     -88.969347     -2420.9790
   2   2.0000     -88.957772     -2420.6640
   3   2.0000     -88.957572     -2420.6586
   4   2.0000     -88.939565     -2420.1686
   5   2.0000     -19.276204      -524.5322
   6   2.0000     -19.273089      -524.4474
   7   2.0000     -19.257345      -524.0190
   8   2.0000     -19.205533      -522.6091
   9   2.0000     -19.191291      -522.2216
  10   2.0000     -19.190988      -522.2133
  11   2.0000     -19.188557      -522.1472
  12   2.0000     -19.182061      -521.9704
  13   2.0000     -14.454640      -393.3308
  14   2.0000     -14.452869      -393.2825
  15   2.0000     -10.408609      -283.2327
  16   2.0000     -10.373782      -282.2850
  17   2.0000     -10.373596      -282.2799
  18   2.0000     -10.371752      -282.2297
  19   2.0000     -10.344656      -281.4924
  20   2.0000     -10.343085      -281.4497
  21   2.0000     -10.342967      -281.4464
  22   2.0000     -10.339845      -281.3615
  23   2.0000     -10.339649      -281.3562
  24   2.0000     -10.337051      -281.2855
  25   2.0000     -10.328266      -281.0464
  26   2.0000     -10.320953      -280.8474
  27   2.0000     -10.317022      -280.7405
  28   2.0000     -10.311284      -280.5843
  29   2.0000     -10.311193      -280.5818
  30   2.0000     -10.311025      -280.5773
  31   2.0000     -10.310969      -280.5757
  32   2.0000     -10.309997      -280.5493
  33   2.0000     -10.308432      -280.5067
  34   2.0000     -10.308346      -280.5044
  35   2.0000     -10.306019      -280.4410
  36   2.0000     -10.301389      -280.3150
  37   2.0000     -10.300402      -280.2882
  38   2.0000     -10.299695      -280.2690
  39   2.0000     -10.296442      -280.1804
  40   2.0000     -10.294787      -280.1354
  41   2.0000     -10.289998      -280.0051
  42   2.0000     -10.288584      -279.9666
  43   2.0000     -10.285192      -279.8743
  44   2.0000     -10.275243      -279.6036
  45   2.0000     -10.269329      -279.4426
  46   2.0000     -10.268860      -279.4299
  47   2.0000     -10.267331      -279.3883
  48   2.0000     -10.265014      -279.3252
  49   2.0000     -10.259854      -279.1848
  50   2.0000     -10.258004      -279.1345
  51   2.0000     -10.256632      -279.0971
  52   2.0000      -8.072291      -219.6582
  53   2.0000      -8.065193      -219.4650
  54   2.0000      -8.052707      -219.1253
  55   2.0000      -8.052353      -219.1157
  56   2.0000      -8.034956      -218.6423
  57   2.0000      -6.041338      -164.3932
  58   2.0000      -6.036893      -164.2722
  59   2.0000      -6.035131      -164.2243
  60   2.0000      -6.034530      -164.2079
  61   2.0000      -6.030399      -164.0955
  62   2.0000      -6.027122      -164.0063
  63   2.0000      -6.022170      -163.8716
  64   2.0000      -6.021714      -163.8592
  65   2.0000      -6.018209      -163.7638
  66   2.0000      -6.017328      -163.7398
  67   2.0000      -6.014559      -163.6645
  68   2.0000      -6.014396      -163.6600
  69   2.0000      -6.005336      -163.4135
  70   2.0000      -6.001305      -163.3038
  71   2.0000      -5.994565      -163.1204
  72   2.0000      -1.206128       -32.8204
  73   2.0000      -1.187035       -32.3009
  74   2.0000      -1.164994       -31.7011
  75   2.0000      -1.132856       -30.8266
  76   2.0000      -1.126360       -30.6498
  77   2.0000      -1.105884       -30.0926
  78   2.0000      -1.105291       -30.0765
  79   2.0000      -1.101349       -29.9692
  80   2.0000      -1.063212       -28.9315
  81   2.0000      -1.054598       -28.6971
  82   2.0000      -1.002827       -27.2883
  83   2.0000      -1.000474       -27.2243
  84   2.0000      -0.988826       -26.9073
  85   2.0000      -0.970613       -26.4117
  86   2.0000      -0.928049       -25.2535
  87   2.0000      -0.925573       -25.1861
  88   2.0000      -0.912329       -24.8257
  89   2.0000      -0.890185       -24.2232
  90   2.0000      -0.879281       -23.9265
  91   2.0000      -0.875702       -23.8291
  92   2.0000      -0.866254       -23.5720
  93   2.0000      -0.861465       -23.4416
  94   2.0000      -0.853557       -23.2265
  95   2.0000      -0.843367       -22.9492
  96   2.0000      -0.838306       -22.8115
  97   2.0000      -0.833201       -22.6725
  98   2.0000      -0.823065       -22.3967
  99   2.0000      -0.813170       -22.1275
 100   2.0000      -0.803036       -21.8517
 101   2.0000      -0.801540       -21.8110
 102   2.0000      -0.775371       -21.0989
 103   2.0000      -0.769545       -20.9404
 104   2.0000      -0.768058       -20.8999
 105   2.0000      -0.763494       -20.7757
 106   2.0000      -0.751064       -20.4375
 107   2.0000      -0.742999       -20.2180
 108   2.0000      -0.711973       -19.3738
 109   2.0000      -0.706377       -19.2215
 110   2.0000      -0.705690       -19.2028
 111   2.0000      -0.687258       -18.7012
 112   2.0000      -0.678815       -18.4715
 113   2.0000      -0.677191       -18.4273
 114   2.0000      -0.659684       -17.9509
 115   2.0000      -0.657368       -17.8879
 116   2.0000      -0.652740       -17.7619
 117   2.0000      -0.649151       -17.6643
 118   2.0000      -0.648210       -17.6387
 119   2.0000      -0.643493       -17.5103
 120   2.0000      -0.635756       -17.2998
 121   2.0000      -0.621357       -16.9080
 122   2.0000      -0.609360       -16.5815
 123   2.0000      -0.606449       -16.5023
 124   2.0000      -0.600903       -16.3514
 125   2.0000      -0.590827       -16.0772
 126   2.0000      -0.584688       -15.9102
 127   2.0000      -0.579618       -15.7722
 128   2.0000      -0.577669       -15.7192
 129   2.0000      -0.575641       -15.6640
 130   2.0000      -0.574508       -15.6331
 131   2.0000      -0.572939       -15.5905
 132   2.0000      -0.568013       -15.4564
 133   2.0000      -0.565578       -15.3902
 134   2.0000      -0.559310       -15.2196
 135   2.0000      -0.552886       -15.0448
 136   2.0000      -0.549249       -14.9458
 137   2.0000      -0.542707       -14.7678
 138   2.0000      -0.537598       -14.6288
 139   2.0000      -0.533859       -14.5271
 140   2.0000      -0.531254       -14.4561
 141   2.0000      -0.530145       -14.4260
 142   2.0000      -0.526629       -14.3303
 143   2.0000      -0.524767       -14.2796
 144   2.0000      -0.517990       -14.0952
 145   2.0000      -0.515075       -14.0159
 146   2.0000      -0.513094       -13.9620
 147   2.0000      -0.512018       -13.9327
 148   2.0000      -0.510370       -13.8879
 149   2.0000      -0.506308       -13.7773
 150   2.0000      -0.504702       -13.7337
 151   2.0000      -0.499343       -13.5878
 152   2.0000      -0.498435       -13.5631
 153   2.0000      -0.496187       -13.5019
 154   2.0000      -0.490406       -13.3446
 155   2.0000      -0.487864       -13.2754
 156   2.0000      -0.486558       -13.2399
 157   2.0000      -0.484655       -13.1881
 158   2.0000      -0.479802       -13.0561
 159   2.0000      -0.477642       -12.9973
 160   2.0000      -0.474578       -12.9139
 161   2.0000      -0.470791       -12.8109
 162   2.0000      -0.469226       -12.7683
 163   2.0000      -0.468642       -12.7524
 164   2.0000      -0.466570       -12.6960
 165   2.0000      -0.461089       -12.5469
 166   2.0000      -0.458335       -12.4719
 167   2.0000      -0.457140       -12.4394
 168   2.0000      -0.456359       -12.4182
 169   2.0000      -0.452342       -12.3088
 170   2.0000      -0.448702       -12.2098
 171   2.0000      -0.446495       -12.1498
 172   2.0000      -0.442383       -12.0379
 173   2.0000      -0.438813       -11.9407
 174   2.0000      -0.436745       -11.8844
 175   2.0000      -0.435856       -11.8602
 176   2.0000      -0.434112       -11.8128
 177   2.0000      -0.428799       -11.6682
 178   2.0000      -0.425269       -11.5721
 179   2.0000      -0.424197       -11.5430
 180   2.0000      -0.419799       -11.4233
 181   2.0000      -0.417519       -11.3613
 182   2.0000      -0.415079       -11.2949
 183   2.0000      -0.410739       -11.1768
 184   2.0000      -0.404197       -10.9987
 185   2.0000      -0.401845       -10.9348
 186   2.0000      -0.387656       -10.5487
 187   2.0000      -0.376151       -10.2356
 188   2.0000      -0.373842       -10.1728
 189   2.0000      -0.361361        -9.8331
 190   2.0000      -0.348165        -9.4740
 191   2.0000      -0.345353        -9.3975
 192   2.0000      -0.339890        -9.2489
 193   2.0000      -0.332479        -9.0472
 194   2.0000      -0.331721        -9.0266
 195   2.0000      -0.330000        -8.9798
 196   2.0000      -0.316116        -8.6020
 197   2.0000      -0.314168        -8.5490
 198   2.0000      -0.311223        -8.4688
 199   2.0000      -0.310565        -8.4509
 200   2.0000      -0.305795        -8.3211
 201   2.0000      -0.277694        -7.5564
 202   2.0000      -0.267713        -7.2848
 203   2.0000      -0.251418        -6.8414
 204   2.0000      -0.241928        -6.5832
 205   0.0000      -0.067657        -1.8410
 206   0.0000      -0.051600        -1.4041
 207   0.0000      -0.018718        -0.5093
 208   0.0000      -0.004690        -0.1276
 209   0.0000       0.006074         0.1653

MULLIKEN ATOMIC CHARGES
-----------------------
   0 C :    0.034888
   1 N :   -0.258586
   2 C :    0.112952
   3 C :   -0.019636
   4 C :    0.178935
   5 O :   -0.220949
   6 C :   -0.094929
   7 C :    0.007286
   8 C :    0.164643
   9 O :   -0.184663
  10 N :   -0.273790
  11 C :    0.096508
  12 C :    0.004052
  13 C :    0.159921
  14 C :   -0.025917
  15 C :    0.018583
  16 C :    0.097896
  17 C :   -0.144337
  18 S :    0.154028
  19 C :   -0.093384
  20 C :   -0.002405
  21 C :    0.201260
  22 O :   -0.200848
  23 O :   -0.238143
  24 C :    0.131369
  25 C :    0.053001
  26 C :   -0.118197
  27 S :    0.122699
  28 C :   -0.115674
  29 C :   -0.060564
  30 C :    0.159050
  31 O :   -0.308815
  32 C :    0.222386
  33 C :   -0.089192
  34 S :    0.021001
  35 C :   -0.038354
  36 S :    0.175290
  37 C :   -0.230152
  38 C :    0.142696
  39 O :   -0.209451
  40 C :    0.244693
  41 C :   -0.093170
  42 C :   -0.120125
  43 S :    0.062163
  44 C :    0.013837
  45 O :   -0.224679
  46 C :    0.165727
  47 C :    0.006373
  48 C :   -0.019279
  49 O :   -0.171626
  50 C :    0.040410
  51 C :   -0.002074
  52 H :    0.013119
  53 H :    0.018259
  54 H :    0.042607
  55 H :    0.010337
  56 H :    0.027904
  57 H :    0.032112
  58 H :    0.044238
  59 H :    0.024421
  60 H :    0.032041
  61 H :    0.023531
  62 H :    0.009571
  63 H :   -0.028870
  64 H :    0.044404
  65 H :    0.030436
  66 H :    0.044475
  67 H :    0.031486
  68 H :   -0.011472
  69 H :    0.036392
  70 H :    0.034266
  71 H :    0.063088
  72 H :    0.077054
  73 H :   -0.022619
  74 H :   -0.025301
  75 H :    0.059210
  76 H :    0.036443
  77 H :    0.029333
  78 H :    0.035460
  79 H :    0.034276
  80 H :    0.028987
  81 H :   -0.007896
Sum of atomic charges:    0.0000000

LOEWDIN ATOMIC CHARGES
----------------------
   0 C :    0.083969
   1 N :   -0.000568
   2 C :    0.038354
   3 C :   -0.066634
   4 C :    0.082999
   5 O :   -0.207943
   6 C :   -0.136678
   7 C :   -0.124604
   8 C :    0.083293
   9 O :   -0.188053
  10 N :   -0.008371
  11 C :    0.034880
  12 C :   -0.061704
  13 C :    0.095006
  14 C :   -0.055804
  15 C :    0.049935
  16 C :   -0.053362
  17 C :   -0.178365
  18 S :    0.479456
  19 C :   -0.140482
  20 C :   -0.104615
  21 C :    0.096851
  22 O :   -0.175158
  23 O :   -0.029423
  24 C :    0.063962
  25 C :   -0.072822
  26 C :   -0.183716
  27 S :    0.455795
  28 C :   -0.219020
  29 C :   -0.210564
  30 C :   -0.009504
  31 O :   -0.094676
  32 C :    0.071758
  33 C :   -0.139167
  34 S :    0.304113
  35 C :   -0.160488
  36 S :    0.479007
  37 C :   -0.245499
  38 C :    0.065403
  39 O :   -0.166294
  40 C :   -0.036922
  41 C :   -0.091428
  42 C :   -0.182883
  43 S :    0.417680
  44 C :   -0.059073
  45 O :   -0.049435
  46 C :    0.070960
  47 C :   -0.158903
  48 C :    0.071773
  49 O :   -0.152848
  50 C :   -0.079063
  51 C :   -0.030261
  52 H :    0.031177
  53 H :    0.023387
  54 H :    0.032761
  55 H :    0.020625
  56 H :    0.021238
  57 H :    0.023088
  58 H :    0.038186
  59 H :    0.022895
  60 H :    0.033214
  61 H :    0.030312
  62 H :    0.019194
  63 H :    0.026420
  64 H :    0.038579
  65 H :    0.023288
  66 H :    0.034729
  67 H :    0.021479
  68 H :    0.033317
  69 H :    0.032686
  70 H :    0.020283
  71 H :    0.037860
  72 H :    0.033105
  73 H :   -0.002239
  74 H :    0.014766
  75 H :    0.037882
  76 H :    0.017352
  77 H :    0.015142
  78 H :    0.039670
  79 H :    0.039277
  80 H :    0.038198
  81 H :    0.031264

  Mayer bond orders larger than 0.100000
B(  0-C ,  1-N ) :   1.1777 B(  0-C ,  7-C ) :   1.4783 B(  0-C , 52-H ) :   0.9880
B(  1-N ,  2-C ) :   0.9402 B(  1-N ,  4-C ) :   1.0667 B(  2-C ,  3-C ) :   1.1160
B(  2-C , 53-H ) :   0.9530 B(  2-C , 54-H ) :   0.9352 B(  3-C , 55-H ) :   0.9628
B(  3-C , 56-H ) :   0.9625 B(  3-C , 57-H ) :   0.9617 B(  4-C ,  5-O ) :   1.9441
B(  4-C ,  6-C ) :   1.0177 B(  5-O , 68-H ) :   0.1014 B(  6-C ,  7-C ) :   1.1973
B(  6-C , 13-C ) :   1.3749 B(  7-C ,  8-C ) :   0.9489 B(  8-C ,  9-O ) :   2.1762
B(  8-C , 10-N ) :   1.0134 B( 10-N , 11-C ) :   0.9486 B( 10-N , 13-C ) :   1.1628
B( 11-C , 12-C ) :   1.1179 B( 11-C , 58-H ) :   0.9271 B( 11-C , 59-H ) :   0.9506
B( 12-C , 60-H ) :   0.9637 B( 12-C , 61-H ) :   0.9684 B( 12-C , 62-H ) :   0.9686
B( 13-C , 14-C ) :   1.1334 B( 14-C , 15-C ) :   1.6725 B( 14-C , 63-H ) :   0.9562
B( 15-C , 16-C ) :   1.0606 B( 15-C , 64-H ) :   0.9498 B( 16-C , 17-C ) :   1.5389
B( 16-C , 20-C ) :   1.1992 B( 17-C , 18-S ) :   1.1784 B( 17-C , 65-H ) :   0.9598
B( 18-S , 19-C ) :   1.2080 B( 19-C , 20-C ) :   1.5579 B( 19-C , 66-H ) :   0.9623
B( 20-C , 21-C ) :   0.9414 B( 21-C , 22-O ) :   2.1340 B( 21-C , 23-O ) :   1.1628
B( 23-O , 24-C ) :   0.9902 B( 24-C , 25-C ) :   1.7349 B( 24-C , 67-H ) :   0.9708
B( 25-C , 26-C ) :   1.1275 B( 25-C , 68-H ) :   0.9211 B( 26-C , 27-S ) :   1.1138
B( 26-C , 28-C ) :   0.1098 B( 26-C , 30-C ) :   1.5163 B( 27-S , 28-C ) :   1.1181
B( 28-C , 29-C ) :   1.5276 B( 28-C , 35-C ) :   1.1658 B( 29-C , 30-C ) :   1.2314
B( 29-C , 34-S ) :   1.0069 B( 30-C , 31-O ) :   1.1402 B( 31-O , 32-C ) :   0.9596
B( 32-C , 33-C ) :   1.0426 B( 32-C , 69-H ) :   0.9515 B( 32-C , 70-H ) :   0.9512
B( 33-C , 34-S ) :   0.9995 B( 33-C , 71-H ) :   0.9482 B( 33-C , 72-H ) :   0.9434
B( 35-C , 36-S ) :   1.1642 B( 35-C , 41-C ) :   1.4599 B( 36-S , 37-C ) :   1.0702
B( 37-C , 38-C ) :   1.0495 B( 37-C , 40-C ) :   1.4130 B( 38-C , 39-O ) :   2.1408
B( 38-C , 73-H ) :   0.9551 B( 40-C , 41-C ) :   1.2824 B( 40-C , 42-C ) :   1.0517
B( 41-C , 74-H ) :   0.9868 B( 42-C , 43-S ) :   1.0676 B( 42-C , 51-C ) :   1.5728
B( 43-S , 44-C ) :   1.1362 B( 44-C , 45-O ) :   1.2495 B( 44-C , 47-C ) :   1.4503
B( 45-O , 46-C ) :   0.9418 B( 46-C , 75-H ) :   0.9810 B( 46-C , 76-H ) :   0.9655
B( 46-C , 77-H ) :   0.9659 B( 47-C , 48-C ) :   0.9182 B( 47-C , 51-C ) :   1.2159
B( 48-C , 49-O ) :   2.2313 B( 48-C , 50-C ) :   1.0719 B( 50-C , 78-H ) :   0.9430
B( 50-C , 79-H ) :   0.9459 B( 50-C , 80-H ) :   0.9478 B( 51-C , 81-H ) :   0.9897

-----------------------------------------------------------------------------
         ABSORPTION SPECTRUM VIA TRANSITION ELECTRIC DIPOLE MOMENTS
-----------------------------------------------------------------------------
State   Energy  Wavelength   fosc         T2         TX        TY        TZ
        (cm-1)    (nm)                  (au**2)     (au)      (au)      (au)
-----------------------------------------------------------------------------
   0   22792.7    438.7   0.249444947   3.60293   0.39902   1.79644  -0.46531
   1   23476.0    426.0   0.051397373   0.72076   0.28957   0.73727  -0.30553
   2   25424.2    393.3   1.167489437  15.11757  -1.14594  -3.13963   1.98674
   3   29192.6    342.6   0.205848739   2.32140  -1.32554   0.74754   0.07439
   4   29326.6    341.0   0.007846897   0.08809  -0.04267  -0.28385   0.07547
   5   30432.9    328.6   0.005833102   0.06310   0.24113  -0.00869   0.06985
   6   31000.8    322.6   0.132761014   1.40985   1.16664  -0.19089  -0.11123
   7   31610.8    316.3   0.009337100   0.09724  -0.12288   0.10248  -0.26765
   8   31781.1    314.7   0.011435120   0.11845  -0.31002  -0.02548   0.14729
   9   32944.0    303.5   0.122310130   1.22226   0.04017  -1.09440   0.15145
  10   33007.2    303.0   0.006707270   0.06690   0.01543   0.25290  -0.05200
  11   33379.9    299.6   0.008108304   0.07997   0.14368  -0.22162   0.10104
  12   33957.0    294.5   0.627171422   6.08041  -1.01183   1.76215  -1.39694
  13   35438.2    282.2   0.016482021   0.15311   0.17059  -0.30428   0.17727
  14   35977.8    277.9   0.088048420   0.80568   0.76875  -0.38565  -0.25685
  15   36176.6    276.4   0.107829138   0.98126  -0.64053   0.68209  -0.32518
  16   38101.6    262.5   0.042125553   0.36398  -0.54801   0.09648  -0.23316
  17   38563.2    259.3   0.316772143   2.70427  -1.17796   0.24350  -1.12133
  18   39513.9    253.1   0.157774389   1.31451   0.87513  -0.54082   0.50613
  19   39684.6    252.0   0.031629668   0.26239  -0.08428   0.50501   0.01600
  20   40030.5    249.8   0.043321995   0.35628   0.49626  -0.32708  -0.05502

FINAL SINGLE POINT ENERGY     -4127.007168296494

DIPOLE MOMENT
-------------
                                X             Y             Z
Electronic contribution:    -25.89434       8.99756      -5.79883
Nuclear contribution   :     27.12286      -6.57848       4.34792
                        -----------------------------------------
Total Dipole Moment    :      1.22851       2.41908      -1.45091
                        -----------------------------------------
Magnitude (a.u.)       :      3.07674
Magnitude (Debye)      :      7.82046

Rotational constants in cm-1:     0.001972     0.000755     0.000565
Rotational constants in MHz :    59.126393    22.643732    16.946646

                             ****ORCA TERMINATED NORMALLY****
TOTAL RUN TIME: 0 days 0 hours 6 minutes 26 seconds 873 msec
