                         Program Version 4.2.0 -  RELEASE  -
|  1> # ORCA input file
|  2> # SCF done       -208.164654048362          0.000928481938
|  3> ! CAM-B3LYP def2-SVP def2/J RIJCOSX Grid4 TightSCF
|  4> %maxcore 5000
|  5> %tddft
|  6>     Mode sTDDFT
|  7>     Ethresh 5.0
|  8>     maxcore 5000
|  9> end
| 10>
| 11> %pal
| 12>   nprocs 6
| 13>   end
| 14> * xyz 0 1
| 15>    C       -0.50438        -4.94170         9.76888
| 16>    C        0.15847        -4.44166        10.87652
| 17>    C       -0.57360        -4.22553        12.04626
| 18>    C        0.08525        -3.72569        13.19668
| 19>    N        0.62562        -3.32337        14.12240
| 20>    C       -1.95313        -4.50022        12.10581
| 21>    C       -2.66988        -4.27324        13.30485
| 22>    N       -3.27244        -4.09815        14.26290
| 23>    C       -2.61597        -5.00427        10.98513
| 24>    C       -1.88143        -5.21953         9.83928
| 25>    C       -2.35025        -5.76623         8.54193
| 26>    O       -3.49672        -6.06698         8.28357
| 27>    C       -1.13781        -5.88859         7.71069
| 28>    C       -0.03528        -5.27873         8.42555
| 29>    C        1.19570        -4.95998         7.91391
| 30>    C        2.21454        -4.32210         8.65240
| 31>    N        3.07712        -3.80797         9.20786
| 32>    C        1.58370        -5.15691         6.57079
| 33>    N        1.95493        -5.25573         5.48902
| 34>    C       -0.98465        -6.61630         6.55304
| 35>    C       -1.94830        -7.17378         5.70262
| 36>    C       -3.31671        -6.93535         5.56053
| 37>    C       -3.90839        -7.65380         4.53936
| 38>    C       -2.97396        -8.48549         3.88126
| 39>    S       -1.38897        -8.33689         4.50376
| 40>    C       -3.49008        -9.27455         2.83545
| 41>    C       -4.86126        -9.09257         2.56042
| 42>   Si       -5.60395        -7.85617         3.76130
| 43>    C       -6.84348        -8.63372         4.92706
| 44>    C       -6.22429        -6.29510         2.93785
| 45>    C       -5.26474        -9.89691         1.50768
| 46>    C       -4.25097       -10.70247         0.99197
| 47>    S       -2.74272       -10.45747         1.83424
| 48>    C       -4.35383       -11.64158        -0.06482
| 49>    C       -3.29216       -12.52836        -0.36199
| 50>    C       -3.39276       -13.53750        -1.38267
| 51>    N       -2.36684       -14.36897        -1.59007
| 52>    C       -1.27448       -14.25945        -0.87335
| 53>    C       -1.16969       -13.24742         0.13416
| 54>    N       -2.16805       -12.42706         0.35517
| 55>    C        0.01262       -13.11986         0.90468
| 56>    N        0.98145       -13.03818         1.50961
| 57>    C       -0.20089       -15.15110        -1.11799
| 58>    N        0.68068       -15.85843        -1.30244
| 59>    C       -4.54048       -13.68397        -2.19760
| 60>    C       -5.58586       -12.76506        -1.93842
| 61>    C       -5.50246       -11.77961        -0.88145
| 62>    N       -6.61278       -11.04559        -0.80992
| 63>    S       -7.64671       -11.52994        -1.93725
| 64>    N       -6.75204       -12.69652        -2.58011
| 65>    C       -4.61433       -14.70133        -3.18112
| 66>    C       -5.60307       -14.87968        -4.14732
| 67>    C       -5.40944       -15.99262        -4.94900
| 68>    C       -4.24990       -16.69431        -4.56034
| 69>    S       -3.39549       -15.94757        -3.26926
| 70>    C       -3.99747       -17.88095        -5.27257
| 71>    C       -4.89271       -18.18030        -6.31724
| 72>   Si       -6.23161       -16.86591        -6.39183
| 73>    C       -7.92061       -17.55839        -5.98903
| 74>    C       -6.17792       -15.85443        -7.96633
| 75>    C       -4.56006       -19.37655        -6.93161
| 76>    C       -3.48100       -20.03389        -6.34721
| 77>    S       -2.79857       -19.08343        -5.04098
| 78>    C       -2.94984       -21.27775        -6.73932
| 79>    C       -2.20650       -22.15410        -5.99937
| 80>    C       -1.35567       -23.16406        -6.67239
| 81>    O       -1.35800       -23.46262        -7.84375
| 82>    C       -0.46656       -23.68872        -5.60630
| 83>    C        0.58394       -24.57393        -5.71825
| 84>    C        1.29349       -24.90345        -4.56136
| 85>    C        0.93899       -24.33089        -3.32481
| 86>    C       -0.13264       -23.44156        -3.22070
| 87>    C       -0.83926       -23.12857        -4.36816
| 88>    C       -2.01880       -22.28688        -4.57321
| 89>    C       -2.92940       -21.96728        -3.59918
| 90>    C       -4.20853       -21.43998        -3.87422
| 91>    N       -5.27877       -21.06602        -4.05534
| 92>    C       -2.74110       -22.23215        -2.22747
| 93>    N       -2.63014       -22.41769        -1.10047
| 94>    C        1.68060       -24.66786        -2.16530
| 95>    N        2.27637       -24.93544        -1.22506
| 96>    C        2.37276       -25.81672        -4.63280
| 97>    N        3.24410       -26.55526        -4.71473
| 98>    H        1.21482        -4.22490        10.86891
| 99>    H       -3.67246        -5.22359        11.01574
|100>    H        0.03675        -6.82868         6.25700
|101>    H       -3.84477        -6.24775         6.19345
|102>    H       -6.47436        -9.56055         5.36293
|103>    H       -7.78026        -8.86704         4.42494
|104>    H       -7.08365        -7.96834         5.75392
|105>    H       -5.48893        -5.86132         2.26256
|106>    H       -6.47480        -5.53082         3.67074
|107>    H       -7.12391        -6.48012         2.35434
|108>    H       -6.26135        -9.92533         1.10784
|109>    H       -6.42914       -14.19849        -4.23514
|110>    H       -7.89775       -18.20539        -5.11379
|111>    H       -8.31699       -18.15056        -6.81153
|112>    H       -8.64411       -16.77055        -5.78873
|113>    H       -5.18172       -15.47017        -8.17881
|114>    H       -6.84539       -14.99684        -7.91296
|115>    H       -6.48528       -16.43931        -8.83087
|116>    H       -5.10580       -19.80685        -7.75242
|117>    H       -3.09568       -21.55322        -7.77964
|118>    H        0.84919       -25.00266        -6.67268
|119>    H       -0.37678       -23.01548        -2.26023
|120> *
|121>
|122>                          ****END OF INPUT****

CARTESIAN COORDINATES (ANGSTROEM)
---------------------------------
  C     -0.504380   -4.941700    9.768880
  C      0.158470   -4.441660   10.876520
  C     -0.573600   -4.225530   12.046260
  C      0.085250   -3.725690   13.196680
  N      0.625620   -3.323370   14.122400
  C     -1.953130   -4.500220   12.105810
  C     -2.669880   -4.273240   13.304850
  N     -3.272440   -4.098150   14.262900
  C     -2.615970   -5.004270   10.985130
  C     -1.881430   -5.219530    9.839280
  C     -2.350250   -5.766230    8.541930
  O     -3.496720   -6.066980    8.283570
  C     -1.137810   -5.888590    7.710690
  C     -0.035280   -5.278730    8.425550
  C      1.195700   -4.959980    7.913910
  C      2.214540   -4.322100    8.652400
  N      3.077120   -3.807970    9.207860
  C      1.583700   -5.156910    6.570790
  N      1.954930   -5.255730    5.489020
  C     -0.984650   -6.616300    6.553040
  C     -1.948300   -7.173780    5.702620
  C     -3.316710   -6.935350    5.560530
  C     -3.908390   -7.653800    4.539360
  C     -2.973960   -8.485490    3.881260
  S     -1.388970   -8.336890    4.503760
  C     -3.490080   -9.274550    2.835450
  C     -4.861260   -9.092570    2.560420
  Si    -5.603950   -7.856170    3.761300
  C     -6.843480   -8.633720    4.927060
  C     -6.224290   -6.295100    2.937850
  C     -5.264740   -9.896910    1.507680
  C     -4.250970  -10.702470    0.991970
  S     -2.742720  -10.457470    1.834240
  C     -4.353830  -11.641580   -0.064820
  C     -3.292160  -12.528360   -0.361990
  C     -3.392760  -13.537500   -1.382670
  N     -2.366840  -14.368970   -1.590070
  C     -1.274480  -14.259450   -0.873350
  C     -1.169690  -13.247420    0.134160
  N     -2.168050  -12.427060    0.355170
  C      0.012620  -13.119860    0.904680
  N      0.981450  -13.038180    1.509610
  C     -0.200890  -15.151100   -1.117990
  N      0.680680  -15.858430   -1.302440
  C     -4.540480  -13.683970   -2.197600
  C     -5.585860  -12.765060   -1.938420
  C     -5.502460  -11.779610   -0.881450
  N     -6.612780  -11.045590   -0.809920
  S     -7.646710  -11.529940   -1.937250
  N     -6.752040  -12.696520   -2.580110
  C     -4.614330  -14.701330   -3.181120
  C     -5.603070  -14.879680   -4.147320
  C     -5.409440  -15.992620   -4.949000
  C     -4.249900  -16.694310   -4.560340
  S     -3.395490  -15.947570   -3.269260
  C     -3.997470  -17.880950   -5.272570
  C     -4.892710  -18.180300   -6.317240
  Si    -6.231610  -16.865910   -6.391830
  C     -7.920610  -17.558390   -5.989030
  C     -6.177920  -15.854430   -7.966330
  C     -4.560060  -19.376550   -6.931610
  C     -3.481000  -20.033890   -6.347210
  S     -2.798570  -19.083430   -5.040980
  C     -2.949840  -21.277750   -6.739320
  C     -2.206500  -22.154100   -5.999370
  C     -1.355670  -23.164060   -6.672390
  O     -1.358000  -23.462620   -7.843750
  C     -0.466560  -23.688720   -5.606300
  C      0.583940  -24.573930   -5.718250
  C      1.293490  -24.903450   -4.561360
  C      0.938990  -24.330890   -3.324810
  C     -0.132640  -23.441560   -3.220700
  C     -0.839260  -23.128570   -4.368160
  C     -2.018800  -22.286880   -4.573210
  C     -2.929400  -21.967280   -3.599180
  C     -4.208530  -21.439980   -3.874220
  N     -5.278770  -21.066020   -4.055340
  C     -2.741100  -22.232150   -2.227470
  N     -2.630140  -22.417690   -1.100470
  C      1.680600  -24.667860   -2.165300
  N      2.276370  -24.935440   -1.225060
  C      2.372760  -25.816720   -4.632800
  N      3.244100  -26.555260   -4.714730
  H      1.214820   -4.224900   10.868910
  H     -3.672460   -5.223590   11.015740
  H      0.036750   -6.828680    6.257000
  H     -3.844770   -6.247750    6.193450
  H     -6.474360   -9.560550    5.362930
  H     -7.780260   -8.867040    4.424940
  H     -7.083650   -7.968340    5.753920
  H     -5.488930   -5.861320    2.262560
  H     -6.474800   -5.530820    3.670740
  H     -7.123910   -6.480120    2.354340
  H     -6.261350   -9.925330    1.107840
  H     -6.429140  -14.198490   -4.235140
  H     -7.897750  -18.205390   -5.113790
  H     -8.316990  -18.150560   -6.811530
  H     -8.644110  -16.770550   -5.788730
  H     -5.181720  -15.470170   -8.178810
  H     -6.845390  -14.996840   -7.912960
  H     -6.485280  -16.439310   -8.830870
  H     -5.105800  -19.806850   -7.752420
  H     -3.095680  -21.553220   -7.779640
  H      0.849190  -25.002660   -6.672680
  H     -0.376780  -23.015480   -2.260230

 Total Charge           Charge          ....    0
 Multiplicity           Mult            ....    1
 Number of Electrons    NEL             ....  604
 Basis Dimension        Dim             .... 1300

ORBITAL ENERGIES
----------------

  NO   OCC          E(Eh)            E(eV)
   0   2.0000     -89.065330     -2423.5909
   1   2.0000     -88.988961     -2421.5127
   2   2.0000     -88.986850     -2421.4553
   3   2.0000     -88.982567     -2421.3387
   4   2.0000     -88.982015     -2421.3237
   5   2.0000     -66.215726     -1801.8215
   6   2.0000     -66.214454     -1801.7869
   7   2.0000     -19.234363      -523.3936
   8   2.0000     -19.232948      -523.3551
   9   2.0000     -14.484040      -394.1308
  10   2.0000     -14.483688      -394.1212
  11   2.0000     -14.474959      -393.8837
  12   2.0000     -14.474591      -393.8736
  13   2.0000     -14.445164      -393.0729
  14   2.0000     -14.445097      -393.0711
  15   2.0000     -14.429550      -392.6480
  16   2.0000     -14.428970      -392.6322
  17   2.0000     -14.426195      -392.5567
  18   2.0000     -14.426090      -392.5539
  19   2.0000     -14.426001      -392.5515
  20   2.0000     -14.425508      -392.5380
  21   2.0000     -14.425406      -392.5352
  22   2.0000     -14.424173      -392.5017
  23   2.0000     -10.402467      -283.0655
  24   2.0000     -10.401884      -283.0496
  25   2.0000     -10.386479      -282.6305
  26   2.0000     -10.384867      -282.5866
  27   2.0000     -10.366775      -282.0943
  28   2.0000     -10.366492      -282.0866
  29   2.0000     -10.365280      -282.0536
  30   2.0000     -10.365042      -282.0471
  31   2.0000     -10.361040      -281.9382
  32   2.0000     -10.358852      -281.8787
  33   2.0000     -10.357950      -281.8542
  34   2.0000     -10.356824      -281.8235
  35   2.0000     -10.356795      -281.8227
  36   2.0000     -10.356093      -281.8036
  37   2.0000     -10.355674      -281.7922
  38   2.0000     -10.354326      -281.7555
  39   2.0000     -10.342114      -281.4232
  40   2.0000     -10.340816      -281.3879
  41   2.0000     -10.339475      -281.3514
  42   2.0000     -10.338276      -281.3188
  43   2.0000     -10.338176      -281.3161
  44   2.0000     -10.338074      -281.3133
  45   2.0000     -10.337884      -281.3081
  46   2.0000     -10.337181      -281.2890
  47   2.0000     -10.336964      -281.2831
  48   2.0000     -10.334998      -281.2296
  49   2.0000     -10.331894      -281.1451
  50   2.0000     -10.331704      -281.1399
  51   2.0000     -10.331399      -281.1317
  52   2.0000     -10.331201      -281.1263
  53   2.0000     -10.331138      -281.1246
  54   2.0000     -10.330760      -281.1143
  55   2.0000     -10.330224      -281.0997
  56   2.0000     -10.329968      -281.0927
  57   2.0000     -10.329756      -281.0869
  58   2.0000     -10.328237      -281.0456
  59   2.0000     -10.327474      -281.0249
  60   2.0000     -10.327225      -281.0181
  61   2.0000     -10.326243      -280.9914
  62   2.0000     -10.325147      -280.9615
  63   2.0000     -10.322939      -280.9015
  64   2.0000     -10.322777      -280.8971
  65   2.0000     -10.322757      -280.8965
  66   2.0000     -10.321743      -280.8689
  67   2.0000     -10.320710      -280.8408
  68   2.0000     -10.320651      -280.8392
  69   2.0000     -10.312709      -280.6231
  70   2.0000     -10.310606      -280.5658
  71   2.0000     -10.309501      -280.5358
  72   2.0000     -10.303964      -280.3851
  73   2.0000     -10.298942      -280.2485
  74   2.0000     -10.297653      -280.2134
  75   2.0000     -10.282352      -279.7970
  76   2.0000     -10.280131      -279.7366
  77   2.0000     -10.279665      -279.7239
  78   2.0000     -10.279607      -279.7223
  79   2.0000     -10.268327      -279.4154
  80   2.0000     -10.267110      -279.3823
  81   2.0000     -10.265984      -279.3516
  82   2.0000     -10.265806      -279.3468
  83   2.0000      -8.156695      -221.9550
  84   2.0000      -8.083954      -219.9756
  85   2.0000      -8.082471      -219.9352
  86   2.0000      -8.076232      -219.7654
  87   2.0000      -8.075673      -219.7502
  88   2.0000      -6.127822      -166.7465
  89   2.0000      -6.119892      -166.5307
  90   2.0000      -6.119476      -166.5194
  91   2.0000      -6.053142      -164.7144
  92   2.0000      -6.051482      -164.6692
  93   2.0000      -6.049091      -164.6041
  94   2.0000      -6.047534      -164.5618
  95   2.0000      -6.046184      -164.5250
  96   2.0000      -6.045650      -164.5105
  97   2.0000      -6.045075      -164.4949
  98   2.0000      -6.044841      -164.4885
  99   2.0000      -6.041085      -164.3863
 100   2.0000      -6.040549      -164.3717
 101   2.0000      -6.038547      -164.3172
 102   2.0000      -6.037972      -164.3016
 103   2.0000      -5.381997      -146.4516
 104   2.0000      -5.380896      -146.4216
 105   2.0000      -3.745594      -101.9228
 106   2.0000      -3.744475      -101.8923
 107   2.0000      -3.744152      -101.8836
 108   2.0000      -3.742996      -101.8521
 109   2.0000      -3.742852      -101.8482
 110   2.0000      -3.741783      -101.8191
 111   2.0000      -1.163111       -31.6499
 112   2.0000      -1.149336       -31.2750
 113   2.0000      -1.148250       -31.2455
 114   2.0000      -1.143848       -31.1257
 115   2.0000      -1.071743       -29.1636
 116   2.0000      -1.041600       -28.3434
 117   2.0000      -1.038805       -28.2673
 118   2.0000      -1.031526       -28.0693
 119   2.0000      -1.027761       -27.9668
 120   2.0000      -1.024717       -27.8840
 121   2.0000      -1.023807       -27.8592
 122   2.0000      -1.021822       -27.8052
 123   2.0000      -1.018972       -27.7276
 124   2.0000      -1.016547       -27.6616
 125   2.0000      -1.009244       -27.4629
 126   2.0000      -1.008291       -27.4370
 127   2.0000      -1.007465       -27.4145
 128   2.0000      -1.005091       -27.3499
 129   2.0000      -1.005013       -27.3478
 130   2.0000      -1.004280       -27.3279
 131   2.0000      -1.004052       -27.3216
 132   2.0000      -0.994458       -27.0606
 133   2.0000      -0.984169       -26.7806
 134   2.0000      -0.976328       -26.5672
 135   2.0000      -0.974724       -26.5236
 136   2.0000      -0.931428       -25.3455
 137   2.0000      -0.928775       -25.2733
 138   2.0000      -0.924135       -25.1470
 139   2.0000      -0.921789       -25.0831
 140   2.0000      -0.921386       -25.0722
 141   2.0000      -0.910559       -24.7776
 142   2.0000      -0.902005       -24.5448
 143   2.0000      -0.900243       -24.4969
 144   2.0000      -0.886371       -24.1194
 145   2.0000      -0.873849       -23.7786
 146   2.0000      -0.867529       -23.6067
 147   2.0000      -0.864716       -23.5301
 148   2.0000      -0.856301       -23.3011
 149   2.0000      -0.848462       -23.0878
 150   2.0000      -0.846493       -23.0342
 151   2.0000      -0.841911       -22.9096
 152   2.0000      -0.838513       -22.8171
 153   2.0000      -0.819996       -22.3132
 154   2.0000      -0.811788       -22.0899
 155   2.0000      -0.810310       -22.0496
 156   2.0000      -0.807693       -21.9785
 157   2.0000      -0.805484       -21.9183
 158   2.0000      -0.802972       -21.8500
 159   2.0000      -0.785769       -21.3819
 160   2.0000      -0.785268       -21.3682
 161   2.0000      -0.777474       -21.1562
 162   2.0000      -0.763756       -20.7829
 163   2.0000      -0.753217       -20.4961
 164   2.0000      -0.751027       -20.4365
 165   2.0000      -0.744802       -20.2671
 166   2.0000      -0.734551       -19.9881
 167   2.0000      -0.724485       -19.7142
 168   2.0000      -0.721939       -19.6450
 169   2.0000      -0.714183       -19.4339
 170   2.0000      -0.710214       -19.3259
 171   2.0000      -0.705887       -19.2082
 172   2.0000      -0.697316       -18.9749
 173   2.0000      -0.692748       -18.8506
 174   2.0000      -0.687812       -18.7163
 175   2.0000      -0.682223       -18.5642
 176   2.0000      -0.675889       -18.3919
 177   2.0000      -0.673739       -18.3334
 178   2.0000      -0.662601       -18.0303
 179   2.0000      -0.656626       -17.8677
 180   2.0000      -0.653672       -17.7873
 181   2.0000      -0.651695       -17.7335
 182   2.0000      -0.643180       -17.5018
 183   2.0000      -0.640117       -17.4185
 184   2.0000      -0.632523       -17.2118
 185   2.0000      -0.630636       -17.1605
 186   2.0000      -0.629115       -17.1191
 187   2.0000      -0.624978       -17.0065
 188   2.0000      -0.617495       -16.8029
 189   2.0000      -0.610094       -16.6015
 190   2.0000      -0.606610       -16.5067
 191   2.0000      -0.601507       -16.3678
 192   2.0000      -0.598634       -16.2897
 193   2.0000      -0.593610       -16.1530
 194   2.0000      -0.592837       -16.1319
 195   2.0000      -0.581840       -15.8327
 196   2.0000      -0.577783       -15.7223
 197   2.0000      -0.573772       -15.6131
 198   2.0000      -0.566990       -15.4286
 199   2.0000      -0.565386       -15.3849
 200   2.0000      -0.563414       -15.3313
 201   2.0000      -0.562774       -15.3138
 202   2.0000      -0.558422       -15.1954
 203   2.0000      -0.557276       -15.1643
 204   2.0000      -0.552467       -15.0334
 205   2.0000      -0.545181       -14.8351
 206   2.0000      -0.544699       -14.8220
 207   2.0000      -0.539646       -14.6845
 208   2.0000      -0.536403       -14.5963
 209   2.0000      -0.532975       -14.5030
 210   2.0000      -0.531468       -14.4620
 211   2.0000      -0.530074       -14.4240
 212   2.0000      -0.528592       -14.3837
 213   2.0000      -0.526369       -14.3232
 214   2.0000      -0.521197       -14.1825
 215   2.0000      -0.520321       -14.1587
 216   2.0000      -0.517488       -14.0816
 217   2.0000      -0.513511       -13.9733
 218   2.0000      -0.512524       -13.9465
 219   2.0000      -0.508997       -13.8505
 220   2.0000      -0.507460       -13.8087
 221   2.0000      -0.506282       -13.7766
 222   2.0000      -0.505633       -13.7590
 223   2.0000      -0.505287       -13.7495
 224   2.0000      -0.503136       -13.6910
 225   2.0000      -0.502926       -13.6853
 226   2.0000      -0.502157       -13.6644
 227   2.0000      -0.495702       -13.4887
 228   2.0000      -0.492320       -13.3967
 229   2.0000      -0.490196       -13.3389
 230   2.0000      -0.489229       -13.3126
 231   2.0000      -0.488859       -13.3025
 232   2.0000      -0.486950       -13.2506
 233   2.0000      -0.486619       -13.2416
 234   2.0000      -0.486064       -13.2265
 235   2.0000      -0.484655       -13.1881
 236   2.0000      -0.481626       -13.1057
 237   2.0000      -0.479832       -13.0569
 238   2.0000      -0.475472       -12.9383
 239   2.0000      -0.473302       -12.8792
 240   2.0000      -0.470822       -12.8117
 241   2.0000      -0.467793       -12.7293
 242   2.0000      -0.466091       -12.6830
 243   2.0000      -0.462958       -12.5977
 244   2.0000      -0.459712       -12.5094
 245   2.0000      -0.458652       -12.4806
 246   2.0000      -0.458250       -12.4696
 247   2.0000      -0.458015       -12.4632
 248   2.0000      -0.457692       -12.4544
 249   2.0000      -0.457114       -12.4387
 250   2.0000      -0.454451       -12.3663
 251   2.0000      -0.453185       -12.3318
 252   2.0000      -0.452274       -12.3070
 253   2.0000      -0.451743       -12.2926
 254   2.0000      -0.450974       -12.2716
 255   2.0000      -0.449747       -12.2382
 256   2.0000      -0.449221       -12.2239
 257   2.0000      -0.448760       -12.2114
 258   2.0000      -0.448046       -12.1920
 259   2.0000      -0.443834       -12.0773
 260   2.0000      -0.442725       -12.0472
 261   2.0000      -0.439926       -11.9710
 262   2.0000      -0.438980       -11.9453
 263   2.0000      -0.437689       -11.9101
 264   2.0000      -0.436259       -11.8712
 265   2.0000      -0.435333       -11.8460
 266   2.0000      -0.432028       -11.7561
 267   2.0000      -0.430938       -11.7264
 268   2.0000      -0.427989       -11.6462
 269   2.0000      -0.427912       -11.6441
 270   2.0000      -0.426607       -11.6086
 271   2.0000      -0.425644       -11.5824
 272   2.0000      -0.424997       -11.5647
 273   2.0000      -0.424414       -11.5489
 274   2.0000      -0.419005       -11.4017
 275   2.0000      -0.418177       -11.3792
 276   2.0000      -0.412950       -11.2369
 277   2.0000      -0.412212       -11.2169
 278   2.0000      -0.408990       -11.1292
 279   2.0000      -0.403663       -10.9842
 280   2.0000      -0.400981       -10.9112
 281   2.0000      -0.399284       -10.8651
 282   2.0000      -0.394794       -10.7429
 283   2.0000      -0.390100       -10.6152
 284   2.0000      -0.383653       -10.4397
 285   2.0000      -0.369516       -10.0550
 286   2.0000      -0.368920       -10.0388
 287   2.0000      -0.366590        -9.9754
 288   2.0000      -0.364406        -9.9160
 289   2.0000      -0.363321        -9.8865
 290   2.0000      -0.359078        -9.7710
 291   2.0000      -0.355924        -9.6852
 292   2.0000      -0.350292        -9.5319
 293   2.0000      -0.348729        -9.4894
 294   2.0000      -0.347403        -9.4533
 295   2.0000      -0.344074        -9.3627
 296   2.0000      -0.342721        -9.3259
 297   2.0000      -0.336349        -9.1525
 298   2.0000      -0.329199        -8.9580
 299   2.0000      -0.309581        -8.4241
 300   2.0000      -0.280868        -7.6428
 301   2.0000      -0.247983        -6.7480
 302   0.0000      -0.148915        -4.0522
 303   0.0000      -0.110036        -2.9942
 304   0.0000      -0.105550        -2.8722
 305   0.0000      -0.092376        -2.5137
 306   0.0000      -0.091165        -2.4807

MULLIKEN ATOMIC CHARGES
-----------------------
   0 C :    0.046142
   1 C :   -0.039903
   2 C :   -0.063534
   3 C :   -0.175387
   4 N :    0.202507
   5 C :   -0.066802
   6 C :   -0.174182
   7 N :    0.192790
   8 C :   -0.038989
   9 C :    0.000261
  10 C :    0.154391
  11 O :   -0.150542
  12 C :   -0.109636
  13 C :    0.289424
  14 C :   -0.333784
  15 C :   -0.186632
  16 N :    0.165593
  17 C :   -0.210807
  18 N :    0.173095
  19 C :    0.049288
  20 C :   -0.108438
  21 C :    0.020937
  22 C :   -0.138303
  23 C :   -0.071850
  24 S :    0.189777
  25 C :   -0.055359
  26 C :   -0.097356
  27 Si:    0.531130
  28 C :   -0.197673
  29 C :   -0.197937
  30 C :   -0.036732
  31 C :   -0.176403
  32 S :    0.187082
  33 C :    0.193869
  34 C :   -0.054319
  35 C :   -0.057444
  36 N :    0.003217
  37 C :   -0.102969
  38 C :   -0.096929
  39 N :    0.004397
  40 C :   -0.238689
  41 N :    0.255073
  42 C :   -0.235832
  43 N :    0.252016
  44 C :    0.199026
  45 C :   -0.012001
  46 C :   -0.010045
  47 N :   -0.290499
  48 S :    0.556534
  49 N :   -0.287571
  50 C :   -0.178334
  51 C :   -0.033125
  52 C :   -0.103300
  53 C :   -0.046320
  54 S :    0.184977
  55 C :   -0.078521
  56 C :   -0.104446
  57 Si:    0.526807
  58 C :   -0.201039
  59 C :   -0.197172
  60 C :    0.031302
  61 C :   -0.110890
  62 S :    0.182430
  63 C :    0.060985
  64 C :   -0.144694
  65 C :    0.143543
  66 O :   -0.130842
  67 C :    0.007609
  68 C :   -0.032443
  69 C :   -0.068198
  70 C :   -0.063722
  71 C :   -0.032104
  72 C :    0.031880
  73 C :    0.250956
  74 C :   -0.309615
  75 C :   -0.200881
  76 N :    0.173456
  77 C :   -0.179691
  78 N :    0.166960
  79 C :   -0.171334
  80 N :    0.199120
  81 C :   -0.173313
  82 N :    0.194834
  83 H :    0.022095
  84 H :    0.013035
  85 H :    0.026460
  86 H :    0.012833
  87 H :    0.056199
  88 H :    0.044482
  89 H :    0.053857
  90 H :    0.057364
  91 H :    0.050549
  92 H :    0.046233
  93 H :   -0.004821
  94 H :   -0.004030
  95 H :    0.070370
  96 H :    0.047779
  97 H :    0.045990
  98 H :    0.055682
  99 H :    0.046528
 100 H :    0.046917
 101 H :   -0.005001
 102 H :    0.033135
 103 H :    0.016130
 104 H :    0.023340
Sum of atomic charges:   -0.0000000

LOEWDIN ATOMIC CHARGES
----------------------
   0 C :    0.003149
   1 C :    0.033103
   2 C :   -0.025642
   3 C :   -0.031508
   4 N :   -0.013341
   5 C :   -0.030672
   6 C :   -0.031538
   7 N :   -0.017426
   8 C :    0.045026
   9 C :   -0.027592
  10 C :    0.083048
  11 O :   -0.139843
  12 C :   -0.113328
  13 C :    0.068014
  14 C :   -0.131469
  15 C :   -0.022683
  16 N :   -0.040268
  17 C :   -0.027090
  18 N :   -0.040389
  19 C :    0.053760
  20 C :   -0.183589
  21 C :    0.005644
  22 C :   -0.200564
  23 C :   -0.159183
  24 S :    0.472907
  25 C :   -0.196625
  26 C :   -0.187838
  27 Si:    0.667411
  28 C :   -0.241075
  29 C :   -0.241872
  30 C :   -0.032022
  31 C :   -0.162816
  32 S :    0.488110
  33 C :   -0.040632
  34 C :   -0.012649
  35 C :   -0.013927
  36 N :   -0.013386
  37 C :   -0.020695
  38 C :   -0.018436
  39 N :   -0.014403
  40 C :   -0.039445
  41 N :    0.006165
  42 C :   -0.038937
  43 N :    0.003763
  44 C :   -0.036619
  45 C :   -0.036798
  46 C :   -0.035429
  47 N :   -0.275561
  48 S :    0.679605
  49 N :   -0.274664
  50 C :   -0.164629
  51 C :   -0.028683
  52 C :   -0.189615
  53 C :   -0.190831
  54 S :    0.488106
  55 C :   -0.156984
  56 C :   -0.193920
  57 Si:    0.667329
  58 C :   -0.240960
  59 C :   -0.242411
  60 C :    0.000149
  61 C :   -0.187244
  62 S :    0.479287
  63 C :    0.060457
  64 C :   -0.113354
  65 C :    0.081503
  66 O :   -0.133653
  67 C :   -0.030695
  68 C :    0.048320
  69 C :   -0.030252
  70 C :   -0.023327
  71 C :    0.031947
  72 C :    0.005626
  73 C :    0.055000
  74 C :   -0.132178
  75 C :   -0.031320
  76 N :   -0.044415
  77 C :   -0.024355
  78 N :   -0.038309
  79 C :   -0.031153
  80 N :   -0.011574
  81 C :   -0.031898
  82 N :   -0.015505
  83 H :    0.052449
  84 H :    0.052341
  85 H :    0.045768
  86 H :    0.034980
  87 H :    0.043437
  88 H :    0.037749
  89 H :    0.041569
  90 H :    0.043276
  91 H :    0.040211
  92 H :    0.038465
  93 H :    0.028254
  94 H :    0.028661
  95 H :    0.048678
  96 H :    0.039384
  97 H :    0.038275
  98 H :    0.042709
  99 H :    0.038500
 100 H :    0.038416
 101 H :    0.036305
 102 H :    0.053770
 103 H :    0.054009
 104 H :    0.052585

  Mayer bond orders larger than 0.100000
B(  0-C ,  1-C ) :   1.3650 B(  0-C ,  9-C ) :   1.3356 B(  0-C , 13-C ) :   0.9548
B(  1-C ,  2-C ) :   1.3848 B(  1-C , 83-H ) :   0.9871 B(  2-C ,  3-C ) :   1.0874
B(  2-C ,  5-C ) :   1.4074 B(  3-C ,  4-N ) :   3.0442 B(  5-C ,  6-C ) :   1.0848
B(  5-C ,  8-C ) :   1.3595 B(  6-C ,  7-N ) :   3.0445 B(  8-C ,  9-C ) :   1.3680
B(  8-C , 84-H ) :   1.0145 B(  9-C , 10-C ) :   0.9284 B( 10-C , 11-O ) :   2.1905
B( 10-C , 12-C ) :   0.9685 B( 12-C , 13-C ) :   1.0950 B( 12-C , 19-C ) :   1.5220
B( 13-C , 14-C ) :   1.6424 B( 14-C , 15-C ) :   1.1466 B( 14-C , 17-C ) :   1.1409
B( 15-C , 16-N ) :   2.9676 B( 17-C , 18-N ) :   3.0033 B( 19-C , 20-C ) :   1.2660
B( 19-C , 85-H ) :   0.9286 B( 20-C , 21-C ) :   1.3658 B( 20-C , 24-S ) :   1.0673
B( 21-C , 22-C ) :   1.3417 B( 21-C , 86-H ) :   0.9834 B( 22-C , 23-C ) :   1.4114
B( 22-C , 27-Si) :   0.8651 B( 23-C , 24-S ) :   1.1691 B( 23-C , 25-C ) :   1.1930
B( 25-C , 26-C ) :   1.4425 B( 25-C , 32-S ) :   1.0802 B( 26-C , 27-Si) :   0.8734
B( 26-C , 30-C ) :   1.2873 B( 27-Si, 28-C ) :   1.0658 B( 27-Si, 29-C ) :   1.0653
B( 28-C , 87-H ) :   0.9483 B( 28-C , 88-H ) :   0.9528 B( 28-C , 89-H ) :   0.9528
B( 29-C , 90-H ) :   0.9480 B( 29-C , 91-H ) :   0.9530 B( 29-C , 92-H ) :   0.9529
B( 30-C , 31-C ) :   1.4105 B( 30-C , 93-H ) :   0.9886 B( 31-C , 32-S ) :   1.1103
B( 31-C , 33-C ) :   1.2045 B( 33-C , 34-C ) :   1.2438 B( 33-C , 44-C ) :   0.1185
B( 33-C , 46-C ) :   1.1934 B( 34-C , 35-C ) :   1.1150 B( 34-C , 39-N ) :   1.4075
B( 35-C , 36-N ) :   1.4095 B( 35-C , 44-C ) :   1.2387 B( 36-N , 37-C ) :   1.6962
B( 37-C , 38-C ) :   1.2176 B( 37-C , 42-C ) :   1.1667 B( 38-C , 39-N ) :   1.6991
B( 38-C , 40-C ) :   1.1657 B( 40-C , 41-N ) :   3.0395 B( 42-C , 43-N ) :   3.0396
B( 44-C , 45-C ) :   1.1951 B( 44-C , 50-C ) :   1.2086 B( 45-C , 46-C ) :   1.1021
B( 45-C , 49-N ) :   1.5173 B( 46-C , 47-N ) :   1.5156 B( 47-N , 48-S ) :   1.2778
B( 47-N , 49-N ) :   0.1482 B( 48-S , 49-N ) :   1.2789 B( 50-C , 51-C ) :   1.4083
B( 50-C , 54-S ) :   1.1063 B( 51-C , 52-C ) :   1.2878 B( 51-C , 94-H ) :   0.9893
B( 52-C , 53-C ) :   1.4400 B( 52-C , 57-Si) :   0.8752 B( 53-C , 54-S ) :   1.0858
B( 53-C , 55-C ) :   1.1982 B( 55-C , 56-C ) :   1.4422 B( 55-C , 62-S ) :   1.1461
B( 56-C , 57-Si) :   0.8631 B( 56-C , 60-C ) :   1.3181 B( 57-Si, 58-C ) :   1.0693
B( 57-Si, 59-C ) :   1.0609 B( 58-C , 95-H ) :   0.9469 B( 58-C , 96-H ) :   0.9514
B( 58-C , 97-H ) :   0.9526 B( 59-C , 98-H ) :   0.9485 B( 59-C , 99-H ) :   0.9534
B( 59-C ,100-H ) :   0.9533 B( 60-C , 61-C ) :   1.3776 B( 60-C ,101-H ) :   1.0015
B( 61-C , 62-S ) :   1.0879 B( 61-C , 63-C ) :   1.1732 B( 63-C , 64-C ) :   1.5790
B( 63-C ,102-H ) :   0.9520 B( 64-C , 65-C ) :   0.9575 B( 64-C , 73-C ) :   1.0599
B( 65-C , 66-O ) :   2.2817 B( 65-C , 67-C ) :   0.8988 B( 67-C , 68-C ) :   1.3716
B( 67-C , 72-C ) :   1.3345 B( 68-C , 69-C ) :   1.3648 B( 68-C ,103-H ) :   1.0147
B( 69-C , 70-C ) :   1.4041 B( 69-C , 81-C ) :   1.0869 B( 70-C , 71-C ) :   1.3849
B( 70-C , 79-C ) :   1.0857 B( 71-C , 72-C ) :   1.3658 B( 71-C ,104-H ) :   0.9903
B( 72-C , 73-C ) :   0.9784 B( 73-C , 74-C ) :   1.6574 B( 74-C , 75-C ) :   1.1553
B( 74-C , 77-C ) :   1.1351 B( 75-C , 76-N ) :   3.0179 B( 77-C , 78-N ) :   2.9859
B( 79-C , 80-N ) :   3.0425 B( 81-C , 82-N ) :   3.0457

-----------------------------------------------------------------------------
         ABSORPTION SPECTRUM VIA TRANSITION ELECTRIC DIPOLE MOMENTS
-----------------------------------------------------------------------------
State   Energy  Wavelength   fosc         T2         TX        TY        TZ
        (cm-1)    (nm)                  (au**2)     (au)      (au)      (au)
-----------------------------------------------------------------------------
   0    6883.7   1452.7   0.701835094  33.56504   0.39989   4.38096   3.76993
   1   15254.8    655.5   0.134410230   2.90069   0.97364  -0.93506   1.03845
   2   16454.5    607.7   0.379604553   7.59488  -0.21217   2.65574   0.70490
   3   18011.9    555.2   0.836610372  15.29112  -1.42037  -2.24763  -2.86737
   4   21333.3    468.8   0.129968116   2.00565  -0.49275   0.72573   1.11183
   5   21449.3    466.2   0.310119253   4.75983   0.11953  -1.72720  -1.32753
   6   21780.5    459.1   0.021022328   0.31775  -0.37697  -0.05469   0.41552
   7   23426.7    426.9   0.203272579   2.85655  -1.31422   0.43627  -0.96905
   8   23528.2    425.0   0.009819653   0.13740   0.07606  -0.18923   0.30953
   9   23951.6    417.5   0.005223791   0.07180  -0.11600  -0.03332   0.23924
  10   24707.4    404.7   0.005466232   0.07283   0.24078  -0.07707   0.09445
  11   25120.3    398.1   0.081060914   1.06234  -0.16374   0.08849  -1.01375
  12   25709.5    389.0   0.003690563   0.04726  -0.06543  -0.16477  -0.12581
  13   26214.7    381.5   0.049344981   0.61969  -0.74199  -0.11334  -0.23727
  14   27048.2    369.7   0.014323585   0.17434   0.37145  -0.16189  -0.10078
  15   28158.5    355.1   0.087219297   1.01972  -0.01031  -0.77364  -0.64891
  16   28785.6    347.4   0.069266080   0.79217  -0.74696  -0.31050  -0.37125
  17   29117.3    343.4   0.047228239   0.53398   0.27426   0.38268   0.55885
  18   29735.9    336.3   0.147733268   1.63559  -0.56392   0.69090   0.91664
  19   29868.3    334.8   0.041796037   0.46068   0.52148  -0.36241   0.23959
  20   30003.0    333.3   0.117097966   1.28487  -0.53433   0.75228   0.65836
  21   30273.9    330.3   0.133030425   1.44663  -0.34075   0.47331   1.05191
  22   30524.9    327.6   0.047159226   0.50861   0.58712  -0.20368   0.34988
  23   30718.6    325.5   0.347306206   3.72209  -1.69885   0.59506  -0.69419
  24   30835.5    324.3   0.005160135   0.05509   0.05903  -0.00823   0.22702
  25   31229.3    320.2   0.043670192   0.46036  -0.31722   0.31757  -0.50880
  26   31442.0    318.0   0.086240846   0.90298   0.88124  -0.35534   0.01169
  27   31563.3    316.8   0.014526366   0.15151   0.03693   0.10874  -0.37192
  28   31630.4    316.2   0.018353197   0.19102   0.24931  -0.23528   0.27113
  29   31727.2    315.2   0.041587921   0.43153  -0.42215   0.27165  -0.42371
  30   32054.0    312.0   0.116216009   1.19360   0.95183  -0.48202  -0.23509
  31   32404.7    308.6   0.144046359   1.46342   0.95242  -0.05938   0.74350
  32   33007.5    303.0   0.118127413   1.17818  -0.87042   0.58481   0.28027
  33   33454.1    298.9   0.048296600   0.47527  -0.68007   0.02964   0.10908
  34   33644.2    297.2   0.028588892   0.27975  -0.12289  -0.09365   0.50584
  35   34143.5    292.9   0.188576841   1.81826   1.31541  -0.29057  -0.05935
  36   34248.4    292.0   0.014032782   0.13489   0.32588  -0.16896   0.01213
  37   34763.7    287.7   0.145626893   1.37909  -0.60011  -0.13812   0.99994
  38   35100.1    284.9   0.016546413   0.15519   0.32482   0.07462   0.21004
  39   35135.8    284.6   0.593589258   5.56176   2.00715  -1.20906  -0.26698
  40   35749.5    279.7   0.232157810   2.13791  -0.68111  -0.08695   1.29090
  41   35851.7    278.9   0.046194872   0.42419   0.26855  -0.24778  -0.53914
  42   36217.7    276.1   0.046037947   0.41848   0.42508  -0.19957  -0.44492
  43   36471.7    274.2   0.015383815   0.13886   0.29688  -0.14099   0.17564
  44   36906.3    271.0   0.031560176   0.28152   0.13847   0.19001   0.47565
  45   36946.3    270.7   0.146911363   1.30906   0.88962  -0.36020  -0.62281
  46   37175.3    269.0   0.043214833   0.38270   0.46148  -0.15283  -0.38259
  47   37378.0    267.5   0.027945699   0.24614  -0.30657   0.18404   0.34392
  48   37574.3    266.1   0.065002685   0.56953  -0.58110   0.05666  -0.47817
  49   37720.0    265.1   0.038864717   0.33920   0.54855  -0.05803   0.18688
  50   37865.4    264.1   0.045645046   0.39685  -0.39849   0.26012   0.41279
  51   38131.2    262.3   0.109759129   0.94762  -0.96463   0.00404   0.13074
  52   38393.3    260.5   0.003316981   0.02844   0.07685  -0.13302   0.06958
  53   38674.4    258.6   0.039404407   0.33543   0.57030   0.04776   0.08887
  54   38755.1    258.0   0.010393063   0.08829   0.00782  -0.15124  -0.25564
  55   39038.7    256.2   0.177356471   1.49564   1.20750  -0.01774   0.19304
  56   39297.8    254.5   0.077787554   0.65165  -0.21831   0.01522  -0.77702
  57   39493.4    253.2   0.098515574   0.82121  -0.64362   0.45956  -0.44246
  58   39675.9    252.0   0.061950205   0.51403   0.36645  -0.56794   0.23916
  59   39831.0    251.1   0.114656082   0.94766  -0.76991   0.59557  -0.01380
  60   39924.6    250.5   0.072164652   0.59506   0.76286  -0.10331  -0.04926
  61   40113.8    249.3   0.116384236   0.95516  -0.03179  -0.22596  -0.95031
  62   40206.8    248.7   0.014300525   0.11709  -0.19038  -0.20043  -0.20169

FINAL SINGLE POINT ENERGY     -5781.532266614318

DIPOLE MOMENT
-------------
                                X             Y             Z
Electronic contribution:     42.43984     -12.54356      18.61861
Nuclear contribution   :    -49.55187      14.06140     -24.64757
                        -----------------------------------------
Total Dipole Moment    :     -7.11203       1.51784      -6.02896
                        -----------------------------------------
Magnitude (a.u.)       :      9.44634
Magnitude (Debye)      :     24.01068

Rotational constants in cm-1:     0.001129     0.000182     0.000164
Rotational constants in MHz :    33.854141     5.450126     4.911064

                             ****ORCA TERMINATED NORMALLY****
TOTAL RUN TIME: 0 days 0 hours 12 minutes 53 seconds 866 msec
