                         Program Version 4.2.0 -  RELEASE  -
|  1> # ORCA input file
|  2> # SCF done       -197.781279224935          0.000565613459
|  3> ! CAM-B3LYP def2-SVP def2/J RIJCOSX Grid4 TightSCF
|  4> %maxcore 5000
|  5> %tddft
|  6>     Mode sTDDFT
|  7>     Ethresh 5.0
|  8>     maxcore 5000
|  9> end
| 10>
| 11> %pal
| 12>   nprocs 6
| 13>   end
| 14> * xyz 0 1
| 15>    C        7.09383        -2.26575         2.27868
| 16>    C        5.72981        -2.11939         2.38829
| 17>    C        5.32350        -0.73851         2.28026
| 18>    N        4.04943        -0.36665         2.35561
| 19>    C        3.16097        -1.32206         2.53700
| 20>    C        1.74140        -0.91117         2.61756
| 21>    O        1.38708         0.24613         2.52130
| 22>    C        0.78351        -2.01248         2.82285
| 23>    C        1.14294        -3.29487         2.93138
| 24>    C        2.53889        -3.76512         2.85927
| 25>    O        2.82958        -4.93530         2.96537
| 26>    C        3.55801        -2.69743         2.64910
| 27>    N        4.80731        -3.08196         2.57558
| 28>    C        6.39824         0.13692         2.09109
| 29>    S        7.87752        -0.75962         2.04949
| 30>    C        6.27404         1.53239         1.95873
| 31>    C        7.27357         2.47710         1.76878
| 32>    C        6.75295         3.76278         1.69237
| 33>    C        5.34557         3.78678         1.82226
| 34>    S        4.66399         2.23410         2.03783
| 35>    C        4.91752         5.12825         1.73874
| 36>    C        6.04396         5.96289         1.56222
| 37>    C        7.23073         5.12125         1.49205
| 38>    C        8.50964         5.51118         1.22782
| 39>    C        9.57338         4.58408         1.18611
| 40>    N       10.43620         3.82951         1.15745
| 41>    C        8.86050         6.84394         0.91738
| 42>    N        9.16803         7.90613         0.61727
| 43>    C        5.72364         7.31235         1.51843
| 44>    C        4.35122         7.51540         1.63684
| 45>    S        3.45805         6.00810         1.80854
| 46>    C        3.68121         8.75090         1.63491
| 47>    C        4.25435        10.03035         1.70072
| 48>    C        3.27903        11.08756         1.68589
| 49>    N        3.64784        12.36640         1.78388
| 50>    C        4.93448        12.61084         1.90376
| 51>    C        5.34201        14.03279         2.05435
| 52>    O        4.54279        14.92702         2.21926
| 53>    C        6.79775        14.26569         2.01120
| 54>    C        7.70375        13.28312         2.02328
| 55>    C        7.35206        11.85236         2.08192
| 56>    O        8.17531        10.98457         2.26995
| 57>    C        5.90346        11.56032         1.91771
| 58>    N        5.55742        10.29617         1.81217
| 59>    C        1.95936        10.61605         1.60386
| 60>    S        1.95139         8.87986         1.57239
| 61>    C        0.77912        11.37762         1.56474
| 62>    C        0.67780        12.76274         1.46873
| 63>    C       -0.64634        13.17936         1.46053
| 64>    C       -1.56450        12.11052         1.56443
| 65>    S       -0.79335        10.58982         1.64166
| 66>    C       -2.87152        12.63505         1.59488
| 67>    C       -2.79785        14.04256         1.51578
| 68>    C       -1.40073        14.42321         1.36615
| 69>    C       -0.91528        15.66158         1.07517
| 70>    C        0.45469        15.90728         0.82814
| 71>    N        1.55181        16.12600         0.58074
| 72>    C       -1.75715        16.78164         0.88723
| 73>    N       -2.42081        17.69454         0.68990
| 74>    C       -4.04281        14.65649         1.58865
| 75>    C       -5.06836        13.72672         1.70003
| 76>    S       -4.47809        12.06968         1.71689
| 77>    C       -6.44703        14.01005         1.79927
| 78>    C       -7.03189        15.26435         2.01794
| 79>    C       -8.47628        15.20335         2.05213
| 80>    N       -9.20691        16.31861         2.23349
| 81>    C       -8.54816        17.43410         2.41653
| 82>    C       -9.35425        18.67567         2.59340
| 83>    O      -10.56454        18.67758         2.57749
| 84>    C       -8.56895        19.90951         2.78332
| 85>    C       -7.23509        19.93808         2.85498
| 86>    C       -6.38688        18.73465         2.76129
| 87>    O       -5.19092        18.76689         2.95201
| 88>    C       -7.11433        17.47958         2.44878
| 89>    N       -6.38241        16.40905         2.23380
| 90>    C       -8.95521        13.92444         1.87864
| 91>    S       -7.68414        12.80364         1.67189
| 92>    H        7.66362        -3.17131         2.32165
| 93>    H       -0.25379        -1.71106         2.88166
| 94>    H        0.40831        -4.07455         3.08214
| 95>    H        8.31393         2.21470         1.69791
| 96>    H        6.41240         8.13224         1.41846
| 97>    H        7.09368        15.30600         2.00473
| 98>    H        8.76469        13.49352         2.02705
| 99>    H        1.54862        13.39230         1.42241
|100>    H       -4.23452        15.71451         1.58050
|101>    H       -9.15748        20.81256         2.87569
|102>    H       -6.69815        20.86421         3.01006
|103>    H       -9.97627        13.60217         1.86427
|104> *
|105>
|106>                          ****END OF INPUT****

CARTESIAN COORDINATES (ANGSTROEM)
---------------------------------
  C      7.093830   -2.265750    2.278680
  C      5.729810   -2.119390    2.388290
  C      5.323500   -0.738510    2.280260
  N      4.049430   -0.366650    2.355610
  C      3.160970   -1.322060    2.537000
  C      1.741400   -0.911170    2.617560
  O      1.387080    0.246130    2.521300
  C      0.783510   -2.012480    2.822850
  C      1.142940   -3.294870    2.931380
  C      2.538890   -3.765120    2.859270
  O      2.829580   -4.935300    2.965370
  C      3.558010   -2.697430    2.649100
  N      4.807310   -3.081960    2.575580
  C      6.398240    0.136920    2.091090
  S      7.877520   -0.759620    2.049490
  C      6.274040    1.532390    1.958730
  C      7.273570    2.477100    1.768780
  C      6.752950    3.762780    1.692370
  C      5.345570    3.786780    1.822260
  S      4.663990    2.234100    2.037830
  C      4.917520    5.128250    1.738740
  C      6.043960    5.962890    1.562220
  C      7.230730    5.121250    1.492050
  C      8.509640    5.511180    1.227820
  C      9.573380    4.584080    1.186110
  N     10.436200    3.829510    1.157450
  C      8.860500    6.843940    0.917380
  N      9.168030    7.906130    0.617270
  C      5.723640    7.312350    1.518430
  C      4.351220    7.515400    1.636840
  S      3.458050    6.008100    1.808540
  C      3.681210    8.750900    1.634910
  C      4.254350   10.030350    1.700720
  C      3.279030   11.087560    1.685890
  N      3.647840   12.366400    1.783880
  C      4.934480   12.610840    1.903760
  C      5.342010   14.032790    2.054350
  O      4.542790   14.927020    2.219260
  C      6.797750   14.265690    2.011200
  C      7.703750   13.283120    2.023280
  C      7.352060   11.852360    2.081920
  O      8.175310   10.984570    2.269950
  C      5.903460   11.560320    1.917710
  N      5.557420   10.296170    1.812170
  C      1.959360   10.616050    1.603860
  S      1.951390    8.879860    1.572390
  C      0.779120   11.377620    1.564740
  C      0.677800   12.762740    1.468730
  C     -0.646340   13.179360    1.460530
  C     -1.564500   12.110520    1.564430
  S     -0.793350   10.589820    1.641660
  C     -2.871520   12.635050    1.594880
  C     -2.797850   14.042560    1.515780
  C     -1.400730   14.423210    1.366150
  C     -0.915280   15.661580    1.075170
  C      0.454690   15.907280    0.828140
  N      1.551810   16.126000    0.580740
  C     -1.757150   16.781640    0.887230
  N     -2.420810   17.694540    0.689900
  C     -4.042810   14.656490    1.588650
  C     -5.068360   13.726720    1.700030
  S     -4.478090   12.069680    1.716890
  C     -6.447030   14.010050    1.799270
  C     -7.031890   15.264350    2.017940
  C     -8.476280   15.203350    2.052130
  N     -9.206910   16.318610    2.233490
  C     -8.548160   17.434100    2.416530
  C     -9.354250   18.675670    2.593400
  O    -10.564540   18.677580    2.577490
  C     -8.568950   19.909510    2.783320
  C     -7.235090   19.938080    2.854980
  C     -6.386880   18.734650    2.761290
  O     -5.190920   18.766890    2.952010
  C     -7.114330   17.479580    2.448780
  N     -6.382410   16.409050    2.233800
  C     -8.955210   13.924440    1.878640
  S     -7.684140   12.803640    1.671890
  H      7.663620   -3.171310    2.321650
  H     -0.253790   -1.711060    2.881660
  H      0.408310   -4.074550    3.082140
  H      8.313930    2.214700    1.697910
  H      6.412400    8.132240    1.418460
  H      7.093680   15.306000    2.004730
  H      8.764690   13.493520    2.027050
  H      1.548620   13.392300    1.422410
  H     -4.234520   15.714510    1.580500
  H     -9.157480   20.812560    2.875690
  H     -6.698150   20.864210    3.010060
  H     -9.976270   13.602170    1.864270

 Total Charge           Charge          ....    0
 Multiplicity           Mult            ....    1
 Number of Electrons    NEL             ....  566
 Basis Dimension        Dim             .... 1166

ORBITAL ENERGIES
----------------

  NO   OCC          E(Eh)            E(eV)
   0   2.0000     -89.001795     -2421.8620
   1   2.0000     -89.001294     -2421.8483
   2   2.0000     -88.999451     -2421.7982
   3   2.0000     -88.992728     -2421.6152
   4   2.0000     -88.992405     -2421.6065
   5   2.0000     -88.992152     -2421.5996
   6   2.0000     -88.985615     -2421.4217
   7   2.0000     -19.229167      -523.2522
   8   2.0000     -19.228318      -523.2291
   9   2.0000     -19.223905      -523.1091
  10   2.0000     -19.223745      -523.1047
  11   2.0000     -19.222563      -523.0725
  12   2.0000     -19.221195      -523.0353
  13   2.0000     -14.454568      -393.3288
  14   2.0000     -14.449295      -393.1853
  15   2.0000     -14.449142      -393.1811
  16   2.0000     -14.446469      -393.1084
  17   2.0000     -14.445132      -393.0720
  18   2.0000     -14.441198      -392.9650
  19   2.0000     -14.429525      -392.6473
  20   2.0000     -14.423817      -392.4920
  21   2.0000     -14.423104      -392.4726
  22   2.0000     -14.422760      -392.4632
  23   2.0000     -10.379239      -282.4335
  24   2.0000     -10.377457      -282.3850
  25   2.0000     -10.372842      -282.2594
  26   2.0000     -10.372610      -282.2531
  27   2.0000     -10.371862      -282.2327
  28   2.0000     -10.370204      -282.1876
  29   2.0000     -10.363083      -281.9938
  30   2.0000     -10.362925      -281.9895
  31   2.0000     -10.349836      -281.6334
  32   2.0000     -10.347565      -281.5715
  33   2.0000     -10.343218      -281.4533
  34   2.0000     -10.342714      -281.4396
  35   2.0000     -10.340603      -281.3821
  36   2.0000     -10.340343      -281.3751
  37   2.0000     -10.338543      -281.3261
  38   2.0000     -10.338391      -281.3219
  39   2.0000     -10.337835      -281.3068
  40   2.0000     -10.336967      -281.2832
  41   2.0000     -10.336092      -281.2594
  42   2.0000     -10.336090      -281.2593
  43   2.0000     -10.335795      -281.2513
  44   2.0000     -10.335736      -281.2497
  45   2.0000     -10.334459      -281.2149
  46   2.0000     -10.334213      -281.2082
  47   2.0000     -10.333352      -281.1848
  48   2.0000     -10.332824      -281.1704
  49   2.0000     -10.332140      -281.1518
  50   2.0000     -10.331851      -281.1439
  51   2.0000     -10.331732      -281.1407
  52   2.0000     -10.330183      -281.0986
  53   2.0000     -10.329862      -281.0898
  54   2.0000     -10.329575      -281.0820
  55   2.0000     -10.329389      -281.0770
  56   2.0000     -10.328944      -281.0648
  57   2.0000     -10.327575      -281.0276
  58   2.0000     -10.322915      -280.9008
  59   2.0000     -10.321988      -280.8756
  60   2.0000     -10.321478      -280.8617
  61   2.0000     -10.319178      -280.7991
  62   2.0000     -10.316921      -280.7377
  63   2.0000     -10.311755      -280.5971
  64   2.0000     -10.311033      -280.5775
  65   2.0000     -10.305689      -280.4321
  66   2.0000     -10.305656      -280.4312
  67   2.0000     -10.304969      -280.4125
  68   2.0000     -10.304711      -280.4055
  69   2.0000     -10.304686      -280.4048
  70   2.0000     -10.304390      -280.3967
  71   2.0000     -10.303831      -280.3815
  72   2.0000     -10.303557      -280.3741
  73   2.0000     -10.302840      -280.3545
  74   2.0000     -10.299129      -280.2535
  75   2.0000     -10.299068      -280.2519
  76   2.0000     -10.297665      -280.2137
  77   2.0000      -8.096331      -220.3124
  78   2.0000      -8.096153      -220.3075
  79   2.0000      -8.094351      -220.2585
  80   2.0000      -8.087635      -220.0757
  81   2.0000      -8.087216      -220.0643
  82   2.0000      -8.087076      -220.0605
  83   2.0000      -8.078849      -219.8367
  84   2.0000      -6.065271      -165.0444
  85   2.0000      -6.065244      -165.0437
  86   2.0000      -6.063239      -164.9891
  87   2.0000      -6.061133      -164.9318
  88   2.0000      -6.060906      -164.9256
  89   2.0000      -6.059543      -164.8885
  90   2.0000      -6.058938      -164.8721
  91   2.0000      -6.058761      -164.8673
  92   2.0000      -6.057612      -164.8360
  93   2.0000      -6.056956      -164.8181
  94   2.0000      -6.056495      -164.8056
  95   2.0000      -6.056379      -164.8025
  96   2.0000      -6.052810      -164.7053
  97   2.0000      -6.052341      -164.6926
  98   2.0000      -6.052239      -164.6898
  99   2.0000      -6.049785      -164.6230
 100   2.0000      -6.049472      -164.6145
 101   2.0000      -6.049254      -164.6086
 102   2.0000      -6.048289      -164.5823
 103   2.0000      -6.043750      -164.4588
 104   2.0000      -6.041123      -164.3873
 105   2.0000      -1.146286       -31.1920
 106   2.0000      -1.141906       -31.0728
 107   2.0000      -1.141747       -31.0685
 108   2.0000      -1.139795       -31.0154
 109   2.0000      -1.136986       -30.9390
 110   2.0000      -1.135103       -30.8877
 111   2.0000      -1.101254       -29.9666
 112   2.0000      -1.100834       -29.9552
 113   2.0000      -1.094365       -29.7792
 114   2.0000      -1.044816       -28.4309
 115   2.0000      -1.044132       -28.4123
 116   2.0000      -1.028930       -27.9986
 117   2.0000      -1.027627       -27.9631
 118   2.0000      -1.021634       -27.8001
 119   2.0000      -1.020119       -27.7589
 120   2.0000      -1.016827       -27.6693
 121   2.0000      -1.014853       -27.6156
 122   2.0000      -1.009321       -27.4650
 123   2.0000      -1.005162       -27.3518
 124   2.0000      -1.003277       -27.3006
 125   2.0000      -0.999596       -27.2004
 126   2.0000      -0.991980       -26.9932
 127   2.0000      -0.984834       -26.7987
 128   2.0000      -0.957441       -26.0533
 129   2.0000      -0.953880       -25.9564
 130   2.0000      -0.940936       -25.6042
 131   2.0000      -0.936889       -25.4940
 132   2.0000      -0.933987       -25.4151
 133   2.0000      -0.918833       -25.0027
 134   2.0000      -0.910677       -24.7808
 135   2.0000      -0.882539       -24.0151
 136   2.0000      -0.877750       -23.8848
 137   2.0000      -0.875961       -23.8361
 138   2.0000      -0.873809       -23.7775
 139   2.0000      -0.870357       -23.6836
 140   2.0000      -0.868316       -23.6281
 141   2.0000      -0.860245       -23.4084
 142   2.0000      -0.854621       -23.2554
 143   2.0000      -0.853502       -23.2250
 144   2.0000      -0.844705       -22.9856
 145   2.0000      -0.811309       -22.0769
 146   2.0000      -0.802341       -21.8328
 147   2.0000      -0.795480       -21.6461
 148   2.0000      -0.792818       -21.5737
 149   2.0000      -0.791381       -21.5346
 150   2.0000      -0.788521       -21.4567
 151   2.0000      -0.787065       -21.4171
 152   2.0000      -0.776706       -21.1352
 153   2.0000      -0.774529       -21.0760
 154   2.0000      -0.771102       -20.9827
 155   2.0000      -0.754432       -20.5291
 156   2.0000      -0.748626       -20.3711
 157   2.0000      -0.733219       -19.9519
 158   2.0000      -0.728754       -19.8304
 159   2.0000      -0.714040       -19.4300
 160   2.0000      -0.703180       -19.1345
 161   2.0000      -0.693951       -18.8834
 162   2.0000      -0.689078       -18.7508
 163   2.0000      -0.685379       -18.6501
 164   2.0000      -0.682246       -18.5648
 165   2.0000      -0.678390       -18.4599
 166   2.0000      -0.677368       -18.4321
 167   2.0000      -0.672815       -18.3082
 168   2.0000      -0.670024       -18.2323
 169   2.0000      -0.664283       -18.0761
 170   2.0000      -0.661088       -17.9891
 171   2.0000      -0.657663       -17.8959
 172   2.0000      -0.644291       -17.5320
 173   2.0000      -0.641267       -17.4498
 174   2.0000      -0.632251       -17.2044
 175   2.0000      -0.624793       -17.0015
 176   2.0000      -0.622894       -16.9498
 177   2.0000      -0.621456       -16.9107
 178   2.0000      -0.615568       -16.7504
 179   2.0000      -0.612259       -16.6604
 180   2.0000      -0.606896       -16.5145
 181   2.0000      -0.604973       -16.4621
 182   2.0000      -0.601201       -16.3595
 183   2.0000      -0.596534       -16.2325
 184   2.0000      -0.595049       -16.1921
 185   2.0000      -0.572278       -15.5725
 186   2.0000      -0.568965       -15.4823
 187   2.0000      -0.568605       -15.4725
 188   2.0000      -0.567876       -15.4527
 189   2.0000      -0.564526       -15.3615
 190   2.0000      -0.562879       -15.3167
 191   2.0000      -0.561121       -15.2689
 192   2.0000      -0.557881       -15.1807
 193   2.0000      -0.557162       -15.1611
 194   2.0000      -0.556171       -15.1342
 195   2.0000      -0.554518       -15.0892
 196   2.0000      -0.552206       -15.0263
 197   2.0000      -0.546229       -14.8636
 198   2.0000      -0.546044       -14.8586
 199   2.0000      -0.540453       -14.7065
 200   2.0000      -0.533915       -14.5286
 201   2.0000      -0.527972       -14.3669
 202   2.0000      -0.525748       -14.3063
 203   2.0000      -0.523403       -14.2425
 204   2.0000      -0.521998       -14.2043
 205   2.0000      -0.521141       -14.1810
 206   2.0000      -0.520704       -14.1691
 207   2.0000      -0.516572       -14.0566
 208   2.0000      -0.512264       -13.9394
 209   2.0000      -0.511031       -13.9059
 210   2.0000      -0.507576       -13.8118
 211   2.0000      -0.504475       -13.7275
 212   2.0000      -0.502904       -13.6847
 213   2.0000      -0.502394       -13.6708
 214   2.0000      -0.500951       -13.6316
 215   2.0000      -0.498546       -13.5661
 216   2.0000      -0.496388       -13.5074
 217   2.0000      -0.495417       -13.4810
 218   2.0000      -0.494865       -13.4660
 219   2.0000      -0.494035       -13.4434
 220   2.0000      -0.492939       -13.4136
 221   2.0000      -0.492330       -13.3970
 222   2.0000      -0.490704       -13.3527
 223   2.0000      -0.488169       -13.2838
 224   2.0000      -0.485806       -13.2194
 225   2.0000      -0.483961       -13.1693
 226   2.0000      -0.482447       -13.1281
 227   2.0000      -0.479466       -13.0469
 228   2.0000      -0.473677       -12.8894
 229   2.0000      -0.471939       -12.8421
 230   2.0000      -0.464490       -12.6394
 231   2.0000      -0.461715       -12.5639
 232   2.0000      -0.460045       -12.5185
 233   2.0000      -0.459111       -12.4930
 234   2.0000      -0.457421       -12.4470
 235   2.0000      -0.453154       -12.3310
 236   2.0000      -0.451998       -12.2995
 237   2.0000      -0.449759       -12.2386
 238   2.0000      -0.448678       -12.2092
 239   2.0000      -0.446555       -12.1514
 240   2.0000      -0.445774       -12.1301
 241   2.0000      -0.443354       -12.0643
 242   2.0000      -0.440773       -11.9940
 243   2.0000      -0.437530       -11.9058
 244   2.0000      -0.436101       -11.8669
 245   2.0000      -0.435400       -11.8478
 246   2.0000      -0.435210       -11.8427
 247   2.0000      -0.432999       -11.7825
 248   2.0000      -0.432153       -11.7595
 249   2.0000      -0.431325       -11.7369
 250   2.0000      -0.423118       -11.5136
 251   2.0000      -0.418635       -11.3916
 252   2.0000      -0.411224       -11.1900
 253   2.0000      -0.407148       -11.0791
 254   2.0000      -0.406616       -11.0646
 255   2.0000      -0.402539       -10.9536
 256   2.0000      -0.400286       -10.8923
 257   2.0000      -0.388994       -10.5851
 258   2.0000      -0.379595       -10.3293
 259   2.0000      -0.375874       -10.2280
 260   2.0000      -0.370257       -10.0752
 261   2.0000      -0.368772       -10.0348
 262   2.0000      -0.365576        -9.9478
 263   2.0000      -0.361725        -9.8430
 264   2.0000      -0.359098        -9.7715
 265   2.0000      -0.354586        -9.6488
 266   2.0000      -0.352995        -9.6055
 267   2.0000      -0.349133        -9.5004
 268   2.0000      -0.348887        -9.4937
 269   2.0000      -0.348019        -9.4701
 270   2.0000      -0.345848        -9.4110
 271   2.0000      -0.343779        -9.3547
 272   2.0000      -0.342974        -9.3328
 273   2.0000      -0.341524        -9.2933
 274   2.0000      -0.335837        -9.1386
 275   2.0000      -0.335248        -9.1226
 276   2.0000      -0.330518        -8.9938
 277   2.0000      -0.325292        -8.8516
 278   2.0000      -0.321131        -8.7384
 279   2.0000      -0.319079        -8.6826
 280   2.0000      -0.288759        -7.8575
 281   2.0000      -0.260924        -7.1001
 282   2.0000      -0.229890        -6.2556
 283   0.0000      -0.119717        -3.2577
 284   0.0000      -0.105466        -2.8699
 285   0.0000      -0.090739        -2.4691
 286   0.0000      -0.088850        -2.4177
 287   0.0000      -0.086819        -2.3625

MULLIKEN ATOMIC CHARGES
-----------------------
   0 C :   -0.158041
   1 C :    0.084731
   2 C :    0.008579
   3 N :    0.024684
   4 C :   -0.108265
   5 C :    0.141033
   6 O :   -0.115024
   7 C :   -0.021518
   8 C :   -0.012522
   9 C :    0.137067
  10 O :   -0.097028
  11 C :   -0.132126
  12 N :    0.066576
  13 C :   -0.123734
  14 S :    0.220236
  15 C :   -0.074960
  16 C :   -0.076452
  17 C :    0.022070
  18 C :   -0.083047
  19 S :    0.235562
  20 C :   -0.096090
  21 C :    0.030807
  22 C :    0.299827
  23 C :   -0.294595
  24 C :   -0.192876
  25 N :    0.171506
  26 C :   -0.196998
  27 N :    0.199875
  28 C :   -0.059390
  29 C :   -0.094426
  30 S :    0.182639
  31 C :   -0.113302
  32 C :    0.023111
  33 C :    0.020829
  34 N :    0.066077
  35 C :   -0.112651
  36 C :    0.136806
  37 O :   -0.095424
  38 C :   -0.012409
  39 C :   -0.014985
  40 C :    0.138698
  41 O :   -0.097154
  42 C :   -0.115838
  43 N :    0.064376
  44 C :   -0.111453
  45 S :    0.193697
  46 C :   -0.091444
  47 C :   -0.060789
  48 C :    0.029868
  49 C :   -0.093538
  50 S :    0.170909
  51 C :   -0.095057
  52 C :    0.021238
  53 C :    0.299680
  54 C :   -0.285612
  55 C :   -0.198253
  56 N :    0.199025
  57 C :   -0.195397
  58 N :    0.192185
  59 C :   -0.050211
  60 C :   -0.090042
  61 S :    0.176859
  62 C :   -0.132221
  63 C :    0.026468
  64 C :    0.063143
  65 N :    0.063221
  66 C :   -0.132479
  67 C :    0.140799
  68 O :   -0.101787
  69 C :   -0.014748
  70 C :   -0.013143
  71 C :    0.140396
  72 O :   -0.100558
  73 C :   -0.111055
  74 N :    0.057341
  75 C :   -0.146378
  76 S :    0.196615
  77 H :    0.031979
  78 H :    0.016769
  79 H :    0.018140
  80 H :    0.008360
  81 H :    0.030452
  82 H :    0.021643
  83 H :    0.021622
  84 H :    0.030880
  85 H :    0.031259
  86 H :    0.016351
  87 H :    0.019142
  88 H :    0.029889
Sum of atomic charges:   -0.0000000

LOEWDIN ATOMIC CHARGES
----------------------
   0 C :   -0.188270
   1 C :   -0.049848
   2 C :   -0.062975
   3 N :   -0.012186
   4 C :   -0.046029
   5 C :    0.054944
   6 O :   -0.110838
   7 C :   -0.014383
   8 C :   -0.012305
   9 C :    0.056473
  10 O :   -0.093857
  11 C :   -0.041993
  12 N :    0.005702
  13 C :   -0.191183
  14 S :    0.532094
  15 C :   -0.183341
  16 C :   -0.026423
  17 C :   -0.069571
  18 C :   -0.181215
  19 S :    0.528513
  20 C :   -0.177552
  21 C :   -0.063576
  22 C :    0.077939
  23 C :   -0.096526
  24 C :   -0.014316
  25 N :   -0.035934
  26 C :   -0.024373
  27 N :   -0.014689
  28 C :   -0.007572
  29 C :   -0.183878
  30 S :    0.464297
  31 C :   -0.192193
  32 C :   -0.043652
  33 C :   -0.043655
  34 N :    0.008003
  35 C :   -0.038586
  36 C :    0.054723
  37 O :   -0.090236
  38 C :   -0.012115
  39 C :   -0.012762
  40 C :    0.055018
  41 O :   -0.091778
  42 C :   -0.038860
  43 N :    0.007907
  44 C :   -0.191957
  45 S :    0.484834
  46 C :   -0.183129
  47 C :   -0.007870
  48 C :   -0.061471
  49 C :   -0.180074
  50 S :    0.455182
  51 C :   -0.178847
  52 C :   -0.063368
  53 C :    0.073137
  54 C :   -0.085221
  55 C :   -0.023028
  56 N :   -0.013058
  57 C :   -0.020809
  58 N :   -0.015804
  59 C :   -0.006562
  60 C :   -0.184803
  61 S :    0.457556
  62 C :   -0.193231
  63 C :   -0.050099
  64 C :   -0.050075
  65 N :    0.003332
  66 C :   -0.041607
  67 C :    0.057011
  68 O :   -0.096982
  69 C :   -0.016071
  70 C :   -0.010623
  71 C :    0.054546
  72 O :   -0.094763
  73 C :   -0.044058
  74 N :    0.007606
  75 C :   -0.189416
  76 S :    0.512667
  77 H :    0.035710
  78 H :    0.045032
  79 H :    0.045710
  80 H :    0.037600
  81 H :    0.044911
  82 H :    0.046519
  83 H :    0.046453
  84 H :    0.045270
  85 H :    0.045110
  86 H :    0.044798
  87 H :    0.045867
  88 H :    0.035132

  Mayer bond orders larger than 0.100000
B(  0-C ,  1-C ) :   1.4027 B(  0-C , 13-C ) :   0.1132 B(  0-C , 14-S ) :   1.1865
B(  0-C , 77-H ) :   0.9766 B(  1-C ,  2-C ) :   1.1660 B(  1-C , 12-N ) :   1.3777
B(  2-C ,  3-N ) :   1.4153 B(  2-C , 13-C ) :   1.2873 B(  3-N ,  4-C ) :   1.6974
B(  4-C ,  5-C ) :   0.9029 B(  4-C , 11-C ) :   1.0936 B(  5-C ,  6-O ) :   2.2406
B(  5-C ,  7-C ) :   1.0200 B(  7-C ,  8-C ) :   1.6786 B(  7-C , 78-H ) :   0.9984
B(  8-C ,  9-C ) :   1.0206 B(  8-C , 79-H ) :   0.9980 B(  9-C , 10-O ) :   2.2601
B(  9-C , 11-C ) :   0.8906 B( 11-C , 12-N ) :   1.7494 B( 13-C , 14-S ) :   1.2082
B( 13-C , 15-C ) :   1.2262 B( 15-C , 16-C ) :   1.4030 B( 15-C , 19-S ) :   1.1127
B( 16-C , 17-C ) :   1.3218 B( 16-C , 80-H ) :   0.9965 B( 17-C , 18-C ) :   1.4001
B( 17-C , 22-C ) :   0.9960 B( 18-C , 19-S ) :   1.0969 B( 18-C , 20-C ) :   1.2177
B( 20-C , 21-C ) :   1.4077 B( 20-C , 30-S ) :   1.1238 B( 21-C , 22-C ) :   0.9862
B( 21-C , 28-C ) :   1.2827 B( 22-C , 23-C ) :   1.7171 B( 23-C , 24-C ) :   1.1364
B( 23-C , 26-C ) :   1.1325 B( 24-C , 25-N ) :   2.9943 B( 26-C , 27-N ) :   3.0058
B( 28-C , 29-C ) :   1.4449 B( 28-C , 81-H ) :   0.9888 B( 29-C , 30-S ) :   1.0802
B( 29-C , 31-C ) :   1.1945 B( 31-C , 32-C ) :   1.3652 B( 31-C , 44-C ) :   0.1512
B( 31-C , 45-S ) :   1.1483 B( 32-C , 33-C ) :   1.1868 B( 32-C , 43-N ) :   1.4432
B( 33-C , 34-N ) :   1.4450 B( 33-C , 44-C ) :   1.3663 B( 34-N , 35-C ) :   1.7125
B( 35-C , 36-C ) :   0.8898 B( 35-C , 42-C ) :   1.0891 B( 36-C , 37-O ) :   2.2432
B( 36-C , 38-C ) :   1.0246 B( 38-C , 39-C ) :   1.6897 B( 38-C , 82-H ) :   0.9957
B( 39-C , 40-C ) :   1.0243 B( 39-C , 83-H ) :   0.9957 B( 40-C , 41-O ) :   2.2428
B( 40-C , 42-C ) :   0.8903 B( 42-C , 43-N ) :   1.7129 B( 44-C , 45-S ) :   1.1478
B( 44-C , 46-C ) :   1.1970 B( 46-C , 47-C ) :   1.4466 B( 46-C , 50-S ) :   1.0775
B( 47-C , 48-C ) :   1.2795 B( 47-C , 84-H ) :   0.9888 B( 48-C , 49-C ) :   1.4130
B( 48-C , 53-C ) :   0.9850 B( 49-C , 50-S ) :   1.1168 B( 49-C , 51-C ) :   1.2195
B( 51-C , 52-C ) :   1.4189 B( 51-C , 61-S ) :   1.1191 B( 52-C , 53-C ) :   0.9910
B( 52-C , 59-C ) :   1.2725 B( 53-C , 54-C ) :   1.7249 B( 54-C , 55-C ) :   1.1337
B( 54-C , 57-C ) :   1.1342 B( 55-C , 56-N ) :   3.0056 B( 57-C , 58-N ) :   3.0007
B( 59-C , 60-C ) :   1.4630 B( 59-C , 85-H ) :   0.9869 B( 60-C , 61-S ) :   1.0810
B( 60-C , 62-C ) :   1.1747 B( 62-C , 63-C ) :   1.3373 B( 62-C , 75-C ) :   0.1286
B( 62-C , 76-S ) :   1.2048 B( 63-C , 64-C ) :   1.1688 B( 63-C , 74-N ) :   1.4349
B( 64-C , 65-N ) :   1.3764 B( 64-C , 75-C ) :   1.4045 B( 65-N , 66-C ) :   1.7505
B( 66-C , 67-C ) :   0.8858 B( 66-C , 73-C ) :   1.0859 B( 67-C , 68-O ) :   2.2591
B( 67-C , 69-C ) :   1.0214 B( 69-C , 70-C ) :   1.6863 B( 69-C , 86-H ) :   0.9973
B( 70-C , 71-C ) :   1.0185 B( 70-C , 87-H ) :   0.9963 B( 71-C , 72-O ) :   2.2413
B( 71-C , 73-C ) :   0.8946 B( 73-C , 74-N ) :   1.7211 B( 75-C , 76-S ) :   1.1856
B( 75-C , 88-H ) :   0.9763

-----------------------------------------------------------------------------
         ABSORPTION SPECTRUM VIA TRANSITION ELECTRIC DIPOLE MOMENTS
-----------------------------------------------------------------------------
State   Energy  Wavelength   fosc         T2         TX        TY        TZ
        (cm-1)    (nm)                  (au**2)     (au)      (au)      (au)
-----------------------------------------------------------------------------
   0    9210.5   1085.7   0.838645079  29.97591   3.32257  -4.35061   0.09318
   1   11397.3    877.4   0.101037039   2.91847   1.58720   0.62189  -0.11196
   2   13745.4    727.5   0.216624485   5.18833  -1.27214   1.88872  -0.05225
   3   16077.7    622.0   0.320300071   6.55855   1.46641   2.08702  -0.22920
   4   17195.0    581.6   0.192875122   3.69275  -1.85119   0.51496  -0.02584
   5   17636.0    567.0   0.099339611   1.85438   1.28886   0.39996  -0.18231
   6   18035.3    554.5   0.083309883   1.52072  -0.78169   0.89974   0.31644
   7   19434.1    514.6   0.028455609   0.48204  -0.68730   0.08207   0.05399
   8   20316.8    492.2   0.000682998   0.01107  -0.07835  -0.02579  -0.06530
   9   21067.6    474.7   0.046190468   0.72179  -0.05684   0.83207   0.16193
  10   23825.9    419.7   0.060638064   0.83786   0.58332   0.70072   0.08114
  11   24412.3    409.6   0.112480996   1.51686  -0.80004   0.93349   0.07349
  12   24494.0    408.3   0.094179263   1.26582   0.78465  -0.80126   0.09008
  13   24779.6    403.6   0.001526140   0.02028   0.02137   0.02605   0.13835
  14   24836.6    402.6   0.002222787   0.02946   0.06497   0.01467  -0.15820
  15   24850.6    402.4   0.004804524   0.06365   0.05271   0.07368  -0.23546
  16   25787.1    387.8   0.000169460   0.00216   0.00083   0.01155   0.04505
  17   25931.5    385.6   0.002497463   0.03171   0.15679  -0.08322   0.01408
  18   25967.4    385.1   0.000740986   0.00939  -0.03776   0.07615   0.04658
  19   26015.6    384.4   0.004454168   0.05636  -0.19791   0.09150  -0.09392
  20   26664.3    375.0   0.001334914   0.01648  -0.00927   0.06428   0.11074
  21   26745.1    373.9   0.137139195   1.68808   0.61424  -1.14372   0.05199
  22   26794.3    373.2   0.004130227   0.05075   0.06332   0.16175  -0.14343
  23   26811.4    373.0   0.002126272   0.02611   0.06100   0.03771  -0.14479
  24   26901.9    371.7   0.200692863   2.45598   1.23025  -0.97050   0.02423
  25   27307.1    366.2   0.020242720   0.24404   0.47422   0.05462  -0.12718
  26   28177.0    354.9   0.567171440   6.62667  -1.66867   1.95948  -0.05158
  27   28827.8    346.9   0.028281114   0.32297  -0.31053  -0.47596  -0.00053
  28   28894.4    346.1   0.042118250   0.47988   0.53367   0.38540  -0.21574
  29   29214.3    342.3   0.180132651   2.02989  -0.94178  -1.02596   0.30058
  30   30291.5    330.1   0.152373847   1.65602  -1.09006   0.68298   0.03638
  31   30453.7    328.4   0.164573573   1.77908  -0.71478  -1.10632   0.21029
  32   30691.9    325.8   0.000395499   0.00424   0.06399  -0.01063  -0.00586
  33   30874.5    323.9   0.000446877   0.00477  -0.00563  -0.00376  -0.06870
  34   30969.6    322.9   0.009872657   0.10495   0.31612  -0.06618  -0.02522
  35   30989.2    322.7   0.010913832   0.11594  -0.31800   0.11798  -0.03002
  36   31547.9    317.0   0.015923232   0.16616   0.39671  -0.09361  -0.00448
  37   31778.4    314.7   0.056948995   0.58997  -0.74309   0.09461   0.16979
  38   32064.4    311.9   0.045840435   0.47065   0.01792   0.68529  -0.02657
  39   32607.4    306.7   0.116104847   1.17222   0.74848   0.72056  -0.30463
  40   32879.5    304.1   0.247730444   2.48045   1.37619   0.75053  -0.15244
  41   33274.5    300.5   0.068149277   0.67426  -0.50927  -0.62864  -0.14039
  42   33489.7    298.6   0.134516527   1.32233   0.88893   0.72940  -0.01082
  43   33615.8    297.5   0.077587832   0.75985   0.73898   0.34529  -0.30747
  44   33806.1    295.8   0.006857287   0.06678   0.21112   0.14776  -0.01929
  45   33824.4    295.6   0.051392517   0.50020  -0.65130  -0.25493   0.10499
  46   33925.9    294.8   0.097121492   0.94245  -0.65241  -0.70360   0.14752
  47   33988.7    294.2   0.198451581   1.92218  -0.90967  -1.01044   0.27146
  48   34096.3    293.3   0.000170009   0.00164   0.03204   0.00635   0.02398
  49   34375.7    290.9   0.277647760   2.65900   1.08163   1.16737  -0.35539
  50   34467.6    290.1   0.013459644   0.12856   0.24097   0.24404  -0.10457
  51   34607.4    289.0   0.031463271   0.29930  -0.16064  -0.51836   0.06928
  52   35007.7    285.7   0.090046820   0.84680   0.81565  -0.42459  -0.03510
  53   35123.7    284.7   0.102658484   0.96221  -0.03875   0.94389   0.26415
  54   35184.5    284.2   0.031135170   0.29132  -0.32988  -0.42704  -0.01176
  55   35352.6    282.9   0.112949786   1.05182  -0.96833  -0.31783   0.11461
  56   35373.3    282.7   0.006465507   0.06017   0.18514   0.07019  -0.14481
  57   35455.7    282.0   0.229881438   2.13449   0.99331  -1.07111   0.02337
  58   35680.7    280.3   0.049559390   0.45727   0.25851  -0.62463   0.01671
  59   35840.6    279.0   0.009430101   0.08662   0.17125  -0.23917   0.00959
  60   35891.5    278.6   0.035574830   0.32631  -0.30892   0.47911  -0.03647
  61   35969.9    278.0   0.000883770   0.00809   0.02344   0.00865  -0.08640
  62   36316.2    275.4   0.098521832   0.89311  -0.45486  -0.82396  -0.08552
  63   36670.5    272.7   0.023672834   0.21252  -0.11207  -0.44066  -0.07602
  64   36884.8    271.1   0.036066716   0.32191  -0.54199  -0.15496  -0.06439
  65   36977.5    270.4   0.005291680   0.04711  -0.02168   0.21060   0.04785
  66   37080.7    269.7   0.081666643   0.72506  -0.75366  -0.38632   0.08839
  67   37130.9    269.3   0.221516120   1.96402   0.05671   1.39890   0.06229
  68   37491.3    266.7   0.058502450   0.51371  -0.44446  -0.55862  -0.06413
  69   37646.2    265.6   0.072416589   0.63327  -0.51295  -0.60782   0.02670
  70   37757.8    264.8   0.006522433   0.05687  -0.20922   0.11114  -0.02725
  71   37803.1    264.5   0.039185159   0.34125   0.46001  -0.35598  -0.05397
  72   37813.0    264.5   0.014299571   0.12450   0.25361  -0.23759  -0.06107
  73   37887.4    263.9   0.067529631   0.58678  -0.76211   0.07010   0.03250
  74   38159.9    262.1   0.010224887   0.08821   0.09207  -0.27483   0.06481
  75   38239.8    261.5   0.005059513   0.04356   0.20115   0.05476   0.00983
  76   38322.7    260.9   0.034210652   0.29389  -0.04276  -0.53704   0.06042
  77   38412.3    260.3   0.002284726   0.01958  -0.10386   0.07453   0.05691
  78   38515.9    259.6   0.030759908   0.26292  -0.27380   0.38027   0.20819
  79   38551.9    259.4   0.090613282   0.77379   0.09242  -0.87039  -0.08753
  80   38779.8    257.9   0.010631359   0.09025  -0.06588  -0.29287   0.01190
  81   38985.3    256.5   0.076772595   0.64831  -0.51133  -0.62124  -0.03014
  82   39101.9    255.7   0.023038805   0.19397  -0.22117  -0.38086  -0.00229
  83   39380.2    253.9   0.001810853   0.01514  -0.11238   0.03994  -0.03024
  84   39468.0    253.4   0.071763050   0.59859   0.76720   0.08782  -0.04788
  85   39673.4    252.1   0.079434615   0.65915  -0.69235  -0.42124  -0.04860
  86   39756.2    251.5   0.029642526   0.24546  -0.45453  -0.18681   0.06302
  87   39942.4    250.4   0.009605283   0.07917   0.12854   0.23597   0.08346
  88   39962.9    250.2   0.021690826   0.17869   0.27992   0.31582  -0.02429
  89   40051.6    249.7   0.000282498   0.00232  -0.00104  -0.00336   0.04806
  90   40265.4    248.4   0.009362335   0.07655   0.18955  -0.19615   0.04629

FINAL SINGLE POINT ENERGY     -5846.329231408688

DIPOLE MOMENT
-------------
                                X             Y             Z
Electronic contribution:      2.51942      -9.46778      -2.82805
Nuclear contribution   :     -4.26151       7.06304       3.19950
                        -----------------------------------------
Total Dipole Moment    :     -1.74209      -2.40474       0.37145
                        -----------------------------------------
Magnitude (a.u.)       :      2.99260
Magnitude (Debye)      :      7.60657

Rotational constants in cm-1:     0.001093     0.000232     0.000192
Rotational constants in MHz :    32.779106     6.948919     5.764957

                             ****ORCA TERMINATED NORMALLY****
TOTAL RUN TIME: 0 days 0 hours 10 minutes 4 seconds 719 msec
