                         Program Version 4.2.0 -  RELEASE  -
|  1> # ORCA input file
|  2> # SCF done       -196.265793317457          0.000854996541
|  3> ! CAM-B3LYP def2-SVP def2/J RIJCOSX Grid4 TightSCF
|  4> %maxcore 5000
|  5> %tddft
|  6>     Mode sTDDFT
|  7>     Ethresh 5.0
|  8>     maxcore 5000
|  9> end
| 10>
| 11> %pal
| 12>   nprocs 6
| 13>   end
| 14> * xyz 0 1
| 15>    C       -5.23508         4.97080        -3.20167
| 16>    C       -4.54596         5.37259        -4.31184
| 17>    C       -4.50039         6.70781        -4.76893
| 18>    N       -4.44154         7.77540        -5.18446
| 19>    C       -3.74166         4.51953        -5.09808
| 20>    N       -3.04565         3.88235        -5.75136
| 21>    C       -5.95288         5.82029        -2.26539
| 22>    C       -6.27224         5.06430        -1.10531
| 23>    C       -6.93559         5.60947        -0.03238
| 24>    C       -7.31480         6.95279        -0.11145
| 25>    C       -6.99964         7.69576        -1.27731
| 26>    C       -6.31938         7.15091        -2.35830
| 27>    S       -7.56822         9.32991        -1.15417
| 28>    C       -8.20625         9.01470         0.42152
| 29>    C       -8.00858         7.74636         0.84402
| 30>    C       -5.76676         3.68748        -1.25897
| 31>    O       -5.64546         2.84130        -0.41079
| 32>    C       -5.32762         3.60780        -2.69076
| 33>    C       -5.15180         2.46734        -3.38649
| 34>    C       -5.44866         1.14580        -2.90622
| 35>    N       -6.55158         0.84351        -2.26114
| 36>    C       -6.54859        -0.50617        -2.13332
| 37>    C       -5.37281        -1.09654        -2.79357
| 38>    C       -5.37686        -2.56173        -2.65716
| 39>    O       -4.58530        -3.36602        -3.09182
| 40>    C       -6.59757        -2.79835        -1.85481
| 41>    C       -7.28519        -1.51482        -1.57249
| 42>    N       -8.39714        -1.72601        -0.82188
| 43>    C       -8.43042        -3.01601        -0.61424
| 44>    C       -7.32903        -3.74630        -1.22164
| 45>    C       -4.63517        -0.04524        -3.26614
| 46>    C       -3.40200        -0.01710        -3.97472
| 47>    C       -2.55747         1.03814        -3.94581
| 48>    C       -1.38919         1.17446        -4.74492
| 49>    S       -0.26294         2.46474        -4.40867
| 50>    C        0.67166         2.06229        -5.81012
| 51>    C        0.10618         0.96672        -6.50302
| 52>    C       -1.04140         0.46420        -5.87038
| 53>    C        0.71519         0.56147        -7.71186
| 54>    C        1.81519         1.28842        -8.18531
| 55>    S        2.41766         0.61699        -9.67159
| 56>    C        1.17853        -0.58670        -9.65732
| 57>    C        0.36123        -0.50405        -8.58375
| 58>    C        2.34816         2.39536        -7.49139
| 59>    C        1.79220         2.74009        -6.26474
| 60>    C        3.42193         3.19936        -8.02843
| 61>    N        4.47550         3.48706        -7.29530
| 62>    C        5.30750         4.19844        -8.08972
| 63>    C        4.71494         4.40130        -9.41869
| 64>    C        5.61484         5.19187       -10.28023
| 65>    O        5.43924         5.55080       -11.42160
| 66>    C        6.77266         5.42165        -9.39505
| 67>    C        6.54020         4.79891        -8.06936
| 68>    N        7.59607         5.01889        -7.24879
| 69>    C        8.44297         5.72114        -7.95966
| 70>    C        7.99097         6.01165        -9.30704
| 71>    C        3.48616         3.79213        -9.39321
| 72>    C        2.48236         3.88300       -10.39865
| 73>    C        1.17612         3.55884       -10.23355
| 74>    C        0.22582         3.67058       -11.27514
| 75>    C       -1.05137         3.20046       -11.29881
| 76>    C       -1.88936         2.51805       -10.32827
| 77>    C       -1.91930         2.67681        -8.96655
| 78>    C       -2.82145         1.99077        -8.12602
| 79>    N       -3.51676         1.42948        -7.40470
| 80>    C       -1.13804         3.59515        -8.23481
| 81>    N       -0.54657         4.34102        -7.59325
| 82>    C       -2.87303         1.74745       -11.08773
| 83>    C       -2.82338         2.14871       -12.44759
| 84>    C       -1.73688         3.12517       -12.62380
| 85>    O       -1.41761         3.71254       -13.63099
| 86>    C       -3.66665         1.63565       -13.40378
| 87>    C       -4.59446         0.66923       -13.00574
| 88>    C       -4.62028         0.25538       -11.65210
| 89>    C       -3.77340         0.78042       -10.68312
| 90>    S       -5.83033        -0.96099       -11.39061
| 91>    C       -6.28656        -0.90067       -13.05806
| 92>    C       -5.56904        -0.01648       -13.78447
| 93>    H       -7.15924         5.01400         0.83888
| 94>    H       -6.10268         7.75191        -3.22607
| 95>    H       -8.69935         9.81186         0.94319
| 96>    H       -8.33689         7.37074         1.79604
| 97>    H       -4.80430         2.50248        -4.41339
| 98>    H       -9.22991        -3.45471        -0.04244
| 99>    H       -7.17582        -4.80553        -1.15982
|100>    H       -3.15166        -0.91029        -4.52908
|101>    H       -2.76180         1.86236        -3.27389
|102>    H       -1.62350        -0.35549        -6.24803
|103>    H        1.14251        -1.29485       -10.46168
|104>    H       -0.46012        -1.17296        -8.40270
|105>    H        2.19424         3.57712        -5.71886
|106>    H        9.38088         6.03314        -7.53374
|107>    H        8.53535         6.57440       -10.03922
|108>    H        2.81746         4.29826       -11.34164
|109>    H        0.84276         3.17806        -9.28398
|110>    H        0.57160         4.09411       -12.21314
|111>    H       -3.60854         1.97003       -14.42786
|112>    H       -3.82947         0.42497        -9.66810
|113>    H       -7.07641        -1.54294       -13.39601
|114>    H       -5.71203         0.15607       -14.83571
|115> *
|116>
|117>                          ****END OF INPUT****

CARTESIAN COORDINATES (ANGSTROEM)
---------------------------------
  C     -5.235080    4.970800   -3.201670
  C     -4.545960    5.372590   -4.311840
  C     -4.500390    6.707810   -4.768930
  N     -4.441540    7.775400   -5.184460
  C     -3.741660    4.519530   -5.098080
  N     -3.045650    3.882350   -5.751360
  C     -5.952880    5.820290   -2.265390
  C     -6.272240    5.064300   -1.105310
  C     -6.935590    5.609470   -0.032380
  C     -7.314800    6.952790   -0.111450
  C     -6.999640    7.695760   -1.277310
  C     -6.319380    7.150910   -2.358300
  S     -7.568220    9.329910   -1.154170
  C     -8.206250    9.014700    0.421520
  C     -8.008580    7.746360    0.844020
  C     -5.766760    3.687480   -1.258970
  O     -5.645460    2.841300   -0.410790
  C     -5.327620    3.607800   -2.690760
  C     -5.151800    2.467340   -3.386490
  C     -5.448660    1.145800   -2.906220
  N     -6.551580    0.843510   -2.261140
  C     -6.548590   -0.506170   -2.133320
  C     -5.372810   -1.096540   -2.793570
  C     -5.376860   -2.561730   -2.657160
  O     -4.585300   -3.366020   -3.091820
  C     -6.597570   -2.798350   -1.854810
  C     -7.285190   -1.514820   -1.572490
  N     -8.397140   -1.726010   -0.821880
  C     -8.430420   -3.016010   -0.614240
  C     -7.329030   -3.746300   -1.221640
  C     -4.635170   -0.045240   -3.266140
  C     -3.402000   -0.017100   -3.974720
  C     -2.557470    1.038140   -3.945810
  C     -1.389190    1.174460   -4.744920
  S     -0.262940    2.464740   -4.408670
  C      0.671660    2.062290   -5.810120
  C      0.106180    0.966720   -6.503020
  C     -1.041400    0.464200   -5.870380
  C      0.715190    0.561470   -7.711860
  C      1.815190    1.288420   -8.185310
  S      2.417660    0.616990   -9.671590
  C      1.178530   -0.586700   -9.657320
  C      0.361230   -0.504050   -8.583750
  C      2.348160    2.395360   -7.491390
  C      1.792200    2.740090   -6.264740
  C      3.421930    3.199360   -8.028430
  N      4.475500    3.487060   -7.295300
  C      5.307500    4.198440   -8.089720
  C      4.714940    4.401300   -9.418690
  C      5.614840    5.191870  -10.280230
  O      5.439240    5.550800  -11.421600
  C      6.772660    5.421650   -9.395050
  C      6.540200    4.798910   -8.069360
  N      7.596070    5.018890   -7.248790
  C      8.442970    5.721140   -7.959660
  C      7.990970    6.011650   -9.307040
  C      3.486160    3.792130   -9.393210
  C      2.482360    3.883000  -10.398650
  C      1.176120    3.558840  -10.233550
  C      0.225820    3.670580  -11.275140
  C     -1.051370    3.200460  -11.298810
  C     -1.889360    2.518050  -10.328270
  C     -1.919300    2.676810   -8.966550
  C     -2.821450    1.990770   -8.126020
  N     -3.516760    1.429480   -7.404700
  C     -1.138040    3.595150   -8.234810
  N     -0.546570    4.341020   -7.593250
  C     -2.873030    1.747450  -11.087730
  C     -2.823380    2.148710  -12.447590
  C     -1.736880    3.125170  -12.623800
  O     -1.417610    3.712540  -13.630990
  C     -3.666650    1.635650  -13.403780
  C     -4.594460    0.669230  -13.005740
  C     -4.620280    0.255380  -11.652100
  C     -3.773400    0.780420  -10.683120
  S     -5.830330   -0.960990  -11.390610
  C     -6.286560   -0.900670  -13.058060
  C     -5.569040   -0.016480  -13.784470
  H     -7.159240    5.014000    0.838880
  H     -6.102680    7.751910   -3.226070
  H     -8.699350    9.811860    0.943190
  H     -8.336890    7.370740    1.796040
  H     -4.804300    2.502480   -4.413390
  H     -9.229910   -3.454710   -0.042440
  H     -7.175820   -4.805530   -1.159820
  H     -3.151660   -0.910290   -4.529080
  H     -2.761800    1.862360   -3.273890
  H     -1.623500   -0.355490   -6.248030
  H      1.142510   -1.294850  -10.461680
  H     -0.460120   -1.172960   -8.402700
  H      2.194240    3.577120   -5.718860
  H      9.380880    6.033140   -7.533740
  H      8.535350    6.574400  -10.039220
  H      2.817460    4.298260  -11.341640
  H      0.842760    3.178060   -9.283980
  H      0.571600    4.094110  -12.213140
  H     -3.608540    1.970030  -14.427860
  H     -3.829470    0.424970   -9.668100
  H     -7.076410   -1.542940  -13.396010
  H     -5.712030    0.156070  -14.835710

 Total Charge           Charge          ....    0
 Multiplicity           Mult            ....    1
 Number of Electrons    NEL             ....  546
 Basis Dimension        Dim             .... 1218

ORBITAL ENERGIES
----------------

  NO   OCC          E(Eh)            E(eV)
   0   2.0000     -88.970859     -2421.0202
   1   2.0000     -88.965611     -2420.8774
   2   2.0000     -88.956774     -2420.6369
   3   2.0000     -88.950059     -2420.4542
   4   2.0000     -19.220136      -523.0065
   5   2.0000     -19.212470      -522.7979
   6   2.0000     -19.210243      -522.7373
   7   2.0000     -19.207661      -522.6670
   8   2.0000     -14.422504      -392.4563
   9   2.0000     -14.422257      -392.4496
  10   2.0000     -14.414884      -392.2489
  11   2.0000     -14.413305      -392.2060
  12   2.0000     -14.410883      -392.1401
  13   2.0000     -14.407721      -392.0540
  14   2.0000     -14.407695      -392.0533
  15   2.0000     -14.407451      -392.0467
  16   2.0000     -10.373031      -282.2645
  17   2.0000     -10.371779      -282.2304
  18   2.0000     -10.368804      -282.1495
  19   2.0000     -10.360446      -281.9221
  20   2.0000     -10.353301      -281.7276
  21   2.0000     -10.349689      -281.6293
  22   2.0000     -10.346091      -281.5314
  23   2.0000     -10.345776      -281.5229
  24   2.0000     -10.340791      -281.3872
  25   2.0000     -10.339415      -281.3498
  26   2.0000     -10.334248      -281.2092
  27   2.0000     -10.332475      -281.1609
  28   2.0000     -10.328697      -281.0581
  29   2.0000     -10.327784      -281.0333
  30   2.0000     -10.327663      -281.0300
  31   2.0000     -10.327604      -281.0284
  32   2.0000     -10.325846      -280.9805
  33   2.0000     -10.323936      -280.9286
  34   2.0000     -10.323765      -280.9239
  35   2.0000     -10.320687      -280.8402
  36   2.0000     -10.319317      -280.8029
  37   2.0000     -10.318596      -280.7833
  38   2.0000     -10.316632      -280.7298
  39   2.0000     -10.316504      -280.7263
  40   2.0000     -10.313549      -280.6459
  41   2.0000     -10.312865      -280.6273
  42   2.0000     -10.309605      -280.5386
  43   2.0000     -10.309286      -280.5299
  44   2.0000     -10.307921      -280.4928
  45   2.0000     -10.307652      -280.4855
  46   2.0000     -10.307151      -280.4718
  47   2.0000     -10.306183      -280.4455
  48   2.0000     -10.305209      -280.4190
  49   2.0000     -10.304757      -280.4067
  50   2.0000     -10.303687      -280.3776
  51   2.0000     -10.303321      -280.3676
  52   2.0000     -10.301551      -280.3195
  53   2.0000     -10.301403      -280.3154
  54   2.0000     -10.300908      -280.3020
  55   2.0000     -10.300079      -280.2794
  56   2.0000     -10.299848      -280.2731
  57   2.0000     -10.296935      -280.1938
  58   2.0000     -10.296734      -280.1884
  59   2.0000     -10.296630      -280.1856
  60   2.0000     -10.294422      -280.1255
  61   2.0000     -10.294296      -280.1220
  62   2.0000     -10.293605      -280.1032
  63   2.0000     -10.292795      -280.0812
  64   2.0000     -10.292002      -280.0596
  65   2.0000     -10.291922      -280.0574
  66   2.0000     -10.290969      -280.0315
  67   2.0000     -10.289834      -280.0006
  68   2.0000     -10.288151      -279.9548
  69   2.0000     -10.288004      -279.9508
  70   2.0000     -10.287955      -279.9495
  71   2.0000     -10.286939      -279.9218
  72   2.0000     -10.286873      -279.9200
  73   2.0000     -10.286731      -279.9162
  74   2.0000     -10.286280      -279.9039
  75   2.0000     -10.285881      -279.8931
  76   2.0000     -10.278880      -279.7025
  77   2.0000     -10.275185      -279.6020
  78   2.0000      -8.067164      -219.5187
  79   2.0000      -8.061852      -219.3741
  80   2.0000      -8.052144      -219.1100
  81   2.0000      -8.045789      -218.9370
  82   2.0000      -6.036663      -164.2660
  83   2.0000      -6.032366      -164.1490
  84   2.0000      -6.031381      -164.1222
  85   2.0000      -6.028833      -164.0529
  86   2.0000      -6.027068      -164.0049
  87   2.0000      -6.023514      -163.9081
  88   2.0000      -6.021723      -163.8594
  89   2.0000      -6.017335      -163.7400
  90   2.0000      -6.015207      -163.6821
  91   2.0000      -6.013962      -163.6482
  92   2.0000      -6.011227      -163.5738
  93   2.0000      -6.007422      -163.4703
  94   2.0000      -1.136613       -30.9288
  95   2.0000      -1.127332       -30.6763
  96   2.0000      -1.125843       -30.6358
  97   2.0000      -1.122730       -30.5510
  98   2.0000      -1.080663       -29.4063
  99   2.0000      -1.080193       -29.3935
 100   2.0000      -1.061999       -28.8985
 101   2.0000      -1.061820       -28.8936
 102   2.0000      -1.026917       -27.9438
 103   2.0000      -1.016937       -27.6723
 104   2.0000      -1.013638       -27.5825
 105   2.0000      -1.006647       -27.3922
 106   2.0000      -1.003208       -27.2987
 107   2.0000      -1.000481       -27.2245
 108   2.0000      -0.991790       -26.9880
 109   2.0000      -0.989047       -26.9133
 110   2.0000      -0.981397       -26.7052
 111   2.0000      -0.976069       -26.5602
 112   2.0000      -0.942375       -25.6433
 113   2.0000      -0.941712       -25.6253
 114   2.0000      -0.934417       -25.4268
 115   2.0000      -0.933689       -25.4070
 116   2.0000      -0.926319       -25.2064
 117   2.0000      -0.921752       -25.0821
 118   2.0000      -0.911764       -24.8104
 119   2.0000      -0.904713       -24.6185
 120   2.0000      -0.895510       -24.3681
 121   2.0000      -0.886616       -24.1260
 122   2.0000      -0.879426       -23.9304
 123   2.0000      -0.878025       -23.8923
 124   2.0000      -0.873848       -23.7786
 125   2.0000      -0.870429       -23.6856
 126   2.0000      -0.860423       -23.4133
 127   2.0000      -0.857784       -23.3415
 128   2.0000      -0.853221       -23.2173
 129   2.0000      -0.828216       -22.5369
 130   2.0000      -0.828032       -22.5319
 131   2.0000      -0.827254       -22.5107
 132   2.0000      -0.821012       -22.3409
 133   2.0000      -0.807653       -21.9774
 134   2.0000      -0.804382       -21.8883
 135   2.0000      -0.797983       -21.7142
 136   2.0000      -0.781939       -21.2776
 137   2.0000      -0.771793       -21.0016
 138   2.0000      -0.763605       -20.7788
 139   2.0000      -0.758974       -20.6527
 140   2.0000      -0.755546       -20.5595
 141   2.0000      -0.750668       -20.4267
 142   2.0000      -0.749103       -20.3841
 143   2.0000      -0.729216       -19.8430
 144   2.0000      -0.722641       -19.6641
 145   2.0000      -0.712396       -19.3853
 146   2.0000      -0.703340       -19.1389
 147   2.0000      -0.695889       -18.9361
 148   2.0000      -0.695623       -18.9289
 149   2.0000      -0.691790       -18.8246
 150   2.0000      -0.688534       -18.7360
 151   2.0000      -0.682976       -18.5847
 152   2.0000      -0.670200       -18.2371
 153   2.0000      -0.668680       -18.1957
 154   2.0000      -0.667908       -18.1747
 155   2.0000      -0.659781       -17.9536
 156   2.0000      -0.653223       -17.7751
 157   2.0000      -0.652387       -17.7523
 158   2.0000      -0.648847       -17.6560
 159   2.0000      -0.645199       -17.5568
 160   2.0000      -0.634471       -17.2648
 161   2.0000      -0.630979       -17.1698
 162   2.0000      -0.625136       -17.0108
 163   2.0000      -0.619311       -16.8523
 164   2.0000      -0.618286       -16.8244
 165   2.0000      -0.616515       -16.7762
 166   2.0000      -0.612659       -16.6713
 167   2.0000      -0.610479       -16.6120
 168   2.0000      -0.600667       -16.3450
 169   2.0000      -0.598116       -16.2756
 170   2.0000      -0.596158       -16.2223
 171   2.0000      -0.591197       -16.0873
 172   2.0000      -0.580139       -15.7864
 173   2.0000      -0.579588       -15.7714
 174   2.0000      -0.570446       -15.5226
 175   2.0000      -0.569285       -15.4910
 176   2.0000      -0.558590       -15.2000
 177   2.0000      -0.555559       -15.1175
 178   2.0000      -0.551510       -15.0074
 179   2.0000      -0.550211       -14.9720
 180   2.0000      -0.548067       -14.9137
 181   2.0000      -0.547553       -14.8997
 182   2.0000      -0.544285       -14.8108
 183   2.0000      -0.543292       -14.7837
 184   2.0000      -0.542773       -14.7696
 185   2.0000      -0.538292       -14.6477
 186   2.0000      -0.536003       -14.5854
 187   2.0000      -0.534461       -14.5434
 188   2.0000      -0.531724       -14.4689
 189   2.0000      -0.529245       -14.4015
 190   2.0000      -0.528380       -14.3779
 191   2.0000      -0.525176       -14.2908
 192   2.0000      -0.519543       -14.1375
 193   2.0000      -0.518483       -14.1086
 194   2.0000      -0.517263       -14.0754
 195   2.0000      -0.514830       -14.0092
 196   2.0000      -0.512956       -13.9582
 197   2.0000      -0.509789       -13.8721
 198   2.0000      -0.507000       -13.7962
 199   2.0000      -0.505994       -13.7688
 200   2.0000      -0.503435       -13.6992
 201   2.0000      -0.500998       -13.6328
 202   2.0000      -0.498647       -13.5689
 203   2.0000      -0.495718       -13.4892
 204   2.0000      -0.494602       -13.4588
 205   2.0000      -0.492789       -13.4095
 206   2.0000      -0.489254       -13.3133
 207   2.0000      -0.487568       -13.2674
 208   2.0000      -0.486054       -13.2262
 209   2.0000      -0.483892       -13.1674
 210   2.0000      -0.482756       -13.1365
 211   2.0000      -0.479451       -13.0465
 212   2.0000      -0.477054       -12.9813
 213   2.0000      -0.474215       -12.9040
 214   2.0000      -0.473477       -12.8840
 215   2.0000      -0.471600       -12.8329
 216   2.0000      -0.470832       -12.8120
 217   2.0000      -0.468101       -12.7377
 218   2.0000      -0.466279       -12.6881
 219   2.0000      -0.464523       -12.6403
 220   2.0000      -0.458106       -12.4657
 221   2.0000      -0.457233       -12.4419
 222   2.0000      -0.455497       -12.3947
 223   2.0000      -0.452589       -12.3156
 224   2.0000      -0.451832       -12.2950
 225   2.0000      -0.449554       -12.2330
 226   2.0000      -0.447130       -12.1670
 227   2.0000      -0.445893       -12.1334
 228   2.0000      -0.440079       -11.9752
 229   2.0000      -0.439227       -11.9520
 230   2.0000      -0.437932       -11.9167
 231   2.0000      -0.437592       -11.9075
 232   2.0000      -0.434259       -11.8168
 233   2.0000      -0.431016       -11.7285
 234   2.0000      -0.429562       -11.6890
 235   2.0000      -0.427698       -11.6383
 236   2.0000      -0.426975       -11.6186
 237   2.0000      -0.424626       -11.5547
 238   2.0000      -0.420591       -11.4449
 239   2.0000      -0.418703       -11.3935
 240   2.0000      -0.413374       -11.2485
 241   2.0000      -0.410265       -11.1639
 242   2.0000      -0.407884       -11.0991
 243   2.0000      -0.405530       -11.0350
 244   2.0000      -0.398832       -10.8528
 245   2.0000      -0.390448       -10.6246
 246   2.0000      -0.386119       -10.5068
 247   2.0000      -0.381929       -10.3928
 248   2.0000      -0.373375       -10.1600
 249   2.0000      -0.365046        -9.9334
 250   2.0000      -0.359079        -9.7710
 251   2.0000      -0.357968        -9.7408
 252   2.0000      -0.355079        -9.6622
 253   2.0000      -0.354948        -9.6586
 254   2.0000      -0.354223        -9.6389
 255   2.0000      -0.348789        -9.4910
 256   2.0000      -0.341188        -9.2842
 257   2.0000      -0.338270        -9.2048
 258   2.0000      -0.336287        -9.1508
 259   2.0000      -0.335110        -9.1188
 260   2.0000      -0.332628        -9.0513
 261   2.0000      -0.331047        -9.0082
 262   2.0000      -0.327316        -8.9067
 263   2.0000      -0.326528        -8.8853
 264   2.0000      -0.319902        -8.7050
 265   2.0000      -0.314941        -8.5700
 266   2.0000      -0.311561        -8.4780
 267   2.0000      -0.302170        -8.2225
 268   2.0000      -0.298658        -8.1269
 269   2.0000      -0.294692        -8.0190
 270   2.0000      -0.283576        -7.7165
 271   2.0000      -0.279413        -7.6032
 272   2.0000      -0.254124        -6.9151
 273   0.0000      -0.120731        -3.2852
 274   0.0000      -0.114846        -3.1251
 275   0.0000      -0.084914        -2.3106
 276   0.0000      -0.080221        -2.1829
 277   0.0000      -0.058452        -1.5906

MULLIKEN ATOMIC CHARGES
-----------------------
   0 C :    0.276457
   1 C :   -0.331017
   2 C :   -0.183223
   3 N :    0.161545
   4 C :   -0.200320
   5 N :    0.192914
   6 C :    0.026522
   7 C :   -0.011094
   8 C :   -0.063317
   9 C :    0.114317
  10 C :   -0.091109
  11 C :   -0.025617
  12 S :    0.145559
  13 C :   -0.047276
  14 C :    0.026548
  15 C :    0.146702
  16 O :   -0.112615
  17 C :   -0.035118
  18 C :   -0.117557
  19 C :    0.033141
  20 N :   -0.012367
  21 C :    0.074233
  22 C :   -0.128471
  23 C :    0.205719
  24 O :   -0.125416
  25 C :   -0.040059
  26 C :   -0.014150
  27 N :   -0.052991
  28 C :    0.091222
  29 C :   -0.093626
  30 C :    0.026242
  31 C :   -0.002648
  32 C :    0.029915
  33 C :   -0.053863
  34 S :    0.157050
  35 C :   -0.051454
  36 C :    0.085158
  37 C :   -0.021710
  38 C :    0.090078
  39 C :   -0.166941
  40 S :    0.135217
  41 C :   -0.052552
  42 C :    0.000308
  43 C :    0.011080
  44 C :    0.011025
  45 C :   -0.044617
  46 N :   -0.025756
  47 C :    0.077505
  48 C :   -0.125565
  49 C :    0.208735
  50 O :   -0.122417
  51 C :   -0.036013
  52 C :   -0.024030
  53 N :   -0.049661
  54 C :    0.092433
  55 C :   -0.088333
  56 C :    0.032824
  57 C :   -0.024432
  58 C :    0.029183
  59 C :    0.015293
  60 C :   -0.097770
  61 C :    0.290624
  62 C :   -0.350353
  63 C :   -0.132413
  64 N :    0.127491
  65 C :   -0.175461
  66 N :    0.166670
  67 C :    0.007958
  68 C :   -0.004055
  69 C :    0.131353
  70 O :   -0.143021
  71 C :   -0.066554
  72 C :    0.110200
  73 C :   -0.093787
  74 C :   -0.027445
  75 S :    0.134746
  76 C :   -0.050557
  77 C :    0.025534
  78 H :   -0.004570
  79 H :   -0.002235
  80 H :    0.041898
  81 H :   -0.003981
  82 H :    0.078227
  83 H :    0.012028
  84 H :   -0.001743
  85 H :    0.014208
  86 H :    0.011770
  87 H :   -0.018344
  88 H :    0.030810
  89 H :   -0.016246
  90 H :   -0.013288
  91 H :    0.011566
  92 H :   -0.002410
  93 H :    0.014854
  94 H :    0.047900
  95 H :    0.015919
  96 H :   -0.010706
  97 H :   -0.013071
  98 H :    0.038395
  99 H :   -0.005724
Sum of atomic charges:   -0.0000000

LOEWDIN ATOMIC CHARGES
----------------------
   0 C :    0.072500
   1 C :   -0.125399
   2 C :   -0.018011
   3 N :   -0.040486
   4 C :   -0.019393
   5 N :   -0.028018
   6 C :   -0.022556
   7 C :   -0.050497
   8 C :    0.026287
   9 C :   -0.030647
  10 C :   -0.143780
  11 C :   -0.007136
  12 S :    0.433284
  13 C :   -0.145625
  14 C :   -0.056375
  15 C :    0.083188
  16 O :   -0.110291
  17 C :   -0.038718
  18 C :    0.037038
  19 C :    0.065644
  20 N :   -0.073643
  21 C :    0.047509
  22 C :   -0.050964
  23 C :    0.064916
  24 O :   -0.137525
  25 C :   -0.036597
  26 C :    0.034619
  27 N :   -0.094519
  28 C :    0.080224
  29 C :   -0.033862
  30 C :   -0.020264
  31 C :   -0.008297
  32 C :   -0.015700
  33 C :   -0.146840
  34 S :    0.443257
  35 C :   -0.154987
  36 C :   -0.035894
  37 C :   -0.035833
  38 C :   -0.048802
  39 C :   -0.161923
  40 S :    0.428991
  41 C :   -0.162562
  42 C :   -0.061908
  43 C :   -0.067065
  44 C :    0.015685
  45 C :    0.082029
  46 N :   -0.090103
  47 C :    0.044818
  48 C :   -0.025010
  49 C :    0.064043
  50 O :   -0.134199
  51 C :   -0.038548
  52 C :    0.029924
  53 N :   -0.093473
  54 C :    0.079905
  55 C :   -0.033976
  56 C :   -0.041161
  57 C :    0.023871
  58 C :   -0.021400
  59 C :    0.066980
  60 C :   -0.082449
  61 C :    0.071501
  62 C :   -0.130487
  63 C :   -0.001772
  64 N :   -0.064643
  65 C :   -0.018150
  66 N :   -0.042462
  67 C :   -0.017124
  68 C :   -0.055252
  69 C :    0.082309
  70 O :   -0.141778
  71 C :    0.023580
  72 C :   -0.036711
  73 C :   -0.145130
  74 C :   -0.015156
  75 S :    0.425079
  76 C :   -0.150803
  77 C :   -0.057452
  78 H :    0.043217
  79 H :    0.041538
  80 H :    0.030699
  81 H :    0.036658
  82 H :    0.057707
  83 H :    0.024489
  84 H :    0.035292
  85 H :    0.041640
  86 H :    0.030603
  87 H :    0.028871
  88 H :    0.026705
  89 H :    0.031679
  90 H :    0.040588
  91 H :    0.024837
  92 H :    0.035533
  93 H :    0.044090
  94 H :    0.032267
  95 H :    0.045079
  96 H :    0.040789
  97 H :    0.037257
  98 H :    0.029131
  99 H :    0.035512

  Mayer bond orders larger than 0.100000
B(  0-C ,  1-C ) :   1.6697 B(  0-C ,  6-C ) :   1.0229 B(  0-C , 17-C ) :   1.0125
B(  1-C ,  2-C ) :   1.1330 B(  1-C ,  4-C ) :   1.1450 B(  2-C ,  3-N ) :   2.9835
B(  4-C ,  5-N ) :   2.9626 B(  6-C ,  7-C ) :   1.2586 B(  6-C , 11-C ) :   1.4013
B(  7-C ,  8-C ) :   1.4258 B(  7-C , 15-C ) :   0.9297 B(  8-C ,  9-C ) :   1.2556
B(  8-C , 78-H ) :   1.0150 B(  9-C , 10-C ) :   1.2899 B(  9-C , 14-C ) :   1.1747
B( 10-C , 11-C ) :   1.3364 B( 10-C , 12-S ) :   1.0995 B( 11-C , 79-H ) :   0.9837
B( 12-S , 13-C ) :   1.1278 B( 13-C , 14-C ) :   1.6283 B( 13-C , 80-H ) :   0.9677
B( 14-C , 81-H ) :   0.9998 B( 15-C , 16-O ) :   2.2848 B( 15-C , 17-C ) :   0.8997
B( 17-C , 18-C ) :   1.7681 B( 18-C , 19-C ) :   1.0173 B( 18-C , 82-H ) :   0.9301
B( 19-C , 20-N ) :   1.6369 B( 19-C , 21-C ) :   0.1137 B( 19-C , 30-C ) :   1.0225
B( 20-N , 21-C ) :   1.3070 B( 21-C , 22-C ) :   1.0468 B( 21-C , 26-C ) :   1.4517
B( 22-C , 23-C ) :   0.8945 B( 22-C , 30-C ) :   1.5509 B( 23-C , 24-O ) :   2.3020
B( 23-C , 25-C ) :   0.8877 B( 25-C , 26-C ) :   1.0454 B( 25-C , 29-C ) :   1.6360
B( 26-C , 27-N ) :   1.2949 B( 27-N , 28-C ) :   1.6767 B( 28-C , 29-C ) :   1.0553
B( 28-C , 83-H ) :   0.9885 B( 29-C , 84-H ) :   1.0096 B( 30-C , 31-C ) :   1.1291
B( 31-C , 32-C ) :   1.6799 B( 31-C , 85-H ) :   0.9656 B( 32-C , 33-C ) :   1.0993
B( 32-C , 86-H ) :   0.9541 B( 33-C , 34-S ) :   1.1089 B( 33-C , 37-C ) :   1.5260
B( 34-S , 35-C ) :   1.0717 B( 35-C , 36-C ) :   1.3297 B( 35-C , 44-C ) :   1.2715
B( 36-C , 37-C ) :   1.2430 B( 36-C , 38-C ) :   1.1795 B( 37-C , 87-H ) :   0.9875
B( 38-C , 39-C ) :   1.3671 B( 38-C , 42-C ) :   1.2053 B( 39-C , 40-S ) :   1.1005
B( 39-C , 43-C ) :   1.2965 B( 40-S , 41-C ) :   1.1332 B( 41-C , 42-C ) :   1.6150
B( 41-C , 88-H ) :   0.9672 B( 42-C , 89-H ) :   0.9961 B( 43-C , 44-C ) :   1.4663
B( 43-C , 45-C ) :   0.9835 B( 44-C , 90-H ) :   1.0004 B( 45-C , 46-N ) :   1.6764
B( 45-C , 47-C ) :   0.1227 B( 45-C , 56-C ) :   1.0081 B( 46-N , 47-C ) :   1.3186
B( 47-C , 48-C ) :   1.0528 B( 47-C , 52-C ) :   1.4311 B( 48-C , 49-C ) :   0.8851
B( 48-C , 56-C ) :   1.5538 B( 49-C , 50-O ) :   2.2860 B( 49-C , 51-C ) :   0.8989
B( 51-C , 52-C ) :   1.0532 B( 51-C , 55-C ) :   1.6213 B( 52-C , 53-N ) :   1.3095
B( 53-N , 54-C ) :   1.6593 B( 54-C , 55-C ) :   1.0675 B( 54-C , 91-H ) :   0.9892
B( 55-C , 92-H ) :   1.0097 B( 56-C , 57-C ) :   1.1054 B( 57-C , 58-C ) :   1.6313
B( 57-C , 93-H ) :   0.9789 B( 58-C , 59-C ) :   1.1308 B( 58-C , 94-H ) :   0.9490
B( 59-C , 60-C ) :   1.6302 B( 59-C , 95-H ) :   0.9581 B( 60-C , 61-C ) :   1.0117
B( 60-C , 69-C ) :   0.9401 B( 61-C , 62-C ) :   1.6442 B( 61-C , 67-C ) :   1.0146
B( 62-C , 63-C ) :   1.1528 B( 62-C , 65-C ) :   1.1906 B( 63-C , 64-N ) :   2.8885
B( 65-C , 66-N ) :   2.9112 B( 67-C , 68-C ) :   1.2688 B( 67-C , 74-C ) :   1.4129
B( 68-C , 69-C ) :   0.9267 B( 68-C , 71-C ) :   1.4266 B( 69-C , 70-O ) :   2.2577
B( 71-C , 72-C ) :   1.2531 B( 71-C , 96-H ) :   1.0161 B( 72-C , 73-C ) :   1.3014
B( 72-C , 77-C ) :   1.1706 B( 73-C , 74-C ) :   1.3231 B( 73-C , 75-S ) :   1.0963
B( 74-C , 97-H ) :   0.9842 B( 75-S , 76-C ) :   1.1238 B( 76-C , 77-C ) :   1.6306
B( 76-C , 98-H ) :   0.9689 B( 77-C , 99-H ) :   0.9994

-----------------------------------------------------------------------------
         ABSORPTION SPECTRUM VIA TRANSITION ELECTRIC DIPOLE MOMENTS
-----------------------------------------------------------------------------
State   Energy  Wavelength   fosc         T2         TX        TY        TZ
        (cm-1)    (nm)                  (au**2)     (au)      (au)      (au)
-----------------------------------------------------------------------------
   0   13746.3    727.5   0.141277844   3.38349   1.23074   1.09622  -0.81675
   1   14833.4    674.2   0.062860488   1.39513   0.94659   0.46513  -0.53173
   2   19471.1    513.6   0.221987422   3.75331  -1.81861  -0.61416  -0.26227
   3   20080.9    498.0   0.016704414   0.27386   0.09817   0.31057  -0.40959
   4   20890.7    478.7   0.676697278  10.66392  -2.80929  -1.00848   1.32467
   5   20984.4    476.5   0.039565496   0.62072   0.71008   0.27089  -0.20766
   6   21545.1    464.1   0.002550694   0.03897  -0.00678  -0.10398  -0.16768
   7   22231.0    449.8   0.045480047   0.67350   0.67869   0.19500  -0.41816
   8   23058.4    433.7   0.082472852   1.17749   0.28244  -0.94086  -0.46098
   9   23629.8    423.2   0.015690066   0.21860   0.13490   0.44353  -0.06066
  10   24249.2    412.4   0.212674045   2.88731   1.08269   0.92909  -0.92298
  11   24567.4    407.0   0.059807854   0.80145  -0.87485   0.08931   0.16767
  12   24698.8    404.9   0.142614280   1.90091   1.28891   0.39866   0.28407
  13   25059.9    399.0   0.223172850   2.93182  -1.60703  -0.54990   0.21655
  14   25596.3    390.7   0.096269775   1.23819  -0.72899   0.79440   0.27515
  15   25673.3    389.5   0.256255259   3.28599   1.60988   0.65512   0.51488
  16   25740.4    388.5   0.002956813   0.03782  -0.02287   0.18385   0.05910
  17   25948.3    385.4   0.024570203   0.31173   0.46727   0.14786  -0.26744
  18   26075.2    383.5   0.065159347   0.82267  -0.50469  -0.29741  -0.69246
  19   26173.0    382.1   0.006636896   0.08348  -0.15229  -0.04219  -0.24188
  20   26199.1    381.7   0.154848541   1.94579  -0.50194  -1.18275   0.54309
  21   26454.5    378.0   0.019552917   0.24333   0.18627   0.30560  -0.33947
  22   26702.9    374.5   0.072381076   0.89237   0.00688   0.94462   0.00206
  23   27391.0    365.1   0.291301489   3.50115   1.69989   0.72403  -0.29545
  24   27505.4    363.6   0.013449521   0.16098  -0.21610  -0.26802  -0.20603
  25   27681.6    361.3   0.126214485   1.50104   1.05448   0.57571  -0.24013
  26   28089.2    356.0   0.268523274   3.14715   0.49264  -1.56703  -0.66999
  27   28279.4    353.6   0.371493917   4.32471  -1.27587  -1.46032   0.75121
  28   28470.1    351.2   0.160309250   1.85373   0.52912   0.77316  -0.98792
  29   29365.1    340.5   0.005821735   0.06527   0.07622   0.00746  -0.24373
  30   29526.9    338.7   0.136352152   1.52027  -0.97370  -0.45487   0.60437
  31   29863.3    334.9   0.145639820   1.60553   0.97957   0.68920  -0.41348
  32   30202.9    331.1   0.125766283   1.37085   0.98305   0.38214   0.50837
  33   30370.9    329.3   0.150942464   1.63618  -1.06468  -0.51208  -0.49032
  34   30811.7    324.6   0.160199960   1.71168   1.30504  -0.04422   0.08125
  35   30927.5    323.3   0.011876288   0.12642  -0.09737  -0.13959  -0.31217
  36   30966.8    322.9   0.007609215   0.08089  -0.16528  -0.23136  -0.00697
  37   31129.4    321.2   0.154009140   1.62874  -0.17668  -0.65488  -1.08104
  38   31469.2    317.8   0.153602396   1.60690   0.97559   0.51708   0.62270
  39   31532.6    317.1   0.382778393   3.99635   0.00766   1.36620   1.45938
  40   31736.6    315.1   0.235211048   2.43991   1.55089  -0.12175   0.14075
  41   31995.1    312.5   0.115398046   1.18738  -0.34775   0.13917   1.02327
  42   32131.7    311.2   0.007030588   0.07203  -0.08575  -0.25418   0.00844
  43   32312.3    309.5   0.017780844   0.18116  -0.12318  -0.22701   0.33831
  44   32361.4    309.0   0.041192205   0.41905   0.33264   0.03802   0.55404
  45   33028.2    302.8   0.086548150   0.86268  -0.65611  -0.56890  -0.32948
  46   33502.7    298.5   0.030260572   0.29735   0.22098   0.49313   0.07313
  47   33525.6    298.3   0.062834190   0.61701   0.05122   0.71785  -0.31477
  48   33673.3    297.0   0.146641331   1.43366   0.58175  -0.30054  -1.00245
  49   33774.5    296.1   0.061539725   0.59985   0.51954   0.56403  -0.10862
  50   34091.9    293.3   0.041624856   0.40195  -0.04722  -0.25329  -0.57928
  51   34238.3    292.1   0.004303116   0.04138   0.16314   0.08255  -0.08914
  52   34514.0    289.7   0.022418188   0.21384  -0.29735  -0.29735  -0.19236
  53   34576.9    289.2   0.042454605   0.40422  -0.28499  -0.56559   0.05577
  54   34768.7    287.6   0.145398231   1.37672   1.09903   0.07677  -0.40367
  55   35005.6    285.7   0.011169528   0.10504   0.17668   0.17826  -0.20506
  56   35437.1    282.2   0.021896947   0.20342  -0.39779  -0.09638   0.18946
  57   35636.1    280.6   0.370859615   3.42606  -0.13743  -0.52843  -1.76860
  58   35789.3    279.4   0.147909774   1.36056   0.68997   0.83797   0.42697
  59   35892.5    278.6   0.092708215   0.85033  -0.60042   0.41029   0.56700
  60   35987.8    277.9   0.090537956   0.82823   0.89071   0.09323  -0.16179
  61   36148.4    276.6   0.044688537   0.40699   0.55372   0.24010   0.20672
  62   36415.5    274.6   0.029798595   0.26939  -0.29305  -0.16232   0.39644
  63   36468.7    274.2   0.038538896   0.34790   0.24107  -0.06317  -0.53460
  64   36680.3    272.6   0.024869186   0.22320   0.17860   0.22937  -0.37242
  65   36817.4    271.6   0.241026503   2.15520   0.93950   0.37710  -1.06317
  66   36970.8    270.5   0.005375201   0.04786  -0.10518  -0.06429   0.18074
  67   37180.3    269.0   0.000706660   0.00626   0.06308  -0.04570   0.01375
  68   37430.7    267.2   0.015849634   0.13940  -0.02786  -0.13537  -0.34684
  69   37524.1    266.5   0.017792185   0.15610  -0.26096  -0.19902  -0.21997
  70   37697.3    265.3   0.049199948   0.42967   0.62839   0.18147  -0.04320
  71   37838.6    264.3   0.075427687   0.65625  -0.30713  -0.74595  -0.07404
  72   38016.9    263.0   0.058111113   0.50322   0.64729   0.28308   0.06405
  73   38103.2    262.4   0.048990660   0.42328  -0.28249   0.42405   0.40455
  74   38182.9    261.9   0.009410402   0.08114  -0.20793  -0.13030   0.14465
  75   38378.7    260.6   0.002739945   0.02350  -0.14832   0.03870   0.00268
  76   38488.2    259.8   0.028645602   0.24502  -0.29438   0.34701   0.19480
  77   38677.9    258.5   0.043997697   0.37449  -0.12802  -0.59529  -0.06105
  78   38847.2    257.4   0.042978577   0.36422  -0.26308  -0.12505   0.52856
  79   39113.7    255.7   0.001619310   0.01363  -0.05656  -0.02260  -0.09960
  80   39196.0    255.1   0.115188972   0.96748   0.68593   0.58713  -0.39021
  81   39251.4    254.8   0.060471016   0.50719   0.58977   0.31696   0.24268
  82   39354.6    254.1   0.023305619   0.19496   0.26163   0.24503  -0.25782
  83   39450.1    253.5   0.065605801   0.54748  -0.59452  -0.42788   0.10463
  84   39722.4    251.7   0.016997669   0.14087   0.03000   0.37408   0.00622
  85   39821.0    251.1   0.043271307   0.35774  -0.41933  -0.42619   0.01595
  86   40034.5    249.8   0.000604776   0.00497  -0.01288   0.04720   0.05079
  87   40116.2    249.3   0.207626222   1.70387  -0.02346  -1.27789   0.26520
  88   40238.2    248.5   0.001472798   0.01205   0.00530   0.10619  -0.02730

FINAL SINGLE POINT ENERGY     -4702.860663335464

DIPOLE MOMENT
-------------
                                X             Y             Z
Electronic contribution:      3.44067       6.33018       5.52685
Nuclear contribution   :     -5.64698      -6.91397      -5.36331
                        -----------------------------------------
Total Dipole Moment    :     -2.20630      -0.58380       0.16354
                        -----------------------------------------
Magnitude (a.u.)       :      2.28809
Magnitude (Debye)      :      5.81585

Rotational constants in cm-1:     0.000887     0.000459     0.000395
Rotational constants in MHz :    26.600770    13.757743    11.847710

                             ****ORCA TERMINATED NORMALLY****
TOTAL RUN TIME: 0 days 0 hours 55 minutes 46 seconds 143 msec
