                         Program Version 4.2.0 -  RELEASE  -
|  1> # ORCA input file
|  2> # SCF done       -185.340208336010          0.000611826823
|  3> ! CAM-B3LYP def2-SVP def2/J RIJCOSX Grid4 TightSCF
|  4> %maxcore 5000
|  5> %tddft
|  6>     Mode sTDDFT
|  7>     Ethresh 5.0
|  8>     maxcore 5000
|  9> end
| 10>
| 11> %pal
| 12>   nprocs 6
| 13>   end
| 14> * xyz 0 1
| 15>    C       -4.12641         5.28071        -7.18824
| 16>    C       -5.18441         4.42372        -7.05074
| 17>    C       -5.64578         3.56856        -8.07439
| 18>    N       -6.06906         2.85362        -8.86588
| 19>    C       -5.97661         4.31354        -5.88859
| 20>    N       -6.65605         4.18723        -4.97184
| 21>    C       -3.30786         5.45880        -8.37929
| 22>    C       -2.44185         6.57649        -8.18638
| 23>    C       -1.53537         6.96286        -9.13207
| 24>    C       -1.44594         6.22570       -10.33310
| 25>    C       -2.31537         5.11449       -10.54145
| 26>    C       -3.24770         4.74285        -9.54682
| 27>    C       -2.21781         4.39375       -11.74958
| 28>    C       -1.30217         4.74747       -12.70282
| 29>    C       -0.44062         5.83526       -12.49235
| 30>    C       -0.51128         6.55936       -11.33319
| 31>    C       -2.70033         7.16691        -6.86781
| 32>    O       -2.37076         8.25351        -6.45319
| 33>    C       -3.60664         6.18798        -6.17516
| 34>    C       -3.83260         6.17393        -4.84097
| 35>    C       -3.05295         6.92349        -3.90848
| 36>    C       -3.52415         7.50189        -2.64184
| 37>    N       -2.60180         8.10706        -1.95391
| 38>    C       -1.45267         7.96838        -2.67479
| 39>    C       -1.71356         7.22157        -3.92231
| 40>    C       -0.47720         6.97844        -4.61816
| 41>    S       -0.21481         5.89696        -5.82941
| 42>    C        0.50635         7.70733        -3.85891
| 43>    C       -0.11616         8.25982        -2.63556
| 44>    N        0.82163         8.85527        -1.84713
| 45>    C        1.95241         8.70088        -2.46583
| 46>    C        1.84470         8.00220        -3.75291
| 47>    C        2.93387         7.76956        -4.63665
| 48>    S        4.53897         7.54154        -4.00732
| 49>    C        5.20382         7.34451        -5.60191
| 50>    C        4.21116         7.47103        -6.56863
| 51>    C        2.92413         7.71392        -6.02392
| 52>    C        1.82742         7.99949        -6.85589
| 53>    N        0.99808         8.27931        -7.59577
| 54>    C        4.46327         7.37425        -7.94790
| 55>    N        4.68017         7.29111        -9.07040
| 56>    C        6.57798         7.10196        -5.84891
| 57>    C        7.50623         6.95300        -4.87265
| 58>    C        8.88469         6.71668        -5.09788
| 59>    C        9.60747         6.67701        -6.37648
| 60>    N       10.87942         6.43361        -6.26658
| 61>    C       11.11680         6.28722        -4.93046
| 62>    C        9.87110         6.46930        -4.16567
| 63>    C       10.11369         6.28251        -2.76221
| 64>    S        9.04202         6.36336        -1.51857
| 65>    C       11.52763         5.99733        -2.68834
| 66>    C       12.12034         5.99961        -4.04430
| 67>    N       13.44691         5.70778        -3.98123
| 68>    C       13.70830         5.48563        -2.72846
| 69>    C       12.53564         5.64016        -1.83775
| 70>    C       12.49745         5.39482        -0.43137
| 71>    C       13.06248         4.29282         0.11802
| 72>    C       13.12812         3.88417         1.51190
| 73>    C       12.85664         4.67321         2.59536
| 74>    C       12.95050         4.23637         3.93437
| 75>    N       13.00812         3.93171         5.03891
| 76>    C       12.47865         6.03101         2.51024
| 77>    N       12.19108         7.14161         2.49652
| 78>    C       13.59132         2.50298         1.53793
| 79>    C       13.86255         2.08007         0.20202
| 80>    C       13.56567         3.17395        -0.72696
| 81>    O       13.65678         3.16861        -1.93808
| 82>    C       14.31843         0.82298        -0.08015
| 83>    C       14.52668        -0.08666         0.97925
| 84>    C       14.25352         0.32531         2.31692
| 85>    C       13.78328         1.63254         2.57872
| 86>    C       14.46098        -0.59389         3.36532
| 87>    C       14.91669        -1.85842         3.10710
| 88>    C       15.18575        -2.26230         1.79057
| 89>    C       14.99533        -1.39525         0.74882
| 90>    H       -0.87891         7.79992        -8.95094
| 91>    H       -3.88384         3.89030        -9.72704
| 92>    H       -2.88082         3.55540       -11.90636
| 93>    H       -1.23476         4.18859       -13.62431
| 94>    H        0.27946         6.09557       -13.25357
| 95>    H        0.14966         7.39569       -11.16124
| 96>    H       -4.60193         5.54111        -4.41630
| 97>    H       -4.54211         7.47016        -2.29357
| 98>    H        2.86886         9.08773        -2.05414
| 99>    H        6.85687         7.03181        -6.89213
|100>    H        7.19973         7.00439        -3.83419
|101>    H        9.17099         6.83276        -7.34730
|102>    H       14.71621         5.30960        -2.39992
|103>    H       11.93078         6.09324         0.17184
|104>    H       14.51668         0.52825        -1.09997
|105>    H       13.58101         1.91263         3.60046
|106>    H       14.25336        -0.27912         4.37731
|107>    H       15.07235        -2.55504         3.91690
|108>    H       15.54418        -3.26366         1.60580
|109>    H       15.20019        -1.70004        -0.26685
|110> *
|111>
|112>                          ****END OF INPUT****

CARTESIAN COORDINATES (ANGSTROEM)
---------------------------------
  C     -4.126410    5.280710   -7.188240
  C     -5.184410    4.423720   -7.050740
  C     -5.645780    3.568560   -8.074390
  N     -6.069060    2.853620   -8.865880
  C     -5.976610    4.313540   -5.888590
  N     -6.656050    4.187230   -4.971840
  C     -3.307860    5.458800   -8.379290
  C     -2.441850    6.576490   -8.186380
  C     -1.535370    6.962860   -9.132070
  C     -1.445940    6.225700  -10.333100
  C     -2.315370    5.114490  -10.541450
  C     -3.247700    4.742850   -9.546820
  C     -2.217810    4.393750  -11.749580
  C     -1.302170    4.747470  -12.702820
  C     -0.440620    5.835260  -12.492350
  C     -0.511280    6.559360  -11.333190
  C     -2.700330    7.166910   -6.867810
  O     -2.370760    8.253510   -6.453190
  C     -3.606640    6.187980   -6.175160
  C     -3.832600    6.173930   -4.840970
  C     -3.052950    6.923490   -3.908480
  C     -3.524150    7.501890   -2.641840
  N     -2.601800    8.107060   -1.953910
  C     -1.452670    7.968380   -2.674790
  C     -1.713560    7.221570   -3.922310
  C     -0.477200    6.978440   -4.618160
  S     -0.214810    5.896960   -5.829410
  C      0.506350    7.707330   -3.858910
  C     -0.116160    8.259820   -2.635560
  N      0.821630    8.855270   -1.847130
  C      1.952410    8.700880   -2.465830
  C      1.844700    8.002200   -3.752910
  C      2.933870    7.769560   -4.636650
  S      4.538970    7.541540   -4.007320
  C      5.203820    7.344510   -5.601910
  C      4.211160    7.471030   -6.568630
  C      2.924130    7.713920   -6.023920
  C      1.827420    7.999490   -6.855890
  N      0.998080    8.279310   -7.595770
  C      4.463270    7.374250   -7.947900
  N      4.680170    7.291110   -9.070400
  C      6.577980    7.101960   -5.848910
  C      7.506230    6.953000   -4.872650
  C      8.884690    6.716680   -5.097880
  C      9.607470    6.677010   -6.376480
  N     10.879420    6.433610   -6.266580
  C     11.116800    6.287220   -4.930460
  C      9.871100    6.469300   -4.165670
  C     10.113690    6.282510   -2.762210
  S      9.042020    6.363360   -1.518570
  C     11.527630    5.997330   -2.688340
  C     12.120340    5.999610   -4.044300
  N     13.446910    5.707780   -3.981230
  C     13.708300    5.485630   -2.728460
  C     12.535640    5.640160   -1.837750
  C     12.497450    5.394820   -0.431370
  C     13.062480    4.292820    0.118020
  C     13.128120    3.884170    1.511900
  C     12.856640    4.673210    2.595360
  C     12.950500    4.236370    3.934370
  N     13.008120    3.931710    5.038910
  C     12.478650    6.031010    2.510240
  N     12.191080    7.141610    2.496520
  C     13.591320    2.502980    1.537930
  C     13.862550    2.080070    0.202020
  C     13.565670    3.173950   -0.726960
  O     13.656780    3.168610   -1.938080
  C     14.318430    0.822980   -0.080150
  C     14.526680   -0.086660    0.979250
  C     14.253520    0.325310    2.316920
  C     13.783280    1.632540    2.578720
  C     14.460980   -0.593890    3.365320
  C     14.916690   -1.858420    3.107100
  C     15.185750   -2.262300    1.790570
  C     14.995330   -1.395250    0.748820
  H     -0.878910    7.799920   -8.950940
  H     -3.883840    3.890300   -9.727040
  H     -2.880820    3.555400  -11.906360
  H     -1.234760    4.188590  -13.624310
  H      0.279460    6.095570  -13.253570
  H      0.149660    7.395690  -11.161240
  H     -4.601930    5.541110   -4.416300
  H     -4.542110    7.470160   -2.293570
  H      2.868860    9.087730   -2.054140
  H      6.856870    7.031810   -6.892130
  H      7.199730    7.004390   -3.834190
  H      9.170990    6.832760   -7.347300
  H     14.716210    5.309600   -2.399920
  H     11.930780    6.093240    0.171840
  H     14.516680    0.528250   -1.099970
  H     13.581010    1.912630    3.600460
  H     14.253360   -0.279120    4.377310
  H     15.072350   -2.555040    3.916900
  H     15.544180   -3.263660    1.605800
  H     15.200190   -1.700040   -0.266850

 Total Charge           Charge          ....    0
 Multiplicity           Mult            ....    1
 Number of Electrons    NEL             ....  514
 Basis Dimension        Dim             .... 1162

ORBITAL ENERGIES
----------------

  NO   OCC          E(Eh)            E(eV)
   0   2.0000     -89.007053     -2422.0051
   1   2.0000     -88.921749     -2419.6838
   2   2.0000     -88.921200     -2419.6689
   3   2.0000     -19.242123      -523.6048
   4   2.0000     -19.211803      -522.7798
   5   2.0000     -14.433362      -392.7517
   6   2.0000     -14.430538      -392.6749
   7   2.0000     -14.430195      -392.6656
   8   2.0000     -14.428689      -392.6246
   9   2.0000     -14.428444      -392.6179
  10   2.0000     -14.428169      -392.6104
  11   2.0000     -14.426950      -392.5773
  12   2.0000     -14.422179      -392.4474
  13   2.0000     -14.419277      -392.3685
  14   2.0000     -14.416333      -392.2884
  15   2.0000     -10.389513      -282.7130
  16   2.0000     -10.365791      -282.0675
  17   2.0000     -10.361623      -281.9541
  18   2.0000     -10.361341      -281.9464
  19   2.0000     -10.360106      -281.9128
  20   2.0000     -10.357803      -281.8501
  21   2.0000     -10.357145      -281.8322
  22   2.0000     -10.356581      -281.8169
  23   2.0000     -10.354596      -281.7629
  24   2.0000     -10.353179      -281.7243
  25   2.0000     -10.349758      -281.6312
  26   2.0000     -10.349678      -281.6291
  27   2.0000     -10.349665      -281.6287
  28   2.0000     -10.348671      -281.6017
  29   2.0000     -10.348070      -281.5853
  30   2.0000     -10.347682      -281.5747
  31   2.0000     -10.346177      -281.5338
  32   2.0000     -10.345525      -281.5161
  33   2.0000     -10.343141      -281.4512
  34   2.0000     -10.341541      -281.4076
  35   2.0000     -10.338009      -281.3115
  36   2.0000     -10.332232      -281.1543
  37   2.0000     -10.332138      -281.1518
  38   2.0000     -10.331498      -281.1343
  39   2.0000     -10.328846      -281.0622
  40   2.0000     -10.327318      -281.0206
  41   2.0000     -10.324344      -280.9397
  42   2.0000     -10.322987      -280.9028
  43   2.0000     -10.322490      -280.8892
  44   2.0000     -10.321599      -280.8650
  45   2.0000     -10.321501      -280.8623
  46   2.0000     -10.319676      -280.8127
  47   2.0000     -10.319666      -280.8124
  48   2.0000     -10.319574      -280.8099
  49   2.0000     -10.318667      -280.7852
  50   2.0000     -10.318403      -280.7780
  51   2.0000     -10.318200      -280.7725
  52   2.0000     -10.316654      -280.7304
  53   2.0000     -10.314572      -280.6738
  54   2.0000     -10.313883      -280.6550
  55   2.0000     -10.312596      -280.6200
  56   2.0000     -10.312228      -280.6100
  57   2.0000     -10.312117      -280.6070
  58   2.0000     -10.312117      -280.6070
  59   2.0000     -10.308796      -280.5166
  60   2.0000     -10.306146      -280.4445
  61   2.0000     -10.300524      -280.2915
  62   2.0000     -10.299624      -280.2670
  63   2.0000     -10.299108      -280.2530
  64   2.0000     -10.298818      -280.2451
  65   2.0000     -10.298340      -280.2321
  66   2.0000     -10.293413      -280.0980
  67   2.0000     -10.293027      -280.0875
  68   2.0000     -10.291070      -280.0342
  69   2.0000     -10.285887      -279.8932
  70   2.0000     -10.283902      -279.8392
  71   2.0000     -10.281304      -279.7685
  72   2.0000     -10.280669      -279.7512
  73   2.0000     -10.280367      -279.7430
  74   2.0000     -10.279030      -279.7066
  75   2.0000      -8.102272      -220.4740
  76   2.0000      -8.016579      -218.1422
  77   2.0000      -8.016484      -218.1396
  78   2.0000      -6.071465      -165.2130
  79   2.0000      -6.067372      -165.1016
  80   2.0000      -6.064466      -165.0225
  81   2.0000      -5.985510      -162.8740
  82   2.0000      -5.985171      -162.8648
  83   2.0000      -5.985132      -162.8637
  84   2.0000      -5.985020      -162.8607
  85   2.0000      -5.975909      -162.6128
  86   2.0000      -5.975885      -162.6121
  87   2.0000      -1.157121       -31.4869
  88   2.0000      -1.129445       -30.7338
  89   2.0000      -1.101405       -29.9707
  90   2.0000      -1.096813       -29.8458
  91   2.0000      -1.081270       -29.4229
  92   2.0000      -1.077092       -29.3092
  93   2.0000      -1.046645       -28.4807
  94   2.0000      -1.033738       -28.1295
  95   2.0000      -1.019400       -27.7393
  96   2.0000      -1.014051       -27.5937
  97   2.0000      -1.009363       -27.4662
  98   2.0000      -1.008532       -27.4436
  99   2.0000      -1.006988       -27.4015
 100   2.0000      -0.997596       -27.1460
 101   2.0000      -0.995237       -27.0818
 102   2.0000      -0.987203       -26.8632
 103   2.0000      -0.981140       -26.6982
 104   2.0000      -0.979822       -26.6623
 105   2.0000      -0.968584       -26.3565
 106   2.0000      -0.950604       -25.8673
 107   2.0000      -0.944150       -25.6916
 108   2.0000      -0.930609       -25.3231
 109   2.0000      -0.928337       -25.2613
 110   2.0000      -0.923137       -25.1198
 111   2.0000      -0.916754       -24.9461
 112   2.0000      -0.904018       -24.5996
 113   2.0000      -0.901968       -24.5438
 114   2.0000      -0.895556       -24.3693
 115   2.0000      -0.885984       -24.1089
 116   2.0000      -0.881387       -23.9838
 117   2.0000      -0.875715       -23.8294
 118   2.0000      -0.872358       -23.7381
 119   2.0000      -0.867753       -23.6128
 120   2.0000      -0.856523       -23.3072
 121   2.0000      -0.843627       -22.9563
 122   2.0000      -0.843224       -22.9453
 123   2.0000      -0.839444       -22.8424
 124   2.0000      -0.823602       -22.4113
 125   2.0000      -0.809635       -22.0313
 126   2.0000      -0.805047       -21.9064
 127   2.0000      -0.787947       -21.4411
 128   2.0000      -0.786335       -21.3973
 129   2.0000      -0.778357       -21.1802
 130   2.0000      -0.767533       -20.8856
 131   2.0000      -0.761338       -20.7170
 132   2.0000      -0.759197       -20.6588
 133   2.0000      -0.745709       -20.2918
 134   2.0000      -0.737990       -20.0817
 135   2.0000      -0.728179       -19.8147
 136   2.0000      -0.725164       -19.7327
 137   2.0000      -0.720605       -19.6087
 138   2.0000      -0.715937       -19.4816
 139   2.0000      -0.715601       -19.4725
 140   2.0000      -0.710092       -19.3226
 141   2.0000      -0.709449       -19.3051
 142   2.0000      -0.698188       -18.9987
 143   2.0000      -0.692221       -18.8363
 144   2.0000      -0.691055       -18.8045
 145   2.0000      -0.676256       -18.4019
 146   2.0000      -0.671190       -18.2640
 147   2.0000      -0.664516       -18.0824
 148   2.0000      -0.661812       -18.0088
 149   2.0000      -0.659225       -17.9384
 150   2.0000      -0.645784       -17.5727
 151   2.0000      -0.641116       -17.4457
 152   2.0000      -0.637138       -17.3374
 153   2.0000      -0.630174       -17.1479
 154   2.0000      -0.624135       -16.9836
 155   2.0000      -0.621010       -16.8985
 156   2.0000      -0.614918       -16.7328
 157   2.0000      -0.611531       -16.6406
 158   2.0000      -0.602153       -16.3854
 159   2.0000      -0.598982       -16.2991
 160   2.0000      -0.593868       -16.1600
 161   2.0000      -0.588040       -16.0014
 162   2.0000      -0.584663       -15.9095
 163   2.0000      -0.579042       -15.7565
 164   2.0000      -0.576697       -15.6927
 165   2.0000      -0.574196       -15.6247
 166   2.0000      -0.569452       -15.4956
 167   2.0000      -0.562809       -15.3148
 168   2.0000      -0.561369       -15.2756
 169   2.0000      -0.558194       -15.1892
 170   2.0000      -0.556165       -15.1340
 171   2.0000      -0.553052       -15.0493
 172   2.0000      -0.549779       -14.9602
 173   2.0000      -0.547959       -14.9107
 174   2.0000      -0.544732       -14.8229
 175   2.0000      -0.543740       -14.7959
 176   2.0000      -0.542268       -14.7559
 177   2.0000      -0.539897       -14.6914
 178   2.0000      -0.539089       -14.6694
 179   2.0000      -0.534486       -14.5441
 180   2.0000      -0.531854       -14.4725
 181   2.0000      -0.530556       -14.4372
 182   2.0000      -0.522813       -14.2265
 183   2.0000      -0.520087       -14.1523
 184   2.0000      -0.517125       -14.0717
 185   2.0000      -0.515674       -14.0322
 186   2.0000      -0.515159       -14.0182
 187   2.0000      -0.512122       -13.9356
 188   2.0000      -0.510667       -13.8960
 189   2.0000      -0.509193       -13.8558
 190   2.0000      -0.506685       -13.7876
 191   2.0000      -0.504485       -13.7277
 192   2.0000      -0.501029       -13.6337
 193   2.0000      -0.500853       -13.6289
 194   2.0000      -0.498801       -13.5731
 195   2.0000      -0.498327       -13.5602
 196   2.0000      -0.496758       -13.5175
 197   2.0000      -0.493215       -13.4211
 198   2.0000      -0.490979       -13.3602
 199   2.0000      -0.487311       -13.2604
 200   2.0000      -0.481816       -13.1109
 201   2.0000      -0.480562       -13.0768
 202   2.0000      -0.471809       -12.8386
 203   2.0000      -0.470975       -12.8159
 204   2.0000      -0.465112       -12.6564
 205   2.0000      -0.462558       -12.5869
 206   2.0000      -0.458825       -12.4853
 207   2.0000      -0.457949       -12.4614
 208   2.0000      -0.457744       -12.4558
 209   2.0000      -0.456684       -12.4270
 210   2.0000      -0.453954       -12.3527
 211   2.0000      -0.453099       -12.3295
 212   2.0000      -0.451456       -12.2847
 213   2.0000      -0.450697       -12.2641
 214   2.0000      -0.448886       -12.2148
 215   2.0000      -0.447722       -12.1831
 216   2.0000      -0.447321       -12.1722
 217   2.0000      -0.445515       -12.1231
 218   2.0000      -0.442748       -12.0478
 219   2.0000      -0.441151       -12.0043
 220   2.0000      -0.436390       -11.8748
 221   2.0000      -0.434397       -11.8205
 222   2.0000      -0.432638       -11.7727
 223   2.0000      -0.431585       -11.7440
 224   2.0000      -0.430540       -11.7156
 225   2.0000      -0.430008       -11.7011
 226   2.0000      -0.427378       -11.6295
 227   2.0000      -0.424459       -11.5501
 228   2.0000      -0.421480       -11.4691
 229   2.0000      -0.420387       -11.4393
 230   2.0000      -0.417731       -11.3670
 231   2.0000      -0.409088       -11.1319
 232   2.0000      -0.405967       -11.0469
 233   2.0000      -0.394269       -10.7286
 234   2.0000      -0.386270       -10.5110
 235   2.0000      -0.378454       -10.2983
 236   2.0000      -0.377226       -10.2648
 237   2.0000      -0.372474       -10.1355
 238   2.0000      -0.370302       -10.0764
 239   2.0000      -0.367236        -9.9930
 240   2.0000      -0.365954        -9.9581
 241   2.0000      -0.362699        -9.8695
 242   2.0000      -0.357253        -9.7213
 243   2.0000      -0.355135        -9.6637
 244   2.0000      -0.339893        -9.2490
 245   2.0000      -0.333539        -9.0761
 246   2.0000      -0.332771        -9.0552
 247   2.0000      -0.328328        -8.9342
 248   2.0000      -0.326816        -8.8931
 249   2.0000      -0.321378        -8.7451
 250   2.0000      -0.316893        -8.6231
 251   2.0000      -0.307976        -8.3805
 252   2.0000      -0.307656        -8.3717
 253   2.0000      -0.306004        -8.3268
 254   2.0000      -0.297950        -8.1076
 255   2.0000      -0.288984        -7.8637
 256   2.0000      -0.285243        -7.7618
 257   0.0000      -0.133039        -3.6202
 258   0.0000      -0.126370        -3.4387
 259   0.0000      -0.115330        -3.1383
 260   0.0000      -0.103071        -2.8047
 261   0.0000      -0.085463        -2.3256

MULLIKEN ATOMIC CHARGES
-----------------------
   0 C :    0.301717
   1 C :   -0.341236
   2 C :   -0.181064
   3 N :    0.152835
   4 C :   -0.181021
   5 N :    0.150384
   6 C :    0.061358
   7 C :    0.015402
   8 C :   -0.069665
   9 C :    0.091148
  10 C :    0.099492
  11 C :   -0.093307
  12 C :   -0.022521
  13 C :    0.038550
  14 C :    0.036195
  15 C :   -0.012929
  16 C :    0.111955
  17 O :   -0.137794
  18 C :   -0.042616
  19 C :   -0.042063
  20 C :    0.002961
  21 C :    0.079399
  22 N :   -0.031555
  23 C :    0.017477
  24 C :    0.035350
  25 C :   -0.013151
  26 S :   -0.076860
  27 C :   -0.000151
  28 C :    0.013988
  29 N :   -0.014601
  30 C :    0.058197
  31 C :   -0.031631
  32 C :   -0.104855
  33 S :    0.184319
  34 C :   -0.049431
  35 C :   -0.042237
  36 C :    0.065821
  37 C :   -0.287057
  38 N :    0.245324
  39 C :   -0.266142
  40 N :    0.207556
  41 C :   -0.006800
  42 C :   -0.019515
  43 C :   -0.005732
  44 C :    0.057987
  45 N :   -0.020068
  46 C :    0.003729
  47 C :    0.007023
  48 C :   -0.006832
  49 S :   -0.107284
  50 C :    0.029032
  51 C :    0.025037
  52 N :   -0.032835
  53 C :    0.135018
  54 C :   -0.051664
  55 C :   -0.011922
  56 C :   -0.108202
  57 C :    0.310241
  58 C :   -0.322829
  59 C :   -0.181348
  60 N :    0.158020
  61 C :   -0.196305
  62 N :    0.171809
  63 C :    0.054924
  64 C :   -0.008313
  65 C :    0.162628
  66 O :   -0.148069
  67 C :   -0.072891
  68 C :    0.098829
  69 C :    0.100384
  70 C :   -0.086260
  71 C :   -0.020077
  72 C :    0.038946
  73 C :    0.041368
  74 C :   -0.017220
  75 H :   -0.003586
  76 H :   -0.008217
  77 H :   -0.011857
  78 H :   -0.006159
  79 H :   -0.003522
  80 H :   -0.006102
  81 H :    0.026464
  82 H :    0.021217
  83 H :    0.016909
  84 H :    0.020484
  85 H :    0.004943
  86 H :    0.017477
  87 H :    0.015627
  88 H :    0.047771
  89 H :   -0.007604
  90 H :   -0.004763
  91 H :   -0.005400
  92 H :    0.001311
  93 H :   -0.000263
  94 H :   -0.013079
Sum of atomic charges:   -0.0000000

LOEWDIN ATOMIC CHARGES
----------------------
   0 C :    0.077804
   1 C :   -0.132457
   2 C :   -0.017560
   3 N :   -0.047667
   4 C :   -0.018175
   5 N :   -0.050581
   6 C :   -0.025104
   7 C :   -0.058106
   8 C :    0.042116
   9 C :   -0.006725
  10 C :   -0.005193
  11 C :    0.016853
  12 C :   -0.008176
  13 C :   -0.012393
  14 C :   -0.011805
  15 C :   -0.002993
  16 C :    0.071883
  17 O :   -0.134677
  18 C :   -0.047411
  19 C :    0.042103
  20 C :   -0.043070
  21 C :    0.109023
  22 N :   -0.081949
  23 C :    0.056410
  24 C :    0.000140
  25 C :   -0.141832
  26 S :    0.132749
  27 C :   -0.006772
  28 C :    0.038421
  29 N :   -0.069719
  30 C :    0.082775
  31 C :   -0.074386
  32 C :   -0.130476
  33 S :    0.490949
  34 C :   -0.128158
  35 C :   -0.080421
  36 C :   -0.071310
  37 C :   -0.022899
  38 N :   -0.026731
  39 C :   -0.033690
  40 N :   -0.032111
  41 C :   -0.031133
  42 C :    0.001992
  43 C :   -0.045909
  44 C :    0.085020
  45 N :   -0.070223
  46 C :    0.026420
  47 C :   -0.026740
  48 C :   -0.144789
  49 S :    0.062952
  50 C :   -0.008809
  51 C :    0.053599
  52 N :   -0.089004
  53 C :    0.123167
  54 C :   -0.044146
  55 C :    0.076203
  56 C :   -0.072955
  57 C :    0.071007
  58 C :   -0.121838
  59 C :   -0.017218
  60 N :   -0.040751
  61 C :   -0.021900
  62 N :   -0.036178
  63 C :   -0.024898
  64 C :   -0.059781
  65 C :    0.093407
  66 O :   -0.120256
  67 C :    0.040137
  68 C :   -0.007801
  69 C :   -0.003254
  70 C :    0.022819
  71 C :   -0.003973
  72 C :   -0.007542
  73 C :   -0.007732
  74 C :   -0.006692
  75 H :    0.037796
  76 H :    0.038193
  77 H :    0.033531
  78 H :    0.032645
  79 H :    0.033376
  80 H :    0.036863
  81 H :    0.046682
  82 H :    0.032566
  83 H :    0.026047
  84 H :    0.043566
  85 H :    0.026421
  86 H :    0.027276
  87 H :    0.028153
  88 H :    0.052482
  89 H :    0.041584
  90 H :    0.040396
  91 H :    0.036214
  92 H :    0.035657
  93 H :    0.035022
  94 H :    0.033648

  Mayer bond orders larger than 0.100000
B(  0-C ,  1-C ) :   1.6496 B(  0-C ,  6-C ) :   1.0078 B(  0-C , 18-C ) :   1.0451
B(  1-C ,  2-C ) :   1.1383 B(  1-C ,  4-C ) :   1.1412 B(  2-C ,  3-N ) :   2.9744
B(  4-C ,  5-N ) :   2.9761 B(  6-C ,  7-C ) :   1.2026 B(  6-C , 11-C ) :   1.4384
B(  7-C ,  8-C ) :   1.4591 B(  7-C , 16-C ) :   0.9304 B(  8-C ,  9-C ) :   1.1850
B(  8-C , 75-H ) :   1.0063 B(  9-C , 10-C ) :   1.2453 B(  9-C , 15-C ) :   1.2455
B( 10-C , 11-C ) :   1.2155 B( 10-C , 12-C ) :   1.2367 B( 11-C , 76-H ) :   0.9917
B( 12-C , 13-C ) :   1.4932 B( 12-C , 77-H ) :   0.9976 B( 13-C , 14-C ) :   1.2541
B( 13-C , 78-H ) :   0.9884 B( 14-C , 15-C ) :   1.4874 B( 14-C , 79-H ) :   0.9894
B( 15-C , 80-H ) :   1.0000 B( 16-C , 17-O ) :   2.2449 B( 16-C , 18-C ) :   0.8947
B( 18-C , 19-C ) :   1.7227 B( 19-C , 20-C ) :   1.0572 B( 19-C , 81-H ) :   0.9335
B( 20-C , 21-C ) :   1.0136 B( 20-C , 24-C ) :   1.5646 B( 21-C , 22-N ) :   1.7111
B( 21-C , 82-H ) :   0.9946 B( 22-N , 23-C ) :   1.2660 B( 23-C , 24-C ) :   1.0649
B( 23-C , 28-C ) :   1.5141 B( 24-C , 25-C ) :   1.0184 B( 25-C , 26-S ) :   1.7019
B( 25-C , 27-C ) :   1.0422 B( 27-C , 28-C ) :   1.0612 B( 27-C , 31-C ) :   1.5616
B( 28-C , 29-N ) :   1.2695 B( 29-N , 30-C ) :   1.7319 B( 30-C , 31-C ) :   1.0314
B( 30-C , 83-H ) :   0.9902 B( 31-C , 32-C ) :   1.0735 B( 32-C , 33-S ) :   1.1493
B( 32-C , 36-C ) :   1.5001 B( 33-S , 34-C ) :   1.1121 B( 34-C , 35-C ) :   1.4707
B( 34-C , 41-C ) :   1.1893 B( 35-C , 36-C ) :   1.2992 B( 35-C , 39-C ) :   1.1550
B( 36-C , 37-C ) :   1.1621 B( 37-C , 38-N ) :   2.9785 B( 39-C , 40-N ) :   3.0062
B( 41-C , 42-C ) :   1.6144 B( 41-C , 84-H ) :   0.9654 B( 42-C , 43-C ) :   1.1255
B( 42-C , 85-H ) :   0.9686 B( 43-C , 44-C ) :   1.0228 B( 43-C , 47-C ) :   1.4921
B( 44-C , 45-N ) :   1.7256 B( 44-C , 86-H ) :   0.9892 B( 45-N , 46-C ) :   1.2717
B( 46-C , 47-C ) :   1.0737 B( 46-C , 51-C ) :   1.5011 B( 47-C , 48-C ) :   1.0367
B( 48-C , 49-S ) :   1.6952 B( 48-C , 50-C ) :   1.0061 B( 50-C , 51-C ) :   1.0588
B( 50-C , 54-C ) :   1.5982 B( 51-C , 52-N ) :   1.2840 B( 52-N , 53-C ) :   1.7108
B( 53-C , 54-C ) :   0.9883 B( 53-C , 87-H ) :   0.9860 B( 54-C , 55-C ) :   1.0450
B( 55-C , 56-C ) :   1.6981 B( 55-C , 88-H ) :   0.9438 B( 56-C , 57-C ) :   1.0160
B( 56-C , 65-C ) :   0.9432 B( 57-C , 58-C ) :   1.6766 B( 57-C , 63-C ) :   1.0015
B( 58-C , 59-C ) :   1.1386 B( 58-C , 61-C ) :   1.1391 B( 59-C , 60-N ) :   2.9685
B( 61-C , 62-N ) :   2.9874 B( 63-C , 64-C ) :   1.2079 B( 63-C , 70-C ) :   1.4466
B( 64-C , 65-C ) :   0.9591 B( 64-C , 67-C ) :   1.4612 B( 65-C , 66-O ) :   2.1641
B( 67-C , 68-C ) :   1.1830 B( 67-C , 89-H ) :   1.0184 B( 68-C , 69-C ) :   1.2501
B( 68-C , 74-C ) :   1.2414 B( 69-C , 70-C ) :   1.2077 B( 69-C , 71-C ) :   1.2400
B( 70-C , 90-H ) :   0.9913 B( 71-C , 72-C ) :   1.4887 B( 71-C , 91-H ) :   0.9982
B( 72-C , 73-C ) :   1.2580 B( 72-C , 92-H ) :   0.9893 B( 73-C , 74-C ) :   1.4900
B( 73-C , 93-H ) :   0.9886 B( 74-C , 94-H ) :   0.9986

-----------------------------------------------------------------------------
         ABSORPTION SPECTRUM VIA TRANSITION ELECTRIC DIPOLE MOMENTS
-----------------------------------------------------------------------------
State   Energy  Wavelength   fosc         T2         TX        TY        TZ
        (cm-1)    (nm)                  (au**2)     (au)      (au)      (au)
-----------------------------------------------------------------------------
   0   15336.8    652.0   0.002204048   0.04731  -0.14714  -0.15589  -0.03686
   1   17035.5    587.0   0.291870498   5.64042  -2.29587   0.08304  -0.60209
   2   17259.1    579.4   0.033894269   0.64652  -0.71632   0.01657  -0.36488
   3   17452.1    573.0   0.000433229   0.00817   0.06789  -0.04380   0.04055
   4   17927.0    557.8   0.173192158   3.18051   1.51497  -0.56149   0.75505
   5   18099.9    552.5   0.051668087   0.93977   0.84763  -0.25694   0.39405
   6   18519.3    540.0   0.021288318   0.37844  -0.37604   0.00284   0.48685
   7   19876.0    503.1   0.093871334   1.55482  -1.20686  -0.19883  -0.24245
   8   21078.2    474.4   0.573773038   8.96155  -2.84373   0.26043  -0.89830
   9   21604.9    462.9   0.216549699   3.29975   1.66632  -0.33334   0.64189
  10   22495.1    444.5   0.155475140   2.27535  -1.49950  -0.11406  -0.11758
  11   22641.4    441.7   0.018570947   0.27003  -0.49716   0.13909  -0.05928
  12   23251.3    430.1   0.019681648   0.27867  -0.34941  -0.31788  -0.23566
  13   23497.6    425.6   0.015948207   0.22344   0.04975   0.31471   0.34917
  14   23914.8    418.2   0.157727383   2.17128  -0.91198   0.42592  -1.07618
  15   24509.2    408.0   0.046158252   0.62001  -0.13139  -0.11770  -0.76739
  16   24722.4    404.5   0.021788746   0.29015  -0.39964  -0.07660   0.35294
  17   24794.1    403.3   0.007098117   0.09425  -0.28637   0.10075  -0.04568
  18   25212.4    396.6   0.161576573   2.10979  -0.97276   0.43996  -0.98486
  19   25481.7    392.4   0.383078276   4.94920   1.04383  -1.12326   1.61180
  20   26019.0    384.3   0.129420482   1.63753  -0.55431   0.04592  -1.15246
  21   26372.8    379.2   0.024813241   0.30974   0.46625   0.29797   0.05978
  22   26449.4    378.1   0.018263590   0.22732  -0.31905  -0.23214  -0.26766
  23   26548.2    376.7   0.001929322   0.02392   0.03942   0.14769  -0.02362
  24   27524.3    363.3   0.002067567   0.02473  -0.04880   0.12230   0.08597
  25   27787.2    359.9   0.000081686   0.00097   0.00767  -0.02869  -0.00926
  26   27950.6    357.8   0.021476785   0.25296  -0.21540   0.44890  -0.07108
  27   28031.7    356.7   0.005159979   0.06060  -0.08324  -0.17744  -0.14895
  28   28433.4    351.7   0.008381332   0.09704   0.24032   0.14814   0.13169
  29   28624.4    349.4   0.212939012   2.44904  -1.44281  -0.01617  -0.60587
  30   28970.3    345.2   0.050134217   0.56971   0.13807   0.61863  -0.40981
  31   29331.7    340.9   0.123534932   1.38653  -0.28375   0.28074   1.10779
  32   29363.8    340.6   0.133712465   1.49911   0.04643  -0.31862  -1.18129
  33   29523.6    338.7   0.013760959   0.15345   0.23191   0.07313  -0.30711
  34   29738.4    336.3   0.045005298   0.49822   0.58392  -0.08081  -0.38824
  35   29969.9    333.7   0.016439031   0.18058   0.00857   0.00561  -0.42482
  36   30123.9    332.0   0.061550222   0.67266   0.47291  -0.03666  -0.66908
  37   30190.1    331.2   0.011611835   0.12662   0.10631  -0.25864  -0.22006
  38   30488.3    328.0   0.186167974   2.01024  -0.04359  -0.54888   1.30655
  39   30888.6    323.7   0.024902486   0.26541   0.12671  -0.04945   0.49690
  40   31078.0    321.8   0.006864623   0.07272   0.08089  -0.04191  -0.25381
  41   31258.3    319.9   0.090360819   0.95168   0.05461  -0.43829  -0.86983
  42   31442.8    318.0   0.551618005   5.77555   1.34863  -1.94489   0.41733
  43   31609.2    316.4   0.054268942   0.56521   0.37158  -0.39896   0.51766
  44   31622.2    316.2   0.252765990   2.63149   0.58270   1.22200   0.89369
  45   31800.6    314.5   0.024719991   0.25591   0.48852  -0.01505  -0.13051
  46   31890.6    313.6   0.029056519   0.29996   0.24821  -0.46973   0.13305
  47   32419.3    308.5   0.283226343   2.87611  -1.43520   0.72379  -0.54079
  48   32606.3    306.7   0.124924722   1.26131   0.51486   0.62796  -0.77582
  49   32777.8    305.1   0.112106517   1.12597  -0.92733  -0.50460   0.10680
  50   32937.6    303.6   0.120243236   1.20184  -0.46001   0.99403   0.04624
  51   33066.9    302.4   0.002503840   0.02493   0.11340  -0.10513   0.03189
  52   33139.2    301.8   0.016349742   0.16242   0.39121   0.09259   0.02840
  53   33272.6    300.5   0.073775110   0.72996  -0.32652   0.72940  -0.30220
  54   33312.5    300.2   0.005318635   0.05256   0.19284  -0.12350  -0.01108
  55   33574.4    297.8   0.049594432   0.48629  -0.40562   0.55174  -0.13172
  56   33882.0    295.1   0.027065935   0.26298  -0.18324  -0.32816  -0.34888
  57   33950.4    294.5   0.001708909   0.01657   0.10637  -0.02318  -0.06869
  58   33996.4    294.1   0.033062429   0.32017  -0.40943  -0.03576  -0.38892
  59   34133.0    293.0   0.119455621   1.15215   0.33249   0.91050  -0.46107
  60   34169.3    292.7   0.039080919   0.37653  -0.19776   0.46956   0.34197
  61   34427.6    290.5   0.098432444   0.94125  -0.10432  -0.83985  -0.47437
  62   34491.0    289.9   0.028129299   0.26849  -0.48034   0.14056   0.13418
  63   34695.5    288.2   0.005972349   0.05667  -0.01878   0.22870  -0.06334
  64   34856.4    286.9   0.047818530   0.45164  -0.41353  -0.10977  -0.51825
  65   35029.7    285.5   0.111084356   1.04398  -0.48520  -0.63214  -0.63950
  66   35270.0    283.5   0.043828960   0.40910  -0.15286  -0.24757  -0.56960
  67   35578.3    281.1   0.005389089   0.04987   0.13455   0.13021   0.12169
  68   35643.8    280.6   0.052165968   0.48181  -0.02051  -0.33917  -0.60527
  69   35758.8    279.7   0.171356632   1.57759  -0.53106  -0.52307   1.01092
  70   35861.4    278.9   0.137405274   1.26140   0.43309   0.01047  -1.03620
  71   35981.6    277.9   0.020601287   0.18849   0.06777   0.42724  -0.03691
  72   36279.0    275.6   0.039829437   0.36143   0.19958   0.02976  -0.56631
  73   36350.1    275.1   0.077221433   0.69937   0.38064   0.32321  -0.67084
  74   36467.0    274.2   0.280264827   2.53014  -1.42026  -0.20203   0.68716
  75   36685.8    272.6   0.097794536   0.87759   0.18481   0.58094   0.71130
  76   36893.5    271.1   0.226140581   2.01792  -0.73546  -0.10949   1.21039
  77   36965.4    270.5   0.080303983   0.71518   0.43462  -0.28824  -0.66574
  78   37084.4    269.7   0.076084645   0.67543  -0.52969  -0.12617   0.61558
  79   37197.3    268.8   0.110354831   0.97669  -0.13296  -0.64328   0.73838
  80   37322.8    267.9   0.060537364   0.53398   0.22264   0.52129  -0.46116
  81   37623.5    265.8   0.040651172   0.35570   0.28518  -0.52368  -0.01189
  82   37743.3    264.9   0.012145656   0.10594   0.03891   0.25549   0.19787
  83   37863.5    264.1   0.016280999   0.14156   0.13677   0.02376   0.34970
  84   37940.7    263.6   0.018963150   0.16454  -0.20513  -0.30547  -0.17073
  85   38006.1    263.1   0.126843055   1.09873  -0.25133   0.48839   0.89277
  86   38093.8    262.5   0.027824431   0.24046   0.12445  -0.31804  -0.35189
  87   38290.4    261.2   0.021484122   0.18472  -0.06038   0.15351  -0.39687
  88   38305.9    261.1   0.010995806   0.09450  -0.27372  -0.12452  -0.06383
  89   38878.2    257.2   0.022888794   0.19382  -0.31477   0.22237   0.21281
  90   38961.4    256.7   0.049766101   0.42051   0.27328   0.45732  -0.36971
  91   39258.4    254.7   0.013490100   0.11313  -0.03663  -0.01092  -0.33416
  92   39335.1    254.2   0.036843897   0.30836  -0.46306   0.19321   0.23792
  93   39402.8    253.8   0.082726221   0.69118   0.56931  -0.24980  -0.55197
  94   39477.4    253.3   0.019854324   0.16557   0.07800   0.11530   0.38235
  95   39758.0    251.5   0.024801183   0.20536   0.29885  -0.33380  -0.06804
  96   39878.0    250.8   0.029332493   0.24215  -0.13308   0.12008   0.45828
  97   39983.0    250.1   0.075637407   0.62278   0.70493  -0.13731   0.32711
  98   40215.7    248.7   0.157838512   1.29209   0.75479  -0.07792  -0.84635

FINAL SINGLE POINT ENERGY     -4186.514502852812

DIPOLE MOMENT
-------------
                                X             Y             Z
Electronic contribution:    -17.42140      23.49151       7.20482
Nuclear contribution   :     21.40970     -25.75523      -6.63147
                        -----------------------------------------
Total Dipole Moment    :      3.98830      -2.26372       0.57335
                        -----------------------------------------
Magnitude (a.u.)       :      4.62165
Magnitude (Debye)      :     11.74730

Rotational constants in cm-1:     0.001466     0.000251     0.000243
Rotational constants in MHz :    43.962163     7.521375     7.280054

                             ****ORCA TERMINATED NORMALLY****
TOTAL RUN TIME: 0 days 0 hours 9 minutes 31 seconds 347 msec
