                         Program Version 4.2.0 -  RELEASE  -
|  1> # ORCA input file
|  2> # SCF done        -13.818274574949          0.000870936452
|  3> ! B3LYP/G D3BJ Opt RIJCOSX def2-SVP def2/J
|  4> * xyz 0 1
|  5>    C       -1.26338         0.09942        -0.00236
|  6>    C       -0.38399         1.13136        -0.00007
|  7>    C        0.96224         0.69541        -0.00017
|  8>    C        1.06977        -0.65613        -0.00253
|  9>    S       -0.46845        -1.42598        -0.00469
| 10>    H       -2.33461         0.13233        -0.00285
| 11>    H       -0.67637         2.16622         0.00163
| 12>    H        1.80574         1.36243         0.00144
| 13>    H        1.95693        -1.25742        -0.00315
| 14> *
| 15>
| 16>                          ****END OF INPUT****
 Total Charge           Charge          ....    0
 Multiplicity           Mult            ....    1
 Number of Electrons    NEL             ....   44
Dispersion correction           -0.015353374
FINAL SINGLE POINT ENERGY      -552.799865051938
Dispersion correction            ... done
Dispersion correction           -0.015326244
FINAL SINGLE POINT ENERGY      -552.801528234362
Dispersion correction            ... done
Dispersion correction           -0.015325732
FINAL SINGLE POINT ENERGY      -552.801574608601
Dispersion correction            ... done
FINAL SINGLE POINT ENERGY      -552.801579816438
FINAL SINGLE POINT ENERGY      -552.801578451643
Dispersion correction            ... done
Dispersion correction           -0.015326608
FINAL SINGLE POINT ENERGY      -552.801574759349
Dispersion correction            ... done
Dispersion correction           -0.015326507
FINAL SINGLE POINT ENERGY      -552.801577348610
Dispersion correction            ... done
                    ***********************HURRAY********************

CARTESIAN COORDINATES (ANGSTROEM)
---------------------------------
  C     -1.279880    0.094754   -0.002313
  C     -0.388965    1.138003   -0.000095
  C      0.971607    0.697629   -0.000192
  C      1.081312   -0.669974   -0.002525
  S     -0.472928   -1.434446   -0.004628
  H     -2.367890    0.140328   -0.002933
  H     -0.696502    2.184914    0.001665
  H      1.832131    1.368169    0.001514
  H      1.988994   -1.271737   -0.003242

 Multiplicity           Mult            ....    1
 Number of Electrons    NEL             ....   44
 Basis Dimension        Dim             ....   94

ORBITAL ENERGIES
----------------

  NO   OCC          E(Eh)            E(eV)
   0   2.0000     -88.872462     -2418.3426
   1   2.0000     -10.210541      -277.8429
   2   2.0000     -10.210415      -277.8395
   3   2.0000     -10.192923      -277.3635
   4   2.0000     -10.192639      -277.3558
   5   2.0000      -7.967685      -216.8117
   6   2.0000      -5.935806      -161.5215
   7   2.0000      -5.931627      -161.4078
   8   2.0000      -5.929114      -161.3394
   9   2.0000      -0.874180       -23.7876
  10   2.0000      -0.729683       -19.8557
  11   2.0000      -0.715267       -19.4634
  12   2.0000      -0.559451       -15.2234
  13   2.0000      -0.548279       -14.9194
  14   2.0000      -0.513232       -13.9657
  15   2.0000      -0.414120       -11.2688
  16   2.0000      -0.395127       -10.7520
  17   2.0000      -0.388494       -10.5715
  18   2.0000      -0.380345       -10.3497
  19   2.0000      -0.345881        -9.4119
  20   2.0000      -0.254125        -6.9151
  21   2.0000      -0.240587        -6.5467
  22   0.0000      -0.016449        -0.4476
  23   0.0000       0.049265         1.3406
  24   0.0000       0.057339         1.5603
  25   0.0000       0.069943         1.9032
  26   0.0000       0.105088         2.8596

MULLIKEN ATOMIC CHARGES
-----------------------
   0 C :   -0.104457
   1 C :    0.028353
   2 C :    0.029332
   3 C :   -0.100364
   4 S :    0.090019
   5 H :    0.034626
   6 H :   -0.005061
   7 H :   -0.003482
   8 H :    0.031032
Sum of atomic charges:   -0.0000000

LOEWDIN ATOMIC CHARGES
----------------------
   0 C :   -0.195892
   1 C :   -0.069895
   2 C :   -0.069449
   3 C :   -0.194493
   4 S :    0.420784
   5 H :    0.025278
   6 H :    0.029232
   7 H :    0.029676
   8 H :    0.024759

  Mayer bond orders larger than 0.100000
B(  0-C ,  1-C ) :   1.5715 B(  0-C ,  4-S ) :   1.1756 B(  0-C ,  5-H ) :   0.9703
B(  1-C ,  2-C ) :   1.2655 B(  1-C ,  6-H ) :   0.9927 B(  2-C ,  3-C ) :   1.5734
B(  2-C ,  7-H ) :   0.9912 B(  3-C ,  4-S ) :   1.1738 B(  3-C ,  8-H ) :   0.9708

Dispersion correction           -0.015326533
FINAL SINGLE POINT ENERGY      -552.801577233667

DIPOLE MOMENT
-------------
                                X             Y             Z
Electronic contribution:     -1.10885      -3.42212      -0.00648
Nuclear contribution   :      1.15676       3.57081       0.00675
                        -----------------------------------------
Total Dipole Moment    :      0.04791       0.14869       0.00027
                        -----------------------------------------
Magnitude (a.u.)       :      0.15622
Magnitude (Debye)      :      0.39707

Rotational constants in cm-1:     0.265866     0.178130     0.106665
Rotational constants in MHz :  7970.450104  5340.191052  3197.721722

                             ****ORCA TERMINATED NORMALLY****
TOTAL RUN TIME: 0 days 0 hours 1 minutes 47 seconds 290 msec
