                         Program Version 4.2.0 -  RELEASE  -
|  1> # ORCA input file
|  2> # SCF done       -216.489503987604          0.000838201631
|  3> ! CAM-B3LYP def2-SVP def2/J RIJCOSX Grid4 TightSCF
|  4> %maxcore 5000
|  5> %tddft
|  6>     Mode sTDDFT
|  7>     Ethresh 5.0
|  8>     maxcore 5000
|  9> end
| 10>
| 11> %pal
| 12>   nprocs 6
| 13>   end
| 14> * xyz 0 1
| 15>    C        0.87848         2.56892        -4.79479
| 16>    C       -0.33185         2.37394        -5.40028
| 17>    F       -0.76961         3.26462        -6.30768
| 18>    C       -1.14691         1.27022        -5.11346
| 19>    C       -0.71904         0.35303        -4.19447
| 20>    C        0.52120         0.50389        -3.54077
| 21>    C        1.33493         1.63437        -3.84532
| 22>    C        2.58191         1.80946        -3.20044
| 23>    C        2.99882         0.88017        -2.28701
| 24>    C        2.19012        -0.25726        -1.99984
| 25>    C        0.97840        -0.44564        -2.59984
| 26>    C        2.89445        -1.12358        -1.03800
| 27>    O        2.50058        -2.14210        -0.51827
| 28>    C        4.24832        -0.51496        -0.88415
| 29>    C        4.21127         0.80473        -1.47525
| 30>    C        5.00385         1.87418        -1.14736
| 31>    C        6.03894         1.81167        -0.19493
| 32>    N        6.87846         1.79407         0.58833
| 33>    C        4.81211         3.17628        -1.65542
| 34>    N        4.69169         4.25258        -2.03386
| 35>    C        5.24249        -1.28065        -0.35215
| 36>    C        6.63999        -1.13573        -0.47038
| 37>    C        7.37102        -0.36479        -1.36459
| 38>    C        8.73860        -0.55355        -1.22721
| 39>    C        9.06737        -1.48758        -0.22212
| 40>    S        7.68864        -2.12399         0.54365
| 41>    C       10.47535        -1.63410        -0.19519
| 42>    C       11.03640        -0.79032        -1.17144
| 43>    C        9.96430        -0.06741        -1.83711
| 44>    C       10.07223         0.87434        -2.81743
| 45>    C       11.31640         1.28181        -3.34391
| 46>    N       12.32556         1.60385        -3.78224
| 47>    C        8.92837         1.49091        -3.36826
| 48>    N        7.98673         1.97384        -3.80978
| 49>    C       12.41856        -0.91188        -1.26651
| 50>    C       12.92735        -1.85096        -0.38328
| 51>    S       11.65888        -2.56486         0.60600
| 52>    C       14.28071        -2.31191        -0.29908
| 53>    C       14.70695        -3.33758         0.55281
| 54>    C       16.00870        -3.88458         0.50173
| 55>    N       16.23206        -4.88993         1.38810
| 56>    C       15.20968        -5.13848         2.10913
| 57>    S       13.80186        -4.16857         1.78654
| 58>    C       16.98522        -3.44731        -0.41408
| 59>    C       16.59647        -2.35178        -1.19604
| 60>    C       15.29250        -1.79461        -1.14478
| 61>    N       15.11351        -0.74091        -1.98651
| 62>    C       16.16442        -0.45833        -2.64939
| 63>    S       17.54784        -1.46530        -2.35114
| 64>    C       18.22195        -4.15846        -0.52690
| 65>    C       19.22893        -3.98368        -1.46148
| 66>    C       20.22750        -4.94645        -1.34553
| 67>    C       19.98894        -5.85431        -0.29773
| 68>    S       18.53522        -5.52179         0.53606
| 69>    C       21.01984        -6.82779        -0.30942
| 70>    C       21.89728        -6.53919        -1.37549
| 71>    C       21.44163        -5.33186        -2.04370
| 72>    C       22.04080        -4.70292        -3.09546
| 73>    C       23.22312        -5.20917        -3.67563
| 74>    N       24.17624        -5.64337        -4.14243
| 75>    C       21.51142        -3.52690        -3.66680
| 76>    N       21.07110        -2.57497        -4.12993
| 77>    C       22.92273        -7.46429        -1.50181
| 78>    C       22.85522        -8.45959        -0.53514
| 79>    S       21.47047        -8.23512         0.53128
| 80>    C       23.65870        -9.60705        -0.37740
| 81>    C       24.85455        -9.91084        -0.95704
| 82>    C       25.25980       -11.34533        -1.02563
| 83>    O       24.77118       -12.26126        -0.40505
| 84>    C       26.31827       -11.39806        -2.04970
| 85>    C       26.92575       -12.48806        -2.60338
| 86>    C       27.88789       -12.29742        -3.62020
| 87>    C       28.19964       -10.97373        -4.04855
| 88>    C       29.14879       -10.79288        -5.07307
| 89>    C       29.75101       -11.88643        -5.63073
| 90>    C       29.45997       -13.19523        -5.22201
| 91>    C       28.54024       -13.38906        -4.22933
| 92>    F       30.65744       -11.71630        -6.60951
| 93>    C       27.56206        -9.86195        -3.44940
| 94>    C       26.64090       -10.07229        -2.46000
| 95>    C       25.84690        -9.13529        -1.66837
| 96>    C       26.16748        -7.81912        -1.45774
| 97>    C       25.50897        -6.99855        -0.52200
| 98>    N       25.00136        -6.31141         0.24516
| 99>    C       27.25046        -7.16696        -2.08403
|100>    N       28.12350        -6.59594        -2.56145
|101>    H        1.47852         3.43172        -5.03812
|102>    H       -2.09159         1.16853        -5.62366
|103>    H       -1.32889        -0.50572        -3.95736
|104>    H        3.18448         2.66618        -3.45777
|105>    H        0.37773        -1.31125        -2.36394
|106>    H        4.89883        -2.17597         0.15766
|107>    H        6.91500         0.25528        -2.11407
|108>    H       13.04863        -0.36917        -1.94643
|109>    H       15.18851        -5.89156         2.87202
|110>    H       16.21648         0.34515        -3.35766
|111>    H       19.23000        -3.21259        -2.20798
|112>    H       23.65276        -7.45899        -2.28990
|113>    H       23.23035       -10.40817         0.21786
|114>    H       26.67194       -13.48440        -2.27379
|115>    H       29.39941        -9.79946        -5.41072
|116>    H       29.96642       -14.01915        -5.69924
|117>    H       28.29868       -14.38781        -3.89805
|118>    H       27.80625        -8.87159        -3.79989
|119> *
|120>
|121>                          ****END OF INPUT****

CARTESIAN COORDINATES (ANGSTROEM)
---------------------------------
  C      0.878480    2.568920   -4.794790
  C     -0.331850    2.373940   -5.400280
  F     -0.769610    3.264620   -6.307680
  C     -1.146910    1.270220   -5.113460
  C     -0.719040    0.353030   -4.194470
  C      0.521200    0.503890   -3.540770
  C      1.334930    1.634370   -3.845320
  C      2.581910    1.809460   -3.200440
  C      2.998820    0.880170   -2.287010
  C      2.190120   -0.257260   -1.999840
  C      0.978400   -0.445640   -2.599840
  C      2.894450   -1.123580   -1.038000
  O      2.500580   -2.142100   -0.518270
  C      4.248320   -0.514960   -0.884150
  C      4.211270    0.804730   -1.475250
  C      5.003850    1.874180   -1.147360
  C      6.038940    1.811670   -0.194930
  N      6.878460    1.794070    0.588330
  C      4.812110    3.176280   -1.655420
  N      4.691690    4.252580   -2.033860
  C      5.242490   -1.280650   -0.352150
  C      6.639990   -1.135730   -0.470380
  C      7.371020   -0.364790   -1.364590
  C      8.738600   -0.553550   -1.227210
  C      9.067370   -1.487580   -0.222120
  S      7.688640   -2.123990    0.543650
  C     10.475350   -1.634100   -0.195190
  C     11.036400   -0.790320   -1.171440
  C      9.964300   -0.067410   -1.837110
  C     10.072230    0.874340   -2.817430
  C     11.316400    1.281810   -3.343910
  N     12.325560    1.603850   -3.782240
  C      8.928370    1.490910   -3.368260
  N      7.986730    1.973840   -3.809780
  C     12.418560   -0.911880   -1.266510
  C     12.927350   -1.850960   -0.383280
  S     11.658880   -2.564860    0.606000
  C     14.280710   -2.311910   -0.299080
  C     14.706950   -3.337580    0.552810
  C     16.008700   -3.884580    0.501730
  N     16.232060   -4.889930    1.388100
  C     15.209680   -5.138480    2.109130
  S     13.801860   -4.168570    1.786540
  C     16.985220   -3.447310   -0.414080
  C     16.596470   -2.351780   -1.196040
  C     15.292500   -1.794610   -1.144780
  N     15.113510   -0.740910   -1.986510
  C     16.164420   -0.458330   -2.649390
  S     17.547840   -1.465300   -2.351140
  C     18.221950   -4.158460   -0.526900
  C     19.228930   -3.983680   -1.461480
  C     20.227500   -4.946450   -1.345530
  C     19.988940   -5.854310   -0.297730
  S     18.535220   -5.521790    0.536060
  C     21.019840   -6.827790   -0.309420
  C     21.897280   -6.539190   -1.375490
  C     21.441630   -5.331860   -2.043700
  C     22.040800   -4.702920   -3.095460
  C     23.223120   -5.209170   -3.675630
  N     24.176240   -5.643370   -4.142430
  C     21.511420   -3.526900   -3.666800
  N     21.071100   -2.574970   -4.129930
  C     22.922730   -7.464290   -1.501810
  C     22.855220   -8.459590   -0.535140
  S     21.470470   -8.235120    0.531280
  C     23.658700   -9.607050   -0.377400
  C     24.854550   -9.910840   -0.957040
  C     25.259800  -11.345330   -1.025630
  O     24.771180  -12.261260   -0.405050
  C     26.318270  -11.398060   -2.049700
  C     26.925750  -12.488060   -2.603380
  C     27.887890  -12.297420   -3.620200
  C     28.199640  -10.973730   -4.048550
  C     29.148790  -10.792880   -5.073070
  C     29.751010  -11.886430   -5.630730
  C     29.459970  -13.195230   -5.222010
  C     28.540240  -13.389060   -4.229330
  F     30.657440  -11.716300   -6.609510
  C     27.562060   -9.861950   -3.449400
  C     26.640900  -10.072290   -2.460000
  C     25.846900   -9.135290   -1.668370
  C     26.167480   -7.819120   -1.457740
  C     25.508970   -6.998550   -0.522000
  N     25.001360   -6.311410    0.245160
  C     27.250460   -7.166960   -2.084030
  N     28.123500   -6.595940   -2.561450
  H      1.478520    3.431720   -5.038120
  H     -2.091590    1.168530   -5.623660
  H     -1.328890   -0.505720   -3.957360
  H      3.184480    2.666180   -3.457770
  H      0.377730   -1.311250   -2.363940
  H      4.898830   -2.175970    0.157660
  H      6.915000    0.255280   -2.114070
  H     13.048630   -0.369170   -1.946430
  H     15.188510   -5.891560    2.872020
  H     16.216480    0.345150   -3.357660
  H     19.230000   -3.212590   -2.207980
  H     23.652760   -7.458990   -2.289900
  H     23.230350  -10.408170    0.217860
  H     26.671940  -13.484400   -2.273790
  H     29.399410   -9.799460   -5.410720
  H     29.966420  -14.019150   -5.699240
  H     28.298680  -14.387810   -3.898050
  H     27.806250   -8.871590   -3.799890

 Total Charge           Charge          ....    0
 Multiplicity           Mult            ....    1
 Number of Electrons    NEL             ....  614
 Basis Dimension        Dim             .... 1318

ORBITAL ENERGIES
----------------

  NO   OCC          E(Eh)            E(eV)
   0   2.0000     -88.998976     -2421.7852
   1   2.0000     -88.998869     -2421.7823
   2   2.0000     -88.996901     -2421.7288
   3   2.0000     -88.991595     -2421.5844
   4   2.0000     -88.989418     -2421.5252
   5   2.0000     -88.983565     -2421.3659
   6   2.0000     -24.785700      -674.4532
   7   2.0000     -24.784891      -674.4312
   8   2.0000     -19.215491      -522.8801
   9   2.0000     -19.214353      -522.8491
  10   2.0000     -14.444449      -393.0535
  11   2.0000     -14.434857      -392.7924
  12   2.0000     -14.433464      -392.7545
  13   2.0000     -14.432998      -392.7418
  14   2.0000     -14.432916      -392.7396
  15   2.0000     -14.432233      -392.7210
  16   2.0000     -14.418801      -392.3555
  17   2.0000     -14.417722      -392.3262
  18   2.0000     -14.413621      -392.2146
  19   2.0000     -14.412634      -392.1877
  20   2.0000     -10.369469      -282.1676
  21   2.0000     -10.369462      -282.1674
  22   2.0000     -10.368619      -282.1445
  23   2.0000     -10.367245      -282.1071
  24   2.0000     -10.367199      -282.1058
  25   2.0000     -10.366967      -282.0995
  26   2.0000     -10.366225      -282.0793
  27   2.0000     -10.356358      -281.8108
  28   2.0000     -10.356343      -281.8104
  29   2.0000     -10.355147      -281.7779
  30   2.0000     -10.346980      -281.5556
  31   2.0000     -10.344848      -281.4976
  32   2.0000     -10.343974      -281.4738
  33   2.0000     -10.343788      -281.4688
  34   2.0000     -10.343290      -281.4552
  35   2.0000     -10.342156      -281.4244
  36   2.0000     -10.338074      -281.3133
  37   2.0000     -10.337917      -281.3090
  38   2.0000     -10.337886      -281.3082
  39   2.0000     -10.337254      -281.2910
  40   2.0000     -10.335609      -281.2462
  41   2.0000     -10.334967      -281.2287
  42   2.0000     -10.334380      -281.2128
  43   2.0000     -10.333931      -281.2006
  44   2.0000     -10.333382      -281.1856
  45   2.0000     -10.333379      -281.1855
  46   2.0000     -10.332812      -281.1701
  47   2.0000     -10.330108      -281.0965
  48   2.0000     -10.329106      -281.0693
  49   2.0000     -10.328497      -281.0527
  50   2.0000     -10.327990      -281.0389
  51   2.0000     -10.327723      -281.0316
  52   2.0000     -10.326697      -281.0037
  53   2.0000     -10.325366      -280.9675
  54   2.0000     -10.319576      -280.8099
  55   2.0000     -10.318452      -280.7793
  56   2.0000     -10.315943      -280.7111
  57   2.0000     -10.315257      -280.6924
  58   2.0000     -10.315001      -280.6855
  59   2.0000     -10.313717      -280.6505
  60   2.0000     -10.310363      -280.5592
  61   2.0000     -10.310208      -280.5550
  62   2.0000     -10.308347      -280.5044
  63   2.0000     -10.307314      -280.4763
  64   2.0000     -10.306867      -280.4641
  65   2.0000     -10.306236      -280.4469
  66   2.0000     -10.306165      -280.4450
  67   2.0000     -10.305350      -280.4228
  68   2.0000     -10.305282      -280.4210
  69   2.0000     -10.301348      -280.3139
  70   2.0000     -10.301188      -280.3096
  71   2.0000     -10.300647      -280.2949
  72   2.0000     -10.300531      -280.2917
  73   2.0000     -10.299881      -280.2740
  74   2.0000     -10.299797      -280.2717
  75   2.0000     -10.298232      -280.2292
  76   2.0000     -10.298194      -280.2281
  77   2.0000     -10.297832      -280.2183
  78   2.0000     -10.297299      -280.2038
  79   2.0000     -10.297130      -280.1991
  80   2.0000     -10.294481      -280.1271
  81   2.0000     -10.293773      -280.1078
  82   2.0000     -10.290556      -280.0203
  83   2.0000     -10.289705      -279.9971
  84   2.0000     -10.288718      -279.9703
  85   2.0000     -10.287975      -279.9500
  86   2.0000      -8.093528      -220.2361
  87   2.0000      -8.093177      -220.2265
  88   2.0000      -8.091566      -220.1827
  89   2.0000      -8.087671      -220.0767
  90   2.0000      -8.082083      -219.9247
  91   2.0000      -8.079291      -219.8487
  92   2.0000      -6.062689      -164.9742
  93   2.0000      -6.062438      -164.9673
  94   2.0000      -6.060667      -164.9191
  95   2.0000      -6.058511      -164.8605
  96   2.0000      -6.058223      -164.8526
  97   2.0000      -6.057072      -164.8213
  98   2.0000      -6.056548      -164.8070
  99   2.0000      -6.056056      -164.7936
 100   2.0000      -6.055595      -164.7811
 101   2.0000      -6.054146      -164.7417
 102   2.0000      -6.052788      -164.7047
 103   2.0000      -6.051603      -164.6725
 104   2.0000      -6.049431      -164.6134
 105   2.0000      -6.048679      -164.5929
 106   2.0000      -6.046804      -164.5419
 107   2.0000      -6.044558      -164.4808
 108   2.0000      -6.044354      -164.4752
 109   2.0000      -6.041211      -164.3897
 110   2.0000      -1.300761       -35.3955
 111   2.0000      -1.299965       -35.3739
 112   2.0000      -1.131185       -30.7811
 113   2.0000      -1.130090       -30.7513
 114   2.0000      -1.102983       -30.0137
 115   2.0000      -1.090379       -29.6707
 116   2.0000      -1.052297       -28.6345
 117   2.0000      -1.049298       -28.5528
 118   2.0000      -1.026062       -27.9206
 119   2.0000      -1.025144       -27.8956
 120   2.0000      -1.020472       -27.7685
 121   2.0000      -1.019187       -27.7335
 122   2.0000      -1.011359       -27.5205
 123   2.0000      -1.011144       -27.5146
 124   2.0000      -1.007573       -27.4174
 125   2.0000      -1.004567       -27.3357
 126   2.0000      -1.001456       -27.2510
 127   2.0000      -1.000506       -27.2251
 128   2.0000      -0.993710       -27.0402
 129   2.0000      -0.992660       -27.0117
 130   2.0000      -0.979306       -26.6483
 131   2.0000      -0.977066       -26.5873
 132   2.0000      -0.974686       -26.5225
 133   2.0000      -0.969003       -26.3679
 134   2.0000      -0.958417       -26.0798
 135   2.0000      -0.943919       -25.6854
 136   2.0000      -0.930659       -25.3245
 137   2.0000      -0.929225       -25.2855
 138   2.0000      -0.920495       -25.0480
 139   2.0000      -0.916493       -24.9390
 140   2.0000      -0.914358       -24.8809
 141   2.0000      -0.900287       -24.4981
 142   2.0000      -0.899055       -24.4645
 143   2.0000      -0.887215       -24.1423
 144   2.0000      -0.886446       -24.1214
 145   2.0000      -0.880609       -23.9626
 146   2.0000      -0.878447       -23.9037
 147   2.0000      -0.877354       -23.8740
 148   2.0000      -0.868046       -23.6207
 149   2.0000      -0.864400       -23.5215
 150   2.0000      -0.859398       -23.3854
 151   2.0000      -0.856363       -23.3028
 152   2.0000      -0.844517       -22.9805
 153   2.0000      -0.835270       -22.7288
 154   2.0000      -0.834335       -22.7034
 155   2.0000      -0.824445       -22.4343
 156   2.0000      -0.814513       -22.1640
 157   2.0000      -0.801634       -21.8136
 158   2.0000      -0.783194       -21.3118
 159   2.0000      -0.780907       -21.2496
 160   2.0000      -0.776179       -21.1209
 161   2.0000      -0.766787       -20.8653
 162   2.0000      -0.760601       -20.6970
 163   2.0000      -0.758963       -20.6524
 164   2.0000      -0.744204       -20.2508
 165   2.0000      -0.734157       -19.9774
 166   2.0000      -0.726375       -19.7657
 167   2.0000      -0.713999       -19.4289
 168   2.0000      -0.712155       -19.3787
 169   2.0000      -0.711404       -19.3583
 170   2.0000      -0.709427       -19.3045
 171   2.0000      -0.708662       -19.2837
 172   2.0000      -0.704196       -19.1622
 173   2.0000      -0.693583       -18.8733
 174   2.0000      -0.690200       -18.7813
 175   2.0000      -0.686719       -18.6866
 176   2.0000      -0.681541       -18.5457
 177   2.0000      -0.679858       -18.4999
 178   2.0000      -0.677972       -18.4486
 179   2.0000      -0.673788       -18.3347
 180   2.0000      -0.665485       -18.1088
 181   2.0000      -0.655695       -17.8424
 182   2.0000      -0.649163       -17.6646
 183   2.0000      -0.645772       -17.5723
 184   2.0000      -0.639564       -17.4034
 185   2.0000      -0.638109       -17.3638
 186   2.0000      -0.634390       -17.2626
 187   2.0000      -0.630451       -17.1554
 188   2.0000      -0.629096       -17.1186
 189   2.0000      -0.628272       -17.0962
 190   2.0000      -0.623951       -16.9786
 191   2.0000      -0.619106       -16.8467
 192   2.0000      -0.611284       -16.6339
 193   2.0000      -0.608469       -16.5573
 194   2.0000      -0.604262       -16.4428
 195   2.0000      -0.601769       -16.3750
 196   2.0000      -0.598137       -16.2761
 197   2.0000      -0.582045       -15.8382
 198   2.0000      -0.576289       -15.6816
 199   2.0000      -0.575318       -15.6552
 200   2.0000      -0.573809       -15.6141
 201   2.0000      -0.565707       -15.3937
 202   2.0000      -0.564600       -15.3636
 203   2.0000      -0.563137       -15.3237
 204   2.0000      -0.561969       -15.2919
 205   2.0000      -0.558348       -15.1934
 206   2.0000      -0.557925       -15.1819
 207   2.0000      -0.557400       -15.1676
 208   2.0000      -0.555055       -15.1038
 209   2.0000      -0.553371       -15.0580
 210   2.0000      -0.549970       -14.9654
 211   2.0000      -0.547989       -14.9115
 212   2.0000      -0.546631       -14.8746
 213   2.0000      -0.540643       -14.7116
 214   2.0000      -0.536337       -14.5945
 215   2.0000      -0.535556       -14.5732
 216   2.0000      -0.534666       -14.5490
 217   2.0000      -0.533371       -14.5138
 218   2.0000      -0.525429       -14.2976
 219   2.0000      -0.525172       -14.2907
 220   2.0000      -0.523590       -14.2476
 221   2.0000      -0.523397       -14.2423
 222   2.0000      -0.522724       -14.2240
 223   2.0000      -0.519722       -14.1424
 224   2.0000      -0.514949       -14.0125
 225   2.0000      -0.513210       -13.9652
 226   2.0000      -0.511125       -13.9084
 227   2.0000      -0.510148       -13.8818
 228   2.0000      -0.508784       -13.8447
 229   2.0000      -0.508115       -13.8265
 230   2.0000      -0.505883       -13.7658
 231   2.0000      -0.504793       -13.7361
 232   2.0000      -0.502512       -13.6741
 233   2.0000      -0.497456       -13.5365
 234   2.0000      -0.493727       -13.4350
 235   2.0000      -0.493305       -13.4235
 236   2.0000      -0.492072       -13.3900
 237   2.0000      -0.488965       -13.3054
 238   2.0000      -0.486669       -13.2429
 239   2.0000      -0.485584       -13.2134
 240   2.0000      -0.484467       -13.1830
 241   2.0000      -0.481718       -13.1082
 242   2.0000      -0.480200       -13.0669
 243   2.0000      -0.477166       -12.9844
 244   2.0000      -0.472257       -12.8508
 245   2.0000      -0.467335       -12.7168
 246   2.0000      -0.466142       -12.6844
 247   2.0000      -0.464797       -12.6478
 248   2.0000      -0.464433       -12.6379
 249   2.0000      -0.462387       -12.5822
 250   2.0000      -0.461588       -12.5604
 251   2.0000      -0.458281       -12.4705
 252   2.0000      -0.457418       -12.4470
 253   2.0000      -0.456504       -12.4221
 254   2.0000      -0.454054       -12.3554
 255   2.0000      -0.452134       -12.3032
 256   2.0000      -0.451120       -12.2756
 257   2.0000      -0.450598       -12.2614
 258   2.0000      -0.450031       -12.2460
 259   2.0000      -0.448422       -12.2022
 260   2.0000      -0.443887       -12.0788
 261   2.0000      -0.443684       -12.0733
 262   2.0000      -0.442809       -12.0495
 263   2.0000      -0.442147       -12.0314
 264   2.0000      -0.441702       -12.0193
 265   2.0000      -0.441144       -12.0041
 266   2.0000      -0.440114       -11.9761
 267   2.0000      -0.438501       -11.9322
 268   2.0000      -0.437400       -11.9023
 269   2.0000      -0.436566       -11.8796
 270   2.0000      -0.430848       -11.7240
 271   2.0000      -0.430311       -11.7093
 272   2.0000      -0.429814       -11.6958
 273   2.0000      -0.428892       -11.6707
 274   2.0000      -0.426009       -11.5923
 275   2.0000      -0.424955       -11.5636
 276   2.0000      -0.424565       -11.5530
 277   2.0000      -0.422431       -11.4949
 278   2.0000      -0.417333       -11.3562
 279   2.0000      -0.412816       -11.2333
 280   2.0000      -0.410807       -11.1786
 281   2.0000      -0.407904       -11.0996
 282   2.0000      -0.402463       -10.9516
 283   2.0000      -0.400985       -10.9113
 284   2.0000      -0.387551       -10.5458
 285   2.0000      -0.382040       -10.3958
 286   2.0000      -0.381431       -10.3793
 287   2.0000      -0.373339       -10.1591
 288   2.0000      -0.372797       -10.1443
 289   2.0000      -0.366699        -9.9784
 290   2.0000      -0.364128        -9.9084
 291   2.0000      -0.354745        -9.6531
 292   2.0000      -0.351744        -9.5714
 293   2.0000      -0.349139        -9.5005
 294   2.0000      -0.344415        -9.3720
 295   2.0000      -0.337298        -9.1783
 296   2.0000      -0.334973        -9.1151
 297   2.0000      -0.329908        -8.9772
 298   2.0000      -0.326909        -8.8957
 299   2.0000      -0.324408        -8.8276
 300   2.0000      -0.315616        -8.5883
 301   2.0000      -0.313931        -8.5425
 302   2.0000      -0.307727        -8.3737
 303   2.0000      -0.299118        -8.1394
 304   2.0000      -0.297102        -8.0846
 305   2.0000      -0.276402        -7.5213
 306   2.0000      -0.251109        -6.8330
 307   0.0000      -0.119206        -3.2438
 308   0.0000      -0.110170        -2.9979
 309   0.0000      -0.091347        -2.4857
 310   0.0000      -0.089584        -2.4377
 311   0.0000      -0.069562        -1.8929

MULLIKEN ATOMIC CHARGES
-----------------------
   0 C :   -0.096558
   1 C :    0.302652
   2 F :   -0.189584
   3 C :   -0.027983
   4 C :   -0.008738
   5 C :    0.099777
   6 C :    0.099463
   7 C :   -0.081530
   8 C :    0.035618
   9 C :    0.011981
  10 C :   -0.081579
  11 C :    0.137701
  12 O :   -0.145580
  13 C :   -0.143582
  14 C :    0.265955
  15 C :   -0.326026
  16 C :   -0.205110
  17 N :    0.168747
  18 C :   -0.170522
  19 N :    0.161946
  20 C :    0.086784
  21 C :   -0.110220
  22 C :    0.006218
  23 C :   -0.010918
  24 C :   -0.068039
  25 S :    0.210379
  26 C :   -0.084770
  27 C :    0.045678
  28 C :    0.307690
  29 C :   -0.290374
  30 C :   -0.184264
  31 N :    0.178237
  32 C :   -0.187000
  33 N :    0.172683
  34 C :   -0.051347
  35 C :   -0.160039
  36 S :    0.151520
  37 C :    0.150185
  38 C :   -0.160124
  39 C :   -0.006693
  40 N :   -0.105627
  41 C :    0.037246
  42 S :    0.107655
  43 C :    0.134414
  44 C :   -0.139413
  45 C :   -0.003182
  46 N :   -0.068281
  47 C :    0.046144
  48 S :    0.119245
  49 C :   -0.132491
  50 C :   -0.064702
  51 C :    0.017812
  52 C :   -0.078734
  53 S :    0.213397
  54 C :   -0.075257
  55 C :   -0.008939
  56 C :    0.306311
  57 C :   -0.294194
  58 C :   -0.184791
  59 N :    0.172508
  60 C :   -0.182195
  61 N :    0.167799
  62 C :    0.002852
  63 C :   -0.108781
  64 S :    0.210951
  65 C :    0.085665
  66 C :   -0.146181
  67 C :    0.136785
  68 O :   -0.146092
  69 C :    0.011904
  70 C :   -0.077532
  71 C :    0.097355
  72 C :    0.096971
  73 C :   -0.093398
  74 C :    0.301316
  75 C :   -0.029931
  76 C :   -0.007154
  77 F :   -0.190123
  78 C :   -0.078591
  79 C :    0.033543
  80 C :    0.267260
  81 C :   -0.327921
  82 C :   -0.203825
  83 N :    0.167629
  84 C :   -0.170064
  85 N :    0.162807
  86 H :   -0.000785
  87 H :    0.003606
  88 H :   -0.009284
  89 H :    0.001770
  90 H :   -0.012073
  91 H :    0.019434
  92 H :    0.024502
  93 H :    0.026101
  94 H :    0.055299
  95 H :    0.064025
  96 H :    0.017368
  97 H :    0.026190
  98 H :    0.018619
  99 H :   -0.012251
 100 H :   -0.000924
 101 H :    0.003769
 102 H :   -0.009712
 103 H :    0.001539
Sum of atomic charges:   -0.0000000

LOEWDIN ATOMIC CHARGES
----------------------
   0 C :   -0.040807
   1 C :    0.093454
   2 F :   -0.063857
   3 C :   -0.036544
   4 C :    0.004420
   5 C :   -0.018850
   6 C :    0.003885
   7 C :    0.014021
   8 C :   -0.017082
   9 C :   -0.060633
  10 C :    0.034696
  11 C :    0.082937
  12 O :   -0.146734
  13 C :   -0.092282
  14 C :    0.064482
  15 C :   -0.135625
  16 C :   -0.016162
  17 N :   -0.045232
  18 C :   -0.018784
  19 N :   -0.044886
  20 C :    0.041678
  21 C :   -0.180685
  22 C :    0.012372
  23 C :   -0.066614
  24 C :   -0.157680
  25 S :    0.496761
  26 C :   -0.188486
  27 C :   -0.058117
  28 C :    0.081382
  29 C :   -0.095483
  30 C :   -0.016580
  31 N :   -0.027193
  32 C :   -0.013014
  33 N :   -0.031209
  34 C :   -0.015179
  35 C :   -0.158385
  36 S :    0.466707
  37 C :   -0.051281
  38 C :   -0.173593
  39 C :   -0.036969
  40 N :   -0.104390
  41 C :   -0.091254
  42 S :    0.403109
  43 C :   -0.049842
  44 C :   -0.163789
  45 C :   -0.018975
  46 N :   -0.078018
  47 C :   -0.085507
  48 S :    0.437453
  49 C :   -0.158653
  50 C :   -0.037345
  51 C :   -0.063658
  52 C :   -0.191739
  53 S :    0.524233
  54 C :   -0.156888
  55 C :   -0.066438
  56 C :    0.083232
  57 C :   -0.101644
  58 C :   -0.013606
  59 N :   -0.032915
  60 C :   -0.015648
  61 N :   -0.034368
  62 C :    0.011905
  63 C :   -0.181096
  64 S :    0.498994
  65 C :    0.041875
  66 C :   -0.092947
  67 C :    0.082830
  68 O :   -0.147201
  69 C :   -0.060476
  70 C :    0.034613
  71 C :   -0.019068
  72 C :    0.003735
  73 C :   -0.040771
  74 C :    0.093345
  75 C :   -0.036777
  76 C :    0.004377
  77 F :   -0.064120
  78 C :    0.013838
  79 C :   -0.016908
  80 C :    0.064183
  81 C :   -0.135758
  82 C :   -0.016246
  83 N :   -0.044905
  84 C :   -0.018698
  85 N :   -0.045083
  86 H :    0.043960
  87 H :    0.041962
  88 H :    0.035602
  89 H :    0.041150
  90 H :    0.039555
  91 H :    0.045219
  92 H :    0.042668
  93 H :    0.038833
  94 H :    0.026865
  95 H :    0.030910
  96 H :    0.022223
  97 H :    0.042639
  98 H :    0.045051
  99 H :    0.039394
 100 H :    0.043820
 101 H :    0.041874
 102 H :    0.035432
 103 H :    0.041003

  Mayer bond orders larger than 0.100000
B(  0-C ,  1-C ) :   1.4385 B(  0-C ,  6-C ) :   1.2052 B(  0-C , 86-H ) :   1.0073
B(  1-C ,  2-F ) :   1.0897 B(  1-C ,  3-C ) :   1.2546 B(  3-C ,  4-C ) :   1.4613
B(  3-C , 87-H ) :   0.9925 B(  4-C ,  5-C ) :   1.2332 B(  4-C , 88-H ) :   0.9973
B(  5-C ,  6-C ) :   1.2555 B(  5-C , 10-C ) :   1.1929 B(  6-C ,  7-C ) :   1.2014
B(  7-C ,  8-C ) :   1.4656 B(  7-C , 89-H ) :   0.9962 B(  8-C ,  9-C ) :   1.2170
B(  8-C , 14-C ) :   0.9926 B(  9-C , 10-C ) :   1.4685 B(  9-C , 11-C ) :   0.9208
B( 10-C , 90-H ) :   1.0161 B( 11-C , 12-O ) :   2.2641 B( 11-C , 13-C ) :   0.9423
B( 13-C , 14-C ) :   1.0423 B( 13-C , 20-C ) :   1.6588 B( 14-C , 15-C ) :   1.6510
B( 15-C , 16-C ) :   1.1706 B( 15-C , 18-C ) :   1.1286 B( 16-C , 17-N ) :   2.9959
B( 18-C , 19-N ) :   2.9932 B( 20-C , 21-C ) :   1.1526 B( 20-C , 91-H ) :   0.9260
B( 21-C , 22-C ) :   1.3875 B( 21-C , 25-S ) :   1.0847 B( 22-C , 23-C ) :   1.3668
B( 22-C , 92-H ) :   0.9766 B( 23-C , 24-C ) :   1.4019 B( 23-C , 28-C ) :   0.9980
B( 24-C , 25-S ) :   1.1550 B( 24-C , 26-C ) :   1.1894 B( 26-C , 27-C ) :   1.4217
B( 26-C , 36-S ) :   1.1275 B( 27-C , 28-C ) :   0.9918 B( 27-C , 34-C ) :   1.2543
B( 28-C , 29-C ) :   1.7179 B( 29-C , 30-C ) :   1.1381 B( 29-C , 32-C ) :   1.1326
B( 30-C , 31-N ) :   2.9872 B( 32-C , 33-N ) :   2.9840 B( 34-C , 35-C ) :   1.4637
B( 34-C , 93-H ) :   0.9720 B( 35-C , 36-S ) :   1.0929 B( 35-C , 37-C ) :   1.1163
B( 37-C , 38-C ) :   1.3492 B( 37-C , 45-C ) :   1.3058 B( 38-C , 39-C ) :   1.3107
B( 38-C , 42-S ) :   1.0708 B( 39-C , 40-N ) :   1.2941 B( 39-C , 43-C ) :   1.3046
B( 40-N , 41-C ) :   1.7378 B( 40-N , 42-S ) :   0.1021 B( 41-C , 42-S ) :   1.1220
B( 41-C , 94-H ) :   0.9643 B( 43-C , 44-C ) :   1.3659 B( 43-C , 49-C ) :   1.1285
B( 44-C , 45-C ) :   1.2926 B( 44-C , 48-S ) :   1.0827 B( 45-C , 46-N ) :   1.3428
B( 46-N , 47-C ) :   1.7371 B( 46-N , 48-S ) :   0.1020 B( 47-C , 48-S ) :   1.1251
B( 47-C , 95-H ) :   0.9630 B( 49-C , 50-C ) :   1.4383 B( 49-C , 53-S ) :   1.1200
B( 50-C , 51-C ) :   1.3304 B( 50-C , 96-H ) :   0.9679 B( 51-C , 52-C ) :   1.4228
B( 51-C , 56-C ) :   0.9973 B( 52-C , 53-S ) :   1.0787 B( 52-C , 54-C ) :   1.1918
B( 54-C , 55-C ) :   1.4043 B( 54-C , 64-S ) :   1.1578 B( 55-C , 56-C ) :   0.9965
B( 55-C , 62-C ) :   1.3683 B( 56-C , 57-C ) :   1.7131 B( 57-C , 58-C ) :   1.1329
B( 57-C , 60-C ) :   1.1369 B( 58-C , 59-N ) :   2.9845 B( 60-C , 61-N ) :   2.9810
B( 62-C , 63-C ) :   1.3837 B( 62-C , 97-H ) :   0.9761 B( 63-C , 64-S ) :   1.0870
B( 63-C , 65-C ) :   1.1554 B( 65-C , 66-C ) :   1.6552 B( 65-C , 98-H ) :   0.9267
B( 66-C , 67-C ) :   0.9439 B( 66-C , 80-C ) :   1.0412 B( 67-C , 68-O ) :   2.2630
B( 67-C , 69-C ) :   0.9225 B( 69-C , 70-C ) :   1.4694 B( 69-C , 79-C ) :   1.2179
B( 70-C , 71-C ) :   1.1948 B( 70-C , 99-H ) :   1.0158 B( 71-C , 72-C ) :   1.2563
B( 71-C , 76-C ) :   1.2324 B( 72-C , 73-C ) :   1.2067 B( 72-C , 78-C ) :   1.2012
B( 73-C , 74-C ) :   1.4387 B( 73-C ,100-H ) :   1.0072 B( 74-C , 75-C ) :   1.2552
B( 74-C , 77-F ) :   1.0884 B( 75-C , 76-C ) :   1.4622 B( 75-C ,101-H ) :   0.9926
B( 76-C ,102-H ) :   0.9976 B( 78-C , 79-C ) :   1.4689 B( 78-C ,103-H ) :   0.9959
B( 79-C , 80-C ) :   0.9924 B( 80-C , 81-C ) :   1.6503 B( 81-C , 82-C ) :   1.1702
B( 81-C , 84-C ) :   1.1293 B( 82-C , 83-N ) :   2.9947 B( 84-C , 85-N ) :   2.9937

-----------------------------------------------------------------------------
         ABSORPTION SPECTRUM VIA TRANSITION ELECTRIC DIPOLE MOMENTS
-----------------------------------------------------------------------------
State   Energy  Wavelength   fosc         T2         TX        TY        TZ
        (cm-1)    (nm)                  (au**2)     (au)      (au)      (au)
-----------------------------------------------------------------------------
   0   12761.4    783.6   0.880972775  22.72688  -4.35742   1.93382   0.01070
   1   13816.5    723.8   0.012390028   0.29522   0.00920   0.49978   0.21298
   2   18905.9    528.9   1.803772155  31.40940   5.11063  -2.29575  -0.14275
   3   20383.3    490.6   0.017608842   0.28440   0.12466   0.32916   0.40064
   4   21528.4    464.5   0.005737253   0.08773   0.23960  -0.06011   0.16343
   5   22892.1    436.8   0.004539652   0.06528  -0.20704   0.14848   0.01936
   6   24608.3    406.4   0.264257481   3.53527  -1.75789   0.61529   0.25786
   7   25959.8    385.2   0.026838289   0.34035  -0.50961  -0.05684  -0.27825
   8   26150.7    382.4   0.034226160   0.43087  -0.50150   0.33313   0.26153
   9   27490.0    363.8   0.028266066   0.33851  -0.54481  -0.18282  -0.09089
  10   27660.6    361.5   0.011757978   0.13994   0.08844  -0.36171  -0.03585
  11   27879.1    358.7   0.015102398   0.17834  -0.35185   0.00612  -0.23346
  12   28315.4    353.2   0.032945357   0.38304  -0.40848   0.46493  -0.00566
  13   28863.5    346.5   0.080978210   0.92362  -0.27913  -0.89186  -0.22425
  14   28948.9    345.4   0.068283189   0.77653   0.31704   0.81952  -0.06636
  15   29240.2    342.0   0.050502103   0.56860   0.68390   0.18522  -0.25800
  16   29351.2    340.7   0.023424674   0.26274   0.40385  -0.23072   0.21543
  17   29567.2    338.2   0.099968747   1.11309  -0.83952  -0.38347   0.51112
  18   29830.9    335.2   0.225087462   2.48405   0.19309   1.28235  -0.89573
  19   30172.1    331.4   0.235060201   2.56478   1.52710  -0.39925  -0.27080
  20   30583.0    327.0   0.121147917   1.30410   0.88524   0.57924   0.43005
  21   30660.8    326.1   0.386866213   4.15388   0.00156  -0.29284  -2.01696
  22   30788.8    324.8   0.384056400   4.10656   1.89137  -0.46266  -0.56146
  23   31031.6    322.3   0.323110675   3.42785   0.63416  -1.56018   0.76910
  24   31566.8    316.8   0.080258756   0.83702   0.83110  -0.35966  -0.13016
  25   31852.8    313.9   0.023452791   0.24239   0.13059  -0.01635   0.47442
  26   32018.0    312.3   0.248832853   2.55852   1.22635  -0.99049   0.27116
  27   32219.6    310.4   0.015849967   0.16195   0.30361   0.25788  -0.05718
  28   32388.6    308.8   0.062292206   0.63316   0.17177   0.00934  -0.77690
  29   33040.2    302.7   0.002843767   0.02834   0.11753  -0.11409  -0.03881
  30   33594.4    297.7   0.129146673   1.26559  -0.74522   0.77835  -0.32313
  31   34077.3    293.5   0.162759119   1.57237  -0.21602   0.66950  -1.03802
  32   34187.5    292.5   0.134496171   1.29514  -1.08065   0.34244   0.10037
  33   34233.2    292.1   0.246504102   2.37057   0.38220   0.86854   1.21249
  34   34416.8    290.6   0.071796899   0.68677   0.05268  -0.79315   0.23433
  35   34558.2    289.4   0.266731926   2.54097  -0.96998  -1.00765   0.76468
  36   34887.0    286.6   0.120498069   1.13708   0.13496  -0.61758   0.85876
  37   35050.5    285.3   0.038626789   0.36280  -0.09524   0.51389  -0.29940
  38   35362.4    282.8   0.141156611   1.31412  -1.13535  -0.11884  -0.10473
  39   35447.6    282.1   0.072900124   0.67704   0.37211   0.07189  -0.73035
  40   35552.8    281.3   0.312834659   2.89679   0.30664   1.24141   1.12323
  41   35648.7    280.5   0.452168399   4.17573   1.70437  -1.08685   0.29935
  42   35739.0    279.8   0.076027251   0.70033  -0.22914  -0.66177  -0.45814
  43   36212.6    276.1   0.005520103   0.05018   0.07528  -0.10853   0.18093
  44   36339.5    275.2   0.013755429   0.12462  -0.32617   0.13469   0.00930
  45   36406.0    274.7   0.010932421   0.09886   0.18681   0.14223   0.20912
  46   36497.6    274.0   0.033424455   0.30149   0.10652  -0.44886   0.29778
  47   36747.9    272.1   0.061371887   0.54981   0.33704  -0.15163   0.64283
  48   36965.1    270.5   0.196760487   1.75235  -0.24850   0.02563   1.29998
  49   37013.7    270.2   0.036883428   0.32805   0.00271   0.56662  -0.08361
  50   37266.6    268.3   0.047127397   0.41632  -0.39775   0.48552   0.14962
  51   37465.2    266.9   0.014724904   0.12939   0.12850  -0.27633  -0.19110
  52   37751.6    264.9   0.080699518   0.70374   0.76165  -0.20319   0.28695
  53   38070.0    262.7   0.025662562   0.22192  -0.33234  -0.29674  -0.15301
  54   38163.4    262.0   0.007413938   0.06396   0.20697  -0.00508   0.14523
  55   38866.1    257.3   0.073602644   0.62345  -0.15013  -0.27019   0.72657
  56   38910.1    257.0   0.135556290   1.14692   0.42023  -0.91451   0.36606
  57   39012.3    256.3   0.033436275   0.28216   0.51577  -0.05259  -0.11563
  58   39167.2    255.3   0.037598792   0.31603  -0.39419  -0.29307  -0.27341
  59   39350.9    254.1   0.109751011   0.91818  -0.53332  -0.72444   0.33008
  60   39664.0    252.1   0.305428711   2.53507  -0.25992  -1.34932   0.80426
  61   39778.3    251.4   0.036494218   0.30203  -0.34249   0.33398  -0.27053
  62   40029.9    249.8   0.026069746   0.21440  -0.21441  -0.40530   0.06450
  63   40228.1    248.6   0.059467712   0.48666   0.28584   0.56427  -0.29421
  64   40322.0    248.0   0.008621205   0.07039   0.09377   0.21883  -0.11710

FINAL SINGLE POINT ENERGY     -5807.477853641876

DIPOLE MOMENT
-------------
                                X             Y             Z
Electronic contribution:      4.45945      10.08024      10.15415
Nuclear contribution   :     -6.58353     -14.15089      -9.35840
                        -----------------------------------------
Total Dipole Moment    :     -2.12408      -4.07064       0.79575
                        -----------------------------------------
Magnitude (a.u.)       :      4.65994
Magnitude (Debye)      :     11.84463

Rotational constants in cm-1:     0.001862     0.000133     0.000132
Rotational constants in MHz :    55.815380     3.988141     3.954641

                             ****ORCA TERMINATED NORMALLY****
TOTAL RUN TIME: 0 days 0 hours 12 minutes 43 seconds 794 msec
