                         Program Version 4.2.0 -  RELEASE  -
|  1> # ORCA input file
|  2> # SCF done       -176.257109075282          0.000761966103
|  3> ! CAM-B3LYP def2-SVP def2/J RIJCOSX Grid4 TightSCF
|  4> %maxcore 5000
|  5> %tddft
|  6>     Mode sTDDFT
|  7>     Ethresh 5.0
|  8>     maxcore 5000
|  9> end
| 10>
| 11> %pal
| 12>   nprocs 6
| 13>   end
| 14> * xyz 0 1
| 15>    C       -3.75862         2.86833         3.51886
| 16>    C       -2.60292         3.49238         3.07688
| 17>    C       -1.83544         2.94346         2.05831
| 18>    C       -2.20914         1.75902         1.44355
| 19>    C       -3.36472         1.12657         1.87391
| 20>    C       -4.13976         1.67616         2.92203
| 21>    C       -5.26060         0.79220         3.19964
| 22>    C       -6.29218         1.03487         4.05910
| 23>    C       -6.43067         2.22135         4.81464
| 24>    N       -6.60464         3.15543         5.45707
| 25>    C       -7.38235         0.16650         4.29321
| 26>    N       -8.29280        -0.48740         4.53799
| 27>    C       -5.05475        -0.41135         2.38397
| 28>    C       -4.01472        -0.08276         1.40430
| 29>    C       -3.84425        -0.65982         0.17895
| 30>    C       -4.72101        -1.61375        -0.37866
| 31>    N       -5.44362        -2.32947        -0.90997
| 32>    C       -2.82421        -0.29074        -0.72484
| 33>    N       -1.99916        -0.04868        -1.48396
| 34>    C       -5.59913        -1.62160         2.64397
| 35>    C       -5.21644        -2.88872         2.06470
| 36>    C       -6.15467        -3.81265         1.68829
| 37>    F       -7.46488        -3.66633         1.81815
| 38>    S       -5.53160        -5.20382         0.88160
| 39>    C       -3.94671        -4.55882         1.10767
| 40>    F       -2.89318        -5.25985         0.69959
| 41>    C       -3.88866        -3.35797         1.75924
| 42>    C       -2.61441        -2.80584         2.16711
| 43>    C       -2.39181        -2.02858         3.23307
| 44>    C       -1.05672        -1.59887         3.61582
| 45>    C       -0.78145        -0.34305         4.06842
| 46>    F       -1.68411         0.61038         4.30950
| 47>    S        0.89805         0.01445         4.28388
| 48>    C        1.24553        -1.60798         3.78900
| 49>    F        2.50503        -2.03222         3.78711
| 50>    C        0.15310        -2.37065         3.49332
| 51>    C        0.26453        -3.79944         3.25327
| 52>    C       -0.64359        -4.68790         3.67192
| 53>    C       -0.53568        -6.12157         3.49107
| 54>    C       -1.61774        -6.90837         3.23481
| 55>    F       -2.88317        -6.49574         3.17078
| 56>    S       -1.25638        -8.57582         2.94225
| 57>    C        0.40821        -8.21274         3.21790
| 58>    F        1.28548        -9.21275         3.19283
| 59>    C        0.67788        -6.90183         3.51990
| 60>    C        1.93981        -6.37687         3.95558
| 61>    C        3.14652        -6.96671         3.80512
| 62>    C        4.32084        -6.38744         4.35353
| 63>    C        5.60268        -6.77585         4.10275
| 64>    C        6.75492        -6.46228         4.94502
| 65>    C        6.85312        -5.45661         5.86605
| 66>    C        5.84859        -4.50359         6.14270
| 67>    N        5.07702        -3.70164         6.42454
| 68>    C        8.00032        -5.21431         6.65298
| 69>    N        8.89856        -4.96273         7.32095
| 70>    C        7.78365        -7.44080         4.62110
| 71>    C        7.35048        -8.21789         3.52132
| 72>    C        8.13963        -9.24319         3.02677
| 73>    C        9.36232        -9.48850         3.63328
| 74>    C        9.79358        -8.72148         4.70669
| 75>    C        9.01298        -7.69221         5.21070
| 76>    C        6.06033        -7.71160         3.08141
| 77>    C        5.49939        -7.89160         1.84656
| 78>    C        6.00754        -8.78499         0.87908
| 79>    N        6.36991        -9.50993         0.06730
| 80>    C        4.42983        -7.11575         1.34749
| 81>    N        3.60691        -6.46755         0.87926
| 82>    H       -4.33450         3.30238         4.31920
| 83>    H       -2.29157         4.41576         3.54027
| 84>    H       -0.93226         3.44226         1.74168
| 85>    H       -1.60067         1.33515         0.66102
| 86>    H       -6.40899        -1.68139         3.35946
| 87>    H       -1.77101        -3.15504         1.58585
| 88>    H       -3.20427        -1.65392         3.83938
| 89>    H        1.17310        -4.12261         2.76423
| 90>    H       -1.56139        -4.35034         4.13308
| 91>    H        1.89141        -5.41584         4.44980
| 92>    H        3.23095        -7.91015         3.28767
| 93>    H        4.15952        -5.61898         5.09709
| 94>    H        7.81194        -9.84944         2.19787
| 95>    H        9.98502       -10.28878         3.26415
| 96>    H       10.74979        -8.92964         5.16158
| 97>    H        9.36145        -7.11058         6.04821
| 98> *
| 99>
|100>                          ****END OF INPUT****

CARTESIAN COORDINATES (ANGSTROEM)
---------------------------------
  C     -3.758620    2.868330    3.518860
  C     -2.602920    3.492380    3.076880
  C     -1.835440    2.943460    2.058310
  C     -2.209140    1.759020    1.443550
  C     -3.364720    1.126570    1.873910
  C     -4.139760    1.676160    2.922030
  C     -5.260600    0.792200    3.199640
  C     -6.292180    1.034870    4.059100
  C     -6.430670    2.221350    4.814640
  N     -6.604640    3.155430    5.457070
  C     -7.382350    0.166500    4.293210
  N     -8.292800   -0.487400    4.537990
  C     -5.054750   -0.411350    2.383970
  C     -4.014720   -0.082760    1.404300
  C     -3.844250   -0.659820    0.178950
  C     -4.721010   -1.613750   -0.378660
  N     -5.443620   -2.329470   -0.909970
  C     -2.824210   -0.290740   -0.724840
  N     -1.999160   -0.048680   -1.483960
  C     -5.599130   -1.621600    2.643970
  C     -5.216440   -2.888720    2.064700
  C     -6.154670   -3.812650    1.688290
  F     -7.464880   -3.666330    1.818150
  S     -5.531600   -5.203820    0.881600
  C     -3.946710   -4.558820    1.107670
  F     -2.893180   -5.259850    0.699590
  C     -3.888660   -3.357970    1.759240
  C     -2.614410   -2.805840    2.167110
  C     -2.391810   -2.028580    3.233070
  C     -1.056720   -1.598870    3.615820
  C     -0.781450   -0.343050    4.068420
  F     -1.684110    0.610380    4.309500
  S      0.898050    0.014450    4.283880
  C      1.245530   -1.607980    3.789000
  F      2.505030   -2.032220    3.787110
  C      0.153100   -2.370650    3.493320
  C      0.264530   -3.799440    3.253270
  C     -0.643590   -4.687900    3.671920
  C     -0.535680   -6.121570    3.491070
  C     -1.617740   -6.908370    3.234810
  F     -2.883170   -6.495740    3.170780
  S     -1.256380   -8.575820    2.942250
  C      0.408210   -8.212740    3.217900
  F      1.285480   -9.212750    3.192830
  C      0.677880   -6.901830    3.519900
  C      1.939810   -6.376870    3.955580
  C      3.146520   -6.966710    3.805120
  C      4.320840   -6.387440    4.353530
  C      5.602680   -6.775850    4.102750
  C      6.754920   -6.462280    4.945020
  C      6.853120   -5.456610    5.866050
  C      5.848590   -4.503590    6.142700
  N      5.077020   -3.701640    6.424540
  C      8.000320   -5.214310    6.652980
  N      8.898560   -4.962730    7.320950
  C      7.783650   -7.440800    4.621100
  C      7.350480   -8.217890    3.521320
  C      8.139630   -9.243190    3.026770
  C      9.362320   -9.488500    3.633280
  C      9.793580   -8.721480    4.706690
  C      9.012980   -7.692210    5.210700
  C      6.060330   -7.711600    3.081410
  C      5.499390   -7.891600    1.846560
  C      6.007540   -8.784990    0.879080
  N      6.369910   -9.509930    0.067300
  C      4.429830   -7.115750    1.347490
  N      3.606910   -6.467550    0.879260
  H     -4.334500    3.302380    4.319200
  H     -2.291570    4.415760    3.540270
  H     -0.932260    3.442260    1.741680
  H     -1.600670    1.335150    0.661020
  H     -6.408990   -1.681390    3.359460
  H     -1.771010   -3.155040    1.585850
  H     -3.204270   -1.653920    3.839380
  H      1.173100   -4.122610    2.764230
  H     -1.561390   -4.350340    4.133080
  H      1.891410   -5.415840    4.449800
  H      3.230950   -7.910150    3.287670
  H      4.159520   -5.618980    5.097090
  H      7.811940   -9.849440    2.197870
  H      9.985020  -10.288780    3.264150
  H     10.749790   -8.929640    5.161580
  H      9.361450   -7.110580    6.048210

 Total Charge           Charge          ....    0
 Multiplicity           Mult            ....    1
 Number of Electrons    NEL             ....  474
 Basis Dimension        Dim             .... 1030

ORBITAL ENERGIES
----------------

  NO   OCC          E(Eh)            E(eV)
   0   2.0000     -88.998559     -2421.7739
   1   2.0000     -88.995716     -2421.6965
   2   2.0000     -88.988943     -2421.5122
   3   2.0000     -24.830198      -675.6640
   4   2.0000     -24.825708      -675.5419
   5   2.0000     -24.823984      -675.4949
   6   2.0000     -24.822811      -675.4630
   7   2.0000     -24.821401      -675.4247
   8   2.0000     -24.815262      -675.2576
   9   2.0000     -14.429501      -392.6467
  10   2.0000     -14.428701      -392.6249
  11   2.0000     -14.427658      -392.5965
  12   2.0000     -14.427450      -392.5909
  13   2.0000     -14.427286      -392.5864
  14   2.0000     -14.425579      -392.5400
  15   2.0000     -14.425483      -392.5373
  16   2.0000     -14.423919      -392.4948
  17   2.0000     -10.408958      -283.2421
  18   2.0000     -10.408194      -283.2214
  19   2.0000     -10.400429      -283.0101
  20   2.0000     -10.398524      -282.9582
  21   2.0000     -10.394008      -282.8353
  22   2.0000     -10.393886      -282.8320
  23   2.0000     -10.360078      -281.9121
  24   2.0000     -10.359102      -281.8855
  25   2.0000     -10.358500      -281.8691
  26   2.0000     -10.356891      -281.8253
  27   2.0000     -10.356409      -281.8122
  28   2.0000     -10.354105      -281.7495
  29   2.0000     -10.354105      -281.7495
  30   2.0000     -10.352987      -281.7191
  31   2.0000     -10.336669      -281.2751
  32   2.0000     -10.330842      -281.1165
  33   2.0000     -10.330739      -281.1137
  34   2.0000     -10.330227      -281.0998
  35   2.0000     -10.329409      -281.0775
  36   2.0000     -10.329114      -281.0695
  37   2.0000     -10.329034      -281.0673
  38   2.0000     -10.328317      -281.0478
  39   2.0000     -10.327933      -281.0373
  40   2.0000     -10.327440      -281.0239
  41   2.0000     -10.327210      -281.0177
  42   2.0000     -10.322614      -280.8926
  43   2.0000     -10.319384      -280.8047
  44   2.0000     -10.319272      -280.8017
  45   2.0000     -10.319053      -280.7957
  46   2.0000     -10.318890      -280.7913
  47   2.0000     -10.318571      -280.7826
  48   2.0000     -10.316362      -280.7225
  49   2.0000     -10.314603      -280.6746
  50   2.0000     -10.311548      -280.5915
  51   2.0000     -10.310268      -280.5567
  52   2.0000     -10.306555      -280.4556
  53   2.0000     -10.306438      -280.4524
  54   2.0000     -10.306424      -280.4521
  55   2.0000     -10.306328      -280.4494
  56   2.0000     -10.306098      -280.4432
  57   2.0000     -10.305719      -280.4329
  58   2.0000     -10.305358      -280.4231
  59   2.0000     -10.304831      -280.4087
  60   2.0000     -10.304553      -280.4011
  61   2.0000     -10.304489      -280.3994
  62   2.0000     -10.302281      -280.3393
  63   2.0000     -10.301186      -280.3095
  64   2.0000     -10.300537      -280.2919
  65   2.0000     -10.299020      -280.2506
  66   2.0000     -10.298276      -280.2303
  67   2.0000      -8.095672      -220.2944
  68   2.0000      -8.092887      -220.2187
  69   2.0000      -8.086013      -220.0316
  70   2.0000      -6.064824      -165.0322
  71   2.0000      -6.062053      -164.9569
  72   2.0000      -6.061164      -164.9327
  73   2.0000      -6.058421      -164.8580
  74   2.0000      -6.057136      -164.8231
  75   2.0000      -6.055249      -164.7717
  76   2.0000      -6.054237      -164.7442
  77   2.0000      -6.051624      -164.6731
  78   2.0000      -6.047311      -164.5557
  79   2.0000      -1.345795       -36.6209
  80   2.0000      -1.343271       -36.5523
  81   2.0000      -1.340489       -36.4766
  82   2.0000      -1.336659       -36.3723
  83   2.0000      -1.335308       -36.3356
  84   2.0000      -1.331714       -36.2378
  85   2.0000      -1.044361       -28.4185
  86   2.0000      -1.041890       -28.3513
  87   2.0000      -1.025956       -27.9177
  88   2.0000      -1.023980       -27.8639
  89   2.0000      -1.019493       -27.7418
  90   2.0000      -1.018633       -27.7184
  91   2.0000      -1.013899       -27.5896
  92   2.0000      -1.013232       -27.5714
  93   2.0000      -1.010704       -27.5026
  94   2.0000      -1.006549       -27.3896
  95   2.0000      -1.005346       -27.3568
  96   2.0000      -1.004758       -27.3408
  97   2.0000      -1.003084       -27.2953
  98   2.0000      -0.966541       -26.3009
  99   2.0000      -0.966104       -26.2890
 100   2.0000      -0.948385       -25.8069
 101   2.0000      -0.946576       -25.7576
 102   2.0000      -0.938619       -25.5411
 103   2.0000      -0.930694       -25.3255
 104   2.0000      -0.920917       -25.0594
 105   2.0000      -0.911743       -24.8098
 106   2.0000      -0.901156       -24.5217
 107   2.0000      -0.900227       -24.4964
 108   2.0000      -0.890330       -24.2271
 109   2.0000      -0.876564       -23.8525
 110   2.0000      -0.872348       -23.7378
 111   2.0000      -0.872027       -23.7291
 112   2.0000      -0.863099       -23.4861
 113   2.0000      -0.848371       -23.0854
 114   2.0000      -0.837641       -22.7934
 115   2.0000      -0.817994       -22.2588
 116   2.0000      -0.809948       -22.0398
 117   2.0000      -0.798498       -21.7282
 118   2.0000      -0.797206       -21.6931
 119   2.0000      -0.791349       -21.5337
 120   2.0000      -0.790270       -21.5044
 121   2.0000      -0.739265       -20.1164
 122   2.0000      -0.735023       -20.0010
 123   2.0000      -0.726366       -19.7654
 124   2.0000      -0.723763       -19.6946
 125   2.0000      -0.722777       -19.6678
 126   2.0000      -0.722040       -19.6477
 127   2.0000      -0.719320       -19.5737
 128   2.0000      -0.711572       -19.3629
 129   2.0000      -0.710288       -19.3279
 130   2.0000      -0.707669       -19.2567
 131   2.0000      -0.704088       -19.1592
 132   2.0000      -0.688602       -18.7378
 133   2.0000      -0.685822       -18.6622
 134   2.0000      -0.676759       -18.4156
 135   2.0000      -0.673383       -18.3237
 136   2.0000      -0.672446       -18.2982
 137   2.0000      -0.668837       -18.2000
 138   2.0000      -0.665771       -18.1165
 139   2.0000      -0.653714       -17.7885
 140   2.0000      -0.649660       -17.6781
 141   2.0000      -0.637978       -17.3603
 142   2.0000      -0.637235       -17.3400
 143   2.0000      -0.631253       -17.1773
 144   2.0000      -0.623282       -16.9604
 145   2.0000      -0.621329       -16.9072
 146   2.0000      -0.618483       -16.8298
 147   2.0000      -0.611881       -16.6501
 148   2.0000      -0.607154       -16.5215
 149   2.0000      -0.602844       -16.4042
 150   2.0000      -0.600918       -16.3518
 151   2.0000      -0.596311       -16.2265
 152   2.0000      -0.594725       -16.1833
 153   2.0000      -0.593262       -16.1435
 154   2.0000      -0.592818       -16.1314
 155   2.0000      -0.591426       -16.0935
 156   2.0000      -0.582536       -15.8516
 157   2.0000      -0.580471       -15.7954
 158   2.0000      -0.577466       -15.7137
 159   2.0000      -0.575334       -15.6556
 160   2.0000      -0.572176       -15.5697
 161   2.0000      -0.570808       -15.5325
 162   2.0000      -0.568152       -15.4602
 163   2.0000      -0.559061       -15.2128
 164   2.0000      -0.550329       -14.9752
 165   2.0000      -0.550064       -14.9680
 166   2.0000      -0.548503       -14.9255
 167   2.0000      -0.545116       -14.8334
 168   2.0000      -0.544354       -14.8126
 169   2.0000      -0.543438       -14.7877
 170   2.0000      -0.537900       -14.6370
 171   2.0000      -0.536108       -14.5882
 172   2.0000      -0.533390       -14.5143
 173   2.0000      -0.526331       -14.3222
 174   2.0000      -0.519443       -14.1348
 175   2.0000      -0.517692       -14.0871
 176   2.0000      -0.515494       -14.0273
 177   2.0000      -0.514104       -13.9895
 178   2.0000      -0.509864       -13.8741
 179   2.0000      -0.502830       -13.6827
 180   2.0000      -0.497520       -13.5382
 181   2.0000      -0.493341       -13.4245
 182   2.0000      -0.488980       -13.3058
 183   2.0000      -0.485312       -13.2060
 184   2.0000      -0.481471       -13.1015
 185   2.0000      -0.480360       -13.0712
 186   2.0000      -0.476696       -12.9716
 187   2.0000      -0.474994       -12.9252
 188   2.0000      -0.471224       -12.8226
 189   2.0000      -0.469655       -12.7800
 190   2.0000      -0.468706       -12.7541
 191   2.0000      -0.467922       -12.7328
 192   2.0000      -0.466606       -12.6970
 193   2.0000      -0.465033       -12.6542
 194   2.0000      -0.462361       -12.5815
 195   2.0000      -0.460301       -12.5254
 196   2.0000      -0.459831       -12.5126
 197   2.0000      -0.459175       -12.4948
 198   2.0000      -0.459013       -12.4904
 199   2.0000      -0.456655       -12.4262
 200   2.0000      -0.454428       -12.3656
 201   2.0000      -0.454290       -12.3619
 202   2.0000      -0.453178       -12.3316
 203   2.0000      -0.452031       -12.3004
 204   2.0000      -0.451360       -12.2821
 205   2.0000      -0.449857       -12.2412
 206   2.0000      -0.445543       -12.1238
 207   2.0000      -0.442789       -12.0489
 208   2.0000      -0.439187       -11.9509
 209   2.0000      -0.438850       -11.9417
 210   2.0000      -0.437199       -11.8968
 211   2.0000      -0.436296       -11.8722
 212   2.0000      -0.435588       -11.8530
 213   2.0000      -0.434004       -11.8098
 214   2.0000      -0.431689       -11.7468
 215   2.0000      -0.427836       -11.6420
 216   2.0000      -0.421588       -11.4720
 217   2.0000      -0.421363       -11.4659
 218   2.0000      -0.418962       -11.4005
 219   2.0000      -0.418138       -11.3781
 220   2.0000      -0.411221       -11.1899
 221   2.0000      -0.405373       -11.0307
 222   2.0000      -0.401307       -10.9201
 223   2.0000      -0.391501       -10.6533
 224   2.0000      -0.388140       -10.5618
 225   2.0000      -0.376960       -10.2576
 226   2.0000      -0.368136       -10.0175
 227   2.0000      -0.351851        -9.5744
 228   2.0000      -0.340420        -9.2633
 229   2.0000      -0.340322        -9.2606
 230   2.0000      -0.333615        -9.0781
 231   2.0000      -0.322058        -8.7636
 232   2.0000      -0.319497        -8.6939
 233   2.0000      -0.304918        -8.2972
 234   2.0000      -0.291005        -7.9186
 235   2.0000      -0.288986        -7.8637
 236   2.0000      -0.286367        -7.7924
 237   0.0000      -0.102029        -2.7764
 238   0.0000      -0.097531        -2.6540
 239   0.0000      -0.093843        -2.5536
 240   0.0000      -0.092951        -2.5293
 241   0.0000      -0.027376        -0.7449

MULLIKEN ATOMIC CHARGES
-----------------------
   0 C :   -0.038322
   1 C :    0.053951
   2 C :    0.045028
   3 C :   -0.035261
   4 C :    0.010527
   5 C :    0.026964
   6 C :    0.295111
   7 C :   -0.339890
   8 C :   -0.189599
   9 N :    0.167052
  10 C :   -0.186792
  11 N :    0.169951
  12 C :   -0.075853
  13 C :    0.242740
  14 C :   -0.325985
  15 C :   -0.166365
  16 N :    0.173885
  17 C :   -0.200856
  18 N :    0.175185
  19 C :    0.011532
  20 C :   -0.024390
  21 C :    0.113883
  22 F :   -0.134531
  23 S :    0.149638
  24 C :    0.075474
  25 F :   -0.151321
  26 C :    0.045510
  27 C :    0.024447
  28 C :   -0.021788
  29 C :    0.043301
  30 C :    0.067630
  31 F :   -0.158815
  32 S :    0.109880
  33 C :    0.073407
  34 F :   -0.150726
  35 C :    0.039911
  36 C :   -0.039982
  37 C :    0.005872
  38 C :    0.052726
  39 C :    0.066725
  40 F :   -0.158179
  41 S :    0.127909
  42 C :    0.062494
  43 F :   -0.150305
  44 C :    0.102915
  45 C :   -0.017733
  46 C :   -0.000164
  47 C :    0.021684
  48 C :   -0.052846
  49 C :    0.299443
  50 C :   -0.337643
  51 C :   -0.182072
  52 N :    0.154177
  53 C :   -0.188486
  54 N :    0.160835
  55 C :    0.014503
  56 C :    0.009047
  57 C :   -0.031372
  58 C :    0.048104
  59 C :    0.049494
  60 C :   -0.034201
  61 C :    0.232421
  62 C :   -0.322122
  63 C :   -0.184530
  64 N :    0.163958
  65 C :   -0.205965
  66 N :    0.178038
  67 H :    0.006599
  68 H :    0.005278
  69 H :    0.006325
  70 H :    0.008308
  71 H :    0.035303
  72 H :    0.018599
  73 H :    0.009818
  74 H :    0.031694
  75 H :    0.020100
  76 H :    0.026490
  77 H :    0.029899
  78 H :    0.015793
  79 H :    0.008099
  80 H :    0.006758
  81 H :    0.005271
  82 H :    0.006405
Sum of atomic charges:   -0.0000000

LOEWDIN ATOMIC CHARGES
----------------------
   0 C :    0.007572
   1 C :    0.005395
   2 C :    0.006088
   3 C :    0.002166
   4 C :   -0.009372
   5 C :   -0.012913
   6 C :    0.077455
   7 C :   -0.124478
   8 C :   -0.018774
   9 N :   -0.039074
  10 C :   -0.023315
  11 N :   -0.035159
  12 C :   -0.041034
  13 C :    0.073202
  14 C :   -0.117489
  15 C :   -0.017242
  16 N :   -0.048647
  17 C :   -0.018945
  18 N :   -0.038141
  19 C :    0.062647
  20 C :   -0.111645
  21 C :   -0.046489
  22 F :   -0.028125
  23 S :    0.460870
  24 C :   -0.069566
  25 F :   -0.040140
  26 C :   -0.096475
  27 C :   -0.007828
  28 C :   -0.029550
  29 C :   -0.091164
  30 C :   -0.084131
  31 F :   -0.046967
  32 S :    0.423954
  33 C :   -0.074669
  34 F :   -0.043378
  35 C :   -0.093943
  36 C :   -0.013219
  37 C :   -0.014545
  38 C :   -0.083018
  39 C :   -0.083697
  40 F :   -0.047393
  41 S :    0.443366
  42 C :   -0.061705
  43 F :   -0.038126
  44 C :   -0.092002
  45 C :    0.040126
  46 C :   -0.031330
  47 C :    0.063105
  48 C :   -0.057148
  49 C :    0.079028
  50 C :   -0.130248
  51 C :   -0.020529
  52 N :   -0.044642
  53 C :   -0.019282
  54 N :   -0.043590
  55 C :   -0.013500
  56 C :   -0.010379
  57 C :    0.002581
  58 C :    0.005965
  59 C :    0.003148
  60 C :    0.006086
  61 C :    0.070914
  62 C :   -0.128027
  63 C :   -0.020044
  64 N :   -0.040589
  65 C :   -0.023064
  66 N :   -0.041833
  67 H :    0.041789
  68 H :    0.038304
  69 H :    0.038320
  70 H :    0.041621
  71 H :    0.050308
  72 H :    0.038872
  73 H :    0.029549
  74 H :    0.038771
  75 H :    0.035677
  76 H :    0.042008
  77 H :    0.030762
  78 H :    0.046678
  79 H :    0.041588
  80 H :    0.038515
  81 H :    0.038297
  82 H :    0.041836

  Mayer bond orders larger than 0.100000
B(  0-C ,  1-C ) :   1.3766 B(  0-C ,  5-C ) :   1.3726 B(  0-C , 67-H ) :   0.9843
B(  1-C ,  2-C ) :   1.3685 B(  1-C , 68-H ) :   0.9860 B(  2-C ,  3-C ) :   1.3653
B(  2-C , 69-H ) :   0.9874 B(  3-C ,  4-C ) :   1.3765 B(  3-C , 70-H ) :   0.9891
B(  4-C ,  5-C ) :   1.3069 B(  4-C , 13-C ) :   1.0183 B(  5-C ,  6-C ) :   1.0101
B(  6-C ,  7-C ) :   1.6677 B(  6-C , 12-C ) :   1.0188 B(  7-C ,  8-C ) :   1.1417
B(  7-C , 10-C ) :   1.1328 B(  8-C ,  9-N ) :   2.9822 B( 10-C , 11-N ) :   2.9852
B( 12-C , 13-C ) :   0.9830 B( 12-C , 19-C ) :   1.7391 B( 13-C , 14-C ) :   1.6764
B( 14-C , 15-C ) :   1.1635 B( 14-C , 17-C ) :   1.1432 B( 15-C , 16-N ) :   2.9941
B( 17-C , 18-N ) :   2.9971 B( 19-C , 20-C ) :   1.0430 B( 19-C , 71-H ) :   0.9293
B( 20-C , 21-C ) :   1.4653 B( 20-C , 26-C ) :   1.1428 B( 21-C , 22-F ) :   1.1698
B( 21-C , 23-S ) :   1.1411 B( 23-S , 24-C ) :   1.1215 B( 24-C , 25-F ) :   1.1308
B( 24-C , 26-C ) :   1.4710 B( 26-C , 27-C ) :   1.1026 B( 27-C , 28-C ) :   1.7920
B( 27-C , 72-H ) :   0.9469 B( 28-C , 29-C ) :   1.0427 B( 28-C , 73-H ) :   0.9560
B( 29-C , 30-C ) :   1.5038 B( 29-C , 35-C ) :   1.1687 B( 30-C , 31-F ) :   1.1066
B( 30-C , 32-S ) :   1.1100 B( 32-S , 33-C ) :   1.1160 B( 33-C , 34-F ) :   1.1432
B( 33-C , 35-C ) :   1.4912 B( 35-C , 36-C ) :   1.0527 B( 36-C , 37-C ) :   1.7918
B( 36-C , 74-H ) :   0.9652 B( 37-C , 38-C ) :   1.0695 B( 37-C , 75-H ) :   0.9506
B( 38-C , 39-C ) :   1.4973 B( 38-C , 44-C ) :   1.1552 B( 39-C , 40-F ) :   1.1191
B( 39-C , 41-S ) :   1.1058 B( 41-S , 42-C ) :   1.1456 B( 42-C , 43-F ) :   1.1148
B( 42-C , 44-C ) :   1.4272 B( 44-C , 45-C ) :   1.0847 B( 45-C , 46-C ) :   1.6671
B( 45-C , 76-H ) :   0.9734 B( 46-C , 47-C ) :   1.1404 B( 46-C , 77-H ) :   0.9587
B( 47-C , 48-C ) :   1.5789 B( 47-C , 78-H ) :   0.9523 B( 48-C , 49-C ) :   1.0392
B( 48-C , 61-C ) :   1.0213 B( 49-C , 50-C ) :   1.6480 B( 49-C , 55-C ) :   1.0038
B( 50-C , 51-C ) :   1.1347 B( 50-C , 53-C ) :   1.1430 B( 51-C , 52-N ) :   2.9775
B( 53-C , 54-N ) :   2.9796 B( 55-C , 56-C ) :   1.3089 B( 55-C , 60-C ) :   1.3796
B( 56-C , 57-C ) :   1.3818 B( 56-C , 61-C ) :   1.0149 B( 57-C , 58-C ) :   1.3636
B( 57-C , 79-H ) :   0.9876 B( 58-C , 59-C ) :   1.3757 B( 58-C , 80-H ) :   0.9872
B( 59-C , 60-C ) :   1.3727 B( 59-C , 81-H ) :   0.9860 B( 60-C , 82-H ) :   0.9854
B( 61-C , 62-C ) :   1.6492 B( 62-C , 63-C ) :   1.1387 B( 62-C , 65-C ) :   1.1484
B( 63-C , 64-N ) :   2.9938 B( 65-C , 66-N ) :   3.0166

-----------------------------------------------------------------------------
         ABSORPTION SPECTRUM VIA TRANSITION ELECTRIC DIPOLE MOMENTS
-----------------------------------------------------------------------------
State   Energy  Wavelength   fosc         T2         TX        TY        TZ
        (cm-1)    (nm)                  (au**2)     (au)      (au)      (au)
-----------------------------------------------------------------------------
   0   21499.5    465.1   0.015212807   0.23295   0.16070   0.44355  -0.10189
   1   23813.9    419.9   0.449027174   6.20751   2.48364   0.00997  -0.19737
   2   23924.1    418.0   0.006665611   0.09172   0.16932  -0.09165  -0.23378
   3   24382.3    410.1   0.090904728   1.22740  -1.06381   0.30675  -0.04026
   4   25181.4    397.1   0.216580407   2.83149   0.88668   0.73730   1.22543
   5   25673.3    389.5   0.121571219   1.55892  -0.32144  -1.11240   0.46708
   6   26328.0    379.8   0.000346471   0.00433  -0.02570   0.01938  -0.05741
   7   27659.2    361.5   0.166396871   1.98053  -0.86994   0.68062   0.87205
   8   27921.7    358.1   0.000146778   0.00173  -0.03490   0.02206   0.00510
   9   28345.1    352.8   0.014998931   0.17420   0.25036  -0.28600  -0.17242
  10   28939.1    345.6   0.177056747   2.01420  -1.28254   0.60241  -0.08004
  11   29054.2    344.2   0.158064881   1.79103   0.53560   1.14578   0.43744
  12   29735.0    336.3   0.006582233   0.07288  -0.09020   0.14420   0.20964
  13   31153.4    321.0   0.240180885   2.53810  -0.78624   0.65394   1.22159
  14   31495.2    317.5   0.084147853   0.87958   0.42770  -0.50154  -0.66716
  15   31887.5    313.6   0.307212383   3.17171  -0.60804  -0.77286  -1.48482
  16   32175.3    310.8   0.003155794   0.03229   0.04990   0.08443   0.15057
  17   33113.8    302.0   0.005546794   0.05515   0.21176  -0.10082   0.01178
  18   33156.1    301.6   0.005861460   0.05820  -0.13566   0.13385  -0.14792
  19   33840.9    295.5   0.071176389   0.69242  -0.49429  -0.35941  -0.56473
  20   34223.0    292.2   0.269369715   2.59123  -0.16062  -0.82858  -1.37072
  21   34332.7    291.3   0.389503974   3.73490  -0.89950   0.81111   1.50596
  22   34993.9    285.8   0.099187346   0.93313   0.71730  -0.42498   0.48785
  23   35458.1    282.0   0.268253373   2.49061   1.22787   0.98607   0.10305
  24   35512.7    281.6   0.327440634   3.03546   1.21822  -1.21597   0.26988
  25   35545.1    281.3   0.139933291   1.29603  -1.11957  -0.19819   0.05765
  26   36460.5    274.3   0.053293505   0.48120  -0.47598  -0.39813  -0.31006
  27   37635.4    265.7   0.000702531   0.00615  -0.03401  -0.00500   0.07045
  28   37740.7    265.0   0.033711966   0.29407   0.28499  -0.38658   0.25181
  29   37979.3    263.3   0.047869399   0.41494   0.58752  -0.26410   0.00392
  30   38449.5    260.1   0.024829189   0.21259   0.22384   0.40280   0.01543
  31   38573.5    259.2   0.000903760   0.00771  -0.01678   0.00429   0.08610
  32   39765.2    251.5   0.011653857   0.09648   0.02400   0.28657   0.11740
  33   40042.3    249.7   0.002662785   0.02189   0.05181   0.10309  -0.09263

FINAL SINGLE POINT ENERGY     -4142.270984508727

DIPOLE MOMENT
-------------
                                X             Y             Z
Electronic contribution:    -34.72980      -6.82579      -6.91701
Nuclear contribution   :     36.18767       5.31073       7.89577
                        -----------------------------------------
Total Dipole Moment    :      1.45787      -1.51506       0.97876
                        -----------------------------------------
Magnitude (a.u.)       :      2.31921
Magnitude (Debye)      :      5.89497

Rotational constants in cm-1:     0.001914     0.000529     0.000461
Rotational constants in MHz :    57.383680    15.865991    13.822033

                             ****ORCA TERMINATED NORMALLY****
TOTAL RUN TIME: 0 days 0 hours 8 minutes 35 seconds 115 msec
