                         Program Version 4.2.0 -  RELEASE  -
|  1> # ORCA input file
|  2> # SCF done       -177.286571394353          0.000919838956
|  3> ! CAM-B3LYP def2-SVP def2/J RIJCOSX Grid4 TightSCF
|  4> %maxcore 5000
|  5> %tddft
|  6>     Mode sTDDFT
|  7>     Ethresh 5.0
|  8>     maxcore 5000
|  9> end
| 10>
| 11> %pal
| 12>   nprocs 6
| 13>   end
| 14> * xyz 0 1
| 15>    C       13.10128        -4.04339         9.60910
| 16>    C       12.44555        -3.37231         8.85657
| 17>    C       11.70650        -2.57386         7.98065
| 18>    S       12.32032        -1.03277         7.45506
| 19>    C       10.89241        -0.77202         6.48238
| 20>    C       10.01792        -1.83040         6.58393
| 21>    C       10.47792        -2.84536         7.42892
| 22>    C       10.75866         0.38585         5.73179
| 23>    C       10.68971         1.41136         5.08499
| 24>    C       10.63027         2.58229         4.33893
| 25>    C        9.61931         2.89439         3.49569
| 26>    C        9.62752         4.06684         2.74813
| 27>    C        9.65171         5.08109         2.07987
| 28>    C        9.78649         6.24041         1.33387
| 29>    S       11.15903         7.28554         1.60414
| 30>    C       10.63360         8.34732         0.31953
| 31>    C        9.46088         7.90126        -0.25013
| 32>    C        8.98344         6.72045         0.32120
| 33>    C       11.41846         9.43876        -0.01418
| 34>    C       12.20154        10.33373        -0.26228
| 35>    C       13.16860        11.29085        -0.54797
| 36>    C       14.14963        11.57917         0.33562
| 37>    C       15.27486        12.41086         0.07905
| 38>    C       16.30035        12.65839         0.94748
| 39>    C       17.36989        13.39178         0.38296
| 40>    C       18.58407        13.75601         0.99621
| 41>    C       18.82361        13.55921         2.41152
| 42>    C       19.97273        13.16721         3.03484
| 43>    C       19.85381        13.15435         4.44192
| 44>    C       18.63367        13.54238         4.91188
| 45>    S       17.58748        13.92710         3.58747
| 46>    C       18.16775        13.65611         6.31712
| 47>   Cl       21.15562        12.68409         5.46707
| 48>    C       19.54682        14.32653         0.17009
| 49>    C       19.31993        14.63431        -1.19472
| 50>    C       18.06877        14.35488        -1.78263
| 51>    C       17.14058        13.69652        -0.98183
| 52>    S       15.57392        13.12980        -1.49381
| 53>    C       17.75494        14.72882        -3.14710
| 54>    C       17.03558        14.03094        -4.07359
| 55>    C       16.87227        14.73842        -5.28454
| 56>    C       17.44566        15.97571        -5.30088
| 57>    S       18.22232        16.28480        -3.78472
| 58>    C       17.46018        16.98320        -6.39156
| 59>   Cl       16.01443        14.07651        -6.62392
| 60>    C       20.48174        15.15280        -1.82003
| 61>    C       21.55275        15.24844        -0.98082
| 62>    S       21.16541        14.74174         0.65756
| 63>    C       22.86925        15.57423        -1.27235
| 64>    C       24.05106        15.76900        -1.47048
| 65>    C       25.42171        15.86563        -1.65129
| 66>    S       26.47612        15.08630        -0.49829
| 67>    C       27.87698        15.55588        -1.42916
| 68>    C       27.51776        16.28520        -2.54229
| 69>    C       26.13759        16.45723        -2.66813
| 70>    C       29.13394        15.13986        -1.02149
| 71>    C       30.18491        14.68845        -0.61152
| 72>    C       31.36453        14.12198        -0.14548
| 73>    C       32.57076        14.25511        -0.74361
| 74>    C       33.70141        13.61038        -0.25423
| 75>    C       34.67423        13.02065         0.17144
| 76>    C       35.74085        12.30447         0.68967
| 77>    S       35.49700        11.23414         2.04950
| 78>    C       37.17922        10.77587         2.02020
| 79>    C       37.86005        11.42783         1.01608
| 80>    C       37.05213        12.28637         0.26759
| 81>    C       37.67426         9.85125         2.93089
| 82>    C       38.06006         9.03382         3.73789
| 83>    C       38.54563         8.08737         4.65132
| 84>    C       37.77650         7.47875         5.55246
| 85>    H       13.65882        -4.64169        10.26555
| 86>    H        9.07953        -1.85948         6.05913
| 87>    H        9.93741        -3.75223         7.63492
| 88>    H       11.46512         3.26335         4.45470
| 89>    H        8.77724         2.22601         3.36863
| 90>    H        8.97612         8.42161        -1.05716
| 91>    H        8.08604         6.21696         0.00773
| 92>    H       13.14161        11.76333        -1.52174
| 93>    H       14.13412        11.11094         1.31175
| 94>    H       16.30159        12.28463         1.95484
| 95>    H       20.86575        12.86139         2.52266
| 96>    H       18.94232        13.29480         6.98895
| 97>    H       17.26160        13.07147         6.47071
| 98>    H       17.94304        14.69367         6.56427
| 99>    H       16.66129        13.03557        -3.92446
|100>    H       16.99862        16.56401        -7.28224
|101>    H       18.48114        17.28177        -6.62597
|102>    H       16.90904        17.87624        -6.09672
|103>    H       20.54416        15.40623        -2.86217
|104>    H       28.24016        16.66840        -3.24087
|105>    H       25.66527        16.98973        -3.47455
|106>    H       31.27395        13.51975         0.75110
|107>    H       32.68540        14.85752        -1.63558
|108>    H       38.91007        11.27722         0.83775
|109>    H       37.40212        12.87865        -0.55937
|110>    H       39.60495         7.86984         4.58053
|111>    H       36.72281         7.68975         5.62771
|112>    H       38.17987         6.75430         6.23856
|113> *
|114>
|115>                          ****END OF INPUT****

CARTESIAN COORDINATES (ANGSTROEM)
---------------------------------
  C     13.101280   -4.043390    9.609100
  C     12.445550   -3.372310    8.856570
  C     11.706500   -2.573860    7.980650
  S     12.320320   -1.032770    7.455060
  C     10.892410   -0.772020    6.482380
  C     10.017920   -1.830400    6.583930
  C     10.477920   -2.845360    7.428920
  C     10.758660    0.385850    5.731790
  C     10.689710    1.411360    5.084990
  C     10.630270    2.582290    4.338930
  C      9.619310    2.894390    3.495690
  C      9.627520    4.066840    2.748130
  C      9.651710    5.081090    2.079870
  C      9.786490    6.240410    1.333870
  S     11.159030    7.285540    1.604140
  C     10.633600    8.347320    0.319530
  C      9.460880    7.901260   -0.250130
  C      8.983440    6.720450    0.321200
  C     11.418460    9.438760   -0.014180
  C     12.201540   10.333730   -0.262280
  C     13.168600   11.290850   -0.547970
  C     14.149630   11.579170    0.335620
  C     15.274860   12.410860    0.079050
  C     16.300350   12.658390    0.947480
  C     17.369890   13.391780    0.382960
  C     18.584070   13.756010    0.996210
  C     18.823610   13.559210    2.411520
  C     19.972730   13.167210    3.034840
  C     19.853810   13.154350    4.441920
  C     18.633670   13.542380    4.911880
  S     17.587480   13.927100    3.587470
  C     18.167750   13.656110    6.317120
  Cl    21.155620   12.684090    5.467070
  C     19.546820   14.326530    0.170090
  C     19.319930   14.634310   -1.194720
  C     18.068770   14.354880   -1.782630
  C     17.140580   13.696520   -0.981830
  S     15.573920   13.129800   -1.493810
  C     17.754940   14.728820   -3.147100
  C     17.035580   14.030940   -4.073590
  C     16.872270   14.738420   -5.284540
  C     17.445660   15.975710   -5.300880
  S     18.222320   16.284800   -3.784720
  C     17.460180   16.983200   -6.391560
  Cl    16.014430   14.076510   -6.623920
  C     20.481740   15.152800   -1.820030
  C     21.552750   15.248440   -0.980820
  S     21.165410   14.741740    0.657560
  C     22.869250   15.574230   -1.272350
  C     24.051060   15.769000   -1.470480
  C     25.421710   15.865630   -1.651290
  S     26.476120   15.086300   -0.498290
  C     27.876980   15.555880   -1.429160
  C     27.517760   16.285200   -2.542290
  C     26.137590   16.457230   -2.668130
  C     29.133940   15.139860   -1.021490
  C     30.184910   14.688450   -0.611520
  C     31.364530   14.121980   -0.145480
  C     32.570760   14.255110   -0.743610
  C     33.701410   13.610380   -0.254230
  C     34.674230   13.020650    0.171440
  C     35.740850   12.304470    0.689670
  S     35.497000   11.234140    2.049500
  C     37.179220   10.775870    2.020200
  C     37.860050   11.427830    1.016080
  C     37.052130   12.286370    0.267590
  C     37.674260    9.851250    2.930890
  C     38.060060    9.033820    3.737890
  C     38.545630    8.087370    4.651320
  C     37.776500    7.478750    5.552460
  H     13.658820   -4.641690   10.265550
  H      9.079530   -1.859480    6.059130
  H      9.937410   -3.752230    7.634920
  H     11.465120    3.263350    4.454700
  H      8.777240    2.226010    3.368630
  H      8.976120    8.421610   -1.057160
  H      8.086040    6.216960    0.007730
  H     13.141610   11.763330   -1.521740
  H     14.134120   11.110940    1.311750
  H     16.301590   12.284630    1.954840
  H     20.865750   12.861390    2.522660
  H     18.942320   13.294800    6.988950
  H     17.261600   13.071470    6.470710
  H     17.943040   14.693670    6.564270
  H     16.661290   13.035570   -3.924460
  H     16.998620   16.564010   -7.282240
  H     18.481140   17.281770   -6.625970
  H     16.909040   17.876240   -6.096720
  H     20.544160   15.406230   -2.862170
  H     28.240160   16.668400   -3.240870
  H     25.665270   16.989730   -3.474550
  H     31.273950   13.519750    0.751100
  H     32.685400   14.857520   -1.635580
  H     38.910070   11.277220    0.837750
  H     37.402120   12.878650   -0.559370
  H     39.604950    7.869840    4.580530
  H     36.722810    7.689750    5.627710
  H     38.179870    6.754300    6.238560

 Total Charge           Charge          ....    0
 Multiplicity           Mult            ....    1
 Number of Electrons    NEL             ....  550
 Basis Dimension        Dim             .... 1160

ORBITAL ENERGIES
----------------

  NO   OCC          E(Eh)            E(eV)
   0   2.0000    -101.581570     -2764.1750
   1   2.0000    -101.581250     -2764.1663
   2   2.0000     -88.960799     -2420.7464
   3   2.0000     -88.960596     -2420.7409
   4   2.0000     -88.958588     -2420.6863
   5   2.0000     -88.958175     -2420.6750
   6   2.0000     -88.956226     -2420.6220
   7   2.0000     -88.956160     -2420.6202
   8   2.0000     -88.952477     -2420.5200
   9   2.0000     -88.950099     -2420.4552
  10   2.0000     -10.318258      -280.7741
  11   2.0000     -10.318025      -280.7677
  12   2.0000     -10.317292      -280.7478
  13   2.0000     -10.316618      -280.7295
  14   2.0000     -10.316425      -280.7242
  15   2.0000     -10.316099      -280.7153
  16   2.0000     -10.315377      -280.6957
  17   2.0000     -10.315266      -280.6926
  18   2.0000     -10.315179      -280.6903
  19   2.0000     -10.314120      -280.6615
  20   2.0000     -10.314086      -280.6606
  21   2.0000     -10.306348      -280.4500
  22   2.0000     -10.305814      -280.4355
  23   2.0000     -10.305540      -280.4280
  24   2.0000     -10.305448      -280.4255
  25   2.0000     -10.305290      -280.4212
  26   2.0000     -10.302351      -280.3412
  27   2.0000     -10.302215      -280.3375
  28   2.0000     -10.298766      -280.2437
  29   2.0000     -10.298176      -280.2276
  30   2.0000     -10.298175      -280.2276
  31   2.0000     -10.298072      -280.2248
  32   2.0000     -10.297438      -280.2075
  33   2.0000     -10.297045      -280.1968
  34   2.0000     -10.294352      -280.1235
  35   2.0000     -10.291031      -280.0332
  36   2.0000     -10.289772      -279.9989
  37   2.0000     -10.289659      -279.9958
  38   2.0000     -10.288409      -279.9618
  39   2.0000     -10.284528      -279.8562
  40   2.0000     -10.282521      -279.8016
  41   2.0000     -10.281896      -279.7846
  42   2.0000     -10.281777      -279.7814
  43   2.0000     -10.280489      -279.7463
  44   2.0000     -10.280138      -279.7368
  45   2.0000     -10.280053      -279.7345
  46   2.0000     -10.279905      -279.7304
  47   2.0000     -10.279278      -279.7134
  48   2.0000     -10.278865      -279.7021
  49   2.0000     -10.278720      -279.6982
  50   2.0000     -10.278483      -279.6917
  51   2.0000     -10.277825      -279.6738
  52   2.0000     -10.277749      -279.6718
  53   2.0000     -10.277403      -279.6623
  54   2.0000     -10.277292      -279.6593
  55   2.0000     -10.277025      -279.6521
  56   2.0000     -10.276911      -279.6490
  57   2.0000     -10.276896      -279.6485
  58   2.0000     -10.276493      -279.6376
  59   2.0000     -10.276204      -279.6297
  60   2.0000     -10.275609      -279.6135
  61   2.0000     -10.275469      -279.6097
  62   2.0000     -10.275121      -279.6002
  63   2.0000     -10.275108      -279.5999
  64   2.0000     -10.274421      -279.5812
  65   2.0000     -10.274295      -279.5778
  66   2.0000     -10.273769      -279.5635
  67   2.0000     -10.273190      -279.5477
  68   2.0000     -10.270923      -279.4860
  69   2.0000     -10.270151      -279.4650
  70   2.0000      -9.536345      -259.4971
  71   2.0000      -9.535978      -259.4871
  72   2.0000      -8.056404      -219.2259
  73   2.0000      -8.056234      -219.2213
  74   2.0000      -8.054142      -219.1644
  75   2.0000      -8.053709      -219.1526
  76   2.0000      -8.051874      -219.1026
  77   2.0000      -8.051843      -219.1018
  78   2.0000      -8.047677      -218.9884
  79   2.0000      -8.045366      -218.9255
  80   2.0000      -7.306579      -198.8221
  81   2.0000      -7.306234      -198.8127
  82   2.0000      -7.296419      -198.5456
  83   2.0000      -7.296344      -198.5436
  84   2.0000      -7.296049      -198.5356
  85   2.0000      -7.295971      -198.5335
  86   2.0000      -6.025812      -163.9707
  87   2.0000      -6.025611      -163.9652
  88   2.0000      -6.023511      -163.9081
  89   2.0000      -6.023062      -163.8959
  90   2.0000      -6.021538      -163.8544
  91   2.0000      -6.021344      -163.8491
  92   2.0000      -6.021202      -163.8452
  93   2.0000      -6.021151      -163.8439
  94   2.0000      -6.019289      -163.7932
  95   2.0000      -6.018862      -163.7816
  96   2.0000      -6.018305      -163.7664
  97   2.0000      -6.018208      -163.7638
  98   2.0000      -6.017461      -163.7434
  99   2.0000      -6.017014      -163.7313
 100   2.0000      -6.017008      -163.7311
 101   2.0000      -6.016096      -163.7063
 102   2.0000      -6.015677      -163.6949
 103   2.0000      -6.015014      -163.6769
 104   2.0000      -6.013901      -163.6466
 105   2.0000      -6.013897      -163.6464
 106   2.0000      -6.013128      -163.6255
 107   2.0000      -6.010912      -163.5652
 108   2.0000      -6.008919      -163.5110
 109   2.0000      -6.006699      -163.4506
 110   2.0000      -1.012247       -27.5446
 111   2.0000      -1.000129       -27.2149
 112   2.0000      -0.993620       -27.0378
 113   2.0000      -0.988575       -26.9005
 114   2.0000      -0.987559       -26.8729
 115   2.0000      -0.985817       -26.8255
 116   2.0000      -0.984995       -26.8031
 117   2.0000      -0.979748       -26.6603
 118   2.0000      -0.942726       -25.6529
 119   2.0000      -0.940118       -25.5819
 120   2.0000      -0.923476       -25.1291
 121   2.0000      -0.915882       -24.9224
 122   2.0000      -0.915660       -24.9164
 123   2.0000      -0.900778       -24.5114
 124   2.0000      -0.898227       -24.4420
 125   2.0000      -0.894718       -24.3465
 126   2.0000      -0.886025       -24.1100
 127   2.0000      -0.883364       -24.0375
 128   2.0000      -0.875442       -23.8220
 129   2.0000      -0.872376       -23.7385
 130   2.0000      -0.861013       -23.4293
 131   2.0000      -0.855413       -23.2770
 132   2.0000      -0.849651       -23.1202
 133   2.0000      -0.847996       -23.0752
 134   2.0000      -0.840861       -22.8810
 135   2.0000      -0.839712       -22.8497
 136   2.0000      -0.837406       -22.7870
 137   2.0000      -0.833675       -22.6855
 138   2.0000      -0.830170       -22.5901
 139   2.0000      -0.828682       -22.5496
 140   2.0000      -0.821445       -22.3526
 141   2.0000      -0.814065       -22.1518
 142   2.0000      -0.807211       -21.9653
 143   2.0000      -0.806603       -21.9488
 144   2.0000      -0.805392       -21.9158
 145   2.0000      -0.795648       -21.6507
 146   2.0000      -0.793926       -21.6038
 147   2.0000      -0.786866       -21.4117
 148   2.0000      -0.778365       -21.1804
 149   2.0000      -0.777784       -21.1646
 150   2.0000      -0.748309       -20.3625
 151   2.0000      -0.744435       -20.2571
 152   2.0000      -0.738333       -20.0911
 153   2.0000      -0.731789       -19.9130
 154   2.0000      -0.711358       -19.3570
 155   2.0000      -0.705034       -19.1850
 156   2.0000      -0.697957       -18.9924
 157   2.0000      -0.696075       -18.9412
 158   2.0000      -0.686038       -18.6680
 159   2.0000      -0.678737       -18.4694
 160   2.0000      -0.672692       -18.3049
 161   2.0000      -0.666901       -18.1473
 162   2.0000      -0.663034       -18.0421
 163   2.0000      -0.660232       -17.9658
 164   2.0000      -0.657309       -17.8863
 165   2.0000      -0.655166       -17.8280
 166   2.0000      -0.650680       -17.7059
 167   2.0000      -0.638847       -17.3839
 168   2.0000      -0.628749       -17.1091
 169   2.0000      -0.619907       -16.8685
 170   2.0000      -0.616536       -16.7768
 171   2.0000      -0.614917       -16.7327
 172   2.0000      -0.613486       -16.6938
 173   2.0000      -0.612155       -16.6576
 174   2.0000      -0.606191       -16.4953
 175   2.0000      -0.600019       -16.3274
 176   2.0000      -0.598304       -16.2807
 177   2.0000      -0.596808       -16.2400
 178   2.0000      -0.594384       -16.1740
 179   2.0000      -0.587769       -15.9940
 180   2.0000      -0.580328       -15.7915
 181   2.0000      -0.579898       -15.7798
 182   2.0000      -0.576235       -15.6802
 183   2.0000      -0.567613       -15.4455
 184   2.0000      -0.566999       -15.4288
 185   2.0000      -0.553149       -15.0520
 186   2.0000      -0.540945       -14.7199
 187   2.0000      -0.534654       -14.5487
 188   2.0000      -0.531626       -14.4663
 189   2.0000      -0.530693       -14.4409
 190   2.0000      -0.530292       -14.4300
 191   2.0000      -0.526445       -14.3253
 192   2.0000      -0.526035       -14.3141
 193   2.0000      -0.521282       -14.1848
 194   2.0000      -0.520831       -14.1725
 195   2.0000      -0.517477       -14.0813
 196   2.0000      -0.513271       -13.9668
 197   2.0000      -0.511742       -13.9252
 198   2.0000      -0.507758       -13.8168
 199   2.0000      -0.505008       -13.7420
 200   2.0000      -0.503819       -13.7096
 201   2.0000      -0.501878       -13.6568
 202   2.0000      -0.500999       -13.6329
 203   2.0000      -0.493389       -13.4258
 204   2.0000      -0.490787       -13.3550
 205   2.0000      -0.490071       -13.3355
 206   2.0000      -0.488463       -13.2918
 207   2.0000      -0.487699       -13.2710
 208   2.0000      -0.487345       -13.2613
 209   2.0000      -0.487272       -13.2593
 210   2.0000      -0.486570       -13.2402
 211   2.0000      -0.483544       -13.1579
 212   2.0000      -0.482988       -13.1428
 213   2.0000      -0.480325       -13.0703
 214   2.0000      -0.479820       -13.0566
 215   2.0000      -0.478379       -13.0174
 216   2.0000      -0.477179       -12.9847
 217   2.0000      -0.474576       -12.9139
 218   2.0000      -0.470114       -12.7924
 219   2.0000      -0.466504       -12.6942
 220   2.0000      -0.463123       -12.6022
 221   2.0000      -0.461628       -12.5615
 222   2.0000      -0.452475       -12.3125
 223   2.0000      -0.451090       -12.2748
 224   2.0000      -0.448812       -12.2128
 225   2.0000      -0.446543       -12.1511
 226   2.0000      -0.445159       -12.1134
 227   2.0000      -0.438434       -11.9304
 228   2.0000      -0.433088       -11.7849
 229   2.0000      -0.429286       -11.6815
 230   2.0000      -0.428778       -11.6676
 231   2.0000      -0.427495       -11.6327
 232   2.0000      -0.426542       -11.6068
 233   2.0000      -0.426342       -11.6014
 234   2.0000      -0.421975       -11.4825
 235   2.0000      -0.420923       -11.4539
 236   2.0000      -0.419160       -11.4059
 237   2.0000      -0.417942       -11.3728
 238   2.0000      -0.413122       -11.2416
 239   2.0000      -0.409528       -11.1438
 240   2.0000      -0.408612       -11.1189
 241   2.0000      -0.401456       -10.9242
 242   2.0000      -0.394951       -10.7472
 243   2.0000      -0.386282       -10.5113
 244   2.0000      -0.379001       -10.3131
 245   2.0000      -0.377092       -10.2612
 246   2.0000      -0.374077       -10.1792
 247   2.0000      -0.373494       -10.1633
 248   2.0000      -0.359560        -9.7841
 249   2.0000      -0.356833        -9.7099
 250   2.0000      -0.354288        -9.6407
 251   2.0000      -0.352346        -9.5878
 252   2.0000      -0.348498        -9.4831
 253   2.0000      -0.346316        -9.4237
 254   2.0000      -0.342916        -9.3312
 255   2.0000      -0.341151        -9.2832
 256   2.0000      -0.337126        -9.1737
 257   2.0000      -0.336725        -9.1627
 258   2.0000      -0.329459        -8.9650
 259   2.0000      -0.327952        -8.9240
 260   2.0000      -0.327113        -8.9012
 261   2.0000      -0.326292        -8.8789
 262   2.0000      -0.325316        -8.8523
 263   2.0000      -0.323300        -8.7975
 264   2.0000      -0.316229        -8.6050
 265   2.0000      -0.312515        -8.5040
 266   2.0000      -0.307861        -8.3773
 267   2.0000      -0.300075        -8.1655
 268   2.0000      -0.292612        -7.9624
 269   2.0000      -0.291716        -7.9380
 270   2.0000      -0.271463        -7.3869
 271   2.0000      -0.264883        -7.2078
 272   2.0000      -0.248883        -6.7724
 273   2.0000      -0.240240        -6.5373
 274   2.0000      -0.231067        -6.2877
 275   0.0000      -0.071867        -1.9556
 276   0.0000      -0.061220        -1.6659
 277   0.0000      -0.048479        -1.3192
 278   0.0000      -0.027360        -0.7445
 279   0.0000      -0.019458        -0.5295

MULLIKEN ATOMIC CHARGES
-----------------------
   0 C :   -0.441539
   1 C :    0.416945
   2 C :   -0.125484
   3 S :    0.190297
   4 C :   -0.150931
   5 C :    0.048705
   6 C :    0.059676
   7 C :    0.062029
   8 C :   -0.019598
   9 C :   -0.076348
  10 C :   -0.060503
  11 C :   -0.027690
  12 C :    0.059861
  13 C :   -0.145976
  14 S :    0.180449
  15 C :   -0.145101
  16 C :    0.049086
  17 C :    0.054575
  18 C :    0.062241
  19 C :   -0.031223
  20 C :   -0.073398
  21 C :    0.018831
  22 C :   -0.014591
  23 C :   -0.052417
  24 C :    0.078508
  25 C :    0.143965
  26 C :   -0.213629
  27 C :    0.033144
  28 C :    0.085364
  29 C :   -0.267418
  30 S :    0.137134
  31 C :    0.124748
  32 Cl:   -0.089365
  33 C :   -0.136557
  34 C :    0.061673
  35 C :    0.137565
  36 C :   -0.130269
  37 S :    0.099215
  38 C :   -0.214218
  39 C :    0.035766
  40 C :    0.084087
  41 C :   -0.266097
  42 S :    0.137873
  43 C :    0.122463
  44 Cl:   -0.090157
  45 C :   -0.007052
  46 C :   -0.124240
  47 S :    0.143201
  48 C :    0.021937
  49 C :    0.024535
  50 C :   -0.163886
  51 S :    0.188429
  52 C :   -0.145128
  53 C :    0.050712
  54 C :    0.050601
  55 C :    0.056035
  56 C :   -0.012007
  57 C :   -0.079002
  58 C :   -0.056062
  59 C :   -0.037627
  60 C :    0.070176
  61 C :   -0.148594
  62 S :    0.184753
  63 C :   -0.139266
  64 C :    0.045814
  65 C :    0.051579
  66 C :    0.087401
  67 C :   -0.078793
  68 C :   -0.088852
  69 C :    0.000838
  70 H :    0.007451
  71 H :   -0.007185
  72 H :   -0.006260
  73 H :    0.039147
  74 H :    0.035493
  75 H :   -0.006939
  76 H :   -0.007764
  77 H :    0.032881
  78 H :    0.005611
  79 H :   -0.012159
  80 H :   -0.003379
  81 H :    0.024391
  82 H :    0.030868
  83 H :    0.038190
  84 H :   -0.006577
  85 H :    0.024334
  86 H :    0.031541
  87 H :    0.038305
  88 H :   -0.007915
  89 H :   -0.006949
  90 H :   -0.006933
  91 H :    0.039566
  92 H :    0.034666
  93 H :   -0.007478
  94 H :   -0.007415
  95 H :    0.032782
  96 H :    0.032657
  97 H :    0.031880
Sum of atomic charges:   -0.0000000

LOEWDIN ATOMIC CHARGES
----------------------
   0 C :   -0.044863
   1 C :   -0.037537
   2 C :   -0.186543
   3 S :    0.467681
   4 C :   -0.183539
   5 C :   -0.036210
   6 C :   -0.035861
   7 C :   -0.052519
   8 C :   -0.026791
   9 C :   -0.019778
  10 C :   -0.019467
  11 C :   -0.026545
  12 C :   -0.054885
  13 C :   -0.183439
  14 S :    0.460741
  15 C :   -0.180074
  16 C :   -0.038266
  17 C :   -0.036127
  18 C :   -0.060561
  19 C :   -0.022321
  20 C :   -0.044562
  21 C :   -0.010411
  22 C :   -0.153539
  23 C :   -0.053681
  24 C :   -0.043174
  25 C :   -0.054073
  26 C :   -0.171362
  27 C :   -0.076010
  28 C :   -0.177004
  29 C :   -0.198235
  30 S :    0.445464
  31 C :   -0.061042
  32 Cl:    0.128240
  33 C :   -0.143058
  34 C :   -0.043464
  35 C :   -0.053883
  36 C :   -0.139572
  37 S :    0.410488
  38 C :   -0.171236
  39 C :   -0.075774
  40 C :   -0.177138
  41 C :   -0.198390
  42 S :    0.445878
  43 C :   -0.061306
  44 Cl:    0.127096
  45 C :   -0.042244
  46 C :   -0.168587
  47 S :    0.431457
  48 C :   -0.045894
  49 C :   -0.042881
  50 C :   -0.183475
  51 S :    0.467279
  52 C :   -0.181331
  53 C :   -0.036482
  54 C :   -0.036857
  55 C :   -0.055246
  56 C :   -0.024661
  57 C :   -0.021069
  58 C :   -0.018437
  59 C :   -0.028150
  60 C :   -0.052789
  61 C :   -0.184764
  62 S :    0.462379
  63 C :   -0.181599
  64 C :   -0.038766
  65 C :   -0.035968
  66 C :   -0.061271
  67 C :   -0.022546
  68 C :   -0.043286
  69 C :   -0.013171
  70 H :    0.034655
  71 H :    0.035875
  72 H :    0.036574
  73 H :    0.049698
  74 H :    0.048105
  75 H :    0.036127
  76 H :    0.035878
  77 H :    0.039034
  78 H :    0.041587
  79 H :    0.021360
  80 H :    0.026666
  81 H :    0.034130
  82 H :    0.037840
  83 H :    0.040213
  84 H :    0.025859
  85 H :    0.033920
  86 H :    0.037887
  87 H :    0.040208
  88 H :    0.024947
  89 H :    0.036222
  90 H :    0.036288
  91 H :    0.050196
  92 H :    0.047853
  93 H :    0.035700
  94 H :    0.035823
  95 H :    0.044921
  96 H :    0.029728
  97 H :    0.027719

  Mayer bond orders larger than 0.100000
B(  0-C ,  1-C ) :   2.3205 B(  0-C , 70-H ) :   1.0944 B(  1-C ,  2-C ) :   0.9534
B(  1-C , 70-H ) :  -0.1051 B(  2-C ,  3-S ) :   1.1227 B(  2-C ,  4-C ) :   0.1101
B(  2-C ,  6-C ) :   1.5226 B(  3-S ,  4-C ) :   1.1129 B(  4-C ,  5-C ) :   1.5051
B(  4-C ,  7-C ) :   0.9697 B(  5-C ,  6-C ) :   1.2628 B(  5-C , 71-H ) :   0.9999
B(  6-C , 72-H ) :   0.9988 B(  7-C ,  8-C ) :   2.2916 B(  8-C ,  9-C ) :   1.0086
B(  9-C , 10-C ) :   1.7186 B(  9-C , 73-H ) :   0.9595 B( 10-C , 11-C ) :   1.0195
B( 10-C , 74-H ) :   0.9617 B( 11-C , 12-C ) :   2.2988 B( 12-C , 13-C ) :   0.9812
B( 13-C , 14-S ) :   1.1104 B( 13-C , 15-C ) :   0.1083 B( 13-C , 17-C ) :   1.4950
B( 14-S , 15-C ) :   1.1107 B( 15-C , 16-C ) :   1.4946 B( 15-C , 18-C ) :   0.9876
B( 16-C , 17-C ) :   1.2668 B( 16-C , 75-H ) :   1.0015 B( 17-C , 76-H ) :   1.0004
B( 18-C , 19-C ) :   2.3035 B( 19-C , 20-C ) :   1.0351 B( 20-C , 21-C ) :   1.6926
B( 20-C , 77-H ) :   0.9493 B( 21-C , 22-C ) :   1.1441 B( 21-C , 78-H ) :   0.9792
B( 22-C , 23-C ) :   1.5494 B( 22-C , 37-S ) :   1.0535 B( 23-C , 24-C ) :   1.1691
B( 23-C , 79-H ) :   0.9857 B( 24-C , 25-C ) :   1.2993 B( 24-C , 36-C ) :   1.2703
B( 25-C , 26-C ) :   0.9901 B( 25-C , 33-C ) :   1.4209 B( 26-C , 27-C ) :   1.5522
B( 26-C , 30-S ) :   1.1289 B( 27-C , 28-C ) :   1.2200 B( 27-C , 80-H ) :   0.9937
B( 28-C , 29-C ) :   1.6058 B( 28-C , 32-Cl) :   1.0056 B( 29-C , 30-S ) :   1.1287
B( 29-C , 31-C ) :   1.0832 B( 31-C , 81-H ) :   0.9437 B( 31-C , 82-H ) :   0.9478
B( 31-C , 83-H ) :   0.9490 B( 33-C , 34-C ) :   1.2758 B( 33-C , 47-S ) :   1.0628
B( 34-C , 35-C ) :   1.2850 B( 34-C , 45-C ) :   1.1780 B( 35-C , 36-C ) :   1.4319
B( 35-C , 38-C ) :   0.9907 B( 36-C , 37-S ) :   1.0607 B( 38-C , 39-C ) :   1.5540
B( 38-C , 42-S ) :   1.1299 B( 39-C , 40-C ) :   1.2190 B( 39-C , 84-H ) :   0.9930
B( 40-C , 41-C ) :   1.6076 B( 40-C , 44-Cl) :   1.0054 B( 41-C , 42-S ) :   1.1291
B( 41-C , 43-C ) :   1.0822 B( 43-C , 85-H ) :   0.9442 B( 43-C , 86-H ) :   0.9480
B( 43-C , 87-H ) :   0.9492 B( 45-C , 46-C ) :   1.5816 B( 45-C , 88-H ) :   0.9853
B( 46-C , 47-S ) :   1.0518 B( 46-C , 48-C ) :   0.9651 B( 48-C , 49-C ) :   2.3642
B( 49-C , 50-C ) :   0.9861 B( 50-C , 51-S ) :   1.1148 B( 50-C , 52-C ) :   0.1109
B( 50-C , 54-C ) :   1.4999 B( 51-S , 52-C ) :   1.1130 B( 52-C , 53-C ) :   1.4971
B( 52-C , 55-C ) :   0.9778 B( 53-C , 54-C ) :   1.2635 B( 53-C , 89-H ) :   1.0009
B( 54-C , 90-H ) :   1.0017 B( 55-C , 56-C ) :   2.2949 B( 56-C , 57-C ) :   1.0115
B( 57-C , 58-C ) :   1.7165 B( 57-C , 91-H ) :   0.9598 B( 58-C , 59-C ) :   1.0214
B( 58-C , 92-H ) :   0.9618 B( 59-C , 60-C ) :   2.2970 B( 60-C , 61-C ) :   0.9756
B( 61-C , 62-S ) :   1.1084 B( 61-C , 63-C ) :   0.1082 B( 61-C , 65-C ) :   1.4984
B( 62-S , 63-C ) :   1.1138 B( 63-C , 64-C ) :   1.5087 B( 63-C , 66-C ) :   0.9603
B( 64-C , 65-C ) :   1.2657 B( 64-C , 93-H ) :   0.9999 B( 65-C , 94-H ) :   1.0011
B( 66-C , 67-C ) :   2.3579 B( 67-C , 68-C ) :   1.0179 B( 68-C , 69-C ) :   1.9313
B( 68-C , 95-H ) :   0.9605 B( 69-C , 96-H ) :   0.9639 B( 69-C , 97-H ) :   0.9554

-----------------------------------------------------------------------------
         ABSORPTION SPECTRUM VIA TRANSITION ELECTRIC DIPOLE MOMENTS
-----------------------------------------------------------------------------
State   Energy  Wavelength   fosc         T2         TX        TY        TZ
        (cm-1)    (nm)                  (au**2)     (au)      (au)      (au)
-----------------------------------------------------------------------------
   0   21098.2    474.0   2.719825383  42.43967   5.80520   2.92768  -0.40987
   1   23578.3    424.1   2.662398649  37.17379   3.52852  -4.26423   2.55728
   2   24821.1    402.9   0.393944541   5.22504  -0.46453  -0.86829   2.06284
   3   27048.2    369.7   0.105599742   1.28529   1.03645   0.09631   0.44921
   4   27660.6    361.5   0.025362141   0.30186  -0.27152  -0.34274   0.33266
   5   29347.4    340.7   0.562707715   6.31233  -0.61032   1.36267  -2.02064
   6   29732.1    336.3   0.246114174   2.72512  -1.42036   0.62032  -0.56824
   7   30726.7    325.5   0.301783173   3.23337  -0.55559  -0.74744   1.53819
   8   31577.0    316.7   0.009193411   0.09585  -0.30721   0.02089  -0.03210
   9   32559.0    307.1   0.334484335   3.38205   1.66907   0.74756  -0.19343
  10   32938.7    303.6   0.148718374   1.48639   0.23846   0.67274  -0.98841
  11   33689.9    296.8   0.039267028   0.38371   0.14125  -0.52739   0.29260
  12   34081.3    293.4   0.030740119   0.29694  -0.06041   0.20653  -0.50063
  13   34348.6    291.1   0.048604421   0.46585   0.24862   0.43333  -0.46504
  14   34718.7    288.0   0.021628369   0.20509  -0.14353  -0.16972   0.39457
  15   34953.8    286.1   0.025593515   0.24105   0.35525   0.11849  -0.31750
  16   35319.6    283.1   0.084524324   0.78785   0.33626  -0.08580   0.81695
  17   35871.8    278.8   0.038379630   0.35223  -0.26882   0.49500  -0.18692
  18   36897.5    271.0   0.028674379   0.25584   0.08162   0.30896  -0.39208
  19   37431.1    267.2   0.035570582   0.31285  -0.30631  -0.38181   0.27064
  20   37521.5    266.5   0.010618837   0.09317  -0.21140   0.11807  -0.18585
  21   37929.6    263.6   0.006059015   0.05259   0.04336   0.18455   0.12904
  22   38343.5    260.8   0.070181100   0.60257   0.50518   0.28332  -0.51680
  23   38990.4    256.5   0.039853722   0.33650   0.45522   0.34185   0.11140
  24   39365.4    254.0   0.026958664   0.22545  -0.43837  -0.09668  -0.15473
  25   39547.8    252.9   0.012248305   0.10196  -0.29948  -0.06616   0.08884
  26   39636.4    252.3   0.024731013   0.20541  -0.09029   0.21633  -0.38789
  27   39914.4    250.5   0.004398928   0.03628   0.16222   0.09962   0.00651

FINAL SINGLE POINT ENERGY     -6404.417093561604

DIPOLE MOMENT
-------------
                                X             Y             Z
Electronic contribution:    -23.96594      19.60396     -11.22781
Nuclear contribution   :     24.08335     -19.59570      11.07015
                        -----------------------------------------
Total Dipole Moment    :      0.11741       0.00827      -0.15766
                        -----------------------------------------
Magnitude (a.u.)       :      0.19675
Magnitude (Debye)      :      0.50010

Rotational constants in cm-1:     0.000442     0.000175     0.000134
Rotational constants in MHz :    13.253127     5.260360     4.013354

                             ****ORCA TERMINATED NORMALLY****
TOTAL RUN TIME: 0 days 0 hours 7 minutes 31 seconds 871 msec
