                         Program Version 4.2.0 -  RELEASE  -
|  1> # ORCA input file
|  2> # SCF done       -180.997208935191          0.000649364160
|  3> ! CAM-B3LYP def2-SVP def2/J RIJCOSX Grid4 TightSCF
|  4> %maxcore 5000
|  5> %tddft
|  6>     Mode sTDDFT
|  7>     Ethresh 5.0
|  8>     maxcore 5000
|  9> end
| 10>
| 11> %pal
| 12>   nprocs 6
| 13>   end
| 14> * xyz 0 1
| 15>    C       -2.79788        -7.33769         0.90454
| 16>    C       -2.62026        -7.38412        -0.47252
| 17>    C       -1.50847        -6.73130        -1.11495
| 18>    N       -1.33911        -6.87032        -2.45409
| 19>    C       -2.21149        -7.53864        -3.12574
| 20>    C       -3.34644        -8.13642        -2.49582
| 21>    N       -3.52623        -8.06611        -1.22313
| 22>    F       -4.24842        -8.78670        -3.22384
| 23>    F       -2.02804        -7.65524        -4.43910
| 24>    C       -0.56661        -5.99483        -0.37579
| 25>    C       -0.74929        -5.95509         1.01666
| 26>    C       -1.86521        -6.62966         1.65196
| 27>    N       -1.84885        -6.45819         2.98162
| 28>    S       -0.59006        -5.55262         3.36640
| 29>    N        0.00726        -5.31015         1.90803
| 30>    C        0.58211        -5.36862        -0.98691
| 31>    N        1.76544        -5.43491        -0.42040
| 32>    C        2.62584        -4.84685        -1.28830
| 33>    C        1.92862        -4.39048        -2.49450
| 34>    C        2.87379        -3.76633        -3.42933
| 35>    O        2.66103        -3.31448        -4.53624
| 36>    C        4.15327        -3.84611        -2.69651
| 37>    C        3.95548        -4.52335        -1.39750
| 38>    N        5.12428        -4.58924        -0.71102
| 39>    C        6.00680        -4.00245        -1.47903
| 40>    C        5.46606        -3.50616        -2.73196
| 41>    C        0.59778        -4.67861        -2.29897
| 42>    C       -0.53906        -4.37202        -3.09021
| 43>    C       -0.43343        -4.01353        -4.39558
| 44>    C       -1.51588        -3.73129        -5.25994
| 45>    N       -1.28262        -3.43754        -6.58554
| 46>    C       -2.47287        -3.23133        -7.20286
| 47>    C       -3.06943        -2.92916        -8.41424
| 48>    C       -4.45800        -2.90169        -8.17051
| 49>    N       -4.68970        -3.18619        -6.83745
| 50>    C       -3.49975        -3.39509        -6.22378
| 51>    C       -2.90033        -3.70982        -5.01365
| 52>    C       -5.52172        -2.64275        -9.05198
| 53>    C       -5.39898        -2.40148       -10.39131
| 54>    C       -6.52720        -2.14652       -11.19675
| 55>    N       -7.73443        -1.93225       -10.66395
| 56>    C       -8.54168        -1.61666       -11.68276
| 57>    C       -7.81515        -1.62048       -12.96310
| 58>    C       -8.71885        -1.28814       -14.08137
| 59>    O       -8.46244        -1.23030       -15.26306
| 60>    C      -10.00079        -1.06332       -13.39194
| 61>    C       -9.85368        -1.27582       -11.93846
| 62>    N      -11.03283        -1.08808       -11.30458
| 63>    C      -11.88754        -0.78039       -12.25636
| 64>    C      -11.31249        -0.75278       -13.57950
| 65>    C       -6.52949        -1.99121       -12.67415
| 66>    C       -5.46821        -2.20713       -13.60418
| 67>    C       -4.46187        -3.09031       -13.41977
| 68>    C       -3.39707        -3.38662       -14.33087
| 69>    C       -3.10146        -2.70954       -15.53388
| 70>    C       -2.03988        -3.15450       -16.40288
| 71>    N       -1.80005        -2.49696       -17.57020
| 72>    C       -2.52337        -1.47402       -17.86301
| 73>    C       -3.54752        -1.00747       -16.98456
| 74>    N       -3.81154        -1.60892       -15.87511
| 75>    F       -4.24410         0.08534       -17.28155
| 76>    F       -2.28134        -0.84061       -19.00714
| 77>    C       -1.23685        -4.24416       -16.09486
| 78>    C       -1.47861        -4.89865       -14.89316
| 79>    C       -2.54641        -4.47061       -14.01709
| 80>    N       -2.60954        -5.22333       -12.91357
| 81>    S       -1.46165        -6.34003       -12.98111
| 82>    N       -0.81543        -5.94893       -14.38992
| 83>    H       -3.63182        -7.84020         1.36406
| 84>    H        7.03387        -3.92508        -1.16725
| 85>    H        6.02255        -2.99177        -3.49036
| 86>    H       -1.50793        -4.43220        -2.61748
| 87>    H        0.55454        -3.95326        -4.83350
| 88>    H       -0.36502        -3.38793        -6.99574
| 89>    H       -2.59767        -2.74643        -9.35785
| 90>    H       -5.60380        -3.22885        -6.41981
| 91>    H       -3.37273        -3.89816        -4.07109
| 92>    H       -6.52501        -2.64689        -8.64621
| 93>    H       -4.42747        -2.39151       -10.85904
| 94>    H      -12.91658        -0.57819       -12.01414
| 95>    H      -11.83897        -0.52905       -14.48615
| 96>    H       -5.54476        -1.66555       -14.53617
| 97>    H       -4.45251        -3.71879       -12.53839
| 98>    H       -0.45969        -4.55857       -16.76933
| 99> *
|100>
|101>                          ****END OF INPUT****

CARTESIAN COORDINATES (ANGSTROEM)
---------------------------------
  C     -2.797880   -7.337690    0.904540
  C     -2.620260   -7.384120   -0.472520
  C     -1.508470   -6.731300   -1.114950
  N     -1.339110   -6.870320   -2.454090
  C     -2.211490   -7.538640   -3.125740
  C     -3.346440   -8.136420   -2.495820
  N     -3.526230   -8.066110   -1.223130
  F     -4.248420   -8.786700   -3.223840
  F     -2.028040   -7.655240   -4.439100
  C     -0.566610   -5.994830   -0.375790
  C     -0.749290   -5.955090    1.016660
  C     -1.865210   -6.629660    1.651960
  N     -1.848850   -6.458190    2.981620
  S     -0.590060   -5.552620    3.366400
  N      0.007260   -5.310150    1.908030
  C      0.582110   -5.368620   -0.986910
  N      1.765440   -5.434910   -0.420400
  C      2.625840   -4.846850   -1.288300
  C      1.928620   -4.390480   -2.494500
  C      2.873790   -3.766330   -3.429330
  O      2.661030   -3.314480   -4.536240
  C      4.153270   -3.846110   -2.696510
  C      3.955480   -4.523350   -1.397500
  N      5.124280   -4.589240   -0.711020
  C      6.006800   -4.002450   -1.479030
  C      5.466060   -3.506160   -2.731960
  C      0.597780   -4.678610   -2.298970
  C     -0.539060   -4.372020   -3.090210
  C     -0.433430   -4.013530   -4.395580
  C     -1.515880   -3.731290   -5.259940
  N     -1.282620   -3.437540   -6.585540
  C     -2.472870   -3.231330   -7.202860
  C     -3.069430   -2.929160   -8.414240
  C     -4.458000   -2.901690   -8.170510
  N     -4.689700   -3.186190   -6.837450
  C     -3.499750   -3.395090   -6.223780
  C     -2.900330   -3.709820   -5.013650
  C     -5.521720   -2.642750   -9.051980
  C     -5.398980   -2.401480  -10.391310
  C     -6.527200   -2.146520  -11.196750
  N     -7.734430   -1.932250  -10.663950
  C     -8.541680   -1.616660  -11.682760
  C     -7.815150   -1.620480  -12.963100
  C     -8.718850   -1.288140  -14.081370
  O     -8.462440   -1.230300  -15.263060
  C    -10.000790   -1.063320  -13.391940
  C     -9.853680   -1.275820  -11.938460
  N    -11.032830   -1.088080  -11.304580
  C    -11.887540   -0.780390  -12.256360
  C    -11.312490   -0.752780  -13.579500
  C     -6.529490   -1.991210  -12.674150
  C     -5.468210   -2.207130  -13.604180
  C     -4.461870   -3.090310  -13.419770
  C     -3.397070   -3.386620  -14.330870
  C     -3.101460   -2.709540  -15.533880
  C     -2.039880   -3.154500  -16.402880
  N     -1.800050   -2.496960  -17.570200
  C     -2.523370   -1.474020  -17.863010
  C     -3.547520   -1.007470  -16.984560
  N     -3.811540   -1.608920  -15.875110
  F     -4.244100    0.085340  -17.281550
  F     -2.281340   -0.840610  -19.007140
  C     -1.236850   -4.244160  -16.094860
  C     -1.478610   -4.898650  -14.893160
  C     -2.546410   -4.470610  -14.017090
  N     -2.609540   -5.223330  -12.913570
  S     -1.461650   -6.340030  -12.981110
  N     -0.815430   -5.948930  -14.389920
  H     -3.631820   -7.840200    1.364060
  H      7.033870   -3.925080   -1.167250
  H      6.022550   -2.991770   -3.490360
  H     -1.507930   -4.432200   -2.617480
  H      0.554540   -3.953260   -4.833500
  H     -0.365020   -3.387930   -6.995740
  H     -2.597670   -2.746430   -9.357850
  H     -5.603800   -3.228850   -6.419810
  H     -3.372730   -3.898160   -4.071090
  H     -6.525010   -2.646890   -8.646210
  H     -4.427470   -2.391510  -10.859040
  H    -12.916580   -0.578190  -12.014140
  H    -11.838970   -0.529050  -14.486150
  H     -5.544760   -1.665550  -14.536170
  H     -4.452510   -3.718790  -12.538390
  H     -0.459690   -4.558570  -16.769330

 Total Charge           Charge          ....    0
 Multiplicity           Mult            ....    1
 Number of Electrons    NEL             ....  474
 Basis Dimension        Dim             .... 1040

ORBITAL ENERGIES
----------------

  NO   OCC          E(Eh)            E(eV)
   0   2.0000     -89.048524     -2423.1335
   1   2.0000     -89.035640     -2422.7829
   2   2.0000     -24.824878      -675.5193
   3   2.0000     -24.823214      -675.4740
   4   2.0000     -24.806031      -675.0064
   5   2.0000     -24.805760      -674.9991
   6   2.0000     -19.215490      -522.8801
   7   2.0000     -19.189671      -522.1775
   8   2.0000     -14.472645      -393.8207
   9   2.0000     -14.471274      -393.7834
  10   2.0000     -14.464607      -393.6020
  11   2.0000     -14.462907      -393.5557
  12   2.0000     -14.454037      -393.3143
  13   2.0000     -14.451901      -393.2562
  14   2.0000     -14.444405      -393.0522
  15   2.0000     -14.444018      -393.0417
  16   2.0000     -14.443368      -393.0240
  17   2.0000     -14.441056      -392.9611
  18   2.0000     -14.416877      -392.3032
  19   2.0000     -14.408635      -392.0789
  20   2.0000     -14.386598      -391.4792
  21   2.0000     -14.382385      -391.3646
  22   2.0000     -10.443053      -284.1699
  23   2.0000     -10.440279      -284.0944
  24   2.0000     -10.422335      -283.6062
  25   2.0000     -10.421635      -283.5871
  26   2.0000     -10.374899      -282.3153
  27   2.0000     -10.361565      -281.9525
  28   2.0000     -10.355667      -281.7920
  29   2.0000     -10.351246      -281.6717
  30   2.0000     -10.350783      -281.6591
  31   2.0000     -10.347338      -281.5654
  32   2.0000     -10.345191      -281.5070
  33   2.0000     -10.335975      -281.2562
  34   2.0000     -10.335730      -281.2495
  35   2.0000     -10.334901      -281.2270
  36   2.0000     -10.329597      -281.0826
  37   2.0000     -10.328804      -281.0610
  38   2.0000     -10.327623      -281.0289
  39   2.0000     -10.326103      -280.9875
  40   2.0000     -10.325651      -280.9752
  41   2.0000     -10.324065      -280.9321
  42   2.0000     -10.323640      -280.9205
  43   2.0000     -10.318877      -280.7909
  44   2.0000     -10.317312      -280.7483
  45   2.0000     -10.313927      -280.6562
  46   2.0000     -10.313019      -280.6315
  47   2.0000     -10.310366      -280.5593
  48   2.0000     -10.308517      -280.5090
  49   2.0000     -10.306029      -280.4413
  50   2.0000     -10.301177      -280.3093
  51   2.0000     -10.299122      -280.2533
  52   2.0000     -10.297124      -280.1990
  53   2.0000     -10.294205      -280.1195
  54   2.0000     -10.291210      -280.0381
  55   2.0000     -10.290734      -280.0251
  56   2.0000     -10.290456      -280.0175
  57   2.0000     -10.289332      -279.9870
  58   2.0000     -10.287813      -279.9456
  59   2.0000     -10.286492      -279.9097
  60   2.0000     -10.284061      -279.8435
  61   2.0000     -10.279218      -279.7117
  62   2.0000     -10.278924      -279.7037
  63   2.0000     -10.278257      -279.6856
  64   2.0000     -10.275933      -279.6223
  65   2.0000     -10.275003      -279.5971
  66   2.0000     -10.265173      -279.3296
  67   2.0000     -10.264516      -279.3117
  68   2.0000      -8.140012      -221.5010
  69   2.0000      -8.127035      -221.1479
  70   2.0000      -6.110829      -166.2841
  71   2.0000      -6.103347      -166.0805
  72   2.0000      -6.102974      -166.0704
  73   2.0000      -6.097938      -165.9333
  74   2.0000      -6.090271      -165.7247
  75   2.0000      -6.090103      -165.7201
  76   2.0000      -1.352547       -36.8047
  77   2.0000      -1.338133       -36.4125
  78   2.0000      -1.334618       -36.3168
  79   2.0000      -1.320257       -35.9260
  80   2.0000      -1.145304       -31.1653
  81   2.0000      -1.131065       -30.7778
  82   2.0000      -1.128960       -30.7206
  83   2.0000      -1.123015       -30.5588
  84   2.0000      -1.105359       -30.0784
  85   2.0000      -1.104589       -30.0574
  86   2.0000      -1.102056       -29.9885
  87   2.0000      -1.083053       -29.4714
  88   2.0000      -1.068546       -29.0766
  89   2.0000      -1.063431       -28.9374
  90   2.0000      -1.056763       -28.7560
  91   2.0000      -1.047726       -28.5101
  92   2.0000      -1.035539       -28.1785
  93   2.0000      -1.027657       -27.9640
  94   2.0000      -0.996100       -27.1053
  95   2.0000      -0.983978       -26.7754
  96   2.0000      -0.980458       -26.6796
  97   2.0000      -0.961696       -26.1691
  98   2.0000      -0.938319       -25.5330
  99   2.0000      -0.923326       -25.1250
 100   2.0000      -0.921927       -25.0869
 101   2.0000      -0.907635       -24.6980
 102   2.0000      -0.900479       -24.5033
 103   2.0000      -0.892013       -24.2729
 104   2.0000      -0.889459       -24.2034
 105   2.0000      -0.881868       -23.9968
 106   2.0000      -0.876941       -23.8628
 107   2.0000      -0.872620       -23.7452
 108   2.0000      -0.866258       -23.5721
 109   2.0000      -0.860442       -23.4138
 110   2.0000      -0.850978       -23.1563
 111   2.0000      -0.834945       -22.7200
 112   2.0000      -0.820366       -22.3233
 113   2.0000      -0.815317       -22.1859
 114   2.0000      -0.805861       -21.9286
 115   2.0000      -0.800818       -21.7914
 116   2.0000      -0.794400       -21.6167
 117   2.0000      -0.779414       -21.2089
 118   2.0000      -0.769107       -20.9285
 119   2.0000      -0.760685       -20.6993
 120   2.0000      -0.754765       -20.5382
 121   2.0000      -0.749868       -20.4049
 122   2.0000      -0.746620       -20.3166
 123   2.0000      -0.734664       -19.9912
 124   2.0000      -0.726577       -19.7712
 125   2.0000      -0.725026       -19.7290
 126   2.0000      -0.711059       -19.3489
 127   2.0000      -0.707815       -19.2606
 128   2.0000      -0.697336       -18.9755
 129   2.0000      -0.694289       -18.8926
 130   2.0000      -0.690939       -18.8014
 131   2.0000      -0.685503       -18.6535
 132   2.0000      -0.673941       -18.3389
 133   2.0000      -0.673160       -18.3176
 134   2.0000      -0.669995       -18.2315
 135   2.0000      -0.668289       -18.1851
 136   2.0000      -0.661567       -18.0021
 137   2.0000      -0.653985       -17.7958
 138   2.0000      -0.649623       -17.6771
 139   2.0000      -0.644477       -17.5371
 140   2.0000      -0.640379       -17.4256
 141   2.0000      -0.637191       -17.3388
 142   2.0000      -0.635619       -17.2961
 143   2.0000      -0.629187       -17.1211
 144   2.0000      -0.627900       -17.0860
 145   2.0000      -0.620516       -16.8851
 146   2.0000      -0.617943       -16.8151
 147   2.0000      -0.610835       -16.6217
 148   2.0000      -0.609068       -16.5736
 149   2.0000      -0.607252       -16.5242
 150   2.0000      -0.603595       -16.4246
 151   2.0000      -0.597690       -16.2640
 152   2.0000      -0.582216       -15.8429
 153   2.0000      -0.579519       -15.7695
 154   2.0000      -0.578283       -15.7359
 155   2.0000      -0.573742       -15.6123
 156   2.0000      -0.570459       -15.5230
 157   2.0000      -0.566704       -15.4208
 158   2.0000      -0.561498       -15.2791
 159   2.0000      -0.559080       -15.2133
 160   2.0000      -0.556527       -15.1439
 161   2.0000      -0.555120       -15.1056
 162   2.0000      -0.551524       -15.0077
 163   2.0000      -0.549776       -14.9602
 164   2.0000      -0.549406       -14.9501
 165   2.0000      -0.547594       -14.9008
 166   2.0000      -0.545059       -14.8318
 167   2.0000      -0.544502       -14.8166
 168   2.0000      -0.537387       -14.6230
 169   2.0000      -0.529648       -14.4125
 170   2.0000      -0.529213       -14.4006
 171   2.0000      -0.528057       -14.3692
 172   2.0000      -0.526715       -14.3326
 173   2.0000      -0.525893       -14.3103
 174   2.0000      -0.523398       -14.2424
 175   2.0000      -0.523196       -14.2369
 176   2.0000      -0.519384       -14.1332
 177   2.0000      -0.516181       -14.0460
 178   2.0000      -0.513316       -13.9680
 179   2.0000      -0.508419       -13.8348
 180   2.0000      -0.505541       -13.7565
 181   2.0000      -0.503254       -13.6942
 182   2.0000      -0.500118       -13.6089
 183   2.0000      -0.497753       -13.5445
 184   2.0000      -0.492725       -13.4077
 185   2.0000      -0.491959       -13.3869
 186   2.0000      -0.487431       -13.2637
 187   2.0000      -0.484362       -13.1802
 188   2.0000      -0.482042       -13.1170
 189   2.0000      -0.478090       -13.0095
 190   2.0000      -0.476354       -12.9622
 191   2.0000      -0.473005       -12.8711
 192   2.0000      -0.469905       -12.7868
 193   2.0000      -0.467190       -12.7129
 194   2.0000      -0.464724       -12.6458
 195   2.0000      -0.461351       -12.5540
 196   2.0000      -0.459168       -12.4946
 197   2.0000      -0.455378       -12.3915
 198   2.0000      -0.451709       -12.2916
 199   2.0000      -0.449787       -12.2393
 200   2.0000      -0.448823       -12.2131
 201   2.0000      -0.444710       -12.1012
 202   2.0000      -0.439201       -11.9513
 203   2.0000      -0.434001       -11.8098
 204   2.0000      -0.431726       -11.7479
 205   2.0000      -0.421662       -11.4740
 206   2.0000      -0.421055       -11.4575
 207   2.0000      -0.420038       -11.4298
 208   2.0000      -0.409136       -11.1332
 209   2.0000      -0.407089       -11.0775
 210   2.0000      -0.405218       -11.0265
 211   2.0000      -0.401364       -10.9217
 212   2.0000      -0.397304       -10.8112
 213   2.0000      -0.386444       -10.5157
 214   2.0000      -0.380994       -10.3674
 215   2.0000      -0.379494       -10.3266
 216   2.0000      -0.374265       -10.1843
 217   2.0000      -0.360485        -9.8093
 218   2.0000      -0.359768        -9.7898
 219   2.0000      -0.358622        -9.7586
 220   2.0000      -0.356205        -9.6928
 221   2.0000      -0.348341        -9.4788
 222   2.0000      -0.347457        -9.4548
 223   2.0000      -0.339136        -9.2284
 224   2.0000      -0.337591        -9.1863
 225   2.0000      -0.333033        -9.0623
 226   2.0000      -0.332016        -9.0346
 227   2.0000      -0.331673        -9.0253
 228   2.0000      -0.323889        -8.8135
 229   2.0000      -0.320790        -8.7291
 230   2.0000      -0.309292        -8.4163
 231   2.0000      -0.308566        -8.3965
 232   2.0000      -0.304080        -8.2744
 233   2.0000      -0.302222        -8.2239
 234   2.0000      -0.288435        -7.8487
 235   2.0000      -0.262168        -7.1339
 236   2.0000      -0.231504        -6.2996
 237   0.0000      -0.125702        -3.4205
 238   0.0000      -0.105252        -2.8640
 239   0.0000      -0.096452        -2.6246
 240   0.0000      -0.089701        -2.4409
 241   0.0000      -0.053994        -1.4693

MULLIKEN ATOMIC CHARGES
-----------------------
   0 C :   -0.071124
   1 C :    0.006424
   2 C :   -0.057772
   3 N :    0.017039
   4 C :    0.145222
   5 C :    0.127339
   6 N :    0.016072
   7 F :   -0.136499
   8 F :   -0.135542
   9 C :    0.095395
  10 C :   -0.016454
  11 C :    0.091862
  12 N :   -0.269390
  13 S :    0.552008
  14 N :   -0.231934
  15 C :   -0.086461
  16 N :   -0.008609
  17 C :    0.086661
  18 C :   -0.183339
  19 C :    0.215433
  20 O :   -0.153731
  21 C :   -0.012813
  22 C :   -0.037632
  23 N :   -0.052193
  24 C :    0.087506
  25 C :   -0.096265
  26 C :    0.092433
  27 C :   -0.002913
  28 C :    0.004942
  29 C :    0.116425
  30 N :   -0.028195
  31 C :    0.124262
  32 C :   -0.148076
  33 C :    0.108731
  34 N :   -0.027781
  35 C :    0.133295
  36 C :   -0.182290
  37 C :    0.042821
  38 C :   -0.075658
  39 C :    0.046592
  40 N :   -0.067093
  41 C :    0.057745
  42 C :   -0.117423
  43 C :    0.196370
  44 O :   -0.136346
  45 C :   -0.043044
  46 C :   -0.036738
  47 N :   -0.063593
  48 C :    0.079158
  49 C :   -0.099589
  50 C :    0.034169
  51 C :    0.009828
  52 C :   -0.105430
  53 C :    0.117139
  54 C :   -0.061205
  55 C :    0.030071
  56 N :    0.008850
  57 C :    0.124875
  58 C :    0.141121
  59 N :    0.004435
  60 F :   -0.136409
  61 F :   -0.139696
  62 C :   -0.090965
  63 C :    0.107577
  64 C :   -0.034651
  65 N :   -0.286039
  66 S :    0.525341
  67 N :   -0.271809
  68 H :   -0.012971
  69 H :    0.010214
  70 H :   -0.004375
  71 H :   -0.026717
  72 H :   -0.009557
  73 H :    0.135079
  74 H :   -0.019426
  75 H :    0.128873
  76 H :   -0.036238
  77 H :    0.005593
  78 H :   -0.010214
  79 H :   -0.003844
  80 H :   -0.017059
  81 H :    0.034103
  82 H :    0.006667
  83 H :   -0.022570
Sum of atomic charges:   -0.0000000

LOEWDIN ATOMIC CHARGES
----------------------
   0 C :    0.014565
   1 C :   -0.016788
   2 C :   -0.001519
   3 N :   -0.032356
   4 C :    0.064064
   5 C :    0.054401
   6 N :   -0.038009
   7 F :   -0.026168
   8 F :   -0.024752
   9 C :   -0.040538
  10 C :   -0.034121
  11 C :   -0.054727
  12 N :   -0.289473
  13 S :    0.697975
  14 N :   -0.268133
  15 C :    0.075164
  16 N :   -0.071633
  17 C :    0.050371
  18 C :   -0.066909
  19 C :    0.071195
  20 O :   -0.152264
  21 C :   -0.039396
  22 C :    0.023920
  23 N :   -0.093429
  24 C :    0.072874
  25 C :   -0.032252
  26 C :   -0.012237
  27 C :   -0.022621
  28 C :   -0.005268
  29 C :    0.017365
  30 N :    0.077780
  31 C :   -0.014994
  32 C :   -0.060532
  33 C :   -0.009692
  34 N :    0.076603
  35 C :   -0.000786
  36 C :   -0.096734
  37 C :    0.045247
  38 C :   -0.065329
  39 C :    0.071490
  40 N :   -0.129850
  41 C :    0.043135
  42 C :   -0.030389
  43 C :    0.061110
  44 O :   -0.148294
  45 C :   -0.049147
  46 C :    0.002378
  47 N :   -0.105867
  48 C :    0.055416
  49 C :   -0.050822
  50 C :   -0.033960
  51 C :    0.016329
  52 C :   -0.028818
  53 C :   -0.016482
  54 C :   -0.012698
  55 C :   -0.009104
  56 N :   -0.041351
  57 C :    0.054629
  58 C :    0.059341
  59 N :   -0.031364
  60 F :   -0.025719
  61 F :   -0.029428
  62 C :   -0.016636
  63 C :   -0.053038
  64 C :   -0.047108
  65 N :   -0.294311
  66 S :    0.668517
  67 N :   -0.291828
  68 H :    0.050678
  69 H :    0.023793
  70 H :    0.034344
  71 H :    0.021708
  72 H :    0.032528
  73 H :    0.097471
  74 H :    0.030156
  75 H :    0.094738
  76 H :    0.022877
  77 H :    0.040985
  78 H :    0.029629
  79 H :    0.017943
  80 H :    0.029609
  81 H :    0.039303
  82 H :    0.031720
  83 H :    0.045521

  Mayer bond orders larger than 0.100000
B(  0-C ,  1-C ) :   1.3251 B(  0-C ,  9-C ) :   0.1486 B(  0-C , 11-C ) :   1.1646
B(  0-C , 68-H ) :   1.0671 B(  1-C ,  2-C ) :   1.1292 B(  1-C ,  6-N ) :   1.3292
B(  2-C ,  3-N ) :   1.3944 B(  2-C ,  9-C ) :   1.4032 B(  3-N ,  4-C ) :   1.6946
B(  4-C ,  5-C ) :   1.0740 B(  4-C ,  8-F ) :   1.1793 B(  5-C ,  6-N ) :   1.7357
B(  5-C ,  7-F ) :   1.1786 B(  9-C , 10-C ) :   1.2733 B(  9-C , 15-C ) :   0.9405
B( 10-C , 11-C ) :   1.1207 B( 10-C , 14-N ) :   1.5286 B( 11-C , 12-N ) :   1.4559
B( 12-N , 13-S ) :   1.3148 B( 12-N , 14-N ) :   0.1609 B( 13-S , 14-N ) :   1.3029
B( 15-C , 16-N ) :   1.7008 B( 15-C , 17-C ) :   0.1367 B( 15-C , 26-C ) :   1.0331
B( 16-N , 17-C ) :   1.2991 B( 17-C , 18-C ) :   1.0576 B( 17-C , 22-C ) :   1.4425
B( 18-C , 19-C ) :   0.9053 B( 18-C , 26-C ) :   1.5305 B( 19-C , 20-O ) :   2.1866
B( 19-C , 21-C ) :   0.9258 B( 21-C , 22-C ) :   1.0636 B( 21-C , 25-C ) :   1.6160
B( 22-C , 23-N ) :   1.2993 B( 23-N , 24-C ) :   1.6724 B( 24-C , 25-C ) :   1.0583
B( 24-C , 69-H ) :   0.9894 B( 25-C , 70-H ) :   1.0106 B( 26-C , 27-C ) :   1.1349
B( 27-C , 28-C ) :   1.6613 B( 27-C , 71-H ) :   0.9431 B( 28-C , 29-C ) :   1.1099
B( 28-C , 72-H ) :   0.9486 B( 29-C , 30-N ) :   1.1903 B( 29-C , 36-C ) :   1.3767
B( 30-N , 31-C ) :   1.1631 B( 30-N , 73-H ) :   0.9327 B( 31-C , 32-C ) :   1.3036
B( 31-C , 35-C ) :   1.2651 B( 32-C , 33-C ) :   1.3398 B( 32-C , 74-H ) :   1.0319
B( 33-C , 34-N ) :   1.1524 B( 33-C , 37-C ) :   1.1429 B( 34-N , 35-C ) :   1.1912
B( 34-N , 75-H ) :   0.9354 B( 35-C , 36-C ) :   1.2675 B( 36-C , 76-H ) :   1.0336
B( 37-C , 38-C ) :   1.5420 B( 37-C , 77-H ) :   0.9762 B( 38-C , 39-C ) :   1.2107
B( 38-C , 78-H ) :   0.9647 B( 39-C , 40-N ) :   1.5235 B( 39-C , 41-C ) :   0.1044
B( 39-C , 50-C ) :   0.9915 B( 40-N , 41-C ) :   1.4117 B( 41-C , 42-C ) :   1.0447
B( 41-C , 46-C ) :   1.3554 B( 42-C , 43-C ) :   0.8850 B( 42-C , 50-C ) :   1.5768
B( 43-C , 44-O ) :   2.2829 B( 43-C , 45-C ) :   0.9092 B( 45-C , 46-C ) :   1.0758
B( 45-C , 49-C ) :   1.5700 B( 46-C , 47-N ) :   1.3454 B( 47-N , 48-C ) :   1.6203
B( 48-C , 49-C ) :   1.1116 B( 48-C , 79-H ) :   0.9890 B( 49-C , 80-H ) :   1.0097
B( 50-C , 51-C ) :   1.0863 B( 51-C , 52-C ) :   1.6301 B( 51-C , 81-H ) :   0.9517
B( 52-C , 53-C ) :   1.1680 B( 52-C , 82-H ) :   0.9618 B( 53-C , 54-C ) :   1.3059
B( 53-C , 62-C ) :   0.1433 B( 53-C , 64-C ) :   1.2053 B( 54-C , 55-C ) :   1.1335
B( 54-C , 59-N ) :   1.3897 B( 55-C , 56-N ) :   1.3240 B( 55-C , 62-C ) :   1.3391
B( 56-N , 57-C ) :   1.7363 B( 57-C , 58-C ) :   1.0786 B( 57-C , 61-F ) :   1.1769
B( 58-C , 59-N ) :   1.6942 B( 58-C , 60-F ) :   1.1787 B( 62-C , 63-C ) :   1.1744
B( 62-C , 83-H ) :   1.0590 B( 63-C , 64-C ) :   1.1325 B( 63-C , 67-N ) :   1.4581
B( 64-C , 65-N ) :   1.5096 B( 65-N , 66-S ) :   1.2849 B( 65-N , 67-N ) :   0.1637
B( 66-S , 67-N ) :   1.3036

-----------------------------------------------------------------------------
         ABSORPTION SPECTRUM VIA TRANSITION ELECTRIC DIPOLE MOMENTS
-----------------------------------------------------------------------------
State   Energy  Wavelength   fosc         T2         TX        TY        TZ
        (cm-1)    (nm)                  (au**2)     (au)      (au)      (au)
-----------------------------------------------------------------------------
   0    9640.9   1037.2   0.274537414   9.37473   2.22509  -0.59787   2.01649
   1   14297.5    699.4   1.129759646  26.01359   3.67031  -0.89757   3.42590
   2   16079.3    621.9   0.014905785   0.30519  -0.00307   0.16583   0.52695
   3   16969.1    589.3   0.242819437   4.71087   0.22490  -0.09031   2.15688
   4   18116.3    552.0   0.404465431   7.35000  -2.44455   0.82486  -0.83295
   5   19912.8    502.2   0.339094702   5.60615  -2.19959   0.77223   0.41428
   6   21238.3    470.8   0.023452170   0.36353   0.57301  -0.00645   0.18747
   7   21774.2    459.3   0.022076127   0.33378   0.40455   0.21787  -0.35021
   8   21802.7    458.7   0.077622510   1.17207  -0.96495  -0.31708   0.37470
   9   22016.8    454.2   0.438556295   6.55764   2.23230   0.98579  -0.77633
  10   22935.4    436.0   0.024830022   0.35641  -0.38275   0.15495  -0.43116
  11   24132.7    414.4   0.145939975   1.99087   1.30001   0.20943   0.50693
  12   24649.6    405.7   0.013392101   0.17886   0.38182   0.06056  -0.17148
  13   25194.7    396.9   0.010633208   0.13894  -0.32747  -0.06145   0.16712
  14   25232.1    396.3   0.014539076   0.18970   0.12987  -0.12779   0.39560
  15   25737.0    388.5   0.005860104   0.07496  -0.06692  -0.01991   0.26474
  16   25803.9    387.5   0.010889784   0.13893  -0.03934  -0.16278   0.33300
  17   26653.6    375.2   0.010809206   0.13351  -0.09369   0.17467   0.30696
  18   26972.4    370.7   0.009041220   0.11035  -0.04463  -0.10550   0.31182
  19   27278.9    366.6   0.002943746   0.03553   0.08875  -0.16199   0.03752
  20   27377.4    365.3   0.001869582   0.02248   0.10010  -0.03627  -0.10558
  21   28018.5    356.9   0.055872646   0.65649   0.78749  -0.04705  -0.18479
  22   28464.4    351.3   0.128585856   1.48719  -0.06525  -0.17429   1.20522
  23   28635.2    349.2   0.046493164   0.53452  -0.27830   0.00654  -0.67604
  24   29085.8    343.8   0.035330559   0.39989   0.03550   0.11967  -0.61993
  25   29223.6    342.2   0.007143777   0.08048   0.07646   0.01998  -0.27245
  26   29334.3    340.9   0.009039556   0.10145  -0.13303   0.21401  -0.19481
  27   29630.5    337.5   0.010376542   0.11529   0.15893  -0.18387  -0.23711
  28   29927.6    334.1   0.002519754   0.02772   0.06192   0.14998  -0.03730
  29   30637.7    326.4   0.005486268   0.05895   0.15824   0.16386   0.08404
  30   30824.6    324.4   0.044742984   0.47786   0.41999  -0.15390   0.52705
  31   30990.8    322.7   0.356668063   3.78884   0.93487   0.52424   1.62482
  32   31234.5    320.2   0.066849840   0.70460  -0.74165   0.27404   0.28188
  33   31331.7    319.2   0.036788707   0.38655  -0.59540   0.10997   0.14126
  34   31643.4    316.0   0.016079852   0.16729   0.30510  -0.15584   0.22343
  35   31804.9    314.4   0.112022197   1.15954   0.98345  -0.27772   0.33946
  36   32069.9    311.8   0.187585936   1.92566   0.17554  -0.97595   0.97076
  37   32347.6    309.1   0.066753748   0.67937   0.57421  -0.46163   0.36952
  38   32731.2    305.5   0.212914299   2.14150   0.99040  -0.96094   0.48704
  39   32774.4    305.1   0.015903614   0.15975   0.31115  -0.17139  -0.18319
  40   32811.1    304.8   0.075758279   0.76012   0.37708  -0.75699   0.21189
  41   33180.8    301.4   0.014471237   0.14358  -0.29161   0.19553   0.14252
  42   33354.9    299.8   0.019315621   0.19064   0.16288   0.36749  -0.17049
  43   33531.2    298.2   0.001530428   0.01503  -0.10772  -0.03501   0.04687
  44   33595.5    297.7   0.330981580   3.24338  -1.61161  -0.10005   0.79756
  45   33661.2    297.1   0.006358270   0.06218  -0.16061   0.09256   0.16680
  46   34058.0    293.6   0.007373415   0.07127   0.25037   0.09176   0.01298
  47   34218.3    292.2   0.000660076   0.00635  -0.06123  -0.00741   0.05047
  48   34298.7    291.6   0.033896546   0.32535   0.54088   0.06674  -0.16837
  49   34866.3    286.8   0.078943310   0.74539   0.70265   0.13333  -0.48364
  50   35125.2    284.7   0.006844968   0.06415   0.22942   0.08233  -0.06886
  51   35383.1    282.6   0.019658870   0.18291  -0.34456  -0.01166   0.25308
  52   35595.4    280.9   0.001824517   0.01687  -0.10778  -0.04046  -0.06017
  53   35760.2    279.6   0.004942145   0.04550  -0.12068   0.11266  -0.13506
  54   35982.3    277.9   0.015314532   0.14012   0.30031  -0.03276  -0.22103
  55   36163.2    276.5   0.047914562   0.43619  -0.60213  -0.01108   0.27112
  56   36545.1    273.6   0.002149241   0.01936   0.11147  -0.08017   0.02252
  57   36611.3    273.1   0.004328223   0.03892   0.15404   0.12324  -0.00219
  58   36720.6    272.3   0.024879948   0.22306   0.12120  -0.26146   0.37417
  59   36929.8    270.8   0.108351574   0.96590  -0.54483  -0.50187  -0.64590
  60   37260.6    268.4   0.020234391   0.17878   0.02216  -0.04231   0.42012
  61   37347.4    267.8   0.079825626   0.70365   0.50704  -0.18560  -0.64196
  62   37618.5    265.8   0.087433361   0.76516  -0.67282  -0.05188  -0.55658
  63   38015.5    263.1   0.062264726   0.53921   0.72174   0.09354  -0.09776
  64   38086.0    262.6   0.035656544   0.30821   0.53913   0.04618   0.12418
  65   38336.7    260.8   0.038094668   0.32713  -0.02343  -0.04209   0.56992
  66   38482.7    259.9   0.013025244   0.11143   0.28585   0.09556   0.14348
  67   38602.8    259.0   0.027626457   0.23560   0.38826   0.10895  -0.27016
  68   38720.5    258.3   0.007826533   0.06654  -0.09473  -0.16104   0.17787
  69   38872.8    257.2   0.006351693   0.05379   0.16161   0.16380   0.02907
  70   39269.1    254.7   0.027352764   0.22931   0.43703   0.15510   0.11944
  71   39316.5    254.3   0.004408299   0.03691  -0.05019  -0.06862   0.17229
  72   39405.1    253.8   0.003760702   0.03142   0.02536  -0.03999   0.17081
  73   39581.6    252.6   0.002838876   0.02361  -0.14225  -0.04925   0.03083
  74   39619.2    252.4   0.089479980   0.74352   0.50517   0.31872  -0.62189
  75   39842.2    251.0   0.006994429   0.05779  -0.23552  -0.01070  -0.04702

FINAL SINGLE POINT ENERGY     -3871.058369480586

DIPOLE MOMENT
-------------
                                X             Y             Z
Electronic contribution:      6.87395     -13.14971      -5.07341
Nuclear contribution   :     -5.06490      12.10344       8.13155
                        -----------------------------------------
Total Dipole Moment    :      1.80905      -1.04627       3.05815
                        -----------------------------------------
Magnitude (a.u.)       :      3.70400
Magnitude (Debye)      :      9.41482

Rotational constants in cm-1:     0.001481     0.000346     0.000304
Rotational constants in MHz :    44.384805    10.377451     9.109599

                             ****ORCA TERMINATED NORMALLY****
TOTAL RUN TIME: 0 days 0 hours 8 minutes 9 seconds 903 msec
