                         Program Version 4.2.0 -  RELEASE  -
|  1> # ORCA input file
|  2> # SCF done       -160.108130286269          0.000612344459
|  3> ! CAM-B3LYP def2-SVP def2/J RIJCOSX Grid4 TightSCF
|  4> %maxcore 5000
|  5> %tddft
|  6>     Mode sTDDFT
|  7>     Ethresh 5.0
|  8>     maxcore 5000
|  9> end
| 10>
| 11> %pal
| 12>   nprocs 6
| 13>   end
| 14> * xyz 0 1
| 15>    C       -0.44820         3.14144         0.07484
| 16>    O       -1.73763         3.00703         0.42284
| 17>    C       -2.05054         4.07448         1.17893
| 18>    C       -0.98244         4.89752         1.32322
| 19>    C        0.09036         4.29267         0.59686
| 20>    C        1.43869         4.75484         0.41564
| 21>    C        1.92054         5.92764         0.87150
| 22>    C        3.24336         6.43196         0.65299
| 23>    C        4.27113         5.72525         0.13347
| 24>    C        5.57064         6.26377        -0.12711
| 25>    C        6.50029         5.65279        -0.91746
| 26>    O        7.80273         6.12098        -1.03747
| 27>    C        8.08041         7.26075        -0.34723
| 28>    C        7.08653         7.93900         0.41905
| 29>    C        7.55980         9.06086         1.01451
| 30>    S        9.22903         9.30997         0.64937
| 31>    C        9.28489         7.88128        -0.31660
| 32>    O        5.81521         7.47319         0.52404
| 33>    C        6.32021         4.47092        -1.71863
| 34>    C        5.16111         4.03520        -2.24788
| 35>    N        5.01505         2.87559        -2.94995
| 36>    C        6.11121         2.27509        -3.72668
| 37>    N        5.52226         1.59653        -4.86885
| 38>    C        4.26186         2.29034        -5.06006
| 39>    N        3.27110         1.56208        -5.82518
| 40>    C        1.95316         1.95058        -5.35890
| 41>    C        1.91659         3.38173        -4.77286
| 42>    N        2.71490         3.51245        -3.57070
| 43>    C        3.77356         2.52636        -3.61033
| 44>    N        0.49217         3.53688        -4.61192
| 45>    C       -0.08128         3.00817        -5.84543
| 46>    N        0.89871         2.04851        -6.32987
| 47>    C        0.63867         1.10469        -7.26675
| 48>    C       -0.47133         1.05254        -8.04476
| 49>    C       -0.65345         0.08110        -9.05034
| 50>    C       -1.77867        -0.03298        -9.81896
| 51>    C       -2.02363        -0.96765       -10.85578
| 52>    C       -3.24421        -0.84947       -11.44376
| 53>    C       -4.04750         0.18246       -10.90257
| 54>    S       -3.18726         1.01250        -9.62586
| 55>    C       -5.33159         0.53284       -11.26257
| 56>    C       -6.13962        -0.03380       -12.27368
| 57>    C       -7.37489         0.52613       -12.37316
| 58>    C       -7.62204         1.56816       -11.44127
| 59>    S       -6.20443         1.81686       -10.43895
| 60>    C       -8.78673         2.27666       -11.32035
| 61>    C       -9.07102         3.29668       -10.39534
| 62>    S       -7.96312         3.89778        -9.17276
| 63>    C       -9.08255         5.04150        -8.53776
| 64>    C      -10.27219         4.98365        -9.22380
| 65>    C      -10.25372         4.00357       -10.26239
| 66>    O      -11.43523         3.96912       -10.91728
| 67>    C      -12.20422         4.91268       -10.31009
| 68>    N      -13.51676         5.10134       -10.79373
| 69>    O      -14.18457         5.95360       -10.23423
| 70>    O      -13.88946         4.41613       -11.72321
| 71>    C      -11.56911         5.56181        -9.28384
| 72>    H       -0.02138         2.37150        -0.53748
| 73>    H       -3.05406         4.13269         1.55162
| 74>    H       -0.95257         5.81312         1.87578
| 75>    H        2.07606         4.09014        -0.15209
| 76>    H        1.25252         6.58457         1.41159
| 77>    H        3.40867         7.47125         0.89998
| 78>    H        4.15719         4.67599        -0.08311
| 79>    H        7.03217         9.75015         1.63933
| 80>    H       10.19243         7.58669        -0.80008
| 81>    H        7.24478         3.96070        -1.94613
| 82>    H        4.23791         4.57824        -2.12529
| 83>    H        6.69353         1.58153        -3.11472
| 84>    H        6.77309         3.07353        -4.08797
| 85>    H        5.32892         0.62082        -4.66164
| 86>    H        4.51102         3.27510        -5.49205
| 87>    H        3.38260         1.73350        -6.81862
| 88>    H        1.65748         1.24085        -4.56318
| 89>    H        2.33205         4.07853        -5.52984
| 90>    H        2.13045         3.40659        -2.74769
| 91>    H        3.45277         1.54789        -3.19726
| 92>    H        0.20880         4.49302        -4.43394
| 93>    H       -0.24437         3.77767        -6.61869
| 94>    H       -1.04058         2.52303        -5.62179
| 95>    H        1.43289         0.38140        -7.38945
| 96>    H       -1.26484         1.77272        -7.90946
| 97>    H        0.14720        -0.62476        -9.22843
| 98>    H       -1.28324        -1.69794       -11.13221
| 99>    H       -3.59398        -1.47581       -12.24456
|100>    H       -5.78759        -0.83535       -12.89811
|101>    H       -8.12628         0.22646       -13.08202
|102>    H       -9.59454         2.03484       -11.99828
|103>    H       -8.79998         5.66800        -7.71840
|104>    H      -11.98860         6.33548        -8.67510
|105> *
|106>
|107>                          ****END OF INPUT****

CARTESIAN COORDINATES (ANGSTROEM)
---------------------------------
  C     -0.448200    3.141440    0.074840
  O     -1.737630    3.007030    0.422840
  C     -2.050540    4.074480    1.178930
  C     -0.982440    4.897520    1.323220
  C      0.090360    4.292670    0.596860
  C      1.438690    4.754840    0.415640
  C      1.920540    5.927640    0.871500
  C      3.243360    6.431960    0.652990
  C      4.271130    5.725250    0.133470
  C      5.570640    6.263770   -0.127110
  C      6.500290    5.652790   -0.917460
  O      7.802730    6.120980   -1.037470
  C      8.080410    7.260750   -0.347230
  C      7.086530    7.939000    0.419050
  C      7.559800    9.060860    1.014510
  S      9.229030    9.309970    0.649370
  C      9.284890    7.881280   -0.316600
  O      5.815210    7.473190    0.524040
  C      6.320210    4.470920   -1.718630
  C      5.161110    4.035200   -2.247880
  N      5.015050    2.875590   -2.949950
  C      6.111210    2.275090   -3.726680
  N      5.522260    1.596530   -4.868850
  C      4.261860    2.290340   -5.060060
  N      3.271100    1.562080   -5.825180
  C      1.953160    1.950580   -5.358900
  C      1.916590    3.381730   -4.772860
  N      2.714900    3.512450   -3.570700
  C      3.773560    2.526360   -3.610330
  N      0.492170    3.536880   -4.611920
  C     -0.081280    3.008170   -5.845430
  N      0.898710    2.048510   -6.329870
  C      0.638670    1.104690   -7.266750
  C     -0.471330    1.052540   -8.044760
  C     -0.653450    0.081100   -9.050340
  C     -1.778670   -0.032980   -9.818960
  C     -2.023630   -0.967650  -10.855780
  C     -3.244210   -0.849470  -11.443760
  C     -4.047500    0.182460  -10.902570
  S     -3.187260    1.012500   -9.625860
  C     -5.331590    0.532840  -11.262570
  C     -6.139620   -0.033800  -12.273680
  C     -7.374890    0.526130  -12.373160
  C     -7.622040    1.568160  -11.441270
  S     -6.204430    1.816860  -10.438950
  C     -8.786730    2.276660  -11.320350
  C     -9.071020    3.296680  -10.395340
  S     -7.963120    3.897780   -9.172760
  C     -9.082550    5.041500   -8.537760
  C    -10.272190    4.983650   -9.223800
  C    -10.253720    4.003570  -10.262390
  O    -11.435230    3.969120  -10.917280
  C    -12.204220    4.912680  -10.310090
  N    -13.516760    5.101340  -10.793730
  O    -14.184570    5.953600  -10.234230
  O    -13.889460    4.416130  -11.723210
  C    -11.569110    5.561810   -9.283840
  H     -0.021380    2.371500   -0.537480
  H     -3.054060    4.132690    1.551620
  H     -0.952570    5.813120    1.875780
  H      2.076060    4.090140   -0.152090
  H      1.252520    6.584570    1.411590
  H      3.408670    7.471250    0.899980
  H      4.157190    4.675990   -0.083110
  H      7.032170    9.750150    1.639330
  H     10.192430    7.586690   -0.800080
  H      7.244780    3.960700   -1.946130
  H      4.237910    4.578240   -2.125290
  H      6.693530    1.581530   -3.114720
  H      6.773090    3.073530   -4.087970
  H      5.328920    0.620820   -4.661640
  H      4.511020    3.275100   -5.492050
  H      3.382600    1.733500   -6.818620
  H      1.657480    1.240850   -4.563180
  H      2.332050    4.078530   -5.529840
  H      2.130450    3.406590   -2.747690
  H      3.452770    1.547890   -3.197260
  H      0.208800    4.493020   -4.433940
  H     -0.244370    3.777670   -6.618690
  H     -1.040580    2.523030   -5.621790
  H      1.432890    0.381400   -7.389450
  H     -1.264840    1.772720   -7.909460
  H      0.147200   -0.624760   -9.228430
  H     -1.283240   -1.697940  -11.132210
  H     -3.593980   -1.475810  -12.244560
  H     -5.787590   -0.835350  -12.898110
  H     -8.126280    0.226460  -13.082020
  H     -9.594540    2.034840  -11.998280
  H     -8.799980    5.668000   -7.718400
  H    -11.988600    6.335480   -8.675100

 Total Charge           Charge          ....    0
 Multiplicity           Mult            ....    1
 Number of Electrons    NEL             ....  434
 Basis Dimension        Dim             ....  979

ORBITAL ENERGIES
----------------

  NO   OCC          E(Eh)            E(eV)
   0   2.0000     -88.964666     -2420.8516
   1   2.0000     -88.943746     -2420.2824
   2   2.0000     -88.937566     -2420.1142
   3   2.0000     -88.936936     -2420.0971
   4   2.0000     -19.298562      -525.1406
   5   2.0000     -19.282549      -524.7048
   6   2.0000     -19.257176      -524.0144
   7   2.0000     -19.252298      -523.8817
   8   2.0000     -19.235506      -523.4247
   9   2.0000     -19.233088      -523.3589
  10   2.0000     -14.646838      -398.5607
  11   2.0000     -14.456628      -393.3849
  12   2.0000     -14.431868      -392.7111
  13   2.0000     -14.426373      -392.5616
  14   2.0000     -14.425233      -392.5305
  15   2.0000     -14.422675      -392.4609
  16   2.0000     -14.410174      -392.1208
  17   2.0000     -10.377527      -282.3869
  18   2.0000     -10.351869      -281.6887
  19   2.0000     -10.349555      -281.6257
  20   2.0000     -10.345507      -281.5156
  21   2.0000     -10.344731      -281.4944
  22   2.0000     -10.341833      -281.4156
  23   2.0000     -10.334873      -281.2262
  24   2.0000     -10.333277      -281.1828
  25   2.0000     -10.329731      -281.0863
  26   2.0000     -10.326477      -280.9977
  27   2.0000     -10.325590      -280.9736
  28   2.0000     -10.325288      -280.9654
  29   2.0000     -10.317067      -280.7417
  30   2.0000     -10.314927      -280.6834
  31   2.0000     -10.313314      -280.6395
  32   2.0000     -10.306941      -280.4661
  33   2.0000     -10.306886      -280.4646
  34   2.0000     -10.306209      -280.4462
  35   2.0000     -10.303131      -280.3624
  36   2.0000     -10.300608      -280.2938
  37   2.0000     -10.298976      -280.2494
  38   2.0000     -10.296900      -280.1929
  39   2.0000     -10.294589      -280.1300
  40   2.0000     -10.287321      -279.9322
  41   2.0000     -10.283103      -279.8175
  42   2.0000     -10.281507      -279.7740
  43   2.0000     -10.280571      -279.7485
  44   2.0000     -10.279009      -279.7061
  45   2.0000     -10.278980      -279.7053
  46   2.0000     -10.278269      -279.6859
  47   2.0000     -10.276123      -279.6275
  48   2.0000     -10.273403      -279.5535
  49   2.0000     -10.268864      -279.4300
  50   2.0000     -10.267982      -279.4060
  51   2.0000     -10.267912      -279.4041
  52   2.0000     -10.264240      -279.3042
  53   2.0000     -10.263798      -279.2921
  54   2.0000     -10.261163      -279.2204
  55   2.0000     -10.256556      -279.0951
  56   2.0000     -10.254543      -279.0403
  57   2.0000      -8.059132      -219.3001
  58   2.0000      -8.039523      -218.7666
  59   2.0000      -8.033731      -218.6089
  60   2.0000      -8.033243      -218.5957
  61   2.0000      -6.028493      -164.0436
  62   2.0000      -6.024069      -163.9233
  63   2.0000      -6.021546      -163.8546
  64   2.0000      -6.009057      -163.5148
  65   2.0000      -6.004926      -163.4024
  66   2.0000      -6.003532      -163.3644
  67   2.0000      -6.002979      -163.3494
  68   2.0000      -6.001141      -163.2994
  69   2.0000      -5.999454      -163.2534
  70   2.0000      -5.999083      -163.2433
  71   2.0000      -5.994549      -163.1200
  72   2.0000      -5.994045      -163.1063
  73   2.0000      -1.317575       -35.8530
  74   2.0000      -1.218101       -33.1462
  75   2.0000      -1.201228       -32.6871
  76   2.0000      -1.179856       -32.1055
  77   2.0000      -1.142549       -31.0903
  78   2.0000      -1.133484       -30.8437
  79   2.0000      -1.117495       -30.4086
  80   2.0000      -1.091196       -29.6930
  81   2.0000      -1.031129       -28.0584
  82   2.0000      -1.024229       -27.8707
  83   2.0000      -0.991678       -26.9849
  84   2.0000      -0.989278       -26.9196
  85   2.0000      -0.982517       -26.7356
  86   2.0000      -0.970816       -26.4172
  87   2.0000      -0.963726       -26.2243
  88   2.0000      -0.958148       -26.0725
  89   2.0000      -0.926009       -25.1980
  90   2.0000      -0.914505       -24.8849
  91   2.0000      -0.900527       -24.5046
  92   2.0000      -0.899019       -24.4635
  93   2.0000      -0.887226       -24.1426
  94   2.0000      -0.873245       -23.7622
  95   2.0000      -0.868479       -23.6325
  96   2.0000      -0.853364       -23.2212
  97   2.0000      -0.845936       -23.0191
  98   2.0000      -0.841416       -22.8961
  99   2.0000      -0.834398       -22.7051
 100   2.0000      -0.829491       -22.5716
 101   2.0000      -0.820951       -22.3392
 102   2.0000      -0.816910       -22.2293
 103   2.0000      -0.809073       -22.0160
 104   2.0000      -0.799625       -21.7589
 105   2.0000      -0.792243       -21.5580
 106   2.0000      -0.783832       -21.3292
 107   2.0000      -0.782295       -21.2873
 108   2.0000      -0.772222       -21.0132
 109   2.0000      -0.756183       -20.5768
 110   2.0000      -0.750034       -20.4095
 111   2.0000      -0.742904       -20.2154
 112   2.0000      -0.723277       -19.6814
 113   2.0000      -0.712954       -19.4005
 114   2.0000      -0.699976       -19.0473
 115   2.0000      -0.696564       -18.9545
 116   2.0000      -0.684685       -18.6312
 117   2.0000      -0.678180       -18.4542
 118   2.0000      -0.670498       -18.2452
 119   2.0000      -0.668314       -18.1858
 120   2.0000      -0.663918       -18.0661
 121   2.0000      -0.661642       -18.0042
 122   2.0000      -0.658259       -17.9121
 123   2.0000      -0.654712       -17.8156
 124   2.0000      -0.649187       -17.6653
 125   2.0000      -0.642078       -17.4718
 126   2.0000      -0.638879       -17.3848
 127   2.0000      -0.633773       -17.2458
 128   2.0000      -0.631715       -17.1898
 129   2.0000      -0.628528       -17.1031
 130   2.0000      -0.618436       -16.8285
 131   2.0000      -0.617864       -16.8129
 132   2.0000      -0.614386       -16.7183
 133   2.0000      -0.608017       -16.5450
 134   2.0000      -0.600940       -16.3524
 135   2.0000      -0.600586       -16.3428
 136   2.0000      -0.590469       -16.0675
 137   2.0000      -0.588386       -16.0108
 138   2.0000      -0.580270       -15.7900
 139   2.0000      -0.577566       -15.7164
 140   2.0000      -0.576292       -15.6817
 141   2.0000      -0.574376       -15.6296
 142   2.0000      -0.564198       -15.3526
 143   2.0000      -0.560755       -15.2589
 144   2.0000      -0.555340       -15.1116
 145   2.0000      -0.551120       -14.9967
 146   2.0000      -0.550203       -14.9718
 147   2.0000      -0.547660       -14.9026
 148   2.0000      -0.545725       -14.8499
 149   2.0000      -0.541360       -14.7312
 150   2.0000      -0.540632       -14.7114
 151   2.0000      -0.535896       -14.5825
 152   2.0000      -0.535058       -14.5597
 153   2.0000      -0.533193       -14.5089
 154   2.0000      -0.523166       -14.2361
 155   2.0000      -0.521108       -14.1801
 156   2.0000      -0.518876       -14.1193
 157   2.0000      -0.515019       -14.0144
 158   2.0000      -0.509435       -13.8624
 159   2.0000      -0.508035       -13.8243
 160   2.0000      -0.504781       -13.7358
 161   2.0000      -0.497355       -13.5337
 162   2.0000      -0.491152       -13.3649
 163   2.0000      -0.490130       -13.3371
 164   2.0000      -0.488348       -13.2886
 165   2.0000      -0.487559       -13.2671
 166   2.0000      -0.485041       -13.1986
 167   2.0000      -0.483906       -13.1678
 168   2.0000      -0.482447       -13.1280
 169   2.0000      -0.480895       -13.0858
 170   2.0000      -0.479137       -13.0380
 171   2.0000      -0.478690       -13.0258
 172   2.0000      -0.474789       -12.9197
 173   2.0000      -0.468497       -12.7484
 174   2.0000      -0.467380       -12.7180
 175   2.0000      -0.463940       -12.6244
 176   2.0000      -0.460990       -12.5442
 177   2.0000      -0.457002       -12.4356
 178   2.0000      -0.450329       -12.2541
 179   2.0000      -0.449557       -12.2331
 180   2.0000      -0.444130       -12.0854
 181   2.0000      -0.443141       -12.0585
 182   2.0000      -0.441433       -12.0120
 183   2.0000      -0.434110       -11.8127
 184   2.0000      -0.431472       -11.7409
 185   2.0000      -0.427643       -11.6368
 186   2.0000      -0.423066       -11.5122
 187   2.0000      -0.420604       -11.4452
 188   2.0000      -0.418621       -11.3913
 189   2.0000      -0.412032       -11.2120
 190   2.0000      -0.408818       -11.1245
 191   2.0000      -0.400865       -10.9081
 192   2.0000      -0.398968       -10.8565
 193   2.0000      -0.394132       -10.7249
 194   2.0000      -0.386194       -10.5089
 195   2.0000      -0.380995       -10.3674
 196   2.0000      -0.378593       -10.3020
 197   2.0000      -0.371281       -10.1031
 198   2.0000      -0.370033       -10.0691
 199   2.0000      -0.362778        -9.8717
 200   2.0000      -0.349402        -9.5077
 201   2.0000      -0.348417        -9.4809
 202   2.0000      -0.335960        -9.1419
 203   2.0000      -0.333950        -9.0872
 204   2.0000      -0.331412        -9.0182
 205   2.0000      -0.327723        -8.9178
 206   2.0000      -0.321939        -8.7604
 207   2.0000      -0.319873        -8.7042
 208   2.0000      -0.310514        -8.4495
 209   2.0000      -0.309314        -8.4168
 210   2.0000      -0.296518        -8.0687
 211   2.0000      -0.293738        -7.9930
 212   2.0000      -0.274332        -7.4650
 213   2.0000      -0.267478        -7.2784
 214   2.0000      -0.259941        -7.0733
 215   2.0000      -0.217360        -5.9147
 216   2.0000      -0.199603        -5.4315
 217   0.0000      -0.068436        -1.8622
 218   0.0000      -0.049290        -1.3412
 219   0.0000      -0.023538        -0.6405
 220   0.0000       0.000416         0.0113
 221   0.0000       0.037033         1.0077

MULLIKEN ATOMIC CHARGES
-----------------------
   0 C :    0.058593
   1 O :   -0.185066
   2 C :    0.137934
   3 C :   -0.052614
   4 C :    0.059405
   5 C :    0.021028
   6 C :    0.013186
   7 C :    0.010327
   8 C :   -0.072415
   9 C :    0.139430
  10 C :    0.164636
  11 O :   -0.256832
  12 C :    0.214830
  13 C :    0.226043
  14 C :   -0.183597
  15 S :    0.094396
  16 C :   -0.176530
  17 O :   -0.267240
  18 C :   -0.065068
  19 C :    0.074985
  20 N :   -0.300161
  21 C :    0.256306
  22 N :   -0.201684
  23 C :    0.039006
  24 N :   -0.157530
  25 C :    0.160109
  26 C :    0.083587
  27 N :   -0.162810
  28 C :    0.133861
  29 N :   -0.243320
  30 C :    0.283359
  31 N :   -0.299856
  32 C :    0.096958
  33 C :   -0.050422
  34 C :   -0.003641
  35 C :   -0.036663
  36 C :    0.045237
  37 C :    0.012668
  38 C :   -0.037447
  39 S :    0.054197
  40 C :   -0.047052
  41 C :    0.029500
  42 C :    0.027419
  43 C :   -0.018584
  44 S :    0.048881
  45 C :   -0.024062
  46 C :   -0.185879
  47 S :    0.131692
  48 C :   -0.141599
  49 C :    0.131629
  50 C :    0.189435
  51 O :   -0.187953
  52 C :    0.234319
  53 N :    0.274705
  54 O :   -0.255210
  55 O :   -0.234078
  56 C :   -0.077144
  57 H :   -0.007815
  58 H :    0.007263
  59 H :   -0.012352
  60 H :   -0.050076
  61 H :   -0.022328
  62 H :   -0.008421
  63 H :    0.009868
  64 H :    0.018868
  65 H :    0.017729
  66 H :   -0.002308
  67 H :    0.018124
  68 H :    0.023248
  69 H :    0.020698
  70 H :    0.105076
  71 H :    0.004546
  72 H :    0.118397
  73 H :   -0.000921
  74 H :   -0.006326
  75 H :    0.121742
  76 H :   -0.007074
  77 H :    0.124012
  78 H :    0.018253
  79 H :    0.028672
  80 H :    0.010106
  81 H :    0.003242
  82 H :   -0.019774
  83 H :   -0.017294
  84 H :   -0.018022
  85 H :   -0.017319
  86 H :   -0.015043
  87 H :   -0.001482
  88 H :    0.024720
  89 H :    0.008789
Sum of atomic charges:    0.0000000

LOEWDIN ATOMIC CHARGES
----------------------
   0 C :    0.017107
   1 O :    0.017999
   2 C :    0.033311
   3 C :   -0.071429
   4 C :   -0.072496
   5 C :   -0.030078
   6 C :   -0.028381
   7 C :   -0.044138
   8 C :   -0.029194
   9 C :   -0.001407
  10 C :    0.036907
  11 O :   -0.061565
  12 C :   -0.008686
  13 C :   -0.005411
  14 C :   -0.218410
  15 S :    0.421385
  16 C :   -0.216032
  17 O :   -0.066258
  18 C :   -0.129605
  19 C :    0.041851
  20 N :   -0.071214
  21 C :    0.100973
  22 N :   -0.099621
  23 C :    0.050652
  24 N :   -0.098738
  25 C :    0.062785
  26 C :    0.047840
  27 N :   -0.091921
  28 C :    0.059943
  29 N :   -0.104397
  30 C :    0.112678
  31 N :   -0.043309
  32 C :    0.042062
  33 C :   -0.117763
  34 C :   -0.033296
  35 C :   -0.170934
  36 C :   -0.024825
  37 C :   -0.048471
  38 C :   -0.165253
  39 S :    0.353975
  40 C :   -0.196052
  41 C :   -0.031590
  42 C :   -0.043636
  43 C :   -0.146128
  44 S :    0.352677
  45 C :   -0.087711
  46 C :   -0.198746
  47 S :    0.465583
  48 C :   -0.202632
  49 C :   -0.084392
  50 C :    0.013715
  51 O :   -0.001212
  52 C :    0.022715
  53 N :    0.272861
  54 O :   -0.215841
  55 O :   -0.195724
  56 C :   -0.010726
  57 H :    0.015496
  58 H :    0.021429
  59 H :    0.028101
  60 H :    0.016915
  61 H :    0.025298
  62 H :    0.027843
  63 H :    0.029649
  64 H :    0.026088
  65 H :    0.026055
  66 H :    0.027981
  67 H :    0.023712
  68 H :    0.020710
  69 H :    0.017920
  70 H :    0.056999
  71 H :    0.012237
  72 H :    0.066037
  73 H :    0.009602
  74 H :    0.003271
  75 H :    0.062181
  76 H :    0.002648
  77 H :    0.070796
  78 H :    0.010893
  79 H :    0.018890
  80 H :    0.029875
  81 H :    0.019679
  82 H :    0.030946
  83 H :    0.031903
  84 H :    0.029861
  85 H :    0.030773
  86 H :    0.032407
  87 H :    0.043555
  88 H :    0.025309
  89 H :    0.045144

  Mayer bond orders larger than 0.100000
B(  0-C ,  1-O ) :   1.1554 B(  0-C ,  4-C ) :   1.4989 B(  0-C , 57-H ) :   1.0062
B(  1-O ,  2-C ) :   1.1465 B(  2-C ,  3-C ) :   1.5890 B(  2-C , 58-H ) :   0.9998
B(  3-C ,  4-C ) :   1.2120 B(  3-C , 59-H ) :   1.0034 B(  4-C ,  5-C ) :   1.0881
B(  5-C ,  6-C ) :   1.7432 B(  5-C , 60-H ) :   0.9592 B(  6-C ,  7-C ) :   1.0998
B(  6-C , 61-H ) :   0.9736 B(  7-C ,  8-C ) :   1.7063 B(  7-C , 62-H ) :   0.9734
B(  8-C ,  9-C ) :   1.1622 B(  8-C , 63-H ) :   0.9465 B(  9-C , 10-C ) :   1.5353
B(  9-C , 17-O ) :   1.0290 B( 10-C , 11-O ) :   1.0349 B( 10-C , 18-C ) :   1.1250
B( 11-O , 12-C ) :   1.0665 B( 12-C , 13-C ) :   1.1930 B( 12-C , 16-C ) :   1.5754
B( 13-C , 14-C ) :   1.5718 B( 13-C , 17-O ) :   1.0741 B( 14-C , 15-S ) :   1.1324
B( 14-C , 64-H ) :   0.9724 B( 15-S , 16-C ) :   1.1360 B( 16-C , 65-H ) :   0.9713
B( 18-C , 19-C ) :   1.6285 B( 18-C , 66-H ) :   0.9454 B( 19-C , 20-N ) :   1.1579
B( 19-C , 67-H ) :   0.9587 B( 20-N , 21-C ) :   0.9357 B( 20-N , 28-C ) :   0.9846
B( 21-C , 22-N ) :   1.0721 B( 21-C , 68-H ) :   0.9566 B( 21-C , 69-H ) :   0.9450
B( 22-N , 23-C ) :   1.0717 B( 22-N , 70-H ) :   0.9336 B( 23-C , 24-N ) :   1.1194
B( 23-C , 28-C ) :   1.0393 B( 23-C , 71-H ) :   0.8886 B( 24-N , 25-C ) :   1.0986
B( 24-N , 72-H ) :   0.9114 B( 25-C , 26-C ) :   0.9806 B( 25-C , 31-N ) :   0.9827
B( 25-C , 73-H ) :   0.8926 B( 26-C , 27-N ) :   1.1046 B( 26-C , 29-N ) :   1.0635
B( 26-C , 74-H ) :   0.8918 B( 27-N , 28-C ) :   1.1096 B( 27-N , 75-H ) :   0.9009
B( 28-C , 76-H ) :   0.8957 B( 29-N , 30-C ) :   1.0268 B( 29-N , 77-H ) :   0.9299
B( 30-C , 31-N ) :   0.9627 B( 30-C , 78-H ) :   0.9502 B( 30-C , 79-H ) :   0.9461
B( 31-N , 32-C ) :   1.1637 B( 32-C , 33-C ) :   1.6131 B( 32-C , 80-H ) :   0.9695
B( 33-C , 34-C ) :   1.1470 B( 33-C , 81-H ) :   0.9637 B( 34-C , 35-C ) :   1.5986
B( 34-C , 82-H ) :   0.9799 B( 35-C , 36-C ) :   1.1401 B( 35-C , 39-S ) :   1.0082
B( 36-C , 37-C ) :   1.5940 B( 36-C , 83-H ) :   0.9982 B( 37-C , 38-C ) :   1.1833
B( 37-C , 84-H ) :   0.9945 B( 38-C , 39-S ) :   1.0521 B( 38-C , 40-C ) :   1.5196
B( 40-C , 41-C ) :   1.1872 B( 40-C , 44-S ) :   1.0230 B( 41-C , 42-C ) :   1.5920
B( 41-C , 85-H ) :   0.9932 B( 42-C , 43-C ) :   1.1396 B( 42-C , 86-H ) :   1.0005
B( 43-C , 44-S ) :   1.0391 B( 43-C , 45-C ) :   1.5673 B( 45-C , 46-C ) :   1.1722
B( 45-C , 87-H ) :   0.9734 B( 46-C , 47-S ) :   1.1092 B( 46-C , 48-C ) :   0.1090
B( 46-C , 50-C ) :   1.4466 B( 47-S , 48-C ) :   1.1753 B( 48-C , 49-C ) :   1.4155
B( 48-C , 88-H ) :   0.9770 B( 49-C , 50-C ) :   1.2282 B( 49-C , 56-C ) :   1.0598
B( 50-C , 51-O ) :   1.1133 B( 51-O , 52-C ) :   1.1263 B( 52-C , 53-N ) :   0.9214
B( 52-C , 56-C ) :   1.5688 B( 53-N , 54-O ) :   1.5288 B( 53-N , 55-O ) :   1.5114
B( 54-O , 55-O ) :   0.2778 B( 56-C , 89-H ) :   1.0270

-----------------------------------------------------------------------------
         ABSORPTION SPECTRUM VIA TRANSITION ELECTRIC DIPOLE MOMENTS
-----------------------------------------------------------------------------
State   Energy  Wavelength   fosc         T2         TX        TY        TZ
        (cm-1)    (nm)                  (au**2)     (au)      (au)      (au)
-----------------------------------------------------------------------------
   0   15122.5    661.3   0.882379149  19.20913   4.06362  -1.49172   0.68620
   1   18983.2    526.8   0.569232170   9.87178   2.85492  -0.32212   1.27179
   2   24360.4    410.5   0.494382287   6.68118  -2.29771   0.21988   1.16335
   3   24838.1    402.6   0.011256914   0.14920   0.36871   0.11023  -0.03324
   4   25501.2    392.1   0.048328626   0.62391   0.17890   0.49354   0.59018
   5   29995.9    333.4   0.096693217   1.06123   0.25161   0.64961   0.75890
   6   30156.8    331.6   0.496095875   5.41571  -0.43991  -1.44574  -1.76976
   7   30443.1    328.5   0.009415195   0.10182  -0.02504   0.23912   0.20979
   8   30463.9    328.3   0.007610023   0.08224  -0.01784  -0.17118  -0.22938
   9   31096.3    321.6   0.284722695   3.01431  -0.67909   1.27815   0.95890
  10   33202.8    301.2   0.066106687   0.65546   0.71558  -0.00959   0.37856
  11   34135.2    293.0   0.049987757   0.48210  -0.46185  -0.24030  -0.45940
  12   34738.3    287.9   0.192373246   1.82310  -1.26017  -0.38889   0.28954
  13   35235.5    283.8   0.022317324   0.20851   0.23703  -0.24664  -0.30249
  14   35807.4    279.3   0.000337858   0.00311  -0.05367   0.00634  -0.01361
  15   36198.2    276.3   0.097716334   0.88870  -0.60324  -0.65509  -0.30930
  16   36751.0    272.1   0.485208518   4.34645   1.96580  -0.33888   0.60600
  17   37472.1    266.9   0.012459944   0.10947  -0.31990   0.08068   0.02497
  18   37755.2    264.9   0.003619129   0.03156   0.05709   0.16798   0.00895
  19   38481.4    259.9   0.754935919   6.45855  -1.74011  -1.70088  -0.73319
  20   39188.8    255.2   0.019335590   0.16243  -0.05210  -0.19655  -0.34798
  21   39558.7    252.8   0.002282782   0.01900  -0.11468  -0.07259  -0.02400
  22   39591.7    252.6   0.035146638   0.29225   0.31878   0.39194   0.19238

FINAL SINGLE POINT ENERGY     -3967.742130874879

DIPOLE MOMENT
-------------
                                X             Y             Z
Electronic contribution:    -52.96896      15.26946     -25.66424
Nuclear contribution   :     55.92084     -16.47022      26.09950
                        -----------------------------------------
Total Dipole Moment    :      2.95189      -1.20076       0.43527
                        -----------------------------------------
Magnitude (a.u.)       :      3.21635
Magnitude (Debye)      :      8.17532

Rotational constants in cm-1:     0.001825     0.000313     0.000284
Rotational constants in MHz :    54.708449     9.394597     8.507169

                             ****ORCA TERMINATED NORMALLY****
TOTAL RUN TIME: 0 days 0 hours 6 minutes 5 seconds 912 msec
