                         Program Version 4.2.0 -  RELEASE  -
|  1> # ORCA input file
|  2> # SCF done       -123.473125499837          0.000756506756
|  3> ! CAM-B3LYP def2-SVP def2/J RIJCOSX Grid4 TightSCF
|  4> %maxcore 5000
|  5> %tddft
|  6>     Mode sTDDFT
|  7>     Ethresh 5.0
|  8>     maxcore 5000
|  9> end
| 10>
| 11> %pal
| 12>   nprocs 6
| 13>   end
| 14> * xyz 0 1
| 15>    C       12.04518         5.42899        -5.94029
| 16>    O       13.18226         5.37927        -6.64751
| 17>    C       13.71210         6.61584        -6.63605
| 18>    C       12.92896         7.46669        -5.92799
| 19>    C       11.81962         6.69672        -5.45959
| 20>    C       10.73220         7.19571        -4.66326
| 21>    C        9.69131         6.47048        -4.21567
| 22>    C        8.63584         7.03065        -3.43053
| 23>    C        7.58229         6.32892        -2.97585
| 24>    C        6.50392         6.89370        -2.18808
| 25>    C        5.46117         6.15604        -1.76332
| 26>    C        6.57378         8.26896        -1.86709
| 27>    C        6.64557         9.44760        -1.59888
| 28>    C        6.76390        10.80281        -1.29310
| 29>    C        5.74509        11.52122        -0.77378
| 30>    C        5.75202        12.89828        -0.41450
| 31>    S        4.32684        13.50987         0.37318
| 32>    C        4.98531        15.11098         0.55181
| 33>    C        6.26346        15.14378        -0.00254
| 34>    C        6.68708        13.91439        -0.54307
| 35>    S        8.22544        13.63617        -1.35720
| 36>    C        9.00087        15.17659        -1.72821
| 37>    O        9.94182        15.14528        -2.47398
| 38>    C        8.59701        16.47168        -1.07080
| 39>    O        9.25563        17.46240        -1.23712
| 40>    S        7.23084        16.61331         0.04130
| 41>    C        4.23897        16.15411         1.16114
| 42>    S        4.91549        17.75628         1.30360
| 43>    C        3.46460        18.37508         2.02459
| 44>    C        2.50882        17.37859         2.14230
| 45>    C        2.94981        16.12584         1.68085
| 46>    C        2.09044        14.90482         1.76207
| 47>    C        0.86604        15.12836         2.64515
| 48>    C        0.19235        16.45563         2.29331
| 49>    O       -1.07169        16.59349         2.89576
| 50>    C        1.13147        17.60241         2.68001
| 51>    C        3.37894        19.73452         2.44711
| 52>    O        2.30138        20.11657         3.18167
| 53>    C        2.46587        21.41179         3.49662
| 54>    C        3.62853        21.89364         2.99219
| 55>    C        4.24949        20.81592         2.29704
| 56>    C        5.49175        20.85480         1.58242
| 57>    C        6.39830        21.84413         1.66852
| 58>    C        7.63372        21.83864         0.93356
| 59>    C        8.54912        22.80219         1.02378
| 60>    H       11.48832         4.51816        -5.84840
| 61>    H       14.63576         6.75815        -7.16107
| 62>    H       13.09977         8.50854        -5.75028
| 63>    H       10.78326         8.24932        -4.41980
| 64>    H        9.62682         5.41643        -4.44901
| 65>    H        8.70524         8.08661        -3.20137
| 66>    H        7.49809         5.27305        -3.19791
| 67>    H        5.39106         5.10653        -1.99168
| 68>    H        4.66706         6.58630        -1.17847
| 69>    H        7.72833        11.24744        -1.49071
| 70>    H        4.80613        11.01696        -0.58158
| 71>    H        2.67224        14.07034         2.16232
| 72>    H        1.77216        14.62184         0.75350
| 73>    H        1.16611        15.14894         3.69658
| 74>    H        0.15862        14.30921         2.50898
| 75>    H       -0.00852        16.48862         1.21693
| 76>    H       -0.96399        16.56217         3.85382
| 77>    H        1.17392        17.67994         3.77272
| 78>    H        0.73234        18.54781         2.30936
| 79>    H        1.69045        21.87175         4.07711
| 80>    H        3.99925        22.89283         3.08462
| 81>    H        5.70183        20.01786         0.93130
| 82>    H        6.22888        22.68766         2.32383
| 83>    H        7.80254        20.98979         0.28364
| 84>    H        8.40782        23.65707         1.66509
| 85>    H        9.46727        22.76860         0.46420
| 86> *
| 87>
| 88>                          ****END OF INPUT****

CARTESIAN COORDINATES (ANGSTROEM)
---------------------------------
  C     12.045180    5.428990   -5.940290
  O     13.182260    5.379270   -6.647510
  C     13.712100    6.615840   -6.636050
  C     12.928960    7.466690   -5.927990
  C     11.819620    6.696720   -5.459590
  C     10.732200    7.195710   -4.663260
  C      9.691310    6.470480   -4.215670
  C      8.635840    7.030650   -3.430530
  C      7.582290    6.328920   -2.975850
  C      6.503920    6.893700   -2.188080
  C      5.461170    6.156040   -1.763320
  C      6.573780    8.268960   -1.867090
  C      6.645570    9.447600   -1.598880
  C      6.763900   10.802810   -1.293100
  C      5.745090   11.521220   -0.773780
  C      5.752020   12.898280   -0.414500
  S      4.326840   13.509870    0.373180
  C      4.985310   15.110980    0.551810
  C      6.263460   15.143780   -0.002540
  C      6.687080   13.914390   -0.543070
  S      8.225440   13.636170   -1.357200
  C      9.000870   15.176590   -1.728210
  O      9.941820   15.145280   -2.473980
  C      8.597010   16.471680   -1.070800
  O      9.255630   17.462400   -1.237120
  S      7.230840   16.613310    0.041300
  C      4.238970   16.154110    1.161140
  S      4.915490   17.756280    1.303600
  C      3.464600   18.375080    2.024590
  C      2.508820   17.378590    2.142300
  C      2.949810   16.125840    1.680850
  C      2.090440   14.904820    1.762070
  C      0.866040   15.128360    2.645150
  C      0.192350   16.455630    2.293310
  O     -1.071690   16.593490    2.895760
  C      1.131470   17.602410    2.680010
  C      3.378940   19.734520    2.447110
  O      2.301380   20.116570    3.181670
  C      2.465870   21.411790    3.496620
  C      3.628530   21.893640    2.992190
  C      4.249490   20.815920    2.297040
  C      5.491750   20.854800    1.582420
  C      6.398300   21.844130    1.668520
  C      7.633720   21.838640    0.933560
  C      8.549120   22.802190    1.023780
  H     11.488320    4.518160   -5.848400
  H     14.635760    6.758150   -7.161070
  H     13.099770    8.508540   -5.750280
  H     10.783260    8.249320   -4.419800
  H      9.626820    5.416430   -4.449010
  H      8.705240    8.086610   -3.201370
  H      7.498090    5.273050   -3.197910
  H      5.391060    5.106530   -1.991680
  H      4.667060    6.586300   -1.178470
  H      7.728330   11.247440   -1.490710
  H      4.806130   11.016960   -0.581580
  H      2.672240   14.070340    2.162320
  H      1.772160   14.621840    0.753500
  H      1.166110   15.148940    3.696580
  H      0.158620   14.309210    2.508980
  H     -0.008520   16.488620    1.216930
  H     -0.963990   16.562170    3.853820
  H      1.173920   17.679940    3.772720
  H      0.732340   18.547810    2.309360
  H      1.690450   21.871750    4.077110
  H      3.999250   22.892830    3.084620
  H      5.701830   20.017860    0.931300
  H      6.228880   22.687660    2.323830
  H      7.802540   20.989790    0.283640
  H      8.407820   23.657070    1.665090
  H      9.467270   22.768600    0.464200

 Total Charge           Charge          ....    0
 Multiplicity           Mult            ....    1
 Number of Electrons    NEL             ....  346
 Basis Dimension        Dim             ....  776

ORBITAL ENERGIES
----------------

  NO   OCC          E(Eh)            E(eV)
   0   2.0000     -88.975392     -2421.1435
   1   2.0000     -88.969206     -2420.9752
   2   2.0000     -88.968019     -2420.9429
   3   2.0000     -88.961634     -2420.7691
   4   2.0000     -19.290915      -524.9325
   5   2.0000     -19.281894      -524.6870
   6   2.0000     -19.241702      -523.5933
   7   2.0000     -19.240697      -523.5660
   8   2.0000     -19.205926      -522.6198
   9   2.0000     -10.404791      -283.1288
  10   2.0000     -10.404043      -283.1084
  11   2.0000     -10.334770      -281.2234
  12   2.0000     -10.333017      -281.1757
  13   2.0000     -10.329877      -281.0903
  14   2.0000     -10.327883      -281.0360
  15   2.0000     -10.324214      -280.9361
  16   2.0000     -10.320444      -280.8336
  17   2.0000     -10.313429      -280.6427
  18   2.0000     -10.311898      -280.6010
  19   2.0000     -10.311795      -280.5982
  20   2.0000     -10.310710      -280.5687
  21   2.0000     -10.307238      -280.4742
  22   2.0000     -10.297614      -280.2123
  23   2.0000     -10.295657      -280.1591
  24   2.0000     -10.292841      -280.0824
  25   2.0000     -10.287064      -279.9252
  26   2.0000     -10.281623      -279.7772
  27   2.0000     -10.280244      -279.7397
  28   2.0000     -10.278581      -279.6944
  29   2.0000     -10.271878      -279.5120
  30   2.0000     -10.271367      -279.4981
  31   2.0000     -10.268773      -279.4275
  32   2.0000     -10.268690      -279.4253
  33   2.0000     -10.268599      -279.4228
  34   2.0000     -10.268554      -279.4216
  35   2.0000     -10.267221      -279.3853
  36   2.0000     -10.266943      -279.3777
  37   2.0000     -10.266517      -279.3661
  38   2.0000     -10.266480      -279.3651
  39   2.0000     -10.266246      -279.3588
  40   2.0000     -10.265505      -279.3386
  41   2.0000     -10.264678      -279.3161
  42   2.0000     -10.264423      -279.3091
  43   2.0000     -10.258697      -279.1533
  44   2.0000     -10.257081      -279.1094
  45   2.0000      -8.070168      -219.6004
  46   2.0000      -8.065532      -219.4743
  47   2.0000      -8.064423      -219.4441
  48   2.0000      -8.056169      -219.2195
  49   2.0000      -6.039607      -164.3461
  50   2.0000      -6.035414      -164.2320
  51   2.0000      -6.035364      -164.2306
  52   2.0000      -6.034330      -164.2025
  53   2.0000      -6.032077      -164.1412
  54   2.0000      -6.030740      -164.1048
  55   2.0000      -6.029626      -164.0745
  56   2.0000      -6.026464      -163.9884
  57   2.0000      -6.025723      -163.9683
  58   2.0000      -6.025255      -163.9555
  59   2.0000      -6.021355      -163.8494
  60   2.0000      -6.017969      -163.7573
  61   2.0000      -1.208971       -32.8978
  62   2.0000      -1.199942       -32.6521
  63   2.0000      -1.177840       -32.0507
  64   2.0000      -1.146098       -31.1869
  65   2.0000      -1.097472       -29.8637
  66   2.0000      -1.021485       -27.7960
  67   2.0000      -0.991988       -26.9934
  68   2.0000      -0.935605       -25.4591
  69   2.0000      -0.927826       -25.2474
  70   2.0000      -0.923190       -25.1213
  71   2.0000      -0.922473       -25.1018
  72   2.0000      -0.909434       -24.7470
  73   2.0000      -0.906671       -24.6718
  74   2.0000      -0.891805       -24.2673
  75   2.0000      -0.882595       -24.0166
  76   2.0000      -0.879543       -23.9336
  77   2.0000      -0.868030       -23.6203
  78   2.0000      -0.845302       -23.0018
  79   2.0000      -0.839541       -22.8451
  80   2.0000      -0.833003       -22.6672
  81   2.0000      -0.831299       -22.6208
  82   2.0000      -0.817825       -22.2541
  83   2.0000      -0.815373       -22.1874
  84   2.0000      -0.807033       -21.9605
  85   2.0000      -0.798544       -21.7295
  86   2.0000      -0.771917       -21.0049
  87   2.0000      -0.751892       -20.4600
  88   2.0000      -0.733289       -19.9538
  89   2.0000      -0.723951       -19.6997
  90   2.0000      -0.719744       -19.5852
  91   2.0000      -0.716909       -19.5081
  92   2.0000      -0.704572       -19.1724
  93   2.0000      -0.693878       -18.8814
  94   2.0000      -0.674660       -18.3584
  95   2.0000      -0.671360       -18.2686
  96   2.0000      -0.668090       -18.1796
  97   2.0000      -0.653741       -17.7892
  98   2.0000      -0.652748       -17.7622
  99   2.0000      -0.641257       -17.4495
 100   2.0000      -0.632101       -17.2003
 101   2.0000      -0.630845       -17.1662
 102   2.0000      -0.630119       -17.1464
 103   2.0000      -0.623411       -16.9639
 104   2.0000      -0.611707       -16.6454
 105   2.0000      -0.604701       -16.4547
 106   2.0000      -0.597483       -16.2584
 107   2.0000      -0.581128       -15.8133
 108   2.0000      -0.580624       -15.7996
 109   2.0000      -0.572208       -15.5706
 110   2.0000      -0.561166       -15.2701
 111   2.0000      -0.557093       -15.1593
 112   2.0000      -0.555780       -15.1235
 113   2.0000      -0.551650       -15.0112
 114   2.0000      -0.548770       -14.9328
 115   2.0000      -0.548140       -14.9156
 116   2.0000      -0.547233       -14.8910
 117   2.0000      -0.542276       -14.7561
 118   2.0000      -0.538804       -14.6616
 119   2.0000      -0.534037       -14.5319
 120   2.0000      -0.529041       -14.3959
 121   2.0000      -0.522531       -14.2188
 122   2.0000      -0.518931       -14.1208
 123   2.0000      -0.517785       -14.0896
 124   2.0000      -0.516424       -14.0526
 125   2.0000      -0.509059       -13.8522
 126   2.0000      -0.502745       -13.6804
 127   2.0000      -0.500658       -13.6236
 128   2.0000      -0.495408       -13.4807
 129   2.0000      -0.492556       -13.4031
 130   2.0000      -0.489000       -13.3064
 131   2.0000      -0.483339       -13.1523
 132   2.0000      -0.480522       -13.0757
 133   2.0000      -0.475088       -12.9278
 134   2.0000      -0.471033       -12.8175
 135   2.0000      -0.470258       -12.7964
 136   2.0000      -0.464860       -12.6495
 137   2.0000      -0.461555       -12.5596
 138   2.0000      -0.458552       -12.4778
 139   2.0000      -0.456761       -12.4291
 140   2.0000      -0.452242       -12.3061
 141   2.0000      -0.451716       -12.2918
 142   2.0000      -0.448043       -12.1919
 143   2.0000      -0.443229       -12.0609
 144   2.0000      -0.438726       -11.9383
 145   2.0000      -0.430729       -11.7207
 146   2.0000      -0.429847       -11.6967
 147   2.0000      -0.425994       -11.5919
 148   2.0000      -0.421443       -11.4680
 149   2.0000      -0.420657       -11.4467
 150   2.0000      -0.417836       -11.3699
 151   2.0000      -0.416808       -11.3419
 152   2.0000      -0.411448       -11.1961
 153   2.0000      -0.405988       -11.0475
 154   2.0000      -0.399810       -10.8794
 155   2.0000      -0.398267       -10.8374
 156   2.0000      -0.390814       -10.6346
 157   2.0000      -0.385758       -10.4970
 158   2.0000      -0.380294       -10.3483
 159   2.0000      -0.365542        -9.9469
 160   2.0000      -0.354912        -9.6577
 161   2.0000      -0.348540        -9.4842
 162   2.0000      -0.342735        -9.3263
 163   2.0000      -0.338086        -9.1998
 164   2.0000      -0.333619        -9.0782
 165   2.0000      -0.323565        -8.8047
 166   2.0000      -0.316258        -8.6058
 167   2.0000      -0.304838        -8.2951
 168   2.0000      -0.301789        -8.2121
 169   2.0000      -0.293999        -8.0001
 170   2.0000      -0.270355        -7.3567
 171   2.0000      -0.250479        -6.8159
 172   2.0000      -0.232356        -6.3227
 173   0.0000      -0.068738        -1.8705
 174   0.0000      -0.050346        -1.3700
 175   0.0000      -0.030524        -0.8306
 176   0.0000      -0.016708        -0.4547
 177   0.0000       0.008811         0.2398

MULLIKEN ATOMIC CHARGES
-----------------------
   0 C :    0.067535
   1 O :   -0.180854
   2 C :    0.132991
   3 C :   -0.042587
   4 C :    0.044771
   5 C :    0.027784
   6 C :    0.021793
   7 C :    0.050210
   8 C :   -0.016328
   9 C :   -0.003825
  10 C :   -0.016180
  11 C :    0.009750
  12 C :   -0.025345
  13 C :   -0.094035
  14 C :    0.055620
  15 C :   -0.109337
  16 S :    0.117435
  17 C :   -0.093725
  18 C :   -0.055930
  19 C :   -0.019979
  20 S :    0.064355
  21 C :    0.089059
  22 O :   -0.127730
  23 C :    0.091655
  24 O :   -0.133529
  25 S :    0.066033
  26 C :   -0.082271
  27 S :    0.086649
  28 C :   -0.105083
  29 C :   -0.102387
  30 C :   -0.126553
  31 C :    0.087177
  32 C :    0.071902
  33 C :    0.074793
  34 O :   -0.291195
  35 C :    0.199856
  36 C :    0.114345
  37 O :   -0.206264
  38 C :    0.153574
  39 C :   -0.042376
  40 C :    0.042622
  41 C :   -0.035186
  42 C :    0.007584
  43 C :    0.002531
  44 C :   -0.018049
  45 H :    0.002501
  46 H :    0.008030
  47 H :   -0.013106
  48 H :   -0.020276
  49 H :   -0.021722
  50 H :   -0.004390
  51 H :   -0.030865
  52 H :    0.015893
  53 H :    0.022359
  54 H :    0.043254
  55 H :   -0.000491
  56 H :    0.031919
  57 H :    0.026472
  58 H :   -0.010553
  59 H :    0.007017
  60 H :    0.001220
  61 H :    0.160754
  62 H :   -0.006883
  63 H :    0.021096
  64 H :    0.008891
  65 H :   -0.011566
  66 H :    0.001821
  67 H :   -0.019131
  68 H :    0.000323
  69 H :    0.011129
  70 H :    0.025025
Sum of atomic charges:    0.0000000

LOEWDIN ATOMIC CHARGES
----------------------
   0 C :    0.033754
   1 O :    0.025096
   2 C :    0.029117
   3 C :   -0.069325
   4 C :   -0.080842
   5 C :   -0.011179
   6 C :   -0.026617
   7 C :   -0.010368
   8 C :   -0.027109
   9 C :   -0.042511
  10 C :   -0.020085
  11 C :   -0.012836
  12 C :   -0.044645
  13 C :   -0.043069
  14 C :   -0.029980
  15 C :   -0.194344
  16 S :    0.485160
  17 C :   -0.186721
  18 C :   -0.233069
  19 C :   -0.212867
  20 S :    0.398196
  21 C :   -0.112227
  22 O :   -0.101641
  23 C :   -0.113175
  24 O :   -0.105485
  25 S :    0.381231
  26 C :   -0.204116
  27 S :    0.455912
  28 C :   -0.179790
  29 C :   -0.056425
  30 C :   -0.051174
  31 C :   -0.042133
  32 C :   -0.040658
  33 C :    0.057512
  34 O :   -0.124560
  35 C :   -0.039289
  36 C :    0.010351
  37 O :    0.018808
  38 C :    0.041850
  39 C :   -0.062406
  40 C :   -0.061380
  41 C :   -0.036490
  42 C :   -0.014692
  43 C :   -0.024951
  44 C :   -0.043830
  45 H :    0.018977
  46 H :    0.021379
  47 H :    0.029570
  48 H :    0.029448
  49 H :    0.024039
  50 H :    0.032222
  51 H :    0.026124
  52 H :    0.023273
  53 H :    0.027512
  54 H :    0.027143
  55 H :    0.035395
  56 H :    0.023768
  57 H :    0.030968
  58 H :    0.018678
  59 H :    0.027632
  60 H :    0.021542
  61 H :    0.071806
  62 H :    0.027814
  63 H :    0.034330
  64 H :    0.023779
  65 H :    0.030602
  66 H :    0.014718
  67 H :    0.024591
  68 H :    0.031613
  69 H :    0.020259
  70 H :    0.025818

  Mayer bond orders larger than 0.100000
B(  0-C ,  1-O ) :   1.1717 B(  0-C ,  4-C ) :   1.5099 B(  0-C , 45-H ) :   1.0035
B(  1-O ,  2-C ) :   1.1454 B(  2-C ,  3-C ) :   1.5749 B(  2-C , 46-H ) :   1.0013
B(  3-C ,  4-C ) :   1.2107 B(  3-C , 47-H ) :   1.0092 B(  4-C ,  5-C ) :   1.0654
B(  5-C ,  6-C ) :   1.7142 B(  5-C , 48-H ) :   0.9802 B(  6-C ,  7-C ) :   1.1127
B(  6-C , 49-H ) :   0.9833 B(  7-C ,  8-C ) :   1.6931 B(  7-C , 50-H ) :   0.9681
B(  8-C ,  9-C ) :   1.0659 B(  8-C , 51-H ) :   0.9896 B(  9-C , 10-C ) :   1.8743
B(  9-C , 11-C ) :   0.8694 B( 10-C , 52-H ) :   0.9479 B( 10-C , 53-H ) :   0.9489
B( 11-C , 12-C ) :   2.3420 B( 12-C , 13-C ) :   1.0157 B( 13-C , 14-C ) :   1.7186
B( 13-C , 54-H ) :   0.9391 B( 14-C , 15-C ) :   1.1335 B( 14-C , 55-H ) :   0.9537
B( 15-C , 16-S ) :   1.1029 B( 15-C , 17-C ) :   0.1041 B( 15-C , 19-C ) :   1.5464
B( 16-S , 17-C ) :   1.1358 B( 17-C , 18-C ) :   1.5339 B( 17-C , 26-C ) :   1.1586
B( 18-C , 19-C ) :   1.2926 B( 18-C , 25-S ) :   0.9632 B( 19-C , 20-S ) :   0.9689
B( 20-S , 21-C ) :   1.0519 B( 20-S , 22-O ) :   0.1368 B( 21-C , 22-O ) :   2.1609
B( 21-C , 23-C ) :   0.7735 B( 23-C , 24-O ) :   2.1556 B( 23-C , 25-S ) :   1.0581
B( 24-O , 25-S ) :   0.1378 B( 26-C , 27-S ) :   1.0953 B( 26-C , 28-C ) :   0.1090
B( 26-C , 30-C ) :   1.4912 B( 27-S , 28-C ) :   1.1290 B( 28-C , 29-C ) :   1.5022
B( 28-C , 36-C ) :   1.1069 B( 29-C , 30-C ) :   1.3285 B( 29-C , 35-C ) :   1.0267
B( 30-C , 31-C ) :   1.0504 B( 31-C , 32-C ) :   1.0685 B( 31-C , 56-H ) :   0.9035
B( 31-C , 57-H ) :   0.9055 B( 32-C , 33-C ) :   1.0365 B( 32-C , 58-H ) :   0.9276
B( 32-C , 59-H ) :   0.9253 B( 33-C , 34-O ) :   1.0481 B( 33-C , 35-C ) :   1.0304
B( 33-C , 60-H ) :   0.9279 B( 34-O , 61-H ) :   0.9831 B( 35-C , 62-H ) :   0.8898
B( 35-C , 63-H ) :   0.9066 B( 36-C , 37-O ) :   1.1465 B( 36-C , 40-C ) :   1.4468
B( 37-O , 38-C ) :   1.1257 B( 38-C , 39-C ) :   1.5652 B( 38-C , 64-H ) :   1.0033
B( 39-C , 40-C ) :   1.2089 B( 39-C , 65-H ) :   0.9974 B( 40-C , 41-C ) :   1.0693
B( 41-C , 42-C ) :   1.7446 B( 41-C , 44-C ) :   0.1002 B( 41-C , 66-H ) :   0.9558
B( 42-C , 43-C ) :   1.1000 B( 42-C , 67-H ) :   0.9790 B( 43-C , 44-C ) :   1.9062
B( 43-C , 68-H ) :   0.9764 B( 44-C , 69-H ) :   0.9579 B( 44-C , 70-H ) :   0.9507

-----------------------------------------------------------------------------
         ABSORPTION SPECTRUM VIA TRANSITION ELECTRIC DIPOLE MOMENTS
-----------------------------------------------------------------------------
State   Energy  Wavelength   fosc         T2         TX        TY        TZ
        (cm-1)    (nm)                  (au**2)     (au)      (au)      (au)
-----------------------------------------------------------------------------
   0   20035.1    499.1   0.626215413  10.28980  -0.71087   2.92494   1.10868
   1   23799.3    420.2   0.947289240  13.10370  -0.47891   3.41158   1.11152
   2   27415.4    364.8   0.060203295   0.72294   0.21052   0.82376  -0.00607
   3   28832.5    346.8   0.101335941   1.15706  -0.41303   0.91171   0.39402
   4   29183.7    342.7   0.051304456   0.57875   0.58541  -0.28325  -0.39472
   5   29738.4    336.3   0.030698042   0.33984   0.52477  -0.16476  -0.19316
   6   31802.9    314.4   0.046075849   0.47696  -0.32822   0.56109   0.23325
   7   32136.3    311.2   0.147890325   1.51502   0.82405   0.87535  -0.26406
   8   32741.8    305.4   0.151615446   1.52446  -1.03057   0.24893   0.63279
   9   34480.9    290.0   0.660199564   6.30336  -2.20613  -0.15355   1.18860
  10   34980.4    285.9   0.001863443   0.01754  -0.03947   0.12096   0.03673
  11   35782.1    279.5   0.084793895   0.78014  -0.77112  -0.20129   0.38079
  12   36695.6    272.5   0.141244636   1.26717  -0.87239  -0.05642   0.70917
  13   36814.7    271.6   0.079846641   0.71402  -0.76001  -0.13573   0.34348
  14   37642.9    265.7   0.231241993   2.02236   1.32568   0.26613  -0.44058
  15   38259.2    261.4   0.210125568   1.80808   0.42555   1.26439   0.16827
  16   38817.5    257.6   0.022590159   0.19159  -0.24842  -0.35961   0.02349
  17   39017.4    256.3   0.050276549   0.42421   0.38903  -0.32795  -0.40659
  18   39384.0    253.9   0.010683704   0.08931   0.28500  -0.00919  -0.08942
  19   40013.1    249.9   0.028249327   0.23242   0.41203  -0.07269  -0.23952

FINAL SINGLE POINT ENERGY     -3353.473761749484

DIPOLE MOMENT
-------------
                                X             Y             Z
Electronic contribution:     12.52723       7.45630      -3.53970
Nuclear contribution   :    -13.82357      -7.64566       4.82859
                        -----------------------------------------
Total Dipole Moment    :     -1.29635      -0.18935       1.28889
                        -----------------------------------------
Magnitude (a.u.)       :      1.83783
Magnitude (Debye)      :      4.67139

Rotational constants in cm-1:     0.003351     0.000664     0.000556
Rotational constants in MHz :   100.454847    19.899819    16.665596

                             ****ORCA TERMINATED NORMALLY****
TOTAL RUN TIME: 0 days 0 hours 4 minutes 28 seconds 822 msec
