                         Program Version 4.2.0 -  RELEASE  -
|  1> # ORCA input file
|  2> # SCF done       -106.556440401856          0.000975053506
|  3> ! CAM-B3LYP def2-SVP def2/J RIJCOSX Grid4 TightSCF
|  4> %maxcore 5000
|  5> %tddft
|  6>     Mode sTDDFT
|  7>     Ethresh 5.0
|  8>     maxcore 5000
|  9> end
| 10>
| 11> %pal
| 12>   nprocs 6
| 13>   end
| 14> * xyz 0 1
| 15>    C        1.24206         1.45636        -3.50964
| 16>    O        0.18059         0.66287        -3.69645
| 17>    C       -0.86813         1.26175        -3.10250
| 18>    C       -0.49827         2.43560        -2.53360
| 19>    C        0.90060         2.58174        -2.79468
| 20>    C        1.78936         3.64160        -2.41534
| 21>    C        1.41499         4.74975        -1.74084
| 22>    C        2.26548         5.82567        -1.34693
| 23>    C        3.61447         5.89430        -1.49015
| 24>    C        4.37599         7.01410        -1.07832
| 25>    C        5.73001         7.08907        -1.19873
| 26>    C        6.55119         8.18209        -0.82112
| 27>    C        6.11491         9.37500        -0.32960
| 28>    C        6.97653        10.43512         0.02384
| 29>    S        6.35568        11.96343         0.61357
| 30>    C        7.92975        12.70662         0.80528
| 31>    C        8.90739        11.77640         0.42234
| 32>    C        8.35809        10.53486        -0.00557
| 33>    O        9.33288         9.67458        -0.36781
| 34>    C       10.49701        10.35111        -0.17591
| 35>    N       11.70505         9.69136        -0.47766
| 36>    O       12.73043        10.32583        -0.29487
| 37>    O       11.64607         8.55154        -0.89251
| 38>    C       10.30787        11.62504         0.29960
| 39>    C        8.01315        14.02892         1.26314
| 40>    C        9.17318        14.72768         1.45235
| 41>    C        9.27419        16.06745         1.88933
| 42>    C        8.23074        16.89366         2.19134
| 43>    C        8.35241        18.23560         2.60928
| 44>    S        6.88628        19.15372         2.93739
| 45>    C        7.80473        20.53714         3.33190
| 46>    C        9.17487        20.30155         3.21806
| 47>    C        9.49026        19.01389         2.81429
| 48>    C        9.86276        21.56370         3.58133
| 49>    O       11.04540        21.79430         3.62098
| 50>    C        8.74288        22.52390         3.90544
| 51>    C        7.54972        21.88053         3.74683
| 52>    C        9.03192        23.87075         4.30271
| 53>    C        8.12749        24.80353         4.60639
| 54>    H        2.17925         1.13701        -3.92113
| 55>    H       -1.81305         0.75765        -3.15278
| 56>    H       -1.13087         3.11147        -1.99693
| 57>    H        2.81870         3.50660        -2.71657
| 58>    H        0.37267         4.85820        -1.47259
| 59>    H        1.76837         6.66752        -0.87965
| 60>    H        4.15588         5.06979        -1.93291
| 61>    H        3.82708         7.83975        -0.64610
| 62>    H        6.24640         6.23565        -1.61962
| 63>    H        7.61690         8.04891        -0.94817
| 64>    H        5.06023         9.56594        -0.19629
| 65>    H       11.09307        12.31869         0.51697
| 66>    H        7.06354        14.50253         1.46740
| 67>    H       10.10621        14.22456         1.24735
| 68>    H       10.27756        16.45915         1.98020
| 69>    H        7.21812        16.52460         2.10942
| 70>    H       10.49023        18.64897         2.67076
| 71>    H        6.56916        22.29229         3.90058
| 72>    H       10.08891        24.10227         4.34358
| 73>    H        7.06971        24.60510         4.57544
| 74>    H        8.42129        25.79666         4.89708
| 75> *
| 76>
| 77>                          ****END OF INPUT****

CARTESIAN COORDINATES (ANGSTROEM)
---------------------------------
  C      1.242060    1.456360   -3.509640
  O      0.180590    0.662870   -3.696450
  C     -0.868130    1.261750   -3.102500
  C     -0.498270    2.435600   -2.533600
  C      0.900600    2.581740   -2.794680
  C      1.789360    3.641600   -2.415340
  C      1.414990    4.749750   -1.740840
  C      2.265480    5.825670   -1.346930
  C      3.614470    5.894300   -1.490150
  C      4.375990    7.014100   -1.078320
  C      5.730010    7.089070   -1.198730
  C      6.551190    8.182090   -0.821120
  C      6.114910    9.375000   -0.329600
  C      6.976530   10.435120    0.023840
  S      6.355680   11.963430    0.613570
  C      7.929750   12.706620    0.805280
  C      8.907390   11.776400    0.422340
  C      8.358090   10.534860   -0.005570
  O      9.332880    9.674580   -0.367810
  C     10.497010   10.351110   -0.175910
  N     11.705050    9.691360   -0.477660
  O     12.730430   10.325830   -0.294870
  O     11.646070    8.551540   -0.892510
  C     10.307870   11.625040    0.299600
  C      8.013150   14.028920    1.263140
  C      9.173180   14.727680    1.452350
  C      9.274190   16.067450    1.889330
  C      8.230740   16.893660    2.191340
  C      8.352410   18.235600    2.609280
  S      6.886280   19.153720    2.937390
  C      7.804730   20.537140    3.331900
  C      9.174870   20.301550    3.218060
  C      9.490260   19.013890    2.814290
  C      9.862760   21.563700    3.581330
  O     11.045400   21.794300    3.620980
  C      8.742880   22.523900    3.905440
  C      7.549720   21.880530    3.746830
  C      9.031920   23.870750    4.302710
  C      8.127490   24.803530    4.606390
  H      2.179250    1.137010   -3.921130
  H     -1.813050    0.757650   -3.152780
  H     -1.130870    3.111470   -1.996930
  H      2.818700    3.506600   -2.716570
  H      0.372670    4.858200   -1.472590
  H      1.768370    6.667520   -0.879650
  H      4.155880    5.069790   -1.932910
  H      3.827080    7.839750   -0.646100
  H      6.246400    6.235650   -1.619620
  H      7.616900    8.048910   -0.948170
  H      5.060230    9.565940   -0.196290
  H     11.093070   12.318690    0.516970
  H      7.063540   14.502530    1.467400
  H     10.106210   14.224560    1.247350
  H     10.277560   16.459150    1.980200
  H      7.218120   16.524600    2.109420
  H     10.490230   18.648970    2.670760
  H      6.569160   22.292290    3.900580
  H     10.088910   24.102270    4.343580
  H      7.069710   24.605100    4.575440
  H      8.421290   25.796660    4.897080

 Total Charge           Charge          ....    0
 Multiplicity           Mult            ....    1
 Number of Electrons    NEL             ....  286
 Basis Dimension        Dim             ....  659

ORBITAL ENERGIES
----------------

  NO   OCC          E(Eh)            E(eV)
   0   2.0000     -88.975525     -2421.1471
   1   2.0000     -88.971074     -2421.0260
   2   2.0000     -19.310376      -525.4620
   3   2.0000     -19.284338      -524.7535
   4   2.0000     -19.241319      -523.5829
   5   2.0000     -19.238975      -523.5191
   6   2.0000     -19.225915      -523.1637
   7   2.0000     -14.652944      -398.7269
   8   2.0000     -10.385066      -282.5920
   9   2.0000     -10.366878      -282.0971
  10   2.0000     -10.345863      -281.5252
  11   2.0000     -10.320443      -280.8335
  12   2.0000     -10.315782      -280.7067
  13   2.0000     -10.315507      -280.6992
  14   2.0000     -10.314608      -280.6748
  15   2.0000     -10.312965      -280.6300
  16   2.0000     -10.311354      -280.5862
  17   2.0000     -10.310834      -280.5721
  18   2.0000     -10.301498      -280.3180
  19   2.0000     -10.297541      -280.2103
  20   2.0000     -10.290549      -280.0201
  21   2.0000     -10.290471      -280.0179
  22   2.0000     -10.289506      -279.9917
  23   2.0000     -10.285584      -279.8850
  24   2.0000     -10.283855      -279.8379
  25   2.0000     -10.282417      -279.7988
  26   2.0000     -10.281836      -279.7830
  27   2.0000     -10.275774      -279.6180
  28   2.0000     -10.274601      -279.5861
  29   2.0000     -10.274114      -279.5729
  30   2.0000     -10.273346      -279.5520
  31   2.0000     -10.271121      -279.4914
  32   2.0000     -10.270075      -279.4630
  33   2.0000     -10.269542      -279.4485
  34   2.0000     -10.268824      -279.4289
  35   2.0000     -10.267885      -279.4034
  36   2.0000     -10.267439      -279.3912
  37   2.0000     -10.266512      -279.3660
  38   2.0000     -10.262637      -279.2605
  39   2.0000      -8.070594      -219.6120
  40   2.0000      -8.065981      -219.4865
  41   2.0000      -6.039613      -164.3462
  42   2.0000      -6.035685      -164.2393
  43   2.0000      -6.035228      -164.2269
  44   2.0000      -6.033171      -164.1709
  45   2.0000      -6.031298      -164.1200
  46   2.0000      -6.028104      -164.0330
  47   2.0000      -1.322959       -35.9996
  48   2.0000      -1.229455       -33.4552
  49   2.0000      -1.203568       -32.7507
  50   2.0000      -1.139119       -30.9970
  51   2.0000      -1.136130       -30.9157
  52   2.0000      -1.006262       -27.3818
  53   2.0000      -0.995980       -27.1020
  54   2.0000      -0.944573       -25.7031
  55   2.0000      -0.937734       -25.5170
  56   2.0000      -0.920107       -25.0374
  57   2.0000      -0.916435       -24.9375
  58   2.0000      -0.908439       -24.7199
  59   2.0000      -0.893653       -24.3175
  60   2.0000      -0.884986       -24.0817
  61   2.0000      -0.875038       -23.8110
  62   2.0000      -0.862143       -23.4601
  63   2.0000      -0.849638       -23.1198
  64   2.0000      -0.843623       -22.9562
  65   2.0000      -0.833803       -22.6889
  66   2.0000      -0.816639       -22.2219
  67   2.0000      -0.792863       -21.5749
  68   2.0000      -0.789607       -21.4863
  69   2.0000      -0.764190       -20.7947
  70   2.0000      -0.752323       -20.4717
  71   2.0000      -0.744538       -20.2599
  72   2.0000      -0.731774       -19.9126
  73   2.0000      -0.708057       -19.2672
  74   2.0000      -0.695008       -18.9121
  75   2.0000      -0.681817       -18.5532
  76   2.0000      -0.670265       -18.2388
  77   2.0000      -0.667312       -18.1585
  78   2.0000      -0.655330       -17.8324
  79   2.0000      -0.650728       -17.7072
  80   2.0000      -0.645731       -17.5712
  81   2.0000      -0.640620       -17.4322
  82   2.0000      -0.638057       -17.3624
  83   2.0000      -0.627909       -17.0863
  84   2.0000      -0.622721       -16.9451
  85   2.0000      -0.619098       -16.8465
  86   2.0000      -0.614826       -16.7303
  87   2.0000      -0.603406       -16.4195
  88   2.0000      -0.594525       -16.1778
  89   2.0000      -0.584225       -15.8976
  90   2.0000      -0.578850       -15.7513
  91   2.0000      -0.573258       -15.5991
  92   2.0000      -0.568821       -15.4784
  93   2.0000      -0.565710       -15.3938
  94   2.0000      -0.560012       -15.2387
  95   2.0000      -0.554574       -15.0907
  96   2.0000      -0.547809       -14.9067
  97   2.0000      -0.542182       -14.7535
  98   2.0000      -0.536788       -14.6068
  99   2.0000      -0.528045       -14.3688
 100   2.0000      -0.524100       -14.2615
 101   2.0000      -0.522535       -14.2189
 102   2.0000      -0.516240       -14.0476
 103   2.0000      -0.510478       -13.8908
 104   2.0000      -0.507453       -13.8085
 105   2.0000      -0.500819       -13.6280
 106   2.0000      -0.491927       -13.3860
 107   2.0000      -0.485390       -13.2081
 108   2.0000      -0.482633       -13.1331
 109   2.0000      -0.479226       -13.0404
 110   2.0000      -0.478010       -13.0073
 111   2.0000      -0.473198       -12.8764
 112   2.0000      -0.471623       -12.8335
 113   2.0000      -0.468296       -12.7430
 114   2.0000      -0.457943       -12.4613
 115   2.0000      -0.452604       -12.3160
 116   2.0000      -0.446650       -12.1540
 117   2.0000      -0.443422       -12.0661
 118   2.0000      -0.438944       -11.9443
 119   2.0000      -0.432975       -11.7818
 120   2.0000      -0.431256       -11.7351
 121   2.0000      -0.429036       -11.6747
 122   2.0000      -0.428618       -11.6633
 123   2.0000      -0.427767       -11.6401
 124   2.0000      -0.427208       -11.6249
 125   2.0000      -0.419185       -11.4066
 126   2.0000      -0.417023       -11.3478
 127   2.0000      -0.404887       -11.0175
 128   2.0000      -0.395799       -10.7702
 129   2.0000      -0.387764       -10.5516
 130   2.0000      -0.378557       -10.3010
 131   2.0000      -0.370681       -10.0867
 132   2.0000      -0.368918       -10.0388
 133   2.0000      -0.364127        -9.9084
 134   2.0000      -0.338548        -9.2124
 135   2.0000      -0.337787        -9.1917
 136   2.0000      -0.337242        -9.1768
 137   2.0000      -0.319814        -8.7026
 138   2.0000      -0.319104        -8.6833
 139   2.0000      -0.301706        -8.2098
 140   2.0000      -0.276149        -7.5144
 141   2.0000      -0.246659        -6.7119
 142   2.0000      -0.214447        -5.8354
 143   0.0000      -0.091080        -2.4784
 144   0.0000      -0.069781        -1.8988
 145   0.0000      -0.049906        -1.3580
 146   0.0000      -0.028749        -0.7823
 147   0.0000       0.009783         0.2662

MULLIKEN ATOMIC CHARGES
-----------------------
   0 C :    0.074873
   1 O :   -0.179471
   2 C :    0.135240
   3 C :   -0.047661
   4 C :    0.040932
   5 C :    0.039969
   6 C :    0.007529
   7 C :    0.011375
   8 C :    0.027229
   9 C :    0.032651
  10 C :    0.003552
  11 C :   -0.002541
  12 C :    0.067008
  13 C :   -0.185221
  14 S :    0.150158
  15 C :   -0.136427
  16 C :    0.125443
  17 C :    0.179458
  18 O :   -0.187294
  19 C :    0.232023
  20 N :    0.279805
  21 O :   -0.255130
  22 O :   -0.234632
  23 C :   -0.105217
  24 C :    0.082961
  25 C :    0.002248
  26 C :    0.000830
  27 C :    0.065696
  28 C :   -0.093258
  29 S :    0.163003
  30 C :   -0.066306
  31 C :   -0.003979
  32 C :   -0.009356
  33 C :    0.154118
  34 O :   -0.112197
  35 C :   -0.048830
  36 C :   -0.022937
  37 C :    0.011188
  38 C :   -0.006403
  39 H :    0.003589
  40 H :    0.008916
  41 H :   -0.011322
  42 H :   -0.024665
  43 H :   -0.024146
  44 H :   -0.020735
  45 H :   -0.014391
  46 H :   -0.015278
  47 H :   -0.015539
  48 H :    0.008400
  49 H :   -0.033390
  50 H :    0.017131
  51 H :   -0.029183
  52 H :   -0.032666
  53 H :   -0.014967
  54 H :   -0.018950
  55 H :   -0.006052
  56 H :   -0.010099
  57 H :    0.003792
  58 H :    0.011281
  59 H :    0.027846
Sum of atomic charges:   -0.0000000

LOEWDIN ATOMIC CHARGES
----------------------
   0 C :    0.031367
   1 O :    0.023068
   2 C :    0.033817
   3 C :   -0.069357
   4 C :   -0.076327
   5 C :   -0.002711
   6 C :   -0.042408
   7 C :   -0.027252
   8 C :   -0.020296
   9 C :   -0.007793
  10 C :   -0.039680
  11 C :   -0.020581
  12 C :   -0.045845
  13 C :   -0.194351
  14 S :    0.458401
  15 C :   -0.164871
  16 C :   -0.077700
  17 C :    0.022788
  18 O :    0.007676
  19 C :    0.022879
  20 N :    0.272904
  21 O :   -0.215534
  22 O :   -0.196535
  23 C :   -0.009966
  24 C :   -0.041717
  25 C :   -0.025455
  26 C :   -0.032692
  27 C :   -0.033266
  28 C :   -0.168766
  29 S :    0.462286
  30 C :   -0.178041
  31 C :   -0.102784
  32 C :   -0.017830
  33 C :    0.098642
  34 O :   -0.102304
  35 C :   -0.060470
  36 C :    0.006323
  37 C :   -0.025224
  38 C :   -0.027646
  39 H :    0.021105
  40 H :    0.022083
  41 H :    0.028218
  42 H :    0.026602
  43 H :    0.025481
  44 H :    0.025945
  45 H :    0.025106
  46 H :    0.023977
  47 H :    0.028751
  48 H :    0.033338
  49 H :    0.025023
  50 H :    0.043598
  51 H :    0.025566
  52 H :    0.028169
  53 H :    0.029627
  54 H :    0.024850
  55 H :    0.037150
  56 H :    0.030745
  57 H :    0.035418
  58 H :    0.019202
  59 H :    0.027297

  Mayer bond orders larger than 0.100000
B(  0-C ,  1-O ) :   1.1656 B(  0-C ,  4-C ) :   1.4939 B(  0-C , 39-H ) :   1.0055
B(  1-O ,  2-C ) :   1.1440 B(  2-C ,  3-C ) :   1.5913 B(  2-C , 40-H ) :   1.0004
B(  3-C ,  4-C ) :   1.2096 B(  3-C , 41-H ) :   1.0036 B(  4-C ,  5-C ) :   1.1008
B(  5-C ,  6-C ) :   1.7202 B(  5-C , 42-H ) :   0.9668 B(  6-C ,  7-C ) :   1.1231
B(  6-C , 43-H ) :   0.9723 B(  7-C ,  8-C ) :   1.6531 B(  7-C , 44-H ) :   0.9744
B(  8-C ,  9-C ) :   1.1689 B(  8-C , 45-H ) :   0.9774 B(  9-C , 10-C ) :   1.6301
B(  9-C , 46-H ) :   0.9745 B( 10-C , 11-C ) :   1.1496 B( 10-C , 47-H ) :   0.9784
B( 11-C , 12-C ) :   1.6491 B( 11-C , 48-H ) :   0.9732 B( 12-C , 13-C ) :   1.1571
B( 12-C , 49-H ) :   0.9480 B( 13-C , 14-S ) :   1.1031 B( 13-C , 15-C ) :   0.1043
B( 13-C , 17-C ) :   1.4280 B( 14-S , 15-C ) :   1.1332 B( 15-C , 16-C ) :   1.3148
B( 15-C , 24-C ) :   1.2074 B( 16-C , 17-C ) :   1.2472 B( 16-C , 23-C ) :   1.1002
B( 17-C , 18-O ) :   1.1019 B( 18-O , 19-C ) :   1.1245 B( 19-C , 20-N ) :   0.9270
B( 19-C , 23-C ) :   1.5509 B( 20-N , 21-O ) :   1.5185 B( 20-N , 22-O ) :   1.5026
B( 21-O , 22-O ) :   0.2773 B( 23-C , 50-H ) :   1.0154 B( 24-C , 25-C ) :   1.6091
B( 24-C , 51-H ) :   0.9447 B( 25-C , 26-C ) :   1.1879 B( 25-C , 52-H ) :   0.9792
B( 26-C , 27-C ) :   1.6548 B( 26-C , 53-H ) :   0.9759 B( 27-C , 28-C ) :   1.1565
B( 27-C , 54-H ) :   0.9499 B( 28-C , 29-S ) :   1.1103 B( 28-C , 32-C ) :   1.4279
B( 29-S , 30-C ) :   1.1378 B( 30-C , 31-C ) :   1.4511 B( 30-C , 36-C ) :   1.0577
B( 31-C , 32-C ) :   1.3323 B( 31-C , 33-C ) :   0.9103 B( 32-C , 55-H ) :   1.0020
B( 33-C , 34-O ) :   2.2772 B( 33-C , 35-C ) :   0.9274 B( 35-C , 36-C ) :   1.6566
B( 35-C , 37-C ) :   1.1165 B( 36-C , 56-H ) :   1.0157 B( 37-C , 38-C ) :   1.9056
B( 37-C , 57-H ) :   0.9595 B( 38-C , 58-H ) :   0.9537 B( 38-C , 59-H ) :   0.9505

-----------------------------------------------------------------------------
         ABSORPTION SPECTRUM VIA TRANSITION ELECTRIC DIPOLE MOMENTS
-----------------------------------------------------------------------------
State   Energy  Wavelength   fosc         T2         TX        TY        TZ
        (cm-1)    (nm)                  (au**2)     (au)      (au)      (au)
-----------------------------------------------------------------------------
   0   13388.7    746.9   1.524518368  37.48614  -1.16309  -5.69928  -1.91092
   1   16864.2    593.0   0.024387163   0.47607  -0.52554  -0.40454  -0.19031
   2   20999.1    476.2   1.061857639  16.64718   2.65307   2.93678   0.99181
   3   21080.5    474.4   0.224487110   3.50579  -0.30261   1.75952   0.56417
   4   25056.5    399.1   0.167805682   2.20477  -1.47911   0.12610   0.03317
   5   26579.4    376.2   0.099182788   1.22847  -0.90978   0.61642   0.14426
   6   26667.1    375.0   0.000037132   0.00046  -0.00691  -0.00406   0.01985
   7   28253.1    353.9   0.016166934   0.18838  -0.41916   0.10962   0.02580
   8   30257.5    330.5   0.089150625   0.96999  -0.44292  -0.80369  -0.35762
   9   31987.7    312.6   0.010999148   0.11320   0.31986  -0.09960  -0.03116
  10   33341.2    299.9   0.222388946   2.19588  -1.47833   0.01904   0.10026
  11   34479.5    290.0   0.211484563   2.01927   0.44324  -1.24423  -0.52411
  12   35161.5    284.4   0.016713059   0.15648   0.17685  -0.32506  -0.13979
  13   35689.4    280.2   0.059101196   0.54517  -0.45695  -0.54353  -0.20235
  14   36415.5    274.6   0.000126991   0.00115  -0.00674  -0.03298   0.00384
  15   37243.6    268.5   0.056977945   0.50365   0.26467   0.63696   0.16696
  16   37532.7    266.4   0.089209949   0.78249   0.44057  -0.70605  -0.29981
  17   38567.7    259.3   0.155665064   1.32875  -1.02564  -0.50131  -0.15970
  18   39207.8    255.1   0.090125504   0.75675  -0.66756  -0.54149  -0.13376
  19   39836.0    251.0   0.045321168   0.37454   0.59795  -0.05829  -0.11660

FINAL SINGLE POINT ENERGY     -2418.638146913877

DIPOLE MOMENT
-------------
                                X             Y             Z
Electronic contribution:     21.10871      12.25931       3.72388
Nuclear contribution   :    -23.81376     -11.40711      -3.30285
                        -----------------------------------------
Total Dipole Moment    :     -2.70505       0.85221       0.42103
                        -----------------------------------------
Magnitude (a.u.)       :      2.86720
Magnitude (Debye)      :      7.28783

Rotational constants in cm-1:     0.004666     0.000526     0.000473
Rotational constants in MHz :   139.895062    15.776236    14.186057

                             ****ORCA TERMINATED NORMALLY****
TOTAL RUN TIME: 0 days 0 hours 2 minutes 54 seconds 915 msec
