                         Program Version 4.2.0 -  RELEASE  -
|  1> # ORCA input file
|  2> # SCF done       -159.664360778474          0.000534985686
|  3> ! CAM-B3LYP def2-SVP def2/J RIJCOSX Grid4 TightSCF
|  4> %maxcore 5000
|  5> %tddft
|  6>     Mode sTDDFT
|  7>     Ethresh 5.0
|  8>     maxcore 5000
|  9> end
| 10>
| 11> %pal
| 12>   nprocs 6
| 13>   end
| 14> * xyz 0 1
| 15>    C      -10.89936       -16.46835        -1.18706
| 16>    S      -11.57673       -18.06156        -1.15661
| 17>    C      -10.06273       -18.73750        -1.65921
| 18>    O       -9.89464       -20.06010        -1.84381
| 19>    C       -9.08615       -17.77555        -1.84015
| 20>    C       -9.60432       -16.47250        -1.55824
| 21>    C       -7.76000       -18.10305        -2.25517
| 22>    C       -6.75433       -17.21176        -2.45932
| 23>    C       -5.46506       -17.58596        -2.87564
| 24>    C       -4.43398       -16.70804        -3.10099
| 25>    C       -3.12403       -17.02228        -3.53131
| 26>    C       -2.30841       -15.93987        -3.68504
| 27>    C       -2.92618       -14.70946        -3.38270
| 28>    S       -4.58324       -14.96662        -2.89100
| 29>    C       -2.36829       -13.44174        -3.44979
| 30>    C       -1.06542       -13.09216        -3.85147
| 31>    C       -0.82249       -11.74806        -3.82385
| 32>    C       -1.91802       -10.97062        -3.39528
| 33>    S       -3.27953       -12.00744        -3.02485
| 34>    C       -1.93892        -9.59554        -3.28023
| 35>    C       -2.99357        -8.80292        -2.84566
| 36>    S       -4.56747        -9.37560        -2.31151
| 37>    C       -5.20077        -7.75966        -1.94553
| 38>    C       -4.19394        -6.80918        -2.24903
| 39>    C       -3.00794        -7.41317        -2.73553
| 40>    O       -2.06503        -6.49739        -3.01027
| 41>    C       -2.63109        -5.29734        -2.70192
| 42>    N       -1.85745        -4.15126        -2.89556
| 43>    O       -2.36979        -3.07709        -2.59446
| 44>    O       -0.73412        -4.27706        -3.34932
| 45>    C       -3.92395        -5.42712        -2.23511
| 46>    C       -6.48446        -7.72213        -1.44419
| 47>    C       -7.31526        -6.67911        -1.04915
| 48>    C       -8.60410        -6.88264        -0.52439
| 49>    C       -9.27010        -5.73296        -0.19033
| 50>    C       -8.53922        -4.56290        -0.43984
| 51>    S       -6.97345        -4.96847        -1.11236
| 52>    C       -8.92530        -3.24636        -0.21324
| 53>    C      -10.14412        -2.80256         0.33387
| 54>    C      -10.22304        -1.44541         0.42239
| 55>    C       -9.07722        -0.75001        -0.04962
| 56>    S       -7.89633        -1.89366        -0.63859
| 57>    C       -8.97019         0.61730         0.02188
| 58>    C       -7.93193         1.51972        -0.31734
| 59>    C       -8.09519         2.86901         0.02108
| 60>    C       -7.13465         3.82874        -0.23586
| 61>    C       -5.92872         3.51485        -0.84861
| 62>    C       -5.72458         2.15711        -1.22703
| 63>    C       -6.71895         1.17215        -0.98713
| 64>    N       -6.51853        -0.07688        -1.42476
| 65>    C       -5.40422        -0.40197        -2.04080
| 66>    C       -5.30491        -1.80385        -2.55333
| 67>    C       -6.26014        -2.02597        -3.72758
| 68>    C       -4.37415         0.56741        -2.19698
| 69>    C       -3.04334         0.27005        -2.81595
| 70>    C       -3.12364         0.30518        -4.34399
| 71>    N       -4.56377         1.80325        -1.80663
| 72>    C       -4.87831         4.47208        -1.12224
| 73>    C       -4.90349         5.77547        -0.85166
| 74>    H      -11.52405       -15.63911        -0.92319
| 75>    H      -10.70996       -20.54024        -1.66036
| 76>    H       -9.01505       -15.57781        -1.63516
| 77>    H       -7.57319       -19.15658        -2.41441
| 78>    H       -6.92659       -16.15511        -2.30511
| 79>    H       -5.26486       -18.63733        -3.03676
| 80>    H       -2.82594       -18.03933        -3.71627
| 81>    H       -1.28385       -15.99663        -4.00619
| 82>    H       -0.34300       -13.82917        -4.15253
| 83>    H        0.11289       -11.29331        -4.09842
| 84>    H       -1.03787        -9.06184        -3.55388
| 85>    H       -4.55383        -4.61715        -1.93553
| 86>    H       -6.93757        -8.70105        -1.33017
| 87>    H       -9.00931        -7.87165        -0.40149
| 88>    H      -10.26172        -5.71107         0.22412
| 89>    H      -10.92217        -3.47416         0.65189
| 90>    H      -11.07024        -0.91431         0.82114
| 91>    H       -9.84204         1.09892         0.45458
| 92>    H       -9.01001         3.16667         0.51464
| 93>    H       -7.33108         4.84806         0.05911
| 94>    H       -5.59186        -2.47437        -1.74123
| 95>    H       -4.28469        -2.03359        -2.84868
| 96>    H       -7.28204        -1.81356        -3.42441
| 97>    H       -6.20236        -3.05816        -4.06377
| 98>    H       -6.00599        -1.37415        -4.56100
| 99>    H       -2.68015        -0.70551        -2.49225
|100>    H       -2.34520         1.03853        -2.48046
|101>    H       -3.79407        -0.46452        -4.71580
|102>    H       -2.13737         0.13289        -4.76654
|103>    H       -3.48408         1.27461        -4.68143
|104>    H       -4.00864         4.03655        -1.59465
|105>    H       -5.74250         6.26252        -0.38369
|106>    H       -4.06877         6.40964        -1.09564
|107> *
|108>
|109>                          ****END OF INPUT****

CARTESIAN COORDINATES (ANGSTROEM)
---------------------------------
  C    -10.899360  -16.468350   -1.187060
  S    -11.576730  -18.061560   -1.156610
  C    -10.062730  -18.737500   -1.659210
  O     -9.894640  -20.060100   -1.843810
  C     -9.086150  -17.775550   -1.840150
  C     -9.604320  -16.472500   -1.558240
  C     -7.760000  -18.103050   -2.255170
  C     -6.754330  -17.211760   -2.459320
  C     -5.465060  -17.585960   -2.875640
  C     -4.433980  -16.708040   -3.100990
  C     -3.124030  -17.022280   -3.531310
  C     -2.308410  -15.939870   -3.685040
  C     -2.926180  -14.709460   -3.382700
  S     -4.583240  -14.966620   -2.891000
  C     -2.368290  -13.441740   -3.449790
  C     -1.065420  -13.092160   -3.851470
  C     -0.822490  -11.748060   -3.823850
  C     -1.918020  -10.970620   -3.395280
  S     -3.279530  -12.007440   -3.024850
  C     -1.938920   -9.595540   -3.280230
  C     -2.993570   -8.802920   -2.845660
  S     -4.567470   -9.375600   -2.311510
  C     -5.200770   -7.759660   -1.945530
  C     -4.193940   -6.809180   -2.249030
  C     -3.007940   -7.413170   -2.735530
  O     -2.065030   -6.497390   -3.010270
  C     -2.631090   -5.297340   -2.701920
  N     -1.857450   -4.151260   -2.895560
  O     -2.369790   -3.077090   -2.594460
  O     -0.734120   -4.277060   -3.349320
  C     -3.923950   -5.427120   -2.235110
  C     -6.484460   -7.722130   -1.444190
  C     -7.315260   -6.679110   -1.049150
  C     -8.604100   -6.882640   -0.524390
  C     -9.270100   -5.732960   -0.190330
  C     -8.539220   -4.562900   -0.439840
  S     -6.973450   -4.968470   -1.112360
  C     -8.925300   -3.246360   -0.213240
  C    -10.144120   -2.802560    0.333870
  C    -10.223040   -1.445410    0.422390
  C     -9.077220   -0.750010   -0.049620
  S     -7.896330   -1.893660   -0.638590
  C     -8.970190    0.617300    0.021880
  C     -7.931930    1.519720   -0.317340
  C     -8.095190    2.869010    0.021080
  C     -7.134650    3.828740   -0.235860
  C     -5.928720    3.514850   -0.848610
  C     -5.724580    2.157110   -1.227030
  C     -6.718950    1.172150   -0.987130
  N     -6.518530   -0.076880   -1.424760
  C     -5.404220   -0.401970   -2.040800
  C     -5.304910   -1.803850   -2.553330
  C     -6.260140   -2.025970   -3.727580
  C     -4.374150    0.567410   -2.196980
  C     -3.043340    0.270050   -2.815950
  C     -3.123640    0.305180   -4.343990
  N     -4.563770    1.803250   -1.806630
  C     -4.878310    4.472080   -1.122240
  C     -4.903490    5.775470   -0.851660
  H    -11.524050  -15.639110   -0.923190
  H    -10.709960  -20.540240   -1.660360
  H     -9.015050  -15.577810   -1.635160
  H     -7.573190  -19.156580   -2.414410
  H     -6.926590  -16.155110   -2.305110
  H     -5.264860  -18.637330   -3.036760
  H     -2.825940  -18.039330   -3.716270
  H     -1.283850  -15.996630   -4.006190
  H     -0.343000  -13.829170   -4.152530
  H      0.112890  -11.293310   -4.098420
  H     -1.037870   -9.061840   -3.553880
  H     -4.553830   -4.617150   -1.935530
  H     -6.937570   -8.701050   -1.330170
  H     -9.009310   -7.871650   -0.401490
  H    -10.261720   -5.711070    0.224120
  H    -10.922170   -3.474160    0.651890
  H    -11.070240   -0.914310    0.821140
  H     -9.842040    1.098920    0.454580
  H     -9.010010    3.166670    0.514640
  H     -7.331080    4.848060    0.059110
  H     -5.591860   -2.474370   -1.741230
  H     -4.284690   -2.033590   -2.848680
  H     -7.282040   -1.813560   -3.424410
  H     -6.202360   -3.058160   -4.063770
  H     -6.005990   -1.374150   -4.561000
  H     -2.680150   -0.705510   -2.492250
  H     -2.345200    1.038530   -2.480460
  H     -3.794070   -0.464520   -4.715800
  H     -2.137370    0.132890   -4.766540
  H     -3.484080    1.274610   -4.681430
  H     -4.008640    4.036550   -1.594650
  H     -5.742500    6.262520   -0.383690
  H     -4.068770    6.409640   -1.095640

 Total Charge           Charge          ....    0
 Multiplicity           Mult            ....    1
 Number of Electrons    NEL             ....  458
 Basis Dimension        Dim             .... 1015

ORBITAL ENERGIES
----------------

  NO   OCC          E(Eh)            E(eV)
   0   2.0000     -88.958281     -2420.6779
   1   2.0000     -88.956274     -2420.6233
   2   2.0000     -88.947959     -2420.3970
   3   2.0000     -88.939639     -2420.1706
   4   2.0000     -88.937310     -2420.1072
   5   2.0000     -88.936702     -2420.0907
   6   2.0000     -19.300170      -525.1843
   7   2.0000     -19.269494      -524.3496
   8   2.0000     -19.235171      -523.4156
   9   2.0000     -19.232626      -523.3464
  10   2.0000     -14.646181      -398.5428
  11   2.0000     -14.410977      -392.1426
  12   2.0000     -14.402737      -391.9184
  13   2.0000     -10.373056      -282.2652
  14   2.0000     -10.357706      -281.8475
  15   2.0000     -10.338547      -281.3262
  16   2.0000     -10.314118      -280.6614
  17   2.0000     -10.308448      -280.5071
  18   2.0000     -10.307211      -280.4735
  19   2.0000     -10.305512      -280.4272
  20   2.0000     -10.305093      -280.4158
  21   2.0000     -10.304557      -280.4012
  22   2.0000     -10.304393      -280.3968
  23   2.0000     -10.303916      -280.3838
  24   2.0000     -10.302418      -280.3430
  25   2.0000     -10.301264      -280.3116
  26   2.0000     -10.299884      -280.2741
  27   2.0000     -10.299471      -280.2629
  28   2.0000     -10.298927      -280.2480
  29   2.0000     -10.295815      -280.1634
  30   2.0000     -10.294494      -280.1274
  31   2.0000     -10.290252      -280.0120
  32   2.0000     -10.290198      -280.0105
  33   2.0000     -10.283281      -279.8223
  34   2.0000     -10.280972      -279.7595
  35   2.0000     -10.280602      -279.7494
  36   2.0000     -10.279515      -279.7198
  37   2.0000     -10.279490      -279.7192
  38   2.0000     -10.279056      -279.7073
  39   2.0000     -10.278386      -279.6891
  40   2.0000     -10.278017      -279.6791
  41   2.0000     -10.277692      -279.6702
  42   2.0000     -10.277223      -279.6575
  43   2.0000     -10.276748      -279.6445
  44   2.0000     -10.274005      -279.5699
  45   2.0000     -10.273605      -279.5590
  46   2.0000     -10.273560      -279.5578
  47   2.0000     -10.273470      -279.5553
  48   2.0000     -10.273237      -279.5490
  49   2.0000     -10.272904      -279.5399
  50   2.0000     -10.269759      -279.4543
  51   2.0000     -10.269021      -279.4343
  52   2.0000     -10.265270      -279.3322
  53   2.0000     -10.256468      -279.0927
  54   2.0000     -10.253922      -279.0234
  55   2.0000     -10.251636      -278.9612
  56   2.0000     -10.248174      -278.8670
  57   2.0000     -10.245031      -278.7815
  58   2.0000     -10.244686      -278.7721
  59   2.0000      -8.055352      -219.1973
  60   2.0000      -8.050728      -219.0714
  61   2.0000      -8.043293      -218.8691
  62   2.0000      -8.035699      -218.6625
  63   2.0000      -8.032911      -218.5866
  64   2.0000      -8.030207      -218.5130
  65   2.0000      -6.024727      -163.9412
  66   2.0000      -6.020643      -163.8300
  67   2.0000      -6.020283      -163.8202
  68   2.0000      -6.017040      -163.7320
  69   2.0000      -6.016218      -163.7096
  70   2.0000      -6.012972      -163.6213
  71   2.0000      -6.012338      -163.6040
  72   2.0000      -6.008812      -163.5081
  73   2.0000      -6.005442      -163.4164
  74   2.0000      -6.004668      -163.3953
  75   2.0000      -6.002626      -163.3398
  76   2.0000      -6.001317      -163.3041
  77   2.0000      -6.000363      -163.2782
  78   2.0000      -5.998662      -163.2319
  79   2.0000      -5.996718      -163.1790
  80   2.0000      -5.995628      -163.1493
  81   2.0000      -5.993839      -163.1006
  82   2.0000      -5.991235      -163.0298
  83   2.0000      -1.313874       -35.7523
  84   2.0000      -1.220970       -33.2243
  85   2.0000      -1.165194       -31.7065
  86   2.0000      -1.128844       -30.7174
  87   2.0000      -1.068373       -29.0719
  88   2.0000      -0.993952       -27.0468
  89   2.0000      -0.990236       -26.9457
  90   2.0000      -0.987251       -26.8645
  91   2.0000      -0.980986       -26.6940
  92   2.0000      -0.974358       -26.5136
  93   2.0000      -0.966754       -26.3067
  94   2.0000      -0.963429       -26.2162
  95   2.0000      -0.947940       -25.7947
  96   2.0000      -0.928671       -25.2704
  97   2.0000      -0.902811       -24.5667
  98   2.0000      -0.895861       -24.3776
  99   2.0000      -0.891273       -24.2528
 100   2.0000      -0.885050       -24.0834
 101   2.0000      -0.882011       -24.0007
 102   2.0000      -0.869413       -23.6579
 103   2.0000      -0.859349       -23.3841
 104   2.0000      -0.847234       -23.0544
 105   2.0000      -0.841091       -22.8873
 106   2.0000      -0.839026       -22.8311
 107   2.0000      -0.837313       -22.7844
 108   2.0000      -0.825443       -22.4614
 109   2.0000      -0.816947       -22.2303
 110   2.0000      -0.815327       -22.1862
 111   2.0000      -0.812583       -22.1115
 112   2.0000      -0.811619       -22.0853
 113   2.0000      -0.808424       -21.9983
 114   2.0000      -0.797372       -21.6976
 115   2.0000      -0.779307       -21.2060
 116   2.0000      -0.774052       -21.0630
 117   2.0000      -0.755804       -20.5665
 118   2.0000      -0.744728       -20.2651
 119   2.0000      -0.738196       -20.0873
 120   2.0000      -0.728110       -19.8129
 121   2.0000      -0.719064       -19.5667
 122   2.0000      -0.705618       -19.2009
 123   2.0000      -0.693780       -18.8787
 124   2.0000      -0.691831       -18.8257
 125   2.0000      -0.682642       -18.5756
 126   2.0000      -0.679384       -18.4870
 127   2.0000      -0.671928       -18.2841
 128   2.0000      -0.666704       -18.1419
 129   2.0000      -0.662614       -18.0307
 130   2.0000      -0.659974       -17.9588
 131   2.0000      -0.647426       -17.6174
 132   2.0000      -0.644787       -17.5456
 133   2.0000      -0.636271       -17.3138
 134   2.0000      -0.630682       -17.1617
 135   2.0000      -0.629618       -17.1328
 136   2.0000      -0.622690       -16.9443
 137   2.0000      -0.621088       -16.9007
 138   2.0000      -0.616878       -16.7861
 139   2.0000      -0.613002       -16.6806
 140   2.0000      -0.609854       -16.5950
 141   2.0000      -0.606189       -16.4952
 142   2.0000      -0.600298       -16.3349
 143   2.0000      -0.594107       -16.1665
 144   2.0000      -0.591181       -16.0869
 145   2.0000      -0.585261       -15.9258
 146   2.0000      -0.583049       -15.8656
 147   2.0000      -0.575769       -15.6675
 148   2.0000      -0.574504       -15.6331
 149   2.0000      -0.564081       -15.3494
 150   2.0000      -0.556891       -15.1538
 151   2.0000      -0.556539       -15.1442
 152   2.0000      -0.549157       -14.9433
 153   2.0000      -0.544202       -14.8085
 154   2.0000      -0.543533       -14.7903
 155   2.0000      -0.532581       -14.4923
 156   2.0000      -0.531376       -14.4595
 157   2.0000      -0.526420       -14.3246
 158   2.0000      -0.517967       -14.0946
 159   2.0000      -0.516797       -14.0627
 160   2.0000      -0.515886       -14.0380
 161   2.0000      -0.511513       -13.9190
 162   2.0000      -0.509172       -13.8553
 163   2.0000      -0.505899       -13.7662
 164   2.0000      -0.502924       -13.6853
 165   2.0000      -0.500114       -13.6088
 166   2.0000      -0.498175       -13.5560
 167   2.0000      -0.495423       -13.4812
 168   2.0000      -0.490898       -13.3580
 169   2.0000      -0.490175       -13.3383
 170   2.0000      -0.489304       -13.3146
 171   2.0000      -0.488391       -13.2898
 172   2.0000      -0.485903       -13.2221
 173   2.0000      -0.481635       -13.1060
 174   2.0000      -0.476163       -12.9570
 175   2.0000      -0.470545       -12.8042
 176   2.0000      -0.468254       -12.7418
 177   2.0000      -0.466776       -12.7016
 178   2.0000      -0.465125       -12.6567
 179   2.0000      -0.463155       -12.6031
 180   2.0000      -0.459753       -12.5105
 181   2.0000      -0.455472       -12.3940
 182   2.0000      -0.452608       -12.3161
 183   2.0000      -0.448832       -12.2133
 184   2.0000      -0.447470       -12.1763
 185   2.0000      -0.446265       -12.1435
 186   2.0000      -0.445797       -12.1308
 187   2.0000      -0.436693       -11.8830
 188   2.0000      -0.435050       -11.8383
 189   2.0000      -0.433508       -11.7963
 190   2.0000      -0.432097       -11.7580
 191   2.0000      -0.431738       -11.7482
 192   2.0000      -0.430575       -11.7165
 193   2.0000      -0.421301       -11.4642
 194   2.0000      -0.420000       -11.4288
 195   2.0000      -0.419232       -11.4079
 196   2.0000      -0.417429       -11.3588
 197   2.0000      -0.416131       -11.3235
 198   2.0000      -0.414757       -11.2861
 199   2.0000      -0.412072       -11.2131
 200   2.0000      -0.408938       -11.1278
 201   2.0000      -0.405022       -11.0212
 202   2.0000      -0.404730       -11.0133
 203   2.0000      -0.403230       -10.9724
 204   2.0000      -0.400435       -10.8964
 205   2.0000      -0.396331       -10.7847
 206   2.0000      -0.385437       -10.4883
 207   2.0000      -0.380883       -10.3644
 208   2.0000      -0.378446       -10.2980
 209   2.0000      -0.372013       -10.1230
 210   2.0000      -0.365547        -9.9470
 211   2.0000      -0.360900        -9.8206
 212   2.0000      -0.358774        -9.7627
 213   2.0000      -0.343910        -9.3583
 214   2.0000      -0.341929        -9.3044
 215   2.0000      -0.330988        -9.0066
 216   2.0000      -0.330255        -8.9867
 217   2.0000      -0.326294        -8.8789
 218   2.0000      -0.320108        -8.7106
 219   2.0000      -0.315404        -8.5826
 220   2.0000      -0.309306        -8.4166
 221   2.0000      -0.305790        -8.3210
 222   2.0000      -0.302554        -8.2329
 223   2.0000      -0.294222        -8.0062
 224   2.0000      -0.291305        -7.9268
 225   2.0000      -0.272721        -7.4211
 226   2.0000      -0.251494        -6.8435
 227   2.0000      -0.217026        -5.9056
 228   2.0000      -0.178038        -4.8447
 229   0.0000      -0.097058        -2.6411
 230   0.0000      -0.061115        -1.6630
 231   0.0000      -0.050593        -1.3767
 232   0.0000      -0.024687        -0.6718
 233   0.0000      -0.006033        -0.1642

MULLIKEN ATOMIC CHARGES
-----------------------
   0 C :   -0.083902
   1 S :    0.059629
   2 C :   -0.045526
   3 O :   -0.169198
   4 C :    0.052646
   5 C :    0.046702
   6 C :    0.008445
   7 C :   -0.000628
   8 C :   -0.008565
   9 C :   -0.022343
  10 C :    0.036203
  11 C :    0.021085
  12 C :   -0.042926
  13 S :    0.065052
  14 C :   -0.040468
  15 C :    0.023749
  16 C :    0.028961
  17 C :   -0.028031
  18 S :    0.062765
  19 C :   -0.023402
  20 C :   -0.145108
  21 S :    0.107974
  22 C :   -0.119476
  23 C :    0.131573
  24 C :    0.162958
  25 O :   -0.178700
  26 C :    0.209725
  27 N :    0.299661
  28 O :   -0.265620
  29 O :   -0.238044
  30 C :   -0.080411
  31 C :    0.014135
  32 C :   -0.013480
  33 C :    0.015435
  34 C :    0.029387
  35 C :   -0.046488
  36 S :    0.043236
  37 C :   -0.009480
  38 C :    0.022349
  39 C :    0.027583
  40 C :    0.024909
  41 S :    0.092827
  42 C :   -0.081844
  43 C :    0.106396
  44 C :   -0.033044
  45 C :   -0.044546
  46 C :    0.069898
  47 C :   -0.037626
  48 C :    0.023422
  49 N :   -0.067964
  50 C :   -0.092570
  51 C :    0.056815
  52 C :    0.013082
  53 C :   -0.151479
  54 C :    0.092332
  55 C :    0.006743
  56 N :    0.003301
  57 C :   -0.006238
  58 C :   -0.009931
  59 H :    0.025974
  60 H :    0.194884
  61 H :   -0.007589
  62 H :   -0.011735
  63 H :   -0.007617
  64 H :   -0.017139
  65 H :   -0.015456
  66 H :   -0.016905
  67 H :   -0.017500
  68 H :   -0.014596
  69 H :   -0.000184
  70 H :   -0.011805
  71 H :   -0.020345
  72 H :   -0.016181
  73 H :   -0.016335
  74 H :   -0.021748
  75 H :   -0.015325
  76 H :   -0.026729
  77 H :   -0.027357
  78 H :   -0.031506
  79 H :    0.039273
  80 H :    0.014587
  81 H :    0.024452
  82 H :    0.011701
  83 H :    0.006796
  84 H :    0.031998
  85 H :    0.004128
  86 H :    0.006101
  87 H :    0.022636
  88 H :    0.013124
  89 H :   -0.000008
  90 H :    0.006827
  91 H :    0.021634
Sum of atomic charges:   -0.0000000

LOEWDIN ATOMIC CHARGES
----------------------
   0 C :   -0.191660
   1 S :    0.381411
   2 C :   -0.097362
   3 O :   -0.044697
   4 C :   -0.117694
   5 C :   -0.039053
   6 C :    0.000203
   7 C :   -0.048560
   8 C :   -0.042319
   9 C :   -0.156246
  10 C :   -0.031226
  11 C :   -0.040606
  12 C :   -0.173019
  13 S :    0.365089
  14 C :   -0.187812
  15 C :   -0.038725
  16 C :   -0.039554
  17 C :   -0.155939
  18 S :    0.369105
  19 C :   -0.075849
  20 C :   -0.202057
  21 S :    0.430116
  22 C :   -0.154639
  23 C :   -0.086859
  24 C :    0.025186
  25 O :    0.008610
  26 C :    0.005516
  27 N :    0.279928
  28 O :   -0.228567
  29 O :   -0.199681
  30 C :   -0.004951
  31 C :   -0.091250
  32 C :   -0.150896
  33 C :   -0.044720
  34 C :   -0.034871
  35 C :   -0.187477
  36 S :    0.399032
  37 C :   -0.182224
  38 C :   -0.040647
  39 C :   -0.025873
  40 C :   -0.146182
  41 S :    0.452961
  42 C :   -0.039414
  43 C :   -0.035208
  44 C :   -0.011298
  45 C :   -0.013447
  46 C :   -0.022683
  47 C :   -0.006333
  48 C :   -0.003589
  49 N :   -0.060853
  50 C :    0.018828
  51 C :   -0.050854
  52 C :   -0.048500
  53 C :    0.009746
  54 C :   -0.038480
  55 C :   -0.046501
  56 N :   -0.041509
  57 C :   -0.018389
  58 C :   -0.039332
  59 H :    0.023628
  60 H :    0.099358
  61 H :    0.032020
  62 H :    0.031050
  63 H :    0.018559
  64 H :    0.032534
  65 H :    0.032327
  66 H :    0.030510
  67 H :    0.030463
  68 H :    0.032795
  69 H :    0.044671
  70 H :    0.029393
  71 H :    0.034253
  72 H :    0.031516
  73 H :    0.031328
  74 H :    0.027466
  75 H :    0.031132
  76 H :    0.034394
  77 H :    0.027817
  78 H :    0.028592
  79 H :    0.016208
  80 H :    0.022978
  81 H :    0.018480
  82 H :    0.023111
  83 H :    0.019442
  84 H :    0.030850
  85 H :    0.032340
  86 H :    0.020137
  87 H :    0.029272
  88 H :    0.023562
  89 H :    0.030534
  90 H :    0.015873
  91 H :    0.025280

  Mayer bond orders larger than 0.100000
B(  0-C ,  1-S ) :   1.1005 B(  0-C ,  5-C ) :   1.6426 B(  0-C , 59-H ) :   0.9688
B(  1-S ,  2-C ) :   1.1286 B(  2-C ,  3-O ) :   1.2151 B(  2-C ,  4-C ) :   1.4404
B(  3-O , 60-H ) :   0.9530 B(  4-C ,  5-C ) :   1.2047 B(  4-C ,  6-C ) :   1.1055
B(  5-C , 61-H ) :   0.9962 B(  6-C ,  7-C ) :   1.6338 B(  6-C , 62-H ) :   0.9880
B(  7-C ,  8-C ) :   1.1605 B(  7-C , 63-H ) :   0.9676 B(  8-C ,  9-C ) :   1.5540
B(  8-C , 64-H ) :   0.9838 B(  9-C , 10-C ) :   1.1528 B(  9-C , 13-S ) :   1.0213
B( 10-C , 11-C ) :   1.5697 B( 10-C , 65-H ) :   0.9995 B( 11-C , 12-C ) :   1.2079
B( 11-C , 66-H ) :   0.9933 B( 12-C , 13-S ) :   1.0542 B( 12-C , 14-C ) :   1.4723
B( 14-C , 15-C ) :   1.2156 B( 14-C , 18-S ) :   1.0419 B( 15-C , 16-C ) :   1.5510
B( 15-C , 67-H ) :   0.9923 B( 16-C , 17-C ) :   1.1821 B( 16-C , 68-H ) :   1.0001
B( 17-C , 18-S ) :   1.0449 B( 17-C , 19-C ) :   1.4834 B( 19-C , 20-C ) :   1.2509
B( 19-C , 69-H ) :   0.9741 B( 20-C , 21-S ) :   1.0514 B( 20-C , 24-C ) :   1.3874
B( 21-S , 22-C ) :   1.1134 B( 22-C , 23-C ) :   1.2150 B( 22-C , 31-C ) :   1.3186
B( 23-C , 24-C ) :   1.2574 B( 23-C , 30-C ) :   1.1467 B( 24-C , 25-O ) :   1.1416
B( 25-O , 26-C ) :   1.1187 B( 26-C , 27-N ) :   0.9565 B( 26-C , 30-C ) :   1.4945
B( 27-N , 28-O ) :   1.4496 B( 27-N , 29-O ) :   1.4998 B( 28-O , 29-O ) :   0.2529
B( 30-C , 70-H ) :   1.0174 B( 31-C , 32-C ) :   1.4761 B( 31-C , 71-H ) :   0.9323
B( 32-C , 33-C ) :   1.2052 B( 32-C , 36-S ) :   1.0545 B( 33-C , 34-C ) :   1.5173
B( 33-C , 72-H ) :   1.0006 B( 34-C , 35-C ) :   1.2399 B( 34-C , 73-H ) :   0.9915
B( 35-C , 36-S ) :   1.0437 B( 35-C , 37-C ) :   1.4426 B( 37-C , 38-C ) :   1.2039
B( 37-C , 41-S ) :   1.0065 B( 38-C , 39-C ) :   1.5695 B( 38-C , 74-H ) :   0.9926
B( 39-C , 40-C ) :   1.1448 B( 39-C , 75-H ) :   0.9992 B( 40-C , 41-S ) :   1.0453
B( 40-C , 42-C ) :   1.5477 B( 42-C , 43-C ) :   1.1450 B( 42-C , 76-H ) :   0.9589
B( 43-C , 44-C ) :   1.3438 B( 43-C , 46-C ) :   0.1094 B( 43-C , 48-C ) :   1.1724
B( 44-C , 45-C ) :   1.3080 B( 44-C , 77-H ) :   0.9984 B( 45-C , 46-C ) :   1.3855
B( 45-C , 78-H ) :   0.9949 B( 46-C , 47-C ) :   1.2052 B( 46-C , 57-C ) :   1.1150
B( 47-C , 48-C ) :   1.2541 B( 47-C , 56-N ) :   1.4560 B( 48-C , 49-N ) :   1.4152
B( 49-N , 50-C ) :   1.5852 B( 50-C , 51-C ) :   1.0564 B( 50-C , 53-C ) :   1.2078
B( 51-C , 52-C ) :   1.1004 B( 51-C , 79-H ) :   0.8994 B( 51-C , 80-H ) :   0.9042
B( 52-C , 81-H ) :   0.9644 B( 52-C , 82-H ) :   0.9660 B( 52-C , 83-H ) :   0.9648
B( 53-C , 54-C ) :   1.0639 B( 53-C , 56-N ) :   1.6768 B( 54-C , 55-C ) :   1.0976
B( 54-C , 84-H ) :   0.9194 B( 54-C , 85-H ) :   0.9109 B( 55-C , 86-H ) :   0.9723
B( 55-C , 87-H ) :   0.9661 B( 55-C , 88-H ) :   0.9661 B( 57-C , 58-C ) :   1.9113
B( 57-C , 89-H ) :   0.9560 B( 58-C , 90-H ) :   0.9480 B( 58-C , 91-H ) :   0.9503

-----------------------------------------------------------------------------
         ABSORPTION SPECTRUM VIA TRANSITION ELECTRIC DIPOLE MOMENTS
-----------------------------------------------------------------------------
State   Energy  Wavelength   fosc         T2         TX        TY        TZ
        (cm-1)    (nm)                  (au**2)     (au)      (au)      (au)
-----------------------------------------------------------------------------
   0    6170.9   1620.5   0.890306038  47.49718   1.50214  -6.63271  -1.11710
   1   12971.6    770.9   0.434885148  11.03712  -0.79896  -3.22454  -0.03337
   2   13367.3    748.1   0.288094989   7.09523  -1.42869  -2.23640   0.22928
   3   15312.5    653.1   0.070228983   1.50990   1.09073  -0.51631  -0.23159
   4   19787.1    505.4   0.065849414   1.09558  -0.20392   1.01880   0.12666
   5   21596.9    463.0   0.777204230  11.84732  -3.17651  -0.85641   1.01176
   6   22294.0    448.6   0.051062142   0.75403  -0.42776  -0.73611   0.17086
   7   24000.2    416.7   0.002747800   0.03769  -0.17225  -0.00901   0.08911
   8   24687.8    405.1   0.971580153  12.95603  -3.07537  -1.62356   0.92854
   9   25288.1    395.4   0.096057455   1.25052  -0.84057  -0.64738   0.35337
  10   25822.7    387.3   0.172489420   2.19906  -1.40484  -0.20547   0.42810
  11   27770.7    360.1   0.000812575   0.00963   0.07906   0.05557   0.01719
  12   28315.4    353.2   0.109156810   1.26913   0.52160   0.98910  -0.13694
  13   28815.3    347.0   0.115032761   1.31424   0.82126  -0.74707  -0.28575
  14   29302.9    341.3   0.030676490   0.34464   0.07593   0.57455  -0.09366
  15   29721.3    336.5   0.056907355   0.63034  -0.73385   0.14955   0.26353
  16   29959.9    333.8   0.012774292   0.14037  -0.04805  -0.37148   0.00776
  17   30524.9    327.6   0.045975963   0.49585   0.24562   0.65805   0.04998
  18   31021.6    322.4   0.090594769   0.96142  -0.38169  -0.89977   0.07844
  19   31063.6    321.9   0.033876472   0.35902  -0.29935   0.50221   0.13114
  20   31971.0    312.8   0.039268037   0.40435   0.33233  -0.23408  -0.48900
  21   32051.3    312.0   0.137809711   1.41550   0.11335  -1.17006  -0.18332
  22   32971.4    303.3   0.007112500   0.07102  -0.13147   0.21205   0.09363
  23   33040.2    302.7   0.001809533   0.01803   0.10385  -0.00893  -0.08465
  24   33382.1    299.6   0.078766296   0.77679  -0.07659  -0.87802   0.00129
  25   33906.9    294.9   0.000038685   0.00038  -0.01883   0.00151  -0.00431
  26   33955.5    294.5   0.035149247   0.34079   0.20024  -0.53856  -0.10316
  27   34041.3    293.8   0.063575319   0.61483   0.61775   0.45950  -0.14860
  28   34856.7    286.9   0.047463916   0.44828  -0.51844  -0.41746   0.07236
  29   34901.2    286.5   0.047726895   0.45019  -0.47481  -0.46808   0.07515
  30   35216.9    284.0   0.005330871   0.04983   0.04092   0.20878   0.06761
  31   35759.9    279.6   0.008663830   0.07976   0.03114   0.27790  -0.03956
  32   35855.5    278.9   0.000014961   0.00014  -0.00072   0.01109   0.00373
  33   35943.3    278.2   0.075016978   0.68710  -0.19886   0.80273   0.05636
  34   36375.6    274.9   0.011131067   0.10074   0.14637  -0.25184  -0.12608
  35   36535.6    273.7   0.028824438   0.25973  -0.41741   0.22603   0.18551
  36   37030.1    270.1   0.003161443   0.02811  -0.00753  -0.15604  -0.06084
  37   37293.2    268.1   0.088945832   0.78518   0.27732   0.84122  -0.02494
  38   37582.6    266.1   0.025014601   0.21912   0.24649   0.39747   0.01948
  39   37931.2    263.6   0.084759534   0.73564  -0.56526  -0.64206   0.06235
  40   38041.3    262.9   0.004055663   0.03510   0.17471  -0.06693   0.00966
  41   38356.4    260.7   0.088390255   0.75865  -0.79361   0.06320   0.35332
  42   38740.7    258.1   0.017573175   0.14933   0.33731  -0.09140  -0.16493
  43   39154.9    255.4   0.000727206   0.00611  -0.01785  -0.03474  -0.06774
  44   39248.2    254.8   0.016695396   0.14004   0.21786   0.29338  -0.08063
  45   39381.4    253.9   0.115542575   0.96589  -0.11450   0.95756   0.18934
  46   40169.1    248.9   0.000273043   0.00224  -0.03378   0.02081  -0.02577

FINAL SINGLE POINT ENERGY     -4623.284680557273

DIPOLE MOMENT
-------------
                                X             Y             Z
Electronic contribution:     -0.18796     -49.28261       7.12726
Nuclear contribution   :     -2.43847      46.88901      -6.52664
                        -----------------------------------------
Total Dipole Moment    :     -2.62642      -2.39360       0.60062
                        -----------------------------------------
Magnitude (a.u.)       :      3.60391
Magnitude (Debye)      :      9.16041

Rotational constants in cm-1:     0.001965     0.000369     0.000313
Rotational constants in MHz :    58.903509    11.070134     9.387646

                             ****ORCA TERMINATED NORMALLY****
TOTAL RUN TIME: 0 days 0 hours 8 minutes 39 seconds 690 msec
