                         Program Version 4.2.0 -  RELEASE  -
|  1> # ORCA input file
|  2> # SCF done       -133.385881699021          0.000331542806
|  3> ! CAM-B3LYP def2-SVP def2/J RIJCOSX Grid4 TightSCF
|  4> %maxcore 5000
|  5> %tddft
|  6>     Mode sTDDFT
|  7>     Ethresh 5.0
|  8>     maxcore 5000
|  9> end
| 10>
| 11> %pal
| 12>   nprocs 6
| 13>   end
| 14> * xyz 0 1
| 15>    C        2.56433         0.94365         3.68560
| 16>    S        3.39278        -0.30267         4.54816
| 17>    C        3.08125        -1.43656         3.26735
| 18>    O        3.52109        -2.70842         3.34717
| 19>    C        2.37385        -0.87236         2.23175
| 20>    C        2.09220         0.50173         2.50222
| 21>    C        1.94739        -1.52021         1.01488
| 22>    C        2.16809        -2.79924         0.68424
| 23>    C        1.72107        -3.41832        -0.55509
| 24>    C        2.45371        -4.47518        -1.11289
| 25>    O        3.59125        -4.96968        -0.49760
| 26>    C        4.72831        -4.13385        -0.54366
| 27>    C        1.99217        -5.10789        -2.26900
| 28>    C        0.81408        -4.68758        -2.86371
| 29>    C        0.08329        -3.62939        -2.32649
| 30>    C        0.54411        -3.00180        -1.18027
| 31>    O       -1.06257        -3.30274        -2.99060
| 32>    C       -1.85172        -2.25240        -2.49022
| 33>    C        2.76498        -6.19188        -2.92251
| 34>    C        2.33827        -7.52434        -2.97313
| 35>    O        1.31031        -8.07391        -2.27106
| 36>    C        0.84113        -7.46090        -1.09513
| 37>    C        3.02518        -8.41468        -3.81385
| 38>    C        4.17334        -8.02148        -4.48893
| 39>    C        4.64202        -6.72122        -4.37120
| 40>    C        3.90616        -5.81578        -3.61604
| 41>    O        5.76575        -6.22850        -4.97739
| 42>    C        6.53127        -7.10488        -5.76471
| 43>    C        2.49440        -9.77760        -4.01865
| 44>    C        1.19425        -9.94864        -4.49436
| 45>    O        0.40581        -8.85403        -4.79343
| 46>    C        0.74799        -8.18941        -5.98943
| 47>    C        0.68957       -11.24807        -4.68238
| 48>    C        1.51544       -12.33431        -4.41335
| 49>    C        2.81943       -12.16459        -3.96360
| 50>    C        3.30394       -10.87916        -3.76332
| 51>    O        3.52763       -13.31041        -3.74925
| 52>    C        4.84881       -13.20228        -3.28089
| 53>    C       -0.65997       -11.47092        -5.15996
| 54>    S       -1.07491       -13.00144        -5.91095
| 55>    C       -2.70726       -12.47346        -6.16279
| 56>    O       -3.62357       -13.26512        -6.75976
| 57>    C       -2.92844       -11.20170        -5.69105
| 58>    C       -1.74675       -10.65371        -5.12309
| 59>    C       -4.21902       -10.55112        -5.78951
| 60>    C       -4.49394        -9.32090        -5.37235
| 61>    H        2.48993         1.91775         4.12470
| 62>    H        3.98686        -2.85680         4.17814
| 63>    H        1.54757         1.12512         1.81530
| 64>    H        1.42414        -0.86806         0.32743
| 65>    H        2.72155        -3.44082         1.35397
| 66>    H        5.47847        -4.61380         0.08271
| 67>    H        4.51560        -3.13244        -0.15678
| 68>    H        5.11341        -4.04912        -1.56558
| 69>    H        0.44753        -5.18034        -3.75048
| 70>    H       -0.01964        -2.20543        -0.72229
| 71>    H       -2.69704        -2.16887        -3.17158
| 72>    H       -1.30199        -1.30538        -2.47947
| 73>    H       -2.22065        -2.47005        -1.48236
| 74>    H        1.65973        -7.04926        -0.49969
| 75>    H        0.34699        -8.25558        -0.53435
| 76>    H        0.11619        -6.67023        -1.30834
| 77>    H        4.66629        -8.74607        -5.11851
| 78>    H        4.22737        -4.78610        -3.59748
| 79>    H        7.37385        -6.51756        -6.12678
| 80>    H        5.96113        -7.48203        -6.62061
| 81>    H        6.90637        -7.95067        -5.17866
| 82>    H        0.64631        -8.85796        -6.85280
| 83>    H        1.76830        -7.79336        -5.95953
| 84>    H        0.04407        -7.36466        -6.08890
| 85>    H        1.14970       -13.34052        -4.55141
| 86>    H        4.30075       -10.70331        -3.39084
| 87>    H        5.20900       -14.22473        -3.17707
| 88>    H        4.89224       -12.70317        -2.30746
| 89>    H        5.48599       -12.66631        -3.99237
| 90>    H       -3.23037       -14.11042        -7.00281
| 91>    H       -1.70391        -9.67667        -4.68218
| 92>    H       -4.98820       -11.15695        -6.24990
| 93>    H       -3.75366        -8.69030        -4.91115
| 94>    H       -5.47928        -8.90136        -5.47992
| 95> *
| 96>
| 97>                          ****END OF INPUT****

CARTESIAN COORDINATES (ANGSTROEM)
---------------------------------
  C      2.564330    0.943650    3.685600
  S      3.392780   -0.302670    4.548160
  C      3.081250   -1.436560    3.267350
  O      3.521090   -2.708420    3.347170
  C      2.373850   -0.872360    2.231750
  C      2.092200    0.501730    2.502220
  C      1.947390   -1.520210    1.014880
  C      2.168090   -2.799240    0.684240
  C      1.721070   -3.418320   -0.555090
  C      2.453710   -4.475180   -1.112890
  O      3.591250   -4.969680   -0.497600
  C      4.728310   -4.133850   -0.543660
  C      1.992170   -5.107890   -2.269000
  C      0.814080   -4.687580   -2.863710
  C      0.083290   -3.629390   -2.326490
  C      0.544110   -3.001800   -1.180270
  O     -1.062570   -3.302740   -2.990600
  C     -1.851720   -2.252400   -2.490220
  C      2.764980   -6.191880   -2.922510
  C      2.338270   -7.524340   -2.973130
  O      1.310310   -8.073910   -2.271060
  C      0.841130   -7.460900   -1.095130
  C      3.025180   -8.414680   -3.813850
  C      4.173340   -8.021480   -4.488930
  C      4.642020   -6.721220   -4.371200
  C      3.906160   -5.815780   -3.616040
  O      5.765750   -6.228500   -4.977390
  C      6.531270   -7.104880   -5.764710
  C      2.494400   -9.777600   -4.018650
  C      1.194250   -9.948640   -4.494360
  O      0.405810   -8.854030   -4.793430
  C      0.747990   -8.189410   -5.989430
  C      0.689570  -11.248070   -4.682380
  C      1.515440  -12.334310   -4.413350
  C      2.819430  -12.164590   -3.963600
  C      3.303940  -10.879160   -3.763320
  O      3.527630  -13.310410   -3.749250
  C      4.848810  -13.202280   -3.280890
  C     -0.659970  -11.470920   -5.159960
  S     -1.074910  -13.001440   -5.910950
  C     -2.707260  -12.473460   -6.162790
  O     -3.623570  -13.265120   -6.759760
  C     -2.928440  -11.201700   -5.691050
  C     -1.746750  -10.653710   -5.123090
  C     -4.219020  -10.551120   -5.789510
  C     -4.493940   -9.320900   -5.372350
  H      2.489930    1.917750    4.124700
  H      3.986860   -2.856800    4.178140
  H      1.547570    1.125120    1.815300
  H      1.424140   -0.868060    0.327430
  H      2.721550   -3.440820    1.353970
  H      5.478470   -4.613800    0.082710
  H      4.515600   -3.132440   -0.156780
  H      5.113410   -4.049120   -1.565580
  H      0.447530   -5.180340   -3.750480
  H     -0.019640   -2.205430   -0.722290
  H     -2.697040   -2.168870   -3.171580
  H     -1.301990   -1.305380   -2.479470
  H     -2.220650   -2.470050   -1.482360
  H      1.659730   -7.049260   -0.499690
  H      0.346990   -8.255580   -0.534350
  H      0.116190   -6.670230   -1.308340
  H      4.666290   -8.746070   -5.118510
  H      4.227370   -4.786100   -3.597480
  H      7.373850   -6.517560   -6.126780
  H      5.961130   -7.482030   -6.620610
  H      6.906370   -7.950670   -5.178660
  H      0.646310   -8.857960   -6.852800
  H      1.768300   -7.793360   -5.959530
  H      0.044070   -7.364660   -6.088900
  H      1.149700  -13.340520   -4.551410
  H      4.300750  -10.703310   -3.390840
  H      5.209000  -14.224730   -3.177070
  H      4.892240  -12.703170   -2.307460
  H      5.485990  -12.666310   -3.992370
  H     -3.230370  -14.110420   -7.002810
  H     -1.703910   -9.676670   -4.682180
  H     -4.988200  -11.156950   -6.249900
  H     -3.753660   -8.690300   -4.911150
  H     -5.479280   -8.901360   -5.479920

 Total Charge           Charge          ....    0
 Multiplicity           Mult            ....    1
 Number of Electrons    NEL             ....  346
 Basis Dimension        Dim             ....  822

ORBITAL ENERGIES
----------------

  NO   OCC          E(Eh)            E(eV)
   0   2.0000     -88.952726     -2420.5267
   1   2.0000     -88.936247     -2420.0783
   2   2.0000     -19.265083      -524.2296
   3   2.0000     -19.250326      -523.8280
   4   2.0000     -19.230122      -523.2782
   5   2.0000     -19.227182      -523.1982
   6   2.0000     -19.225886      -523.1630
   7   2.0000     -19.215816      -522.8890
   8   2.0000     -19.213586      -522.8283
   9   2.0000     -19.207433      -522.6608
  10   2.0000     -10.350543      -281.6526
  11   2.0000     -10.336202      -281.2624
  12   2.0000     -10.315603      -280.7018
  13   2.0000     -10.312773      -280.6248
  14   2.0000     -10.311621      -280.5935
  15   2.0000     -10.310537      -280.5640
  16   2.0000     -10.310468      -280.5621
  17   2.0000     -10.308169      -280.4995
  18   2.0000     -10.307802      -280.4895
  19   2.0000     -10.303358      -280.3686
  20   2.0000     -10.299358      -280.2598
  21   2.0000     -10.299255      -280.2570
  22   2.0000     -10.293245      -280.0934
  23   2.0000     -10.290422      -280.0166
  24   2.0000     -10.283906      -279.8393
  25   2.0000     -10.275086      -279.5993
  26   2.0000     -10.268230      -279.4128
  27   2.0000     -10.268046      -279.4077
  28   2.0000     -10.266235      -279.3585
  29   2.0000     -10.265542      -279.3396
  30   2.0000     -10.264167      -279.3022
  31   2.0000     -10.263993      -279.2975
  32   2.0000     -10.263152      -279.2746
  33   2.0000     -10.261661      -279.2340
  34   2.0000     -10.259176      -279.1664
  35   2.0000     -10.255508      -279.0666
  36   2.0000     -10.254268      -279.0328
  37   2.0000     -10.253735      -279.0183
  38   2.0000     -10.250997      -278.9438
  39   2.0000     -10.250725      -278.9364
  40   2.0000     -10.249513      -278.9034
  41   2.0000     -10.248874      -278.8860
  42   2.0000     -10.247430      -278.8467
  43   2.0000     -10.246189      -278.8130
  44   2.0000     -10.245877      -278.8045
  45   2.0000     -10.235377      -278.5188
  46   2.0000      -8.049681      -219.0430
  47   2.0000      -8.032788      -218.5833
  48   2.0000      -6.019124      -163.7887
  49   2.0000      -6.014915      -163.6742
  50   2.0000      -6.011405      -163.5787
  51   2.0000      -6.002152      -163.3269
  52   2.0000      -5.998249      -163.2207
  53   2.0000      -5.994399      -163.1159
  54   2.0000      -1.159969       -31.5644
  55   2.0000      -1.145117       -31.1602
  56   2.0000      -1.134130       -30.8613
  57   2.0000      -1.131221       -30.7821
  58   2.0000      -1.129037       -30.7227
  59   2.0000      -1.121205       -30.5095
  60   2.0000      -1.116249       -30.3747
  61   2.0000      -1.110133       -30.2083
  62   2.0000      -0.968791       -26.3621
  63   2.0000      -0.958203       -26.0740
  64   2.0000      -0.944797       -25.7092
  65   2.0000      -0.934983       -25.4422
  66   2.0000      -0.920701       -25.0536
  67   2.0000      -0.886531       -24.1237
  68   2.0000      -0.868695       -23.6384
  69   2.0000      -0.856509       -23.3068
  70   2.0000      -0.844647       -22.9840
  71   2.0000      -0.837918       -22.8009
  72   2.0000      -0.833439       -22.6790
  73   2.0000      -0.819030       -22.2869
  74   2.0000      -0.807709       -21.9789
  75   2.0000      -0.801756       -21.8169
  76   2.0000      -0.788888       -21.4667
  77   2.0000      -0.787544       -21.4302
  78   2.0000      -0.783451       -21.3188
  79   2.0000      -0.778709       -21.1898
  80   2.0000      -0.774941       -21.0872
  81   2.0000      -0.768943       -20.9240
  82   2.0000      -0.741947       -20.1894
  83   2.0000      -0.740971       -20.1628
  84   2.0000      -0.727377       -19.7929
  85   2.0000      -0.707961       -19.2646
  86   2.0000      -0.704826       -19.1793
  87   2.0000      -0.693163       -18.8619
  88   2.0000      -0.688432       -18.7332
  89   2.0000      -0.673941       -18.3389
  90   2.0000      -0.662805       -18.0358
  91   2.0000      -0.646295       -17.5866
  92   2.0000      -0.640289       -17.4232
  93   2.0000      -0.636761       -17.3271
  94   2.0000      -0.634858       -17.2754
  95   2.0000      -0.628604       -17.1052
  96   2.0000      -0.608097       -16.5472
  97   2.0000      -0.604118       -16.4389
  98   2.0000      -0.596365       -16.2279
  99   2.0000      -0.589339       -16.0367
 100   2.0000      -0.586094       -15.9484
 101   2.0000      -0.581824       -15.8322
 102   2.0000      -0.576952       -15.6997
 103   2.0000      -0.574801       -15.6411
 104   2.0000      -0.573033       -15.5930
 105   2.0000      -0.569018       -15.4838
 106   2.0000      -0.564105       -15.3501
 107   2.0000      -0.554247       -15.0818
 108   2.0000      -0.548037       -14.9128
 109   2.0000      -0.541631       -14.7385
 110   2.0000      -0.538991       -14.6667
 111   2.0000      -0.538656       -14.6576
 112   2.0000      -0.533614       -14.5204
 113   2.0000      -0.527371       -14.3505
 114   2.0000      -0.524675       -14.2771
 115   2.0000      -0.521523       -14.1914
 116   2.0000      -0.516663       -14.0591
 117   2.0000      -0.515039       -14.0149
 118   2.0000      -0.511381       -13.9154
 119   2.0000      -0.510842       -13.9007
 120   2.0000      -0.504142       -13.7184
 121   2.0000      -0.502301       -13.6683
 122   2.0000      -0.500998       -13.6329
 123   2.0000      -0.499208       -13.5841
 124   2.0000      -0.496542       -13.5116
 125   2.0000      -0.489982       -13.3331
 126   2.0000      -0.487594       -13.2681
 127   2.0000      -0.486288       -13.2326
 128   2.0000      -0.483639       -13.1605
 129   2.0000      -0.476490       -12.9660
 130   2.0000      -0.473211       -12.8767
 131   2.0000      -0.469294       -12.7702
 132   2.0000      -0.468015       -12.7353
 133   2.0000      -0.466159       -12.6848
 134   2.0000      -0.464943       -12.6517
 135   2.0000      -0.453279       -12.3343
 136   2.0000      -0.451623       -12.2893
 137   2.0000      -0.446570       -12.1518
 138   2.0000      -0.443285       -12.0624
 139   2.0000      -0.440158       -11.9773
 140   2.0000      -0.436319       -11.8728
 141   2.0000      -0.429352       -11.6833
 142   2.0000      -0.427742       -11.6394
 143   2.0000      -0.420536       -11.4434
 144   2.0000      -0.417718       -11.3667
 145   2.0000      -0.416390       -11.3305
 146   2.0000      -0.412789       -11.2326
 147   2.0000      -0.410484       -11.1698
 148   2.0000      -0.405431       -11.0324
 149   2.0000      -0.401387       -10.9223
 150   2.0000      -0.397349       -10.8124
 151   2.0000      -0.396608       -10.7923
 152   2.0000      -0.395515       -10.7625
 153   2.0000      -0.391107       -10.6426
 154   2.0000      -0.388339       -10.5672
 155   2.0000      -0.385523       -10.4906
 156   2.0000      -0.373576       -10.1655
 157   2.0000      -0.370833       -10.0909
 158   2.0000      -0.359926        -9.7941
 159   2.0000      -0.355552        -9.6751
 160   2.0000      -0.346542        -9.4299
 161   2.0000      -0.336702        -9.1621
 162   2.0000      -0.324938        -8.8420
 163   2.0000      -0.321847        -8.7579
 164   2.0000      -0.316112        -8.6018
 165   2.0000      -0.299890        -8.1604
 166   2.0000      -0.291680        -7.9370
 167   2.0000      -0.280166        -7.6237
 168   2.0000      -0.271618        -7.3911
 169   2.0000      -0.262487        -7.1426
 170   2.0000      -0.247151        -6.7253
 171   2.0000      -0.243146        -6.6163
 172   2.0000      -0.233353        -6.3498
 173   0.0000      -0.001369        -0.0372
 174   0.0000       0.014325         0.3898
 175   0.0000       0.030444         0.8284
 176   0.0000       0.041754         1.1362
 177   0.0000       0.046002         1.2518

MULLIKEN ATOMIC CHARGES
-----------------------
   0 C :   -0.085346
   1 S :    0.051579
   2 C :   -0.061311
   3 O :   -0.167782
   4 C :    0.086291
   5 C :    0.031147
   6 C :    0.000122
   7 C :   -0.047535
   8 C :    0.098128
   9 C :    0.097101
  10 O :   -0.346436
  11 C :    0.209861
  12 C :   -0.036019
  13 C :   -0.052894
  14 C :    0.279899
  15 C :   -0.178119
  16 O :   -0.315332
  17 C :    0.182174
  18 C :   -0.020717
  19 C :    0.204937
  20 O :   -0.310126
  21 C :    0.222469
  22 C :   -0.067180
  23 C :   -0.133922
  24 C :    0.262361
  25 C :   -0.063745
  26 O :   -0.319235
  27 C :    0.184038
  28 C :    0.068890
  29 C :    0.095033
  30 O :   -0.352207
  31 C :    0.211958
  32 C :    0.162457
  33 C :   -0.129086
  34 C :    0.277797
  35 C :   -0.170522
  36 O :   -0.315615
  37 C :    0.182628
  38 C :   -0.129382
  39 S :    0.045559
  40 C :   -0.031209
  41 O :   -0.175186
  42 C :    0.058969
  43 C :   -0.005339
  44 C :    0.002533
  45 C :   -0.028416
  46 H :    0.024388
  47 H :    0.193088
  48 H :   -0.014158
  49 H :   -0.029453
  50 H :    0.017509
  51 H :    0.023278
  52 H :    0.020104
  53 H :    0.003677
  54 H :   -0.029224
  55 H :   -0.044500
  56 H :    0.034645
  57 H :    0.015795
  58 H :    0.020153
  59 H :    0.017737
  60 H :    0.024644
  61 H :    0.017573
  62 H :   -0.041429
  63 H :   -0.031407
  64 H :    0.030756
  65 H :    0.016607
  66 H :    0.013935
  67 H :    0.007872
  68 H :    0.021128
  69 H :    0.026958
  70 H :   -0.027183
  71 H :   -0.045684
  72 H :    0.031930
  73 H :    0.020994
  74 H :    0.014695
  75 H :    0.190503
  76 H :   -0.004216
  77 H :   -0.013396
  78 H :    0.008023
  79 H :    0.011387
Sum of atomic charges:    0.0000000

LOEWDIN ATOMIC CHARGES
----------------------
   0 C :   -0.200992
   1 S :    0.378988
   2 C :   -0.096850
   3 O :   -0.040541
   4 C :   -0.115709
   5 C :   -0.046104
   6 C :   -0.021087
   7 C :   -0.026820
   8 C :   -0.031621
   9 C :    0.029209
  10 O :   -0.137006
  11 C :    0.079017
  12 C :   -0.027043
  13 C :   -0.037488
  14 C :    0.049565
  15 C :   -0.071535
  16 O :   -0.109302
  17 C :    0.074372
  18 C :   -0.039930
  19 C :    0.051342
  20 O :   -0.098872
  21 C :    0.076401
  22 C :   -0.034222
  23 C :   -0.069222
  24 C :    0.037079
  25 C :   -0.031609
  26 O :   -0.115633
  27 C :    0.073160
  28 C :   -0.015703
  29 C :    0.042430
  30 O :   -0.124068
  31 C :    0.076546
  32 C :   -0.037911
  33 C :   -0.057658
  34 C :    0.051391
  35 C :   -0.074341
  36 O :   -0.110442
  37 C :    0.074140
  38 C :   -0.172201
  39 S :    0.373583
  40 C :   -0.098303
  41 O :   -0.051352
  42 C :   -0.118758
  43 C :   -0.027144
  44 C :   -0.014660
  45 C :   -0.065815
  46 H :    0.022419
  47 H :    0.097794
  48 H :    0.029522
  49 H :    0.023483
  50 H :    0.028232
  51 H :    0.022134
  52 H :    0.011433
  53 H :    0.007972
  54 H :    0.034231
  55 H :    0.023817
  56 H :    0.027789
  57 H :    0.012134
  58 H :    0.013614
  59 H :    0.018714
  60 H :    0.022390
  61 H :    0.015404
  62 H :    0.025848
  63 H :    0.029043
  64 H :    0.026110
  65 H :    0.011842
  66 H :    0.011207
  67 H :    0.010191
  68 H :    0.012847
  69 H :    0.021392
  70 H :    0.021639
  71 H :    0.025210
  72 H :    0.026548
  73 H :    0.014148
  74 H :    0.011541
  75 H :    0.095651
  76 H :    0.030904
  77 H :    0.028828
  78 H :    0.018301
  79 H :    0.020386

  Mayer bond orders larger than 0.100000
B(  0-C ,  1-S ) :   1.1087 B(  0-C ,  5-C ) :   1.6163 B(  0-C , 46-H ) :   0.9723
B(  1-S ,  2-C ) :   1.1244 B(  2-C ,  3-O ) :   1.1884 B(  2-C ,  4-C ) :   1.4707
B(  3-O , 47-H ) :   0.9506 B(  4-C ,  5-C ) :   1.2094 B(  4-C ,  6-C ) :   1.0900
B(  5-C , 48-H ) :   1.0015 B(  6-C ,  7-C ) :   1.7455 B(  6-C , 49-H ) :   0.9670
B(  7-C ,  8-C ) :   1.0072 B(  7-C , 50-H ) :   0.9628 B(  8-C ,  9-C ) :   1.3478
B(  8-C , 15-C ) :   1.3067 B(  9-C , 10-O ) :   1.1295 B(  9-C , 12-C ) :   1.3889
B( 10-O , 11-C ) :   0.9499 B( 11-C , 51-H ) :   0.9815 B( 11-C , 52-H ) :   0.9616
B( 11-C , 53-H ) :   0.9634 B( 12-C , 13-C ) :   1.4006 B( 12-C , 18-C ) :   0.8971
B( 13-C , 14-C ) :   1.3142 B( 13-C , 54-H ) :   1.0135 B( 14-C , 15-C ) :   1.2941
B( 14-C , 16-O ) :   1.1274 B( 15-C , 55-H ) :   0.9966 B( 16-O , 17-C ) :   0.9753
B( 17-C , 56-H ) :   0.9785 B( 17-C , 57-H ) :   0.9680 B( 17-C , 58-H ) :   0.9686
B( 18-C , 19-C ) :   1.3364 B( 18-C , 25-C ) :   1.3890 B( 19-C , 20-O ) :   1.2053
B( 19-C , 22-C ) :   1.3704 B( 20-O , 21-C ) :   0.9537 B( 21-C , 59-H ) :   0.9627
B( 21-C , 60-H ) :   0.9752 B( 21-C , 61-H ) :   0.9633 B( 22-C , 23-C ) :   1.3741
B( 22-C , 28-C ) :   0.9101 B( 23-C , 24-C ) :   1.2764 B( 23-C , 62-H ) :   1.0050
B( 24-C , 25-C ) :   1.3531 B( 24-C , 26-O ) :   1.1187 B( 25-C , 63-H ) :   0.9992
B( 26-O , 27-C ) :   0.9817 B( 27-C , 64-H ) :   0.9790 B( 27-C , 65-H ) :   0.9676
B( 27-C , 66-H ) :   0.9678 B( 28-C , 29-C ) :   1.4088 B( 28-C , 35-C ) :   1.3420
B( 29-C , 30-O ) :   1.0948 B( 29-C , 32-C ) :   1.3512 B( 30-O , 31-C ) :   0.9456
B( 31-C , 67-H ) :   0.9642 B( 31-C , 68-H ) :   0.9664 B( 31-C , 69-H ) :   0.9806
B( 32-C , 33-C ) :   1.3158 B( 32-C , 38-C ) :   1.0393 B( 33-C , 34-C ) :   1.3519
B( 33-C , 70-H ) :   0.9976 B( 34-C , 35-C ) :   1.2768 B( 34-C , 36-O ) :   1.1320
B( 35-C , 71-H ) :   1.0043 B( 36-O , 37-C ) :   0.9770 B( 37-C , 72-H ) :   0.9790
B( 37-C , 73-H ) :   0.9689 B( 37-C , 74-H ) :   0.9681 B( 38-C , 39-S ) :   1.0670
B( 38-C , 43-C ) :   1.6105 B( 39-S , 40-C ) :   1.1011 B( 40-C , 41-O ) :   1.2067
B( 40-C , 42-C ) :   1.4861 B( 41-O , 75-H ) :   0.9555 B( 42-C , 43-C ) :   1.1724
B( 42-C , 44-C ) :   1.0853 B( 43-C , 76-H ) :   0.9973 B( 44-C , 45-C ) :   1.9442
B( 44-C , 77-H ) :   0.9677 B( 45-C , 78-H ) :   0.9493 B( 45-C , 79-H ) :   0.9507

-----------------------------------------------------------------------------
         ABSORPTION SPECTRUM VIA TRANSITION ELECTRIC DIPOLE MOMENTS
-----------------------------------------------------------------------------
State   Energy  Wavelength   fosc         T2         TX        TY        TZ
        (cm-1)    (nm)                  (au**2)     (au)      (au)      (au)
-----------------------------------------------------------------------------
   0   35094.1    284.9   0.865651047   8.12054   1.68409   1.58063   1.66913
   1   35515.1    281.6   0.257876532   2.39042   0.98133  -0.84168  -0.84794
   2   36481.9    274.1   0.305402714   2.75595   0.41112   0.68877   1.45345
   3   38491.1    259.8   0.096513481   0.82547  -0.59955   0.68161  -0.03769
   4   39169.5    255.3   0.188589732   1.58506  -0.82005  -0.84068  -0.45370
   5   39843.4    251.0   0.010839043   0.08956  -0.29139   0.05959   0.03317
   6   40074.5    249.5   0.157561378   1.29437  -0.66635  -0.14019  -0.91142

FINAL SINGLE POINT ENERGY     -2787.651337050264

DIPOLE MOMENT
-------------
                                X             Y             Z
Electronic contribution:     -4.12343      -8.16963       9.51094
Nuclear contribution   :      5.51913       9.19116      -8.65032
                        -----------------------------------------
Total Dipole Moment    :      1.39570       1.02152       0.86062
                        -----------------------------------------
Magnitude (a.u.)       :      1.93188
Magnitude (Debye)      :      4.91045

Rotational constants in cm-1:     0.003310     0.000876     0.000777
Rotational constants in MHz :    99.221887    26.265824    23.286189

                             ****ORCA TERMINATED NORMALLY****
TOTAL RUN TIME: 0 days 0 hours 5 minutes 3 seconds 908 msec
