                         Program Version 4.2.0 -  RELEASE  -
|  1> # ORCA input file
|  2> # SCF done       -177.357602892556          0.000524937085
|  3> ! CAM-B3LYP def2-SVP def2/J RIJCOSX Grid4 TightSCF
|  4> %maxcore 5000
|  5> %tddft
|  6>     Mode sTDDFT
|  7>     Ethresh 5.0
|  8>     maxcore 5000
|  9> end
| 10>
| 11> %pal
| 12>   nprocs 6
| 13>   end
| 14> * xyz 0 1
| 15>    C       10.43235         5.70843         3.02282
| 16>    C        9.70545         4.73218         2.41233
| 17>    C        8.29792         4.90384         2.60654
| 18>    C        7.98033         5.99424         3.34397
| 19>    S        9.40763         6.84626         3.81324
| 20>    C        7.58624         3.76706         2.00623
| 21>    O        6.40901         3.50595         2.09869
| 22>    C        8.65820         2.92998         1.38695
| 23>    C        9.93903         3.49064         1.68078
| 24>    C       11.21535         3.07350         1.31566
| 25>    N       12.29410         4.02860         1.28371
| 26>    O       12.05010         5.12275         0.81448
| 27>    O       13.36351         3.69122         1.73947
| 28>    N       11.60429         1.76759         0.97941
| 29>    O       12.59641         1.61022         0.29001
| 30>    O       10.91899         0.83361         1.39244
| 31>    C        8.38860         1.77248         0.66515
| 32>    C        7.20677         1.49998        -0.02592
| 33>    C        6.89395         0.21994        -0.52212
| 34>    O        5.73393        -0.02322        -1.19089
| 35>    C        4.85994         1.01900        -1.30773
| 36>    C        5.19170         2.32087        -0.83784
| 37>    C        4.19654         3.21962        -1.04021
| 38>    S        2.84182         2.48319        -1.81190
| 39>    C        3.62141         0.95027        -1.85973
| 40>    O        6.39577         2.58290        -0.27603
| 41>    C        7.73252        -0.90831        -0.36228
| 42>    C        7.39748        -2.14205        -0.84363
| 43>    C        8.16061        -3.34087        -0.77962
| 44>    C        9.46763        -3.45061        -0.22551
| 45>    O       10.03715        -2.33120         0.25142
| 46>    C       11.33722        -2.36611         0.80432
| 47>    C       10.08007        -4.69141        -0.20754
| 48>    C        9.49282        -5.85713        -0.71576
| 49>    C        8.19784        -5.74011        -1.29694
| 50>    C        7.57969        -4.50948        -1.30747
| 51>    O        7.63428        -6.86282        -1.80898
| 52>    C        6.35303        -6.80046        -2.40773
| 53>    C        6.01633        -8.19856        -2.90374
| 54>    C       10.24135        -7.07296        -0.59260
| 55>    C        9.89630        -8.31177        -1.02222
| 56>    C       10.67753        -9.47877        -0.82664
| 57>    S       10.06430       -11.00308        -1.45788
| 58>    C       11.41936       -11.83970        -0.84336
| 59>    C       12.30419       -10.98172        -0.18541
| 60>    C       11.89268        -9.65599        -0.17536
| 61>    C       13.42059       -11.80907         0.31351
| 62>    O       14.39895       -11.47368         0.93304
| 63>    C       13.07273       -13.21809        -0.12419
| 64>    C       11.88443       -13.18501        -0.80838
| 65>    C       13.92818       -14.29538         0.20707
| 66>    C       13.71459       -15.59500        -0.12088
| 67>    C       14.56942       -16.67392         0.23078
| 68>    C       15.73057       -16.67525         0.95923
| 69>    C       16.30858       -17.95725         1.10960
| 70>    C       15.54620       -18.96802         0.46294
| 71>    S       14.13878       -18.29393        -0.30613
| 72>    C       15.91581       -20.29496         0.47222
| 73>    C       17.08400       -20.64145         1.14638
| 74>    C       17.84576       -19.63398         1.79437
| 75>    C       17.47838       -18.30724         1.78644
| 76>    S       19.25582       -20.31377         2.56478
| 77>    C       18.81675       -21.89813         2.02022
| 78>    C       17.67658       -21.92875         1.29992
| 79>    H       11.49106         5.86337         3.07406
| 80>    H        7.01543         6.35297         3.64087
| 81>    H        9.16158         1.01978         0.62813
| 82>    H        4.18404         4.25673        -0.78018
| 83>    H        3.13301         0.09940        -2.28651
| 84>    H        8.66424        -0.77582         0.15366
| 85>    H        6.43384        -2.23991        -1.32898
| 86>    H       11.53167        -1.34152         1.11811
| 87>    H       12.07858        -2.67146         0.06127
| 88>    H       11.38463        -3.02871         1.67257
| 89>    H       11.06616        -4.78309         0.21980
| 90>    H        6.59345        -4.41087        -1.73246
| 91>    H        6.36292        -6.09257        -3.24744
| 92>    H        5.60799        -6.46948        -1.67153
| 93>    H        6.75086        -8.52169        -3.63663
| 94>    H        5.03242        -8.19928        -3.36327
| 95>    H        6.02102        -8.89954        -2.07329
| 96>    H       11.18984        -6.96047        -0.08291
| 97>    H        8.96563        -8.45686        -1.54567
| 98>    H       12.44129        -8.85541         0.28495
| 99>    H       11.36980       -14.01925        -1.24811
|100>    H       14.80786       -14.01663         0.77157
|101>    H       12.83466       -15.85988        -0.69117
|102>    H       16.16576       -15.78806         1.38192
|103>    H       15.32307       -21.04605        -0.02558
|104>    H       18.07046       -17.55629         2.28485
|105>    H       19.45438       -22.72061         2.28040
|106>    H       17.25381       -22.82496         0.88253
|107> *
|108>
|109>                          ****END OF INPUT****

CARTESIAN COORDINATES (ANGSTROEM)
---------------------------------
  C     10.432350    5.708430    3.022820
  C      9.705450    4.732180    2.412330
  C      8.297920    4.903840    2.606540
  C      7.980330    5.994240    3.343970
  S      9.407630    6.846260    3.813240
  C      7.586240    3.767060    2.006230
  O      6.409010    3.505950    2.098690
  C      8.658200    2.929980    1.386950
  C      9.939030    3.490640    1.680780
  C     11.215350    3.073500    1.315660
  N     12.294100    4.028600    1.283710
  O     12.050100    5.122750    0.814480
  O     13.363510    3.691220    1.739470
  N     11.604290    1.767590    0.979410
  O     12.596410    1.610220    0.290010
  O     10.918990    0.833610    1.392440
  C      8.388600    1.772480    0.665150
  C      7.206770    1.499980   -0.025920
  C      6.893950    0.219940   -0.522120
  O      5.733930   -0.023220   -1.190890
  C      4.859940    1.019000   -1.307730
  C      5.191700    2.320870   -0.837840
  C      4.196540    3.219620   -1.040210
  S      2.841820    2.483190   -1.811900
  C      3.621410    0.950270   -1.859730
  O      6.395770    2.582900   -0.276030
  C      7.732520   -0.908310   -0.362280
  C      7.397480   -2.142050   -0.843630
  C      8.160610   -3.340870   -0.779620
  C      9.467630   -3.450610   -0.225510
  O     10.037150   -2.331200    0.251420
  C     11.337220   -2.366110    0.804320
  C     10.080070   -4.691410   -0.207540
  C      9.492820   -5.857130   -0.715760
  C      8.197840   -5.740110   -1.296940
  C      7.579690   -4.509480   -1.307470
  O      7.634280   -6.862820   -1.808980
  C      6.353030   -6.800460   -2.407730
  C      6.016330   -8.198560   -2.903740
  C     10.241350   -7.072960   -0.592600
  C      9.896300   -8.311770   -1.022220
  C     10.677530   -9.478770   -0.826640
  S     10.064300  -11.003080   -1.457880
  C     11.419360  -11.839700   -0.843360
  C     12.304190  -10.981720   -0.185410
  C     11.892680   -9.655990   -0.175360
  C     13.420590  -11.809070    0.313510
  O     14.398950  -11.473680    0.933040
  C     13.072730  -13.218090   -0.124190
  C     11.884430  -13.185010   -0.808380
  C     13.928180  -14.295380    0.207070
  C     13.714590  -15.595000   -0.120880
  C     14.569420  -16.673920    0.230780
  C     15.730570  -16.675250    0.959230
  C     16.308580  -17.957250    1.109600
  C     15.546200  -18.968020    0.462940
  S     14.138780  -18.293930   -0.306130
  C     15.915810  -20.294960    0.472220
  C     17.084000  -20.641450    1.146380
  C     17.845760  -19.633980    1.794370
  C     17.478380  -18.307240    1.786440
  S     19.255820  -20.313770    2.564780
  C     18.816750  -21.898130    2.020220
  C     17.676580  -21.928750    1.299920
  H     11.491060    5.863370    3.074060
  H      7.015430    6.352970    3.640870
  H      9.161580    1.019780    0.628130
  H      4.184040    4.256730   -0.780180
  H      3.133010    0.099400   -2.286510
  H      8.664240   -0.775820    0.153660
  H      6.433840   -2.239910   -1.328980
  H     11.531670   -1.341520    1.118110
  H     12.078580   -2.671460    0.061270
  H     11.384630   -3.028710    1.672570
  H     11.066160   -4.783090    0.219800
  H      6.593450   -4.410870   -1.732460
  H      6.362920   -6.092570   -3.247440
  H      5.607990   -6.469480   -1.671530
  H      6.750860   -8.521690   -3.636630
  H      5.032420   -8.199280   -3.363270
  H      6.021020   -8.899540   -2.073290
  H     11.189840   -6.960470   -0.082910
  H      8.965630   -8.456860   -1.545670
  H     12.441290   -8.855410    0.284950
  H     11.369800  -14.019250   -1.248110
  H     14.807860  -14.016630    0.771570
  H     12.834660  -15.859880   -0.691170
  H     16.165760  -15.788060    1.381920
  H     15.323070  -21.046050   -0.025580
  H     18.070460  -17.556290    2.284850
  H     19.454380  -22.720610    2.280400
  H     17.253810  -22.824960    0.882530

 Total Charge           Charge          ....    0
 Multiplicity           Mult            ....    1
 Number of Electrons    NEL             ....  484
 Basis Dimension        Dim             .... 1056

ORBITAL ENERGIES
----------------

  NO   OCC          E(Eh)            E(eV)
   0   2.0000     -88.974234     -2421.1120
   1   2.0000     -88.967772     -2420.9362
   2   2.0000     -88.962329     -2420.7880
   3   2.0000     -88.943488     -2420.2754
   4   2.0000     -88.942151     -2420.2390
   5   2.0000     -19.301703      -525.2260
   6   2.0000     -19.270353      -524.3730
   7   2.0000     -19.254772      -523.9490
   8   2.0000     -19.253828      -523.9233
   9   2.0000     -19.233111      -523.3596
  10   2.0000     -19.232017      -523.3298
  11   2.0000     -19.231356      -523.3118
  12   2.0000     -19.230956      -523.3009
  13   2.0000     -19.226562      -523.1813
  14   2.0000     -19.196595      -522.3659
  15   2.0000     -14.642275      -398.4366
  16   2.0000     -14.639746      -398.3677
  17   2.0000     -10.383346      -282.5452
  18   2.0000     -10.367492      -282.1138
  19   2.0000     -10.353614      -281.7362
  20   2.0000     -10.352396      -281.7030
  21   2.0000     -10.348058      -281.5850
  22   2.0000     -10.342966      -281.4464
  23   2.0000     -10.342935      -281.4456
  24   2.0000     -10.342796      -281.4418
  25   2.0000     -10.338665      -281.3294
  26   2.0000     -10.336677      -281.2753
  27   2.0000     -10.336481      -281.2700
  28   2.0000     -10.313481      -280.6441
  29   2.0000     -10.311608      -280.5931
  30   2.0000     -10.308350      -280.5045
  31   2.0000     -10.308008      -280.4952
  32   2.0000     -10.306212      -280.4463
  33   2.0000     -10.305663      -280.4313
  34   2.0000     -10.302977      -280.3583
  35   2.0000     -10.302088      -280.3341
  36   2.0000     -10.300824      -280.2997
  37   2.0000     -10.300094      -280.2798
  38   2.0000     -10.296095      -280.1710
  39   2.0000     -10.295511      -280.1551
  40   2.0000     -10.294719      -280.1336
  41   2.0000     -10.294238      -280.1205
  42   2.0000     -10.292994      -280.0866
  43   2.0000     -10.289227      -279.9841
  44   2.0000     -10.288978      -279.9773
  45   2.0000     -10.288835      -279.9734
  46   2.0000     -10.287054      -279.9250
  47   2.0000     -10.286481      -279.9094
  48   2.0000     -10.285654      -279.8869
  49   2.0000     -10.282852      -279.8106
  50   2.0000     -10.282642      -279.8049
  51   2.0000     -10.281594      -279.7764
  52   2.0000     -10.279404      -279.7168
  53   2.0000     -10.279183      -279.7108
  54   2.0000     -10.278437      -279.6905
  55   2.0000     -10.277395      -279.6621
  56   2.0000     -10.276722      -279.6438
  57   2.0000     -10.276710      -279.6435
  58   2.0000     -10.276478      -279.6372
  59   2.0000     -10.274882      -279.5938
  60   2.0000     -10.274823      -279.5922
  61   2.0000     -10.273383      -279.5530
  62   2.0000     -10.271313      -279.4966
  63   2.0000     -10.269309      -279.4421
  64   2.0000      -8.069274      -219.5761
  65   2.0000      -8.063726      -219.4251
  66   2.0000      -8.058156      -219.2736
  67   2.0000      -8.039560      -218.7676
  68   2.0000      -8.038438      -218.7370
  69   2.0000      -6.038296      -164.3104
  70   2.0000      -6.034314      -164.2020
  71   2.0000      -6.033021      -164.1668
  72   2.0000      -6.031908      -164.1366
  73   2.0000      -6.028311      -164.0387
  74   2.0000      -6.027639      -164.0204
  75   2.0000      -6.026335      -163.9849
  76   2.0000      -6.023442      -163.9062
  77   2.0000      -6.019876      -163.8092
  78   2.0000      -6.009103      -163.5160
  79   2.0000      -6.008092      -163.4885
  80   2.0000      -6.005237      -163.4108
  81   2.0000      -6.003887      -163.3741
  82   2.0000      -6.000827      -163.2908
  83   2.0000      -5.999801      -163.2629
  84   2.0000      -1.321024       -35.9469
  85   2.0000      -1.302885       -35.4533
  86   2.0000      -1.219955       -33.1967
  87   2.0000      -1.175167       -31.9779
  88   2.0000      -1.160793       -31.5868
  89   2.0000      -1.159511       -31.5519
  90   2.0000      -1.136916       -30.9371
  91   2.0000      -1.133501       -30.8441
  92   2.0000      -1.124004       -30.5857
  93   2.0000      -1.112222       -30.2651
  94   2.0000      -1.005564       -27.3628
  95   2.0000      -1.004516       -27.3343
  96   2.0000      -0.993094       -27.0235
  97   2.0000      -0.993077       -27.0230
  98   2.0000      -0.968384       -26.3511
  99   2.0000      -0.964727       -26.2516
 100   2.0000      -0.963791       -26.2261
 101   2.0000      -0.943539       -25.6750
 102   2.0000      -0.935603       -25.4590
 103   2.0000      -0.921840       -25.0845
 104   2.0000      -0.909912       -24.7600
 105   2.0000      -0.904576       -24.6148
 106   2.0000      -0.884830       -24.0775
 107   2.0000      -0.875466       -23.8226
 108   2.0000      -0.870916       -23.6988
 109   2.0000      -0.867732       -23.6122
 110   2.0000      -0.856888       -23.3171
 111   2.0000      -0.846474       -23.0337
 112   2.0000      -0.835520       -22.7357
 113   2.0000      -0.834426       -22.7059
 114   2.0000      -0.831422       -22.6242
 115   2.0000      -0.828531       -22.5455
 116   2.0000      -0.823267       -22.4022
 117   2.0000      -0.817653       -22.2495
 118   2.0000      -0.806827       -21.9549
 119   2.0000      -0.796154       -21.6644
 120   2.0000      -0.784576       -21.3494
 121   2.0000      -0.783414       -21.3178
 122   2.0000      -0.773740       -21.0545
 123   2.0000      -0.767349       -20.8806
 124   2.0000      -0.755941       -20.5702
 125   2.0000      -0.753327       -20.4991
 126   2.0000      -0.745073       -20.2745
 127   2.0000      -0.738008       -20.0822
 128   2.0000      -0.722840       -19.6695
 129   2.0000      -0.709126       -19.2963
 130   2.0000      -0.699567       -19.0362
 131   2.0000      -0.691753       -18.8236
 132   2.0000      -0.687234       -18.7006
 133   2.0000      -0.684009       -18.6128
 134   2.0000      -0.670034       -18.2325
 135   2.0000      -0.664374       -18.0785
 136   2.0000      -0.660050       -17.9609
 137   2.0000      -0.658844       -17.9281
 138   2.0000      -0.651341       -17.7239
 139   2.0000      -0.646345       -17.5879
 140   2.0000      -0.644082       -17.5264
 141   2.0000      -0.642607       -17.4862
 142   2.0000      -0.633672       -17.2431
 143   2.0000      -0.627723       -17.0812
 144   2.0000      -0.626313       -17.0428
 145   2.0000      -0.621240       -16.9048
 146   2.0000      -0.613448       -16.6928
 147   2.0000      -0.612910       -16.6781
 148   2.0000      -0.612343       -16.6627
 149   2.0000      -0.609055       -16.5732
 150   2.0000      -0.604427       -16.4473
 151   2.0000      -0.599457       -16.3121
 152   2.0000      -0.596722       -16.2376
 153   2.0000      -0.584730       -15.9113
 154   2.0000      -0.581121       -15.8131
 155   2.0000      -0.580530       -15.7970
 156   2.0000      -0.576295       -15.6818
 157   2.0000      -0.574459       -15.6318
 158   2.0000      -0.571901       -15.5622
 159   2.0000      -0.570366       -15.5205
 160   2.0000      -0.567370       -15.4389
 161   2.0000      -0.561425       -15.2772
 162   2.0000      -0.557325       -15.1656
 163   2.0000      -0.555296       -15.1104
 164   2.0000      -0.552471       -15.0335
 165   2.0000      -0.544244       -14.8096
 166   2.0000      -0.541507       -14.7352
 167   2.0000      -0.533875       -14.5275
 168   2.0000      -0.527944       -14.3661
 169   2.0000      -0.526364       -14.3231
 170   2.0000      -0.524557       -14.2739
 171   2.0000      -0.524487       -14.2720
 172   2.0000      -0.520032       -14.1508
 173   2.0000      -0.516855       -14.0643
 174   2.0000      -0.515722       -14.0335
 175   2.0000      -0.514022       -13.9872
 176   2.0000      -0.509707       -13.8698
 177   2.0000      -0.508497       -13.8369
 178   2.0000      -0.503017       -13.6878
 179   2.0000      -0.501922       -13.6580
 180   2.0000      -0.498323       -13.5601
 181   2.0000      -0.497999       -13.5512
 182   2.0000      -0.496829       -13.5194
 183   2.0000      -0.494506       -13.4562
 184   2.0000      -0.492189       -13.3932
 185   2.0000      -0.488320       -13.2879
 186   2.0000      -0.484257       -13.1773
 187   2.0000      -0.482212       -13.1217
 188   2.0000      -0.479439       -13.0462
 189   2.0000      -0.477184       -12.9848
 190   2.0000      -0.472096       -12.8464
 191   2.0000      -0.470984       -12.8161
 192   2.0000      -0.469294       -12.7701
 193   2.0000      -0.467101       -12.7105
 194   2.0000      -0.464173       -12.6308
 195   2.0000      -0.462633       -12.5889
 196   2.0000      -0.460774       -12.5383
 197   2.0000      -0.455456       -12.3936
 198   2.0000      -0.454307       -12.3623
 199   2.0000      -0.451798       -12.2941
 200   2.0000      -0.447969       -12.1899
 201   2.0000      -0.446151       -12.1404
 202   2.0000      -0.439808       -11.9678
 203   2.0000      -0.437377       -11.9016
 204   2.0000      -0.433933       -11.8079
 205   2.0000      -0.432399       -11.7662
 206   2.0000      -0.431592       -11.7442
 207   2.0000      -0.429341       -11.6830
 208   2.0000      -0.424040       -11.5387
 209   2.0000      -0.421763       -11.4767
 210   2.0000      -0.414980       -11.2922
 211   2.0000      -0.414857       -11.2888
 212   2.0000      -0.408638       -11.1196
 213   2.0000      -0.406873       -11.0716
 214   2.0000      -0.401230       -10.9180
 215   2.0000      -0.399753       -10.8778
 216   2.0000      -0.399338       -10.8665
 217   2.0000      -0.392302       -10.6751
 218   2.0000      -0.385475       -10.4893
 219   2.0000      -0.381669       -10.3857
 220   2.0000      -0.378704       -10.3050
 221   2.0000      -0.375048       -10.2056
 222   2.0000      -0.371625       -10.1124
 223   2.0000      -0.365371        -9.9423
 224   2.0000      -0.360992        -9.8231
 225   2.0000      -0.359630        -9.7860
 226   2.0000      -0.350647        -9.5416
 227   2.0000      -0.340312        -9.2604
 228   2.0000      -0.338195        -9.2028
 229   2.0000      -0.337287        -9.1781
 230   2.0000      -0.324696        -8.8354
 231   2.0000      -0.321759        -8.7555
 232   2.0000      -0.320178        -8.7125
 233   2.0000      -0.313577        -8.5329
 234   2.0000      -0.306039        -8.3278
 235   2.0000      -0.304925        -8.2974
 236   2.0000      -0.297255        -8.0887
 237   2.0000      -0.288936        -7.8623
 238   2.0000      -0.275652        -7.5009
 239   2.0000      -0.261109        -7.1051
 240   2.0000      -0.246953        -6.7199
 241   2.0000      -0.226788        -6.1712
 242   0.0000      -0.103483        -2.8159
 243   0.0000      -0.083940        -2.2841
 244   0.0000      -0.053134        -1.4459
 245   0.0000      -0.030115        -0.8195
 246   0.0000      -0.025783        -0.7016

MULLIKEN ATOMIC CHARGES
-----------------------
   0 C :   -0.126762
   1 C :    0.054512
   2 C :    0.017816
   3 C :   -0.137354
   4 S :    0.137467
   5 C :    0.148150
   6 O :   -0.138598
   7 C :   -0.069761
   8 C :    0.208290
   9 C :    0.024738
  10 N :    0.217764
  11 O :   -0.238797
  12 O :   -0.223598
  13 N :    0.267702
  14 O :   -0.239079
  15 O :   -0.272560
  16 C :   -0.077095
  17 C :    0.151154
  18 C :    0.228198
  19 O :   -0.230417
  20 C :    0.199104
  21 C :    0.239699
  22 C :   -0.167182
  23 S :    0.117211
  24 C :   -0.165404
  25 O :   -0.231531
  26 C :   -0.079936
  27 C :    0.010351
  28 C :    0.087787
  29 C :    0.246274
  30 O :   -0.307852
  31 C :    0.170784
  32 C :   -0.169510
  33 C :    0.129027
  34 C :    0.214399
  35 C :   -0.147929
  36 O :   -0.321145
  37 C :    0.130784
  38 C :    0.016251
  39 C :   -0.048319
  40 C :    0.079861
  41 C :   -0.097691
  42 S :    0.161951
  43 C :   -0.055269
  44 C :   -0.013065
  45 C :   -0.004416
  46 C :    0.158735
  47 O :   -0.114282
  48 C :   -0.035122
  49 C :   -0.031843
  50 C :    0.013550
  51 C :    0.069950
  52 C :   -0.058825
  53 C :   -0.030783
  54 C :    0.109709
  55 C :   -0.047622
  56 S :    0.098011
  57 C :   -0.048917
  58 C :    0.088106
  59 C :   -0.068141
  60 C :   -0.052548
  61 S :    0.095575
  62 C :   -0.058347
  63 C :    0.027827
  64 H :    0.044991
  65 H :    0.031873
  66 H :    0.027836
  67 H :    0.032472
  68 H :    0.024802
  69 H :    0.039624
  70 H :   -0.005834
  71 H :    0.045347
  72 H :    0.026850
  73 H :    0.021849
  74 H :   -0.036576
  75 H :   -0.035079
  76 H :    0.020903
  77 H :    0.020898
  78 H :    0.031184
  79 H :    0.021387
  80 H :    0.031373
  81 H :   -0.028097
  82 H :   -0.007069
  83 H :   -0.005810
  84 H :   -0.008924
  85 H :   -0.003685
  86 H :   -0.024330
  87 H :   -0.019711
  88 H :   -0.035123
  89 H :   -0.031555
  90 H :    0.028418
  91 H :   -0.019049
Sum of atomic charges:   -0.0000000

LOEWDIN ATOMIC CHARGES
----------------------
   0 C :   -0.149417
   1 C :   -0.064267
   2 C :   -0.087498
   3 C :   -0.148508
   4 S :    0.471340
   5 C :    0.074817
   6 O :   -0.140920
   7 C :   -0.101487
   8 C :    0.064958
   9 C :   -0.103649
  10 N :    0.272312
  11 O :   -0.203704
  12 O :   -0.192588
  13 N :    0.283388
  14 O :   -0.207306
  15 O :   -0.232088
  16 C :    0.056470
  17 C :    0.002628
  18 C :    0.105373
  19 O :   -0.022294
  20 C :   -0.015188
  21 C :   -0.002309
  22 C :   -0.202642
  23 S :    0.446004
  24 C :   -0.205594
  25 O :   -0.035946
  26 C :   -0.062429
  27 C :    0.043542
  28 C :   -0.055703
  29 C :    0.066554
  30 O :   -0.075765
  31 C :    0.077540
  32 C :   -0.063433
  33 C :   -0.012018
  34 C :    0.044296
  35 C :   -0.047579
  36 O :   -0.094964
  37 C :    0.082800
  38 C :   -0.060862
  39 C :   -0.027432
  40 C :   -0.030856
  41 C :   -0.171216
  42 S :    0.463176
  43 C :   -0.172541
  44 C :   -0.107566
  45 C :   -0.016269
  46 C :    0.099938
  47 O :   -0.104657
  48 C :   -0.057602
  49 C :   -0.004580
  50 C :   -0.014842
  51 C :   -0.024823
  52 C :   -0.153650
  53 C :   -0.046736
  54 C :   -0.045118
  55 C :   -0.154056
  56 S :    0.384465
  57 C :   -0.038432
  58 C :   -0.045701
  59 C :   -0.156143
  60 C :   -0.034731
  61 S :    0.387971
  62 C :   -0.160340
  63 C :   -0.063192
  64 H :    0.028513
  65 H :    0.032356
  66 H :    0.034984
  67 H :    0.033368
  68 H :    0.029384
  69 H :    0.038057
  70 H :    0.032157
  71 H :    0.024382
  72 H :    0.017757
  73 H :    0.015095
  74 H :    0.030312
  75 H :    0.028881
  76 H :    0.014779
  77 H :    0.014729
  78 H :    0.030386
  79 H :    0.032912
  80 H :    0.030442
  81 H :    0.026545
  82 H :    0.026201
  83 H :    0.036961
  84 H :    0.029511
  85 H :    0.033389
  86 H :    0.024649
  87 H :    0.030498
  88 H :    0.029593
  89 H :    0.030524
  90 H :    0.024583
  91 H :    0.030124

  Mayer bond orders larger than 0.100000
B(  0-C ,  1-C ) :   1.5430 B(  0-C ,  4-S ) :   1.1873 B(  0-C , 64-H ) :   0.9569
B(  1-C ,  2-C ) :   1.2350 B(  1-C ,  8-C ) :   1.0195 B(  2-C ,  3-C ) :   1.5679
B(  2-C ,  5-C ) :   0.9387 B(  3-C ,  4-S ) :   1.1688 B(  3-C , 65-H ) :   0.9709
B(  5-C ,  6-O ) :   2.2558 B(  5-C ,  7-C ) :   0.9453 B(  7-C ,  8-C ) :   1.2257
B(  7-C , 16-C ) :   1.3871 B(  8-C ,  9-C ) :   1.4142 B(  9-C , 10-N ) :   0.9126
B(  9-C , 13-N ) :   1.0087 B( 10-N , 11-O ) :   1.5097 B( 10-N , 12-O ) :   1.5242
B( 11-O , 12-O ) :   0.2764 B( 13-N , 14-O ) :   1.5107 B( 13-N , 15-O ) :   1.4092
B( 14-O , 15-O ) :   0.2270 B( 16-C , 17-C ) :   1.3593 B( 16-C , 66-H ) :   0.9169
B( 17-C , 18-C ) :   1.2669 B( 17-C , 25-O ) :   1.0648 B( 18-C , 19-O ) :   1.1322
B( 18-C , 26-C ) :   1.2276 B( 19-O , 20-C ) :   1.0167 B( 20-C , 21-C ) :   1.2088
B( 20-C , 24-C ) :   1.5631 B( 21-C , 22-C ) :   1.5721 B( 21-C , 25-O ) :   1.0627
B( 22-C , 23-S ) :   1.1397 B( 22-C , 67-H ) :   0.9704 B( 23-S , 24-C ) :   1.1564
B( 24-C , 68-H ) :   0.9743 B( 26-C , 27-C ) :   1.5622 B( 26-C , 69-H ) :   0.9374
B( 27-C , 28-C ) :   1.1436 B( 27-C , 70-H ) :   0.9770 B( 28-C , 29-C ) :   1.2796
B( 28-C , 35-C ) :   1.2432 B( 29-C , 30-O ) :   1.1772 B( 29-C , 32-C ) :   1.2961
B( 30-O , 31-C ) :   0.9302 B( 31-C , 71-H ) :   0.9536 B( 31-C , 72-H ) :   0.9692
B( 31-C , 73-H ) :   0.9672 B( 32-C , 33-C ) :   1.2927 B( 32-C , 74-H ) :   0.9999
B( 33-C , 34-C ) :   1.2753 B( 33-C , 39-C ) :   1.1391 B( 34-C , 35-C ) :   1.3361
B( 34-C , 36-O ) :   1.1313 B( 35-C , 75-H ) :   0.9986 B( 36-O , 37-C ) :   0.9468
B( 37-C , 38-C ) :   1.0967 B( 37-C , 76-H ) :   0.9502 B( 37-C , 77-H ) :   0.9506
B( 38-C , 78-H ) :   0.9683 B( 38-C , 79-H ) :   0.9610 B( 38-C , 80-H ) :   0.9680
B( 39-C , 40-C ) :   1.6690 B( 39-C , 81-H ) :   0.9734 B( 40-C , 41-C ) :   1.1103
B( 40-C , 82-H ) :   0.9492 B( 41-C , 42-S ) :   1.1101 B( 41-C , 45-C ) :   1.4429
B( 42-S , 43-C ) :   1.1393 B( 43-C , 44-C ) :   1.4449 B( 43-C , 49-C ) :   1.0662
B( 44-C , 45-C ) :   1.3215 B( 44-C , 46-C ) :   0.9219 B( 45-C , 83-H ) :   1.0008
B( 46-C , 47-O ) :   2.2679 B( 46-C , 48-C ) :   0.9118 B( 48-C , 49-C ) :   1.6147
B( 48-C , 50-C ) :   1.1531 B( 49-C , 84-H ) :   1.0136 B( 50-C , 51-C ) :   1.6480
B( 50-C , 85-H ) :   0.9694 B( 51-C , 52-C ) :   1.1154 B( 51-C , 86-H ) :   0.9628
B( 52-C , 53-C ) :   1.5607 B( 52-C , 56-S ) :   1.0655 B( 53-C , 54-C ) :   1.1620
B( 53-C , 87-H ) :   0.9973 B( 54-C , 55-C ) :   1.2812 B( 54-C , 60-C ) :   1.3146
B( 55-C , 56-S ) :   1.0440 B( 55-C , 57-C ) :   1.3857 B( 57-C , 58-C ) :   1.3341
B( 57-C , 60-C ) :   0.1044 B( 57-C , 88-H ) :   1.0017 B( 58-C , 59-C ) :   1.2816
B( 58-C , 63-C ) :   1.1606 B( 59-C , 60-C ) :   1.3945 B( 59-C , 61-S ) :   1.0529
B( 60-C , 89-H ) :   1.0026 B( 61-S , 62-C ) :   1.1131 B( 62-C , 63-C ) :   1.6466
B( 62-C , 90-H ) :   0.9680 B( 63-C , 91-H ) :   0.9980

-----------------------------------------------------------------------------
         ABSORPTION SPECTRUM VIA TRANSITION ELECTRIC DIPOLE MOMENTS
-----------------------------------------------------------------------------
State   Energy  Wavelength   fosc         T2         TX        TY        TZ
        (cm-1)    (nm)                  (au**2)     (au)      (au)      (au)
-----------------------------------------------------------------------------
   0   12695.1    787.7   1.452321892  37.66188   0.56704  -6.05936  -0.79025
   1   15057.5    664.1   0.336409379   7.35513  -2.22220   1.18384  -1.00771
   2   19175.7    521.5   0.340452606   5.84495  -1.93135   1.32235  -0.60518
   3   21782.2    459.1   0.003130338   0.04731   0.20402   0.04454  -0.06085
   4   23050.3    433.8   0.122032954   1.74291   0.46498  -1.16871  -0.40103
   5   23511.9    425.3   0.407433969   5.70487  -1.90199   1.42919  -0.21144
   6   24068.4    415.5   0.112159959   1.53415  -0.69066  -1.00222  -0.22957
   7   25453.9    392.9   0.031313439   0.40500  -0.46150   0.42840   0.09210
   8   25626.4    390.2   0.141163457   1.81347  -0.30484   1.16837   0.59620
   9   26776.6    373.5   0.001256671   0.01545   0.05784  -0.10668  -0.02693
  10   26799.8    373.1   0.288794215   3.54758   0.76763  -1.71852  -0.07081
  11   26946.6    371.1   0.518845622   6.33883  -1.27429   2.10023  -0.55142
  12   28006.9    357.1   0.114912895   1.35076  -0.76686  -0.08283  -0.86939
  13   28493.6    351.0   0.036388259   0.42043   0.20575   0.60901   0.08488
  14   28737.7    348.0   0.062175554   0.71227  -0.33955  -0.60369  -0.48222
  15   28798.1    347.2   0.027506976   0.31445  -0.36968  -0.26718  -0.32619
  16   29514.3    338.8   0.012197468   0.13605  -0.11791   0.27233   0.21906
  17   30075.7    332.5   0.353949874   3.87438   0.90441  -1.71676   0.33038
  18   30396.2    329.0   0.078720144   0.85259   0.49316  -0.76469   0.15694
  19   30898.6    323.6   0.002286401   0.02436  -0.08367   0.13138  -0.00999
  20   31192.4    320.6   0.108767855   1.14796  -0.53705   0.82989   0.41331
  21   31738.5    315.1   0.127227006   1.31968   0.74319  -0.87598   0.00126
  22   32073.7    311.8   0.011092019   0.11385  -0.33715  -0.00233   0.01324
  23   32618.4    306.6   0.009920057   0.10012  -0.19677   0.24733  -0.01520
  24   33275.2    300.5   0.113283238   1.12078   0.80537   0.15584   0.66923
  25   33996.0    294.2   0.154646471   1.49757   0.58507  -0.96828  -0.46658
  26   34261.8    291.9   0.039296767   0.37759  -0.33670   0.42157  -0.29411
  27   34479.1    290.0   0.044435714   0.42428   0.34868  -0.20328  -0.51125
  28   34749.1    287.8   0.060535110   0.57351  -0.27870   0.64037   0.29286
  29   35341.0    283.0   0.055195133   0.51416  -0.46784  -0.39954  -0.36831
  30   35397.2    282.5   0.012691974   0.11804   0.06223   0.33411   0.05036
  31   36236.6    276.0   0.062797665   0.57052   0.38109   0.42963   0.49063
  32   36784.4    271.9   0.088491376   0.79198  -0.64979   0.53288  -0.29289
  33   36793.2    271.8   0.093503130   0.83663   0.76772  -0.05323   0.49438
  34   37219.3    268.7   0.036516252   0.32299   0.44676   0.25263   0.24409
  35   37679.8    265.4   0.009170172   0.08012   0.18038  -0.21374  -0.04357
  36   37830.0    264.3   0.007309332   0.06361  -0.24577   0.01294  -0.05514
  37   38059.3    262.7   0.020909827   0.18087  -0.32438   0.25452  -0.10423
  38   38809.2    257.7   0.004690076   0.03979   0.19120  -0.05661   0.00474
  39   38894.2    257.1   0.057784334   0.48910   0.51069  -0.45775   0.13698
  40   38994.8    256.4   0.015137824   0.12780  -0.22676  -0.20296  -0.18758
  41   39049.8    256.1   0.012054683   0.10163   0.27483  -0.10490   0.12285
  42   39231.5    254.9   0.009405198   0.07892   0.09146  -0.25634   0.06965
  43   39386.8    253.9   0.021689927   0.18129   0.22994   0.19246   0.30230
  44   39710.6    251.8   0.007180227   0.05953   0.17672   0.02446   0.16643
  45   39953.5    250.3   0.098405703   0.81085   0.81737  -0.27005   0.26425
  46   40282.6    248.2   0.036630494   0.29936   0.53681  -0.07117   0.07834

FINAL SINGLE POINT ENERGY     -4656.337115328656

DIPOLE MOMENT
-------------
                                X             Y             Z
Electronic contribution:      6.03047      42.39251      12.25617
Nuclear contribution   :     -9.00584     -45.16622     -13.33799
                        -----------------------------------------
Total Dipole Moment    :     -2.97537      -2.77371      -1.08182
                        -----------------------------------------
Magnitude (a.u.)       :      4.20911
Magnitude (Debye)      :     10.69871

Rotational constants in cm-1:     0.001999     0.000198     0.000182
Rotational constants in MHz :    59.942165     5.927563     5.455862

                             ****ORCA TERMINATED NORMALLY****
TOTAL RUN TIME: 0 days 0 hours 8 minutes 40 seconds 387 msec
