                         Program Version 4.2.0 -  RELEASE  -
|  1> # ORCA input file
|  2> # SCF done       -134.330466362599          0.000566180852
|  3> ! CAM-B3LYP def2-SVP def2/J RIJCOSX Grid4 TightSCF
|  4> %maxcore 5000
|  5> %tddft
|  6>     Mode sTDDFT
|  7>     Ethresh 5.0
|  8>     maxcore 5000
|  9> end
| 10>
| 11> %pal
| 12>   nprocs 6
| 13>   end
| 14> * xyz 0 1
| 15>    C       -5.27419         4.70984        -9.12421
| 16>    S       -6.17103         5.43985        -7.83793
| 17>    C       -6.14327         3.96950        -6.96702
| 18>    C       -5.46784         2.97142        -7.65520
| 19>    C       -4.96858         3.39921        -8.89522
| 20>    C       -5.50352         1.75918        -6.81798
| 21>    O       -5.04239         0.66648        -7.03289
| 22>    C       -6.27054         2.18148        -5.57535
| 23>    C       -6.63161         3.49140        -5.70561
| 24>    C       -6.49541         1.25898        -4.52157
| 25>    C       -7.13776         1.54223        -3.36395
| 26>    C       -7.34196         0.60922        -2.31349
| 27>    C       -7.93773         0.84701        -1.08203
| 28>    C       -8.39402         2.20065        -0.69298
| 29>    O       -8.88608         2.98939        -1.45525
| 30>    O       -8.17922         2.54609         0.59089
| 31>    C       -7.95891        -0.31493        -0.24987
| 32>    C       -7.35669        -1.38529        -0.85624
| 33>    S       -6.77306        -1.03389        -2.42299
| 34>    C       -8.59097        -0.41906         1.05021
| 35>    C       -9.72323         0.19351         1.49025
| 36>    C      -10.06895        -0.14798         2.82588
| 37>    C       -9.14613        -1.06311         3.39555
| 38>    S       -7.89300        -1.48516         2.25995
| 39>    C       -9.25638        -1.51885         4.69015
| 40>    C      -10.31913        -1.04405         5.45663
| 41>    C      -11.24927        -0.13776         4.88340
| 42>    C      -11.14234         0.31176         3.58526
| 43>    S      -12.47395         0.31265         6.03382
| 44>    C      -11.72240        -0.68744         7.27354
| 45>    C      -10.61994        -1.33977         6.81123
| 46>    C      -12.31931        -0.72410         8.57684
| 47>    C      -11.74589        -0.96102         9.80749
| 48>    C      -10.29124        -1.17427        10.03296
| 49>    O       -9.63190        -2.02316         9.50303
| 50>    O       -9.72918        -0.30714        10.89546
| 51>    C      -12.68704        -0.86096        10.88345
| 52>    C      -13.93826        -0.52968        10.43457
| 53>    S      -14.00923        -0.33823         8.73860
| 54>    C      -12.38511        -1.13372        12.26837
| 55>    S      -13.37146        -0.40880        13.52745
| 56>    C      -12.45454        -1.20375        14.72857
| 57>    C      -11.45260        -1.99193        14.18481
| 58>    C      -11.40935        -1.95655        12.78818
| 59>    C      -10.73966        -2.62983        15.31303
| 60>    O       -9.81231        -3.39684        15.29055
| 61>    C      -11.44551        -2.10528        16.55072
| 62>    C      -12.44856        -1.27393        16.16547
| 63>    C      -11.00889        -2.51235        17.85577
| 64>    C      -11.54542        -2.12140        19.01198
| 65>    H       -5.02628         5.30568        -9.98006
| 66>    H       -4.41674         2.78272        -9.58039
| 67>    H       -7.18720         4.08256        -5.00134
| 68>    H       -6.10089         0.26333        -4.69051
| 69>    H       -7.54409         2.52834        -3.19231
| 70>    H       -7.79370         1.82888         1.11299
| 71>    H       -7.25145        -2.37363        -0.45393
| 72>    H      -10.31017         0.86404         0.88750
| 73>    H       -8.54362        -2.20977         5.11056
| 74>    H      -11.85478         1.00471         3.16731
| 75>    H      -10.03655        -2.01442         7.40953
| 76>    H      -10.36479         0.31809        11.26834
| 77>    H      -14.82434        -0.40915        11.02569
| 78>    H      -10.71619        -2.51737        12.18790
| 79>    H      -13.13511        -0.74425        16.79976
| 80>    H      -10.16806        -3.19454        17.84654
| 81>    H      -12.38145        -1.44404        19.05422
| 82>    H      -11.16113        -2.46953        19.95451
| 83> *
| 84>
| 85>                          ****END OF INPUT****

CARTESIAN COORDINATES (ANGSTROEM)
---------------------------------
  C     -5.274190    4.709840   -9.124210
  S     -6.171030    5.439850   -7.837930
  C     -6.143270    3.969500   -6.967020
  C     -5.467840    2.971420   -7.655200
  C     -4.968580    3.399210   -8.895220
  C     -5.503520    1.759180   -6.817980
  O     -5.042390    0.666480   -7.032890
  C     -6.270540    2.181480   -5.575350
  C     -6.631610    3.491400   -5.705610
  C     -6.495410    1.258980   -4.521570
  C     -7.137760    1.542230   -3.363950
  C     -7.341960    0.609220   -2.313490
  C     -7.937730    0.847010   -1.082030
  C     -8.394020    2.200650   -0.692980
  O     -8.886080    2.989390   -1.455250
  O     -8.179220    2.546090    0.590890
  C     -7.958910   -0.314930   -0.249870
  C     -7.356690   -1.385290   -0.856240
  S     -6.773060   -1.033890   -2.422990
  C     -8.590970   -0.419060    1.050210
  C     -9.723230    0.193510    1.490250
  C    -10.068950   -0.147980    2.825880
  C     -9.146130   -1.063110    3.395550
  S     -7.893000   -1.485160    2.259950
  C     -9.256380   -1.518850    4.690150
  C    -10.319130   -1.044050    5.456630
  C    -11.249270   -0.137760    4.883400
  C    -11.142340    0.311760    3.585260
  S    -12.473950    0.312650    6.033820
  C    -11.722400   -0.687440    7.273540
  C    -10.619940   -1.339770    6.811230
  C    -12.319310   -0.724100    8.576840
  C    -11.745890   -0.961020    9.807490
  C    -10.291240   -1.174270   10.032960
  O     -9.631900   -2.023160    9.503030
  O     -9.729180   -0.307140   10.895460
  C    -12.687040   -0.860960   10.883450
  C    -13.938260   -0.529680   10.434570
  S    -14.009230   -0.338230    8.738600
  C    -12.385110   -1.133720   12.268370
  S    -13.371460   -0.408800   13.527450
  C    -12.454540   -1.203750   14.728570
  C    -11.452600   -1.991930   14.184810
  C    -11.409350   -1.956550   12.788180
  C    -10.739660   -2.629830   15.313030
  O     -9.812310   -3.396840   15.290550
  C    -11.445510   -2.105280   16.550720
  C    -12.448560   -1.273930   16.165470
  C    -11.008890   -2.512350   17.855770
  C    -11.545420   -2.121400   19.011980
  H     -5.026280    5.305680   -9.980060
  H     -4.416740    2.782720   -9.580390
  H     -7.187200    4.082560   -5.001340
  H     -6.100890    0.263330   -4.690510
  H     -7.544090    2.528340   -3.192310
  H     -7.793700    1.828880    1.112990
  H     -7.251450   -2.373630   -0.453930
  H    -10.310170    0.864040    0.887500
  H     -8.543620   -2.209770    5.110560
  H    -11.854780    1.004710    3.167310
  H    -10.036550   -2.014420    7.409530
  H    -10.364790    0.318090   11.268340
  H    -14.824340   -0.409150   11.025690
  H    -10.716190   -2.517370   12.187900
  H    -13.135110   -0.744250   16.799760
  H    -10.168060   -3.194540   17.846540
  H    -12.381450   -1.444040   19.054220
  H    -11.161130   -2.469530   19.954510

 Total Charge           Charge          ....    0
 Multiplicity           Mult            ....    1
 Number of Electrons    NEL             ....  390
 Basis Dimension        Dim             ....  814

ORBITAL ENERGIES
----------------

  NO   OCC          E(Eh)            E(eV)
   0   2.0000     -88.980997     -2421.2960
   1   2.0000     -88.974620     -2421.1225
   2   2.0000     -88.970255     -2421.0037
   3   2.0000     -88.966888     -2420.9121
   4   2.0000     -88.953502     -2420.5478
   5   2.0000     -88.950946     -2420.4783
   6   2.0000     -19.263146      -524.1769
   7   2.0000     -19.252380      -523.8839
   8   2.0000     -19.227256      -523.2002
   9   2.0000     -19.221468      -523.0427
  10   2.0000     -19.208870      -522.6999
  11   2.0000     -19.195445      -522.3346
  12   2.0000     -10.412286      -283.3327
  13   2.0000     -10.401689      -283.0443
  14   2.0000     -10.368271      -282.1350
  15   2.0000     -10.362879      -281.9883
  16   2.0000     -10.329540      -281.0811
  17   2.0000     -10.317619      -280.7567
  18   2.0000     -10.317197      -280.7452
  19   2.0000     -10.315853      -280.7086
  20   2.0000     -10.315016      -280.6859
  21   2.0000     -10.313332      -280.6400
  22   2.0000     -10.309248      -280.5289
  23   2.0000     -10.308311      -280.5034
  24   2.0000     -10.305251      -280.4201
  25   2.0000     -10.305014      -280.4137
  26   2.0000     -10.303228      -280.3651
  27   2.0000     -10.302946      -280.3574
  28   2.0000     -10.302618      -280.3485
  29   2.0000     -10.301371      -280.3146
  30   2.0000     -10.300556      -280.2924
  31   2.0000     -10.297183      -280.2006
  32   2.0000     -10.296923      -280.1935
  33   2.0000     -10.293382      -280.0972
  34   2.0000     -10.291988      -280.0592
  35   2.0000     -10.287107      -279.9264
  36   2.0000     -10.286635      -279.9136
  37   2.0000     -10.283836      -279.8374
  38   2.0000     -10.283636      -279.8320
  39   2.0000     -10.283259      -279.8217
  40   2.0000     -10.283120      -279.8179
  41   2.0000     -10.281638      -279.7776
  42   2.0000     -10.281152      -279.7644
  43   2.0000     -10.280480      -279.7461
  44   2.0000     -10.279341      -279.7151
  45   2.0000     -10.276781      -279.6454
  46   2.0000     -10.276525      -279.6385
  47   2.0000     -10.273702      -279.5616
  48   2.0000     -10.271630      -279.5053
  49   2.0000     -10.268167      -279.4110
  50   2.0000      -8.075876      -219.7557
  51   2.0000      -8.070575      -219.6115
  52   2.0000      -8.065591      -219.4759
  53   2.0000      -8.062732      -219.3981
  54   2.0000      -8.049366      -219.0344
  55   2.0000      -8.047035      -218.9710
  56   2.0000      -6.044984      -164.4924
  57   2.0000      -6.040948      -164.3826
  58   2.0000      -6.039864      -164.3531
  59   2.0000      -6.038413      -164.3136
  60   2.0000      -6.035448      -164.2329
  61   2.0000      -6.034716      -164.2130
  62   2.0000      -6.032860      -164.1625
  63   2.0000      -6.031878      -164.1357
  64   2.0000      -6.030405      -164.0957
  65   2.0000      -6.028304      -164.0385
  66   2.0000      -6.027641      -164.0204
  67   2.0000      -6.025159      -163.9529
  68   2.0000      -6.019006      -163.7855
  69   2.0000      -6.016704      -163.7228
  70   2.0000      -6.014936      -163.6747
  71   2.0000      -6.012673      -163.6131
  72   2.0000      -6.010616      -163.5572
  73   2.0000      -6.008141      -163.4898
  74   2.0000      -1.188436       -32.3390
  75   2.0000      -1.177163       -32.0322
  76   2.0000      -1.138220       -30.9725
  77   2.0000      -1.132156       -30.8075
  78   2.0000      -1.104798       -30.0631
  79   2.0000      -1.092080       -29.7170
  80   2.0000      -1.016413       -27.6580
  81   2.0000      -1.007101       -27.4046
  82   2.0000      -1.002633       -27.2830
  83   2.0000      -1.000143       -27.2153
  84   2.0000      -0.993227       -27.0271
  85   2.0000      -0.973890       -26.5009
  86   2.0000      -0.943658       -25.6783
  87   2.0000      -0.934578       -25.4312
  88   2.0000      -0.915770       -24.9194
  89   2.0000      -0.891307       -24.2537
  90   2.0000      -0.880967       -23.9723
  91   2.0000      -0.877341       -23.8737
  92   2.0000      -0.865272       -23.5452
  93   2.0000      -0.862746       -23.4765
  94   2.0000      -0.853309       -23.2197
  95   2.0000      -0.848552       -23.0903
  96   2.0000      -0.842128       -22.9155
  97   2.0000      -0.836263       -22.7559
  98   2.0000      -0.830210       -22.5912
  99   2.0000      -0.802763       -21.8443
 100   2.0000      -0.783289       -21.3144
 101   2.0000      -0.782545       -21.2941
 102   2.0000      -0.771340       -20.9892
 103   2.0000      -0.753929       -20.5155
 104   2.0000      -0.750129       -20.4120
 105   2.0000      -0.735741       -20.0205
 106   2.0000      -0.720512       -19.6061
 107   2.0000      -0.714052       -19.4303
 108   2.0000      -0.705995       -19.2111
 109   2.0000      -0.701611       -19.0918
 110   2.0000      -0.688076       -18.7235
 111   2.0000      -0.682573       -18.5738
 112   2.0000      -0.678076       -18.4514
 113   2.0000      -0.670423       -18.2431
 114   2.0000      -0.662924       -18.0391
 115   2.0000      -0.654557       -17.8114
 116   2.0000      -0.648923       -17.6581
 117   2.0000      -0.640936       -17.4408
 118   2.0000      -0.635687       -17.2979
 119   2.0000      -0.623121       -16.9560
 120   2.0000      -0.621152       -16.9024
 121   2.0000      -0.619579       -16.8596
 122   2.0000      -0.609566       -16.5871
 123   2.0000      -0.596415       -16.2293
 124   2.0000      -0.584519       -15.9056
 125   2.0000      -0.571384       -15.5482
 126   2.0000      -0.568275       -15.4636
 127   2.0000      -0.565048       -15.3757
 128   2.0000      -0.562654       -15.3106
 129   2.0000      -0.559347       -15.2206
 130   2.0000      -0.555097       -15.1050
 131   2.0000      -0.543988       -14.8027
 132   2.0000      -0.541218       -14.7273
 133   2.0000      -0.537518       -14.6266
 134   2.0000      -0.535701       -14.5772
 135   2.0000      -0.532106       -14.4793
 136   2.0000      -0.529150       -14.3989
 137   2.0000      -0.527803       -14.3622
 138   2.0000      -0.525524       -14.3002
 139   2.0000      -0.520918       -14.1749
 140   2.0000      -0.518890       -14.1197
 141   2.0000      -0.517933       -14.0937
 142   2.0000      -0.514904       -14.0112
 143   2.0000      -0.511392       -13.9157
 144   2.0000      -0.508551       -13.8384
 145   2.0000      -0.503938       -13.7129
 146   2.0000      -0.500979       -13.6323
 147   2.0000      -0.496797       -13.5185
 148   2.0000      -0.494119       -13.4457
 149   2.0000      -0.490639       -13.3510
 150   2.0000      -0.486580       -13.2405
 151   2.0000      -0.485625       -13.2145
 152   2.0000      -0.483652       -13.1608
 153   2.0000      -0.475995       -12.9525
 154   2.0000      -0.473386       -12.8815
 155   2.0000      -0.468526       -12.7493
 156   2.0000      -0.466517       -12.6946
 157   2.0000      -0.463152       -12.6030
 158   2.0000      -0.459925       -12.5152
 159   2.0000      -0.458877       -12.4867
 160   2.0000      -0.456044       -12.4096
 161   2.0000      -0.454814       -12.3761
 162   2.0000      -0.451343       -12.2817
 163   2.0000      -0.447088       -12.1659
 164   2.0000      -0.445292       -12.1170
 165   2.0000      -0.439751       -11.9662
 166   2.0000      -0.435231       -11.8432
 167   2.0000      -0.433818       -11.8048
 168   2.0000      -0.431847       -11.7511
 169   2.0000      -0.422538       -11.4979
 170   2.0000      -0.419934       -11.4270
 171   2.0000      -0.417110       -11.3501
 172   2.0000      -0.415145       -11.2967
 173   2.0000      -0.406673       -11.0661
 174   2.0000      -0.397721       -10.8225
 175   2.0000      -0.397441       -10.8149
 176   2.0000      -0.388951       -10.5839
 177   2.0000      -0.379915       -10.3380
 178   2.0000      -0.371920       -10.1205
 179   2.0000      -0.366280        -9.9670
 180   2.0000      -0.362620        -9.8674
 181   2.0000      -0.350007        -9.5242
 182   2.0000      -0.342285        -9.3141
 183   2.0000      -0.340633        -9.2691
 184   2.0000      -0.338536        -9.2120
 185   2.0000      -0.335474        -9.1287
 186   2.0000      -0.333642        -9.0788
 187   2.0000      -0.330290        -8.9877
 188   2.0000      -0.328427        -8.9369
 189   2.0000      -0.318238        -8.6597
 190   2.0000      -0.306066        -8.3285
 191   2.0000      -0.283634        -7.7181
 192   2.0000      -0.264512        -7.1977
 193   2.0000      -0.255885        -6.9630
 194   2.0000      -0.246549        -6.7089
 195   0.0000      -0.077673        -2.1136
 196   0.0000      -0.077176        -2.1001
 197   0.0000      -0.046404        -1.2627
 198   0.0000      -0.019947        -0.5428
 199   0.0000      -0.009308        -0.2533

MULLIKEN ATOMIC CHARGES
-----------------------
   0 C :   -0.095214
   1 S :    0.163152
   2 C :   -0.086759
   3 C :   -0.026979
   4 C :    0.041390
   5 C :    0.155881
   6 O :   -0.115205
   7 C :   -0.045702
   8 C :   -0.021569
   9 C :    0.012249
  10 C :    0.016527
  11 C :   -0.114613
  12 C :   -0.000917
  13 C :    0.130393
  14 O :   -0.188098
  15 O :   -0.156237
  16 C :    0.115892
  17 C :   -0.113465
  18 S :    0.148399
  19 C :   -0.175926
  20 C :   -0.023631
  21 C :    0.105245
  22 C :   -0.042264
  23 S :    0.119011
  24 C :   -0.053942
  25 C :    0.105035
  26 C :   -0.036672
  27 C :   -0.053868
  28 S :    0.103802
  29 C :   -0.072678
  30 C :   -0.029833
  31 C :   -0.104301
  32 C :   -0.013471
  33 C :    0.142443
  34 O :   -0.174364
  35 O :   -0.152100
  36 C :    0.115961
  37 C :   -0.136977
  38 S :    0.158487
  39 C :   -0.194796
  40 S :    0.161637
  41 C :   -0.070313
  42 C :   -0.003097
  43 C :   -0.001362
  44 C :    0.151265
  45 O :   -0.105160
  46 C :   -0.044548
  47 C :   -0.019075
  48 C :    0.011239
  49 C :   -0.004463
  50 H :    0.031004
  51 H :   -0.001346
  52 H :    0.004775
  53 H :   -0.000553
  54 H :    0.012849
  55 H :    0.192768
  56 H :    0.031712
  57 H :    0.000368
  58 H :   -0.022342
  59 H :   -0.026693
  60 H :    0.010417
  61 H :    0.194288
  62 H :    0.029231
  63 H :    0.023725
  64 H :   -0.009479
  65 H :    0.007012
  66 H :    0.012198
  67 H :    0.029661
Sum of atomic charges:    0.0000000

LOEWDIN ATOMIC CHARGES
----------------------
   0 C :   -0.187017
   1 S :    0.467574
   2 C :   -0.175795
   3 C :   -0.113566
   4 C :   -0.030009
   5 C :    0.099068
   6 O :   -0.106793
   7 C :   -0.063113
   8 C :    0.011007
   9 C :   -0.015352
  10 C :   -0.028114
  11 C :   -0.132151
  12 C :   -0.115501
  13 C :    0.081127
  14 O :   -0.162844
  15 O :   -0.026756
  16 C :   -0.083688
  17 C :   -0.179464
  18 S :    0.471132
  19 C :   -0.171368
  20 C :   -0.051295
  21 C :   -0.044529
  22 C :   -0.154961
  23 S :    0.393829
  24 C :   -0.028444
  25 C :   -0.044918
  26 C :   -0.151220
  27 C :   -0.033503
  28 S :    0.380102
  29 C :   -0.180291
  30 C :   -0.032143
  31 C :   -0.157395
  32 C :   -0.110285
  33 C :    0.086198
  34 O :   -0.143359
  35 O :   -0.022274
  36 C :   -0.080896
  37 C :   -0.194938
  38 S :    0.465786
  39 C :   -0.190876
  40 S :    0.460592
  41 C :   -0.168726
  42 C :   -0.109671
  43 C :   -0.019670
  44 C :    0.098298
  45 O :   -0.095993
  46 C :   -0.053271
  47 C :   -0.000029
  48 C :   -0.025582
  49 C :   -0.023301
  50 H :    0.023602
  51 H :    0.038689
  52 H :    0.034945
  53 H :    0.025753
  54 H :    0.036952
  55 H :    0.090191
  56 H :    0.024669
  57 H :    0.035921
  58 H :    0.034725
  59 H :    0.032958
  60 H :    0.036251
  61 H :    0.098178
  62 H :    0.022452
  63 H :    0.044637
  64 H :    0.030360
  65 H :    0.036238
  66 H :    0.019741
  67 H :    0.028125

  Mayer bond orders larger than 0.100000
B(  0-C ,  1-S ) :   1.1586 B(  0-C ,  4-C ) :   1.5430 B(  0-C , 50-H ) :   0.9689
B(  1-S ,  2-C ) :   1.1505 B(  2-C ,  3-C ) :   1.4799 B(  2-C ,  8-C ) :   1.0445
B(  3-C ,  4-C ) :   1.2858 B(  3-C ,  5-C ) :   0.9373 B(  4-C , 51-H ) :   1.0052
B(  5-C ,  6-O ) :   2.2686 B(  5-C ,  7-C ) :   0.9112 B(  7-C ,  8-C ) :   1.6570
B(  7-C ,  9-C ) :   1.1377 B(  8-C , 52-H ) :   1.0146 B(  9-C , 10-C ) :   1.6133
B(  9-C , 53-H ) :   0.9696 B( 10-C , 11-C ) :   1.1716 B( 10-C , 54-H ) :   0.9608
B( 11-C , 12-C ) :   1.4913 B( 11-C , 18-S ) :   1.1513 B( 12-C , 13-C ) :   0.9134
B( 12-C , 16-C ) :   1.2271 B( 13-C , 14-O ) :   2.1165 B( 13-C , 15-O ) :   1.2404
B( 15-O , 55-H ) :   0.9454 B( 16-C , 17-C ) :   1.5612 B( 16-C , 19-C ) :   1.0121
B( 17-C , 18-S ) :   1.1565 B( 17-C , 56-H ) :   0.9671 B( 19-C , 20-C ) :   1.6045
B( 19-C , 23-S ) :   1.0809 B( 20-C , 21-C ) :   1.1372 B( 20-C , 57-H ) :   0.9985
B( 21-C , 22-C ) :   1.2898 B( 21-C , 27-C ) :   1.3257 B( 22-C , 23-S ) :   1.0330
B( 22-C , 24-C ) :   1.3788 B( 24-C , 25-C ) :   1.3246 B( 24-C , 27-C ) :   0.1048
B( 24-C , 58-H ) :   1.0041 B( 25-C , 26-C ) :   1.2838 B( 25-C , 30-C ) :   1.1239
B( 26-C , 27-C ) :   1.3792 B( 26-C , 28-S ) :   1.0418 B( 27-C , 59-H ) :   1.0034
B( 28-S , 29-C ) :   1.0607 B( 29-C , 30-C ) :   1.6080 B( 29-C , 31-C ) :   1.0813
B( 30-C , 60-H ) :   0.9924 B( 31-C , 32-C ) :   1.5746 B( 31-C , 38-S ) :   1.1705
B( 32-C , 33-C ) :   0.8877 B( 32-C , 36-C ) :   1.2533 B( 33-C , 34-O ) :   2.1091
B( 33-C , 35-O ) :   1.2405 B( 35-O , 61-H ) :   0.9474 B( 36-C , 37-C ) :   1.5410
B( 36-C , 39-C ) :   1.0453 B( 37-C , 38-S ) :   1.1484 B( 37-C , 62-H ) :   0.9675
B( 39-C , 40-S ) :   1.1114 B( 39-C , 43-C ) :   1.5060 B( 40-S , 41-C ) :   1.1325
B( 41-C , 42-C ) :   1.4958 B( 41-C , 47-C ) :   1.0408 B( 42-C , 43-C ) :   1.2743
B( 42-C , 44-C ) :   0.9129 B( 43-C , 63-H ) :   0.9883 B( 44-C , 45-O ) :   2.2802
B( 44-C , 46-C ) :   0.9198 B( 46-C , 47-C ) :   1.6817 B( 46-C , 48-C ) :   1.1111
B( 47-C , 64-H ) :   1.0139 B( 48-C , 49-C ) :   1.9092 B( 48-C , 65-H ) :   0.9600
B( 49-C , 66-H ) :   0.9539 B( 49-C , 67-H ) :   0.9509

-----------------------------------------------------------------------------
         ABSORPTION SPECTRUM VIA TRANSITION ELECTRIC DIPOLE MOMENTS
-----------------------------------------------------------------------------
State   Energy  Wavelength   fosc         T2         TX        TY        TZ
        (cm-1)    (nm)                  (au**2)     (au)      (au)      (au)
-----------------------------------------------------------------------------
   0   18624.9    536.9   0.446454023   7.89148  -0.78886  -1.16025   2.43372
   1   20249.5    493.8   0.217476782   3.53569   0.12954  -0.18956   1.86627
   2   26638.7    375.4   0.000387865   0.00479   0.01803   0.03047  -0.05949
   3   26675.9    374.9   0.000027398   0.00034   0.01625  -0.00385   0.00770
   4   27437.6    364.5   0.044784817   0.53735  -0.18576  -0.38626   0.59469
   5   27934.6    358.0   0.013652778   0.16090   0.16722   0.01340  -0.36436
   6   29255.9    341.8   1.480601631  16.66098  -2.02455   0.05636   3.54387
   7   30623.5    326.5   0.184287398   1.98115   0.24122   0.80116  -1.13186
   8   31334.8    319.1   0.176366434   1.85295   0.15483   0.49423  -1.25885
   9   32045.1    312.1   0.046670727   0.47947   0.06926   0.36338  -0.58534
  10   32076.8    311.8   0.242939124   2.49334   0.14538   0.91684  -1.27734
  11   32277.3    309.8   0.023670193   0.24142  -0.04709  -0.22959  -0.43185
  12   33510.1    298.4   0.178467248   1.75331   0.25516   0.40437  -1.23478
  13   33688.1    296.8   0.003683132   0.03599  -0.06997   0.09098   0.15107
  14   34373.2    290.9   0.432486356   4.14217   0.12260   0.27166  -2.01329
  15   35292.5    283.3   0.007099806   0.06623  -0.23847   0.04924  -0.08327
  16   35813.3    279.2   0.021907905   0.20139   0.09601  -0.03046   0.43731
  17   35945.4    278.2   0.116489649   1.06689  -0.08250   0.96602  -0.35622
  18   37525.4    266.5   0.336017653   2.94790  -0.23620  -0.03316   1.70030
  19   38011.6    263.1   0.077238529   0.66895  -0.48757  -0.06949  -0.65299
  20   38221.9    261.6   0.041042471   0.35351  -0.30751   0.43162  -0.26953
  21   39140.6    255.5   0.004272943   0.03594  -0.04300   0.12984  -0.13127
  22   39618.0    252.4   0.024402279   0.20277  -0.10987  -0.13294   0.41597
  23   40019.0    249.9   0.162139955   1.33383   0.56253  -0.51296   0.86848

FINAL SINGLE POINT ENERGY     -4296.243383949438

DIPOLE MOMENT
-------------
                                X             Y             Z
Electronic contribution:     -4.17528       1.63641     -15.85485
Nuclear contribution   :      2.67512      -0.57592      16.84063
                        -----------------------------------------
Total Dipole Moment    :     -1.50017       1.06049       0.98578
                        -----------------------------------------
Magnitude (a.u.)       :      2.08492
Magnitude (Debye)      :      5.29946

Rotational constants in cm-1:     0.006420     0.000306     0.000300
Rotational constants in MHz :   192.471364     9.159430     9.004653

                             ****ORCA TERMINATED NORMALLY****
TOTAL RUN TIME: 0 days 0 hours 4 minutes 12 seconds 275 msec
