                         Program Version 4.2.0 -  RELEASE  -
|  1> # ORCA input file
|  2> # SCF done       -176.071623463179          0.000605375271
|  3> ! CAM-B3LYP def2-SVP def2/J RIJCOSX Grid4 TightSCF
|  4> %maxcore 5000
|  5> %tddft
|  6>     Mode sTDDFT
|  7>     Ethresh 5.0
|  8>     maxcore 5000
|  9> end
| 10>
| 11> %pal
| 12>   nprocs 6
| 13>   end
| 14> * xyz 0 1
| 15>    C       -2.11798        -0.30527         0.89681
| 16>    C       -0.96065         0.34134         1.26331
| 17>    C        0.16249        -0.53322         1.31875
| 18>    S        1.60569         0.29977         1.79110
| 19>    C        0.72747         1.80956         1.92114
| 20>    C        1.45811         3.01524         2.33583
| 21>    O        0.97457         4.10914         2.45731
| 22>    O        2.73882         2.70339         2.57169
| 23>    C        3.60157         3.76844         2.97600
| 24>    C        4.11635         4.55142         1.77765
| 25>    C       -0.59367         1.67403         1.61356
| 26>    F       -1.47698         2.66462         1.63308
| 27>    C       -0.13575        -1.84806         0.99759
| 28>    S       -1.84374        -1.96593         0.62461
| 29>    C        0.69321        -2.98903         0.94559
| 30>    C        2.03114        -2.96826         1.18970
| 31>    C        2.82253        -4.13944         1.13718
| 32>    N        2.29955        -5.33626         0.88617
| 33>    C        3.32521        -6.20107         0.92601
| 34>    C        4.59876        -5.51748         1.22366
| 35>    C        5.70385        -6.48904         1.25487
| 36>    O        6.88259        -6.29089         1.46865
| 37>    C        5.02581        -7.76280         0.96093
| 38>    C        3.57868        -7.54326         0.76896
| 39>    N        2.94975        -8.71084         0.49164
| 40>    C        3.89660        -9.61888         0.49838
| 41>    C        5.21612        -9.09634         0.78226
| 42>    C        4.29116        -4.18840         1.35618
| 43>    C        5.11889        -3.05446         1.61524
| 44>    C        6.44804        -3.15022         1.81106
| 45>    C        7.35077        -2.03551         2.04025
| 46>    C        6.99279        -0.75235         2.22410
| 47>    C        8.72142        -2.39199         2.06766
| 48>    C        9.87789        -2.74630         2.07971
| 49>    C       11.21925        -3.13577         2.10854
| 50>    C       12.18134        -2.46377         1.44785
| 51>    C       13.58616        -2.80354         1.48988
| 52>    C       14.00651        -4.18389         1.47151
| 53>    C       13.26601        -5.30626         1.32220
| 54>    S       14.29142        -6.80419         1.18392
| 55>    F       15.36468        -8.33664         1.34280
| 56>    C       15.70404        -5.82179         1.54116
| 57>    C       15.43010        -4.49987         1.59480
| 58>    C       16.36828        -3.43418         1.74197
| 59>    C       15.94559        -2.15531         1.66082
| 60>    C       14.56060        -1.81517         1.50454
| 61>    C       14.16121        -0.43018         1.48723
| 62>    C       14.79544         0.59347         0.85998
| 63>    C       14.42127         1.99982         0.92369
| 64>    C       13.30232         2.53000         1.51089
| 65>    C       13.00060         3.90868         1.53476
| 66>    N       12.69794         5.01447         1.59081
| 67>    C       12.26217         1.79717         2.12062
| 68>    N       11.35830         1.28164         2.60770
| 69>    C       15.42751         2.75723         0.19025
| 70>    C       16.32580         1.85014        -0.42365
| 71>    C       15.94428         0.46695        -0.07747
| 72>    O       16.43479        -0.54760        -0.52044
| 73>    C       17.37203         2.26080        -1.21338
| 74>    C       17.55112         3.63566        -1.39585
| 75>    C       16.65587         4.53653        -0.76959
| 76>    C       15.59223         4.12051         0.02055
| 77>    S       17.06124         6.18878        -1.12371
| 78>    C       18.40700         5.65466        -2.09524
| 79>    C       18.54841         4.30872        -2.15243
| 80>   Br       19.49765         6.92340        -2.94197
| 81>    H       -3.09671         0.11547         0.77942
| 82>    H        4.41815         3.28003         3.51113
| 83>    H        3.05072         4.42905         3.65327
| 84>    H        4.62058         3.88656         1.08027
| 85>    H        4.81720         5.30914         2.11501
| 86>    H        3.28926         5.04009         1.26826
| 87>    H        0.23548        -3.93540         0.69449
| 88>    H        2.51837        -2.03574         1.43276
| 89>    H        3.66018       -10.65052         0.30295
| 90>    H        6.11861        -9.67293         0.83141
| 91>    H        4.63042        -2.09024         1.63412
| 92>    H        6.91631        -4.12536         1.77753
| 93>    H        5.96351        -0.44019         2.23452
| 94>    H        7.73609         0.00836         2.38920
| 95>    H       11.45322        -3.98702         2.73428
| 96>    H       11.89480        -1.58289         0.88981
| 97>    H       12.21641        -5.35664         1.10272
| 98>    H       13.90333        -7.19977         2.41419
| 99>    H       16.65431        -6.31389         1.57963
|100>    H       17.40670        -3.67493         1.90512
|101>    H       16.65024        -1.34827         1.77990
|102>    H       13.25416        -0.20381         2.03222
|103>    H       18.03264         1.54279        -1.67353
|104>    H       14.93863         4.84659         0.47403
|105>    H       19.32302         3.80969        -2.70548
|106> *
|107>
|108>                          ****END OF INPUT****

CARTESIAN COORDINATES (ANGSTROEM)
---------------------------------
  C     -2.117980   -0.305270    0.896810
  C     -0.960650    0.341340    1.263310
  C      0.162490   -0.533220    1.318750
  S      1.605690    0.299770    1.791100
  C      0.727470    1.809560    1.921140
  C      1.458110    3.015240    2.335830
  O      0.974570    4.109140    2.457310
  O      2.738820    2.703390    2.571690
  C      3.601570    3.768440    2.976000
  C      4.116350    4.551420    1.777650
  C     -0.593670    1.674030    1.613560
  F     -1.476980    2.664620    1.633080
  C     -0.135750   -1.848060    0.997590
  S     -1.843740   -1.965930    0.624610
  C      0.693210   -2.989030    0.945590
  C      2.031140   -2.968260    1.189700
  C      2.822530   -4.139440    1.137180
  N      2.299550   -5.336260    0.886170
  C      3.325210   -6.201070    0.926010
  C      4.598760   -5.517480    1.223660
  C      5.703850   -6.489040    1.254870
  O      6.882590   -6.290890    1.468650
  C      5.025810   -7.762800    0.960930
  C      3.578680   -7.543260    0.768960
  N      2.949750   -8.710840    0.491640
  C      3.896600   -9.618880    0.498380
  C      5.216120   -9.096340    0.782260
  C      4.291160   -4.188400    1.356180
  C      5.118890   -3.054460    1.615240
  C      6.448040   -3.150220    1.811060
  C      7.350770   -2.035510    2.040250
  C      6.992790   -0.752350    2.224100
  C      8.721420   -2.391990    2.067660
  C      9.877890   -2.746300    2.079710
  C     11.219250   -3.135770    2.108540
  C     12.181340   -2.463770    1.447850
  C     13.586160   -2.803540    1.489880
  C     14.006510   -4.183890    1.471510
  C     13.266010   -5.306260    1.322200
  S     14.291420   -6.804190    1.183920
  F     15.364680   -8.336640    1.342800
  C     15.704040   -5.821790    1.541160
  C     15.430100   -4.499870    1.594800
  C     16.368280   -3.434180    1.741970
  C     15.945590   -2.155310    1.660820
  C     14.560600   -1.815170    1.504540
  C     14.161210   -0.430180    1.487230
  C     14.795440    0.593470    0.859980
  C     14.421270    1.999820    0.923690
  C     13.302320    2.530000    1.510890
  C     13.000600    3.908680    1.534760
  N     12.697940    5.014470    1.590810
  C     12.262170    1.797170    2.120620
  N     11.358300    1.281640    2.607700
  C     15.427510    2.757230    0.190250
  C     16.325800    1.850140   -0.423650
  C     15.944280    0.466950   -0.077470
  O     16.434790   -0.547600   -0.520440
  C     17.372030    2.260800   -1.213380
  C     17.551120    3.635660   -1.395850
  C     16.655870    4.536530   -0.769590
  C     15.592230    4.120510    0.020550
  S     17.061240    6.188780   -1.123710
  C     18.407000    5.654660   -2.095240
  C     18.548410    4.308720   -2.152430
  Br    19.497650    6.923400   -2.941970
  H     -3.096710    0.115470    0.779420
  H      4.418150    3.280030    3.511130
  H      3.050720    4.429050    3.653270
  H      4.620580    3.886560    1.080270
  H      4.817200    5.309140    2.115010
  H      3.289260    5.040090    1.268260
  H      0.235480   -3.935400    0.694490
  H      2.518370   -2.035740    1.432760
  H      3.660180  -10.650520    0.302950
  H      6.118610   -9.672930    0.831410
  H      4.630420   -2.090240    1.634120
  H      6.916310   -4.125360    1.777530
  H      5.963510   -0.440190    2.234520
  H      7.736090    0.008360    2.389200
  H     11.453220   -3.987020    2.734280
  H     11.894800   -1.582890    0.889810
  H     12.216410   -5.356640    1.102720
  H     13.903330   -7.199770    2.414190
  H     16.654310   -6.313890    1.579630
  H     17.406700   -3.674930    1.905120
  H     16.650240   -1.348270    1.779900
  H     13.254160   -0.203810    2.032220
  H     18.032640    1.542790   -1.673530
  H     14.938630    4.846590    0.474030
  H     19.323020    3.809690   -2.705480

 Total Charge           Charge          ....    0
 Multiplicity           Mult            ....    1
 Number of Electrons    NEL             ....  508
 Basis Dimension        Dim             .... 1083

ORBITAL ENERGIES
----------------

  NO   OCC          E(Eh)            E(eV)
   0   2.0000    -482.891003    -13140.1322
   1   2.0000     -89.040451     -2422.9138
   2   2.0000     -88.992291     -2421.6034
   3   2.0000     -88.982041     -2421.3244
   4   2.0000     -88.979076     -2421.2438
   5   2.0000     -62.568707     -1702.5811
   6   2.0000     -56.402667     -1534.7946
   7   2.0000     -56.399932     -1534.7202
   8   2.0000     -56.399906     -1534.7195
   9   2.0000     -24.809133      -675.0908
  10   2.0000     -24.613072      -669.7557
  11   2.0000     -19.269381      -524.3465
  12   2.0000     -19.224618      -523.1285
  13   2.0000     -19.212127      -522.7885
  14   2.0000     -19.204565      -522.5828
  15   2.0000     -14.426508      -392.5652
  16   2.0000     -14.423324      -392.4786
  17   2.0000     -14.400448      -391.8561
  18   2.0000     -14.395017      -391.7083
  19   2.0000     -10.416453      -283.4461
  20   2.0000     -10.392677      -282.7991
  21   2.0000     -10.375288      -282.3259
  22   2.0000     -10.365471      -282.0588
  23   2.0000     -10.364406      -282.0298
  24   2.0000     -10.351727      -281.6848
  25   2.0000     -10.350719      -281.6574
  26   2.0000     -10.337270      -281.2914
  27   2.0000     -10.335016      -281.2301
  28   2.0000     -10.332923      -281.1731
  29   2.0000     -10.331037      -281.1218
  30   2.0000     -10.330112      -281.0966
  31   2.0000     -10.329122      -281.0697
  32   2.0000     -10.328901      -281.0637
  33   2.0000     -10.326088      -280.9871
  34   2.0000     -10.324573      -280.9459
  35   2.0000     -10.322445      -280.8880
  36   2.0000     -10.322109      -280.8789
  37   2.0000     -10.316196      -280.7180
  38   2.0000     -10.315518      -280.6995
  39   2.0000     -10.314992      -280.6852
  40   2.0000     -10.313739      -280.6511
  41   2.0000     -10.313252      -280.6379
  42   2.0000     -10.312393      -280.6145
  43   2.0000     -10.311252      -280.5834
  44   2.0000     -10.310419      -280.5608
  45   2.0000     -10.308397      -280.5058
  46   2.0000     -10.308108      -280.4979
  47   2.0000     -10.305110      -280.4163
  48   2.0000     -10.302745      -280.3519
  49   2.0000     -10.301828      -280.3270
  50   2.0000     -10.300819      -280.2995
  51   2.0000     -10.299845      -280.2730
  52   2.0000     -10.299804      -280.2719
  53   2.0000     -10.299529      -280.2644
  54   2.0000     -10.299086      -280.2524
  55   2.0000     -10.294788      -280.1354
  56   2.0000     -10.293212      -280.0925
  57   2.0000     -10.292027      -280.0603
  58   2.0000     -10.289267      -279.9852
  59   2.0000     -10.286649      -279.9139
  60   2.0000     -10.283543      -279.8294
  61   2.0000     -10.282692      -279.8063
  62   2.0000     -10.282142      -279.7913
  63   2.0000     -10.280079      -279.7352
  64   2.0000     -10.279487      -279.7191
  65   2.0000     -10.278913      -279.7034
  66   2.0000     -10.277643      -279.6689
  67   2.0000     -10.274052      -279.5712
  68   2.0000     -10.270835      -279.4836
  69   2.0000     -10.264865      -279.3212
  70   2.0000      -8.798131      -239.4093
  71   2.0000      -8.121115      -220.9868
  72   2.0000      -8.087503      -220.0721
  73   2.0000      -8.078009      -219.8138
  74   2.0000      -8.073294      -219.6855
  75   2.0000      -6.634462      -180.5329
  76   2.0000      -6.619867      -180.1357
  77   2.0000      -6.619628      -180.1292
  78   2.0000      -6.091183      -165.7495
  79   2.0000      -6.087791      -165.6572
  80   2.0000      -6.084205      -165.5596
  81   2.0000      -6.056636      -164.8094
  82   2.0000      -6.052291      -164.6912
  83   2.0000      -6.050169      -164.6335
  84   2.0000      -6.047713      -164.5666
  85   2.0000      -6.043406      -164.4495
  86   2.0000      -6.043260      -164.4455
  87   2.0000      -6.039231      -164.3358
  88   2.0000      -6.039013      -164.3299
  89   2.0000      -6.034229      -164.1997
  90   2.0000      -2.750331       -74.8403
  91   2.0000      -2.746222       -74.7285
  92   2.0000      -2.746077       -74.7245
  93   2.0000      -2.734454       -74.4083
  94   2.0000      -2.734444       -74.4080
  95   2.0000      -1.325915       -36.0800
  96   2.0000      -1.201463       -32.6935
  97   2.0000      -1.139955       -31.0198
  98   2.0000      -1.118331       -30.4313
  99   2.0000      -1.108462       -30.1628
 100   2.0000      -1.095708       -29.8157
 101   2.0000      -1.069314       -29.0975
 102   2.0000      -1.048682       -28.5361
 103   2.0000      -1.033822       -28.1317
 104   2.0000      -1.030845       -28.0507
 105   2.0000      -1.021685       -27.8014
 106   2.0000      -1.003241       -27.2996
 107   2.0000      -1.000705       -27.2306
 108   2.0000      -0.996733       -27.1225
 109   2.0000      -0.973415       -26.4880
 110   2.0000      -0.959671       -26.1140
 111   2.0000      -0.946624       -25.7589
 112   2.0000      -0.934237       -25.4219
 113   2.0000      -0.932421       -25.3725
 114   2.0000      -0.916032       -24.9265
 115   2.0000      -0.915600       -24.9147
 116   2.0000      -0.913209       -24.8497
 117   2.0000      -0.902850       -24.5678
 118   2.0000      -0.893169       -24.3044
 119   2.0000      -0.891766       -24.2662
 120   2.0000      -0.877820       -23.8867
 121   2.0000      -0.875448       -23.8222
 122   2.0000      -0.865989       -23.5648
 123   2.0000      -0.863221       -23.4894
 124   2.0000      -0.845997       -23.0208
 125   2.0000      -0.841183       -22.8897
 126   2.0000      -0.838210       -22.8089
 127   2.0000      -0.834592       -22.7104
 128   2.0000      -0.824047       -22.4235
 129   2.0000      -0.817229       -22.2379
 130   2.0000      -0.810406       -22.0523
 131   2.0000      -0.799937       -21.7674
 132   2.0000      -0.777220       -21.1492
 133   2.0000      -0.770232       -20.9591
 134   2.0000      -0.768563       -20.9137
 135   2.0000      -0.766307       -20.8523
 136   2.0000      -0.751038       -20.4368
 137   2.0000      -0.741432       -20.1754
 138   2.0000      -0.725965       -19.7545
 139   2.0000      -0.721338       -19.6286
 140   2.0000      -0.716219       -19.4893
 141   2.0000      -0.712292       -19.3825
 142   2.0000      -0.701969       -19.1015
 143   2.0000      -0.696520       -18.9533
 144   2.0000      -0.690794       -18.7975
 145   2.0000      -0.685824       -18.6622
 146   2.0000      -0.673362       -18.3231
 147   2.0000      -0.668478       -18.1902
 148   2.0000      -0.663172       -18.0458
 149   2.0000      -0.658297       -17.9132
 150   2.0000      -0.653975       -17.7956
 151   2.0000      -0.650421       -17.6988
 152   2.0000      -0.642460       -17.4822
 153   2.0000      -0.634515       -17.2660
 154   2.0000      -0.630527       -17.1575
 155   2.0000      -0.625912       -17.0319
 156   2.0000      -0.617969       -16.8158
 157   2.0000      -0.612100       -16.6561
 158   2.0000      -0.604704       -16.4548
 159   2.0000      -0.603544       -16.4233
 160   2.0000      -0.602299       -16.3894
 161   2.0000      -0.601155       -16.3583
 162   2.0000      -0.591512       -16.0959
 163   2.0000      -0.586741       -15.9660
 164   2.0000      -0.585772       -15.9397
 165   2.0000      -0.580231       -15.7889
 166   2.0000      -0.572746       -15.5852
 167   2.0000      -0.569424       -15.4948
 168   2.0000      -0.566623       -15.4186
 169   2.0000      -0.562920       -15.3178
 170   2.0000      -0.558376       -15.1942
 171   2.0000      -0.554834       -15.0978
 172   2.0000      -0.550392       -14.9769
 173   2.0000      -0.550011       -14.9666
 174   2.0000      -0.549229       -14.9453
 175   2.0000      -0.546185       -14.8624
 176   2.0000      -0.538986       -14.6665
 177   2.0000      -0.538047       -14.6410
 178   2.0000      -0.537674       -14.6309
 179   2.0000      -0.533887       -14.5278
 180   2.0000      -0.530557       -14.4372
 181   2.0000      -0.527278       -14.3480
 182   2.0000      -0.526666       -14.3313
 183   2.0000      -0.520700       -14.1690
 184   2.0000      -0.519556       -14.1378
 185   2.0000      -0.519057       -14.1243
 186   2.0000      -0.516035       -14.0420
 187   2.0000      -0.515385       -14.0243
 188   2.0000      -0.507479       -13.8092
 189   2.0000      -0.504559       -13.7298
 190   2.0000      -0.502810       -13.6822
 191   2.0000      -0.498073       -13.5533
 192   2.0000      -0.496000       -13.4969
 193   2.0000      -0.493381       -13.4256
 194   2.0000      -0.492075       -13.3901
 195   2.0000      -0.491145       -13.3647
 196   2.0000      -0.488858       -13.3025
 197   2.0000      -0.485026       -13.1982
 198   2.0000      -0.484581       -13.1861
 199   2.0000      -0.482228       -13.1221
 200   2.0000      -0.481704       -13.1078
 201   2.0000      -0.472379       -12.8541
 202   2.0000      -0.470279       -12.7970
 203   2.0000      -0.467768       -12.7286
 204   2.0000      -0.465480       -12.6664
 205   2.0000      -0.464937       -12.6516
 206   2.0000      -0.462406       -12.5827
 207   2.0000      -0.459048       -12.4913
 208   2.0000      -0.456567       -12.4238
 209   2.0000      -0.456423       -12.4199
 210   2.0000      -0.452399       -12.3104
 211   2.0000      -0.451413       -12.2836
 212   2.0000      -0.449935       -12.2434
 213   2.0000      -0.449307       -12.2263
 214   2.0000      -0.447601       -12.1798
 215   2.0000      -0.446116       -12.1394
 216   2.0000      -0.438818       -11.9408
 217   2.0000      -0.436381       -11.8745
 218   2.0000      -0.435338       -11.8461
 219   2.0000      -0.433918       -11.8075
 220   2.0000      -0.430804       -11.7228
 221   2.0000      -0.428498       -11.6600
 222   2.0000      -0.422622       -11.5001
 223   2.0000      -0.418589       -11.3904
 224   2.0000      -0.417637       -11.3645
 225   2.0000      -0.416324       -11.3288
 226   2.0000      -0.414610       -11.2821
 227   2.0000      -0.397963       -10.8291
 228   2.0000      -0.392705       -10.6861
 229   2.0000      -0.384418       -10.4605
 230   2.0000      -0.383465       -10.4346
 231   2.0000      -0.380225       -10.3465
 232   2.0000      -0.374407       -10.1881
 233   2.0000      -0.371057       -10.0970
 234   2.0000      -0.363724        -9.8974
 235   2.0000      -0.360819        -9.8184
 236   2.0000      -0.353268        -9.6129
 237   2.0000      -0.350713        -9.5434
 238   2.0000      -0.347327        -9.4512
 239   2.0000      -0.344416        -9.3720
 240   2.0000      -0.341257        -9.2861
 241   2.0000      -0.334548        -9.1035
 242   2.0000      -0.333652        -9.0791
 243   2.0000      -0.330848        -9.0028
 244   2.0000      -0.324455        -8.8289
 245   2.0000      -0.322331        -8.7711
 246   2.0000      -0.322270        -8.7694
 247   2.0000      -0.315949        -8.5974
 248   2.0000      -0.307690        -8.3727
 249   2.0000      -0.303697        -8.2640
 250   2.0000      -0.300151        -8.1675
 251   2.0000      -0.278935        -7.5902
 252   2.0000      -0.267523        -7.2797
 253   2.0000      -0.263009        -7.1568
 254   0.0000      -0.111273        -3.0279
 255   0.0000      -0.102778        -2.7967
 256   0.0000      -0.072087        -1.9616
 257   0.0000      -0.057294        -1.5590
 258   0.0000      -0.051982        -1.4145

MULLIKEN ATOMIC CHARGES
-----------------------
   0 C :   -0.105073
   1 C :    0.046917
   2 C :    0.007876
   3 S :    0.155134
   4 C :   -0.216935
   5 C :    0.225423
   6 O :   -0.178444
   7 O :   -0.315775
   8 C :    0.172869
   9 C :   -0.028749
  10 C :    0.264488
  11 F :   -0.142982
  12 C :   -0.174659
  13 S :    0.192215
  14 C :    0.095094
  15 C :   -0.058504
  16 C :    0.040265
  17 N :   -0.045133
  18 C :    0.065779
  19 C :   -0.163409
  20 C :    0.217083
  21 O :   -0.147394
  22 C :   -0.011564
  23 C :   -0.041737
  24 N :   -0.057752
  25 C :    0.082088
  26 C :   -0.101037
  27 C :    0.046750
  28 C :   -0.009025
  29 C :    0.028590
  30 C :   -0.053809
  31 C :   -0.001860
  32 C :    0.016080
  33 C :    0.020234
  34 C :   -0.071565
  35 C :   -0.044767
  36 C :    0.109603
  37 C :    0.082342
  38 C :   -0.251086
  39 S :    0.533027
  40 F :   -0.544293
  41 C :   -0.205486
  42 C :    0.147431
  43 C :    0.000502
  44 C :    0.066081
  45 C :    0.038109
  46 C :   -0.090871
  47 C :   -0.052831
  48 C :    0.305058
  49 C :   -0.349205
  50 C :   -0.185101
  51 N :    0.150725
  52 C :   -0.192638
  53 N :    0.159638
  54 C :    0.017701
  55 C :   -0.015077
  56 C :    0.121265
  57 O :   -0.131631
  58 C :   -0.067127
  59 C :    0.118420
  60 C :   -0.094007
  61 C :   -0.016896
  62 S :    0.189756
  63 C :   -0.123127
  64 C :    0.039861
  65 Br:    0.029111
  66 H :    0.044398
  67 H :    0.027567
  68 H :    0.034488
  69 H :    0.027170
  70 H :    0.029309
  71 H :    0.038202
  72 H :    0.016091
  73 H :   -0.016525
  74 H :    0.003929
  75 H :   -0.010586
  76 H :   -0.037010
  77 H :    0.015517
  78 H :    0.020358
  79 H :    0.043996
  80 H :    0.040697
  81 H :    0.027734
  82 H :    0.035278
  83 H :    0.112378
  84 H :    0.048916
  85 H :   -0.016886
  86 H :   -0.012355
  87 H :    0.043001
  88 H :   -0.006618
  89 H :   -0.005044
  90 H :    0.000033
Sum of atomic charges:    0.0000000

LOEWDIN ATOMIC CHARGES
----------------------
   0 C :   -0.153736
   1 C :   -0.105970
   2 C :   -0.167560
   3 S :    0.440372
   4 C :   -0.243001
   5 C :    0.068454
   6 O :   -0.163205
   7 O :   -0.099688
   8 C :    0.086522
   9 C :   -0.067090
  10 C :    0.086480
  11 F :   -0.025905
  12 C :   -0.208531
  13 S :    0.502440
  14 C :    0.040380
  15 C :   -0.067791
  16 C :    0.071252
  17 N :   -0.115603
  18 C :    0.047965
  19 C :   -0.047554
  20 C :    0.068446
  21 O :   -0.147512
  22 C :   -0.043714
  23 C :    0.010999
  24 N :   -0.099195
  25 C :    0.063612
  26 C :   -0.041692
  27 C :   -0.021881
  28 C :   -0.031018
  29 C :    0.027304
  30 C :   -0.049629
  31 C :    0.005976
  32 C :   -0.000414
  33 C :   -0.038180
  34 C :   -0.008633
  35 C :   -0.006138
  36 C :    0.019319
  37 C :   -0.044519
  38 C :   -0.184660
  39 S :    0.854079
  40 F :   -0.545772
  41 C :   -0.166443
  42 C :   -0.022122
  43 C :   -0.018309
  44 C :    0.015081
  45 C :   -0.038427
  46 C :    0.075335
  47 C :   -0.086244
  48 C :    0.077287
  49 C :   -0.137700
  50 C :   -0.017975
  51 N :   -0.050939
  52 C :   -0.020941
  53 N :   -0.049174
  54 C :   -0.022485
  55 C :   -0.051374
  56 C :    0.079076
  57 O :   -0.127048
  58 C :    0.023125
  59 C :   -0.030350
  60 C :   -0.142878
  61 C :   -0.008447
  62 S :    0.435032
  63 C :   -0.269288
  64 C :   -0.070168
  65 Br:    0.141128
  66 H :    0.036950
  67 H :    0.025363
  68 H :    0.024129
  69 H :    0.028203
  70 H :    0.035811
  71 H :    0.032592
  72 H :    0.044615
  73 H :    0.016069
  74 H :    0.021087
  75 H :    0.032035
  76 H :    0.023478
  77 H :    0.036931
  78 H :    0.022848
  79 H :    0.037435
  80 H :    0.044873
  81 H :    0.039356
  82 H :    0.022322
  83 H :    0.022803
  84 H :    0.035766
  85 H :    0.035117
  86 H :    0.032151
  87 H :    0.045761
  88 H :    0.042194
  89 H :    0.041319
  90 H :    0.040029

  Mayer bond orders larger than 0.100000
B(  0-C ,  1-C ) :   1.4242 B(  0-C , 13-S ) :   1.2276 B(  0-C , 66-H ) :   0.9702
B(  1-C ,  2-C ) :   1.2656 B(  1-C , 10-C ) :   1.0843 B(  2-C ,  3-S ) :   1.0703
B(  2-C , 12-C ) :   1.4434 B(  3-S ,  4-C ) :   1.0412 B(  4-C ,  5-C ) :   0.9325
B(  4-C , 10-C ) :   1.5997 B(  5-C ,  6-O ) :   2.1630 B(  5-C ,  7-O ) :   1.2317
B(  7-O ,  8-C ) :   0.8945 B(  8-C ,  9-C ) :   1.1216 B(  8-C , 67-H ) :   0.9615
B(  8-C , 68-H ) :   0.9468 B(  9-C , 69-H ) :   0.9674 B(  9-C , 70-H ) :   0.9646
B(  9-C , 71-H ) :   0.9676 B( 10-C , 11-F ) :   1.2447 B( 12-C , 13-S ) :   1.1320
B( 12-C , 14-C ) :   1.1479 B( 14-C , 15-C ) :   1.6076 B( 14-C , 72-H ) :   0.9734
B( 15-C , 16-C ) :   1.1914 B( 15-C , 73-H ) :   0.9491 B( 16-C , 17-N ) :   1.5719
B( 16-C , 18-C ) :   0.1119 B( 16-C , 27-C ) :   0.9963 B( 17-N , 18-C ) :   1.3789
B( 18-C , 19-C ) :   1.0525 B( 18-C , 23-C ) :   1.3969 B( 19-C , 20-C ) :   0.8925
B( 19-C , 27-C ) :   1.5671 B( 20-C , 21-O ) :   2.1759 B( 20-C , 22-C ) :   0.9395
B( 21-O , 77-H ) :   0.1082 B( 22-C , 23-C ) :   1.0780 B( 22-C , 26-C ) :   1.5804
B( 23-C , 24-N ) :   1.3222 B( 24-N , 25-C ) :   1.6458 B( 25-C , 26-C ) :   1.0862
B( 25-C , 74-H ) :   0.9894 B( 26-C , 75-H ) :   1.0124 B( 27-C , 28-C ) :   1.1254
B( 28-C , 29-C ) :   1.7155 B( 28-C , 76-H ) :   0.9592 B( 29-C , 30-C ) :   1.0509
B( 29-C , 77-H ) :   0.9551 B( 30-C , 31-C ) :   1.8951 B( 30-C , 32-C ) :   0.9073
B( 31-C , 78-H ) :   0.9400 B( 31-C , 79-H ) :   0.9434 B( 32-C , 33-C ) :   2.3600
B( 33-C , 34-C ) :   0.9835 B( 34-C , 35-C ) :   1.7483 B( 34-C , 80-H ) :   0.9558
B( 35-C , 36-C ) :   1.0853 B( 35-C , 81-H ) :   0.9523 B( 36-C , 37-C ) :   1.0835
B( 36-C , 45-C ) :   1.5180 B( 37-C , 38-C ) :   1.6157 B( 37-C , 42-C ) :   1.0966
B( 38-C , 39-S ) :   0.8941 B( 38-C , 82-H ) :   0.9385 B( 39-S , 40-F ) :   0.4834
B( 39-S , 41-C ) :   1.0465 B( 39-S , 83-H ) :   0.8843 B( 41-C , 42-C ) :   1.5254
B( 41-C , 84-H ) :   0.9934 B( 42-C , 43-C ) :   1.0914 B( 43-C , 44-C ) :   1.6526
B( 43-C , 85-H ) :   1.0023 B( 44-C , 45-C ) :   1.1113 B( 44-C , 86-H ) :   0.9786
B( 45-C , 46-C ) :   1.0723 B( 46-C , 47-C ) :   1.6760 B( 46-C , 87-H ) :   0.9281
B( 47-C , 48-C ) :   1.0506 B( 47-C , 56-C ) :   0.9231 B( 48-C , 49-C ) :   1.6365
B( 48-C , 54-C ) :   1.0099 B( 49-C , 50-C ) :   1.1398 B( 49-C , 52-C ) :   1.1474
B( 50-C , 51-N ) :   2.9727 B( 52-C , 53-N ) :   2.9666 B( 54-C , 55-C ) :   1.2690
B( 54-C , 61-C ) :   1.4021 B( 55-C , 56-C ) :   0.9358 B( 55-C , 58-C ) :   1.4231
B( 56-C , 57-O ) :   2.2453 B( 58-C , 59-C ) :   1.2501 B( 58-C , 88-H ) :   1.0161
B( 59-C , 60-C ) :   1.2995 B( 59-C , 64-C ) :   1.1648 B( 60-C , 61-C ) :   1.3390
B( 60-C , 62-S ) :   1.0868 B( 61-C , 89-H ) :   0.9795 B( 62-S , 63-C ) :   1.0867
B( 63-C , 64-C ) :   1.6163 B( 63-C , 65-Br) :   1.0220 B( 64-C , 90-H ) :   1.0000

-----------------------------------------------------------------------------
         ABSORPTION SPECTRUM VIA TRANSITION ELECTRIC DIPOLE MOMENTS
-----------------------------------------------------------------------------
State   Energy  Wavelength   fosc         T2         TX        TY        TZ
        (cm-1)    (nm)                  (au**2)     (au)      (au)      (au)
-----------------------------------------------------------------------------
   0   17756.6    563.2   0.094299209   1.74833  -1.09054  -0.74770  -0.00166
   1   18233.0    548.5   0.295377402   5.33327  -1.60480  -1.61053   0.40504
   2   19451.3    514.1   1.082708015  18.32476   1.94303  -3.80811  -0.21832
   3   22149.4    451.5   0.000571948   0.00850  -0.04588   0.04511   0.06604
   4   23215.5    430.7   0.000557820   0.00791  -0.06309   0.06263  -0.00276
   5   24118.3    414.6   0.009491290   0.12955   0.31908  -0.16095  -0.04284
   6   25016.3    399.7   0.156677707   2.06186   0.95534  -1.07105  -0.04508
   7   25080.7    398.7   0.000994355   0.01305   0.04503   0.10385   0.01550
   8   25899.9    386.1   0.000096805   0.00123   0.03437   0.00669   0.00217
   9   26014.2    384.4   0.201740351   2.55304  -0.34582  -1.55668  -0.10106
  10   27308.4    366.2   0.401978147   4.84598  -1.82865  -0.90062   0.83121
  11   27649.8    361.7   0.104733329   1.24701   1.01561  -0.46422  -0.00568
  12   27773.8    360.1   0.002206523   0.02615   0.06071   0.00451  -0.14983
  13   28281.2    353.6   0.128732836   1.49854   0.61484  -0.94658   0.47382
  14   28598.3    349.7   0.041559629   0.47842  -0.09215   0.68483  -0.03061
  15   28620.9    349.4   0.082701352   0.95127   0.50195   0.81632   0.18151
  16   29321.6    341.0   0.027554624   0.30937   0.05680  -0.51477   0.20288
  17   29470.1    339.3   0.160316826   1.79090   1.32545   0.15445   0.10113
  18   29645.6    337.3   0.021833376   0.24246   0.37912  -0.30814  -0.06143
  19   29695.4    336.8   0.032094083   0.35580  -0.57787  -0.12135  -0.08451
  20   31040.4    322.2   0.163307825   1.73203   0.16828  -1.29647  -0.15127
  21   31467.6    317.8   0.006400606   0.06696  -0.11692  -0.19597   0.12203
  22   31484.6    317.6   0.009143409   0.09561   0.10799   0.25824  -0.13135
  23   32052.4    312.0   0.052071419   0.53483  -0.56493   0.45584   0.08882
  24   32263.5    309.9   0.059541487   0.60755   0.64634  -0.27013  -0.34181
  25   32383.3    308.8   0.297449081   3.02390   0.11506   1.73488  -0.02930
  26   32794.1    304.9   0.007097330   0.07125  -0.05418   0.25780  -0.04305
  27   32979.3    303.2   0.798783686   7.97375   1.81412   1.86407  -1.09908
  28   33101.8    302.1   0.134380196   1.33647  -1.08961   0.38083  -0.06475
  29   33198.0    301.2   0.208237798   2.06502  -0.66487   0.81566   0.97860
  30   33543.0    298.1   0.016963427   0.16649   0.26147  -0.30671   0.06366
  31   34203.8    292.4   0.022903320   0.22044  -0.02405  -0.45764  -0.10212
  32   34497.1    289.9   0.023506007   0.22432  -0.08249  -0.43871  -0.15826
  33   34630.7    288.8   0.019388328   0.18431  -0.13016  -0.39336  -0.11243
  34   34821.1    287.2   0.136257718   1.28823   0.08973   1.13144   0.00457
  35   35234.8    283.8   0.037301671   0.34852  -0.03742   0.58916  -0.00345
  36   35732.8    279.9   0.042386604   0.39051   0.20030  -0.59191  -0.00627
  37   36150.9    276.6   0.042464072   0.38670   0.37533  -0.49581  -0.00183
  38   36303.9    275.5   0.008404892   0.07622  -0.24956  -0.04401   0.10955
  39   36893.8    271.0   0.037837362   0.33763   0.51304  -0.08814  -0.25817
  40   36979.5    270.4   0.062298157   0.55461  -0.62383  -0.16560   0.37151
  41   37063.6    269.8   0.005621241   0.04993  -0.14128   0.16069   0.06439
  42   37107.8    269.5   0.052491466   0.46569  -0.26701   0.62793   0.01015
  43   37721.0    265.1   0.121985809   1.06464   0.77001   0.64214   0.24370
  44   37882.8    264.0   0.091307602   0.79349  -0.70734   0.53831  -0.05817
  45   38144.3    262.2   0.032400478   0.27964  -0.41387   0.32481  -0.05339
  46   38474.3    259.9   0.059299687   0.50741  -0.26761   0.65761   0.05779
  47   38794.2    257.8   0.014270644   0.12110   0.32382   0.11782   0.04861
  48   39147.9    255.4   0.000566498   0.00476  -0.05470   0.04208  -0.00091
  49   39221.4    255.0   0.048648984   0.40834   0.24785  -0.57276  -0.13732
  50   39355.3    254.1   0.006612457   0.05531   0.14602  -0.17264  -0.06471
  51   39484.3    253.3   0.262242787   2.18652  -0.00483   1.47547  -0.09735
  52   39667.7    252.1   0.049138506   0.40781  -0.22862  -0.58630  -0.10860
  53   39901.3    250.6   0.030929992   0.25519   0.03392   0.49816   0.07670
  54   40054.0    249.7   0.007422777   0.06101  -0.21395  -0.05190  -0.11198
  55   40186.4    248.8   0.012342060   0.10111   0.30254   0.08970   0.03914

FINAL SINGLE POINT ENERGY     -6840.636209722429

DIPOLE MOMENT
-------------
                                X             Y             Z
Electronic contribution:    103.56803      83.29052     -47.79234
Nuclear contribution   :   -103.56417     -80.95092      47.40080
                        -----------------------------------------
Total Dipole Moment    :      0.00386       2.33960      -0.39154
                        -----------------------------------------
Magnitude (a.u.)       :      2.37214
Magnitude (Debye)      :      6.02951

Rotational constants in cm-1:     0.000892     0.000306     0.000236
Rotational constants in MHz :    26.746737     9.183354     7.078930

                             ****ORCA TERMINATED NORMALLY****
TOTAL RUN TIME: 0 days 0 hours 7 minutes 46 seconds 906 msec
