                         Program Version 4.2.0 -  RELEASE  -
|  1> # ORCA input file
|  2> # SCF done       -207.157686467871          0.000438711971
|  3> ! CAM-B3LYP def2-SVP def2/J RIJCOSX Grid4 TightSCF
|  4> %maxcore 5000
|  5> %tddft
|  6>     Mode sTDDFT
|  7>     Ethresh 5.0
|  8>     maxcore 5000
|  9> end
| 10>
| 11> %pal
| 12>   nprocs 6
| 13>   end
| 14> * xyz 0 1
| 15>    C       -9.28767        -0.14778         5.13905
| 16>    C      -10.34868        -0.93656         4.77965
| 17>    C      -10.91409        -1.92685         5.60986
| 18>    N      -11.42120        -2.73740         6.24487
| 19>    C      -10.99385        -0.88944         3.52574
| 20>    N      -11.55064        -0.91842         2.52199
| 21>    C       -8.53457        -0.23362         6.38177
| 22>    C       -7.42874         0.65187         6.30557
| 23>    C       -6.52162         0.79295         7.32814
| 24>    C       -6.71327         0.02465         8.48041
| 25>    C       -7.82256        -0.85298         8.54981
| 26>    C       -8.74016        -0.99637         7.51554
| 27>    S       -7.86397        -1.69371        10.06674
| 28>    C       -6.42580        -0.88391        10.58312
| 29>    C       -5.93122        -0.02126         9.66844
| 30>    C       -7.44096         1.34322         5.00905
| 31>    O       -6.65267         2.18464         4.62294
| 32>    C       -8.65726         0.86439         4.31050
| 33>    C       -9.20895         1.45175         3.20872
| 34>    C       -8.59229         2.39014         2.34872
| 35>    S       -9.57311         3.63477         1.62593
| 36>    C       -8.20668         4.37949         0.85659
| 37>    C       -7.04983         3.65100         1.12282
| 38>    C       -7.27180         2.52536         1.93252
| 39>    S       -6.13251         1.21504         2.16741
| 40>    C       -4.51826         1.89280         2.00462
| 41>    O       -3.57559         1.15520         2.10652
| 42>    C       -4.29374         3.35426         1.69797
| 43>    O       -3.26811         3.90134         1.97641
| 44>    S       -5.45208         4.22019         0.65185
| 45>    C       -8.43432         5.57112         0.11539
| 46>    C       -7.56563         6.16296        -0.73326
| 47>    C       -7.79234         7.38010        -1.46686
| 48>    C       -6.86279         7.73497        -2.46121
| 49>    C       -7.04149         8.88428        -3.18966
| 50>    C       -8.12202         9.74088        -2.90191
| 51>    C       -9.04495         9.40571        -1.91875
| 52>    C       -8.88256         8.22859        -1.22104
| 53>    C       -8.01448        10.91720        -3.73107
| 54>    C       -6.87011        10.79043        -4.53885
| 55>    C       -6.20000         9.45200        -4.30978
| 56>    C       -4.72341         9.59951        -3.91569
| 57>    C       -4.53448        10.50396        -2.70316
| 58>    C       -6.36548         8.63794        -5.61554
| 59>    C       -5.92498         7.18163        -5.55144
| 60>    C       -6.52171        11.78944        -5.41100
| 61>    C       -7.30613        12.95478        -5.49523
| 62>    C       -8.44558        13.06273        -4.68016
| 63>    C       -8.80315        12.05932        -3.80631
| 64>    C       -6.90056        13.97449        -6.42307
| 65>    C       -7.51732        15.16241        -6.62903
| 66>    C       -7.10614        16.15237        -7.56608
| 67>    C       -7.84746        17.35643        -7.67366
| 68>    C       -7.50617        18.39997        -8.60371
| 69>    N       -8.23848        19.51608        -8.65589
| 70>    C       -9.27394        19.65069        -7.85540
| 71>    C       -9.62055        18.61123        -6.93705
| 72>    N       -8.91287        17.51089        -6.86726
| 73>    C      -10.74381        18.76138        -6.08536
| 74>    N      -11.65844        18.91049        -5.41173
| 75>    C      -10.04106        20.83767        -7.91668
| 76>    N      -10.68162        21.78792        -7.94469
| 77>    C       -6.39545        18.28794        -9.49915
| 78>    C       -5.65366        17.08634        -9.37935
| 79>    C       -5.99543        16.04496        -8.43638
| 80>    N       -5.14376        15.02148        -8.51564
| 81>    S       -4.03645        15.32390        -9.64142
| 82>    N       -4.57871        16.77108       -10.09063
| 83>    C       -6.14874        19.34046       -10.38961
| 84>    C       -5.20960        19.51712       -11.38387
| 85>    C       -5.17764        20.69038       -12.18363
| 86>    C       -4.21111        20.70299       -13.14067
| 87>    C       -3.42240        19.53115       -13.14624
| 88>    S       -3.94466        18.42473       -11.88899
| 89>    C       -2.37525        19.22128       -13.98983
| 90>    C       -1.85136        20.01528       -15.04703
| 91>    C       -0.82124        19.44605       -15.71320
| 92>    C       -0.45023        18.14860       -15.22720
| 93>    S       -1.50254        17.71328       -13.86961
| 94>    C        0.52223        17.34721       -15.68504
| 95>    H       -5.68823         1.47242         7.23901
| 96>    H       -9.57139        -1.67422         7.61672
| 97>    H       -6.03345        -1.10737        11.55616
| 98>    H       -5.04505         0.56933         9.81461
| 99>    H      -10.25487         1.26461         2.99621
|100>    H       -9.42315         5.98702         0.25080
|101>    H       -6.61352         5.68653        -0.92062
|102>    H       -6.01053         7.09373        -2.62988
|103>    H       -9.87299        10.06235        -1.69812
|104>    H       -9.59373         7.97277        -0.45139
|105>    H       -4.17206        10.00901        -4.76460
|106>    H       -4.31201         8.61473        -3.69141
|107>    H       -4.90865        11.50489        -2.90644
|108>    H       -3.47925        10.57556        -2.45025
|109>    H       -5.06806        10.10723        -1.84209
|110>    H       -5.79835         9.14876        -6.39682
|111>    H       -7.42077         8.67208        -5.89954
|112>    H       -4.88177         7.09400        -5.26003
|113>    H       -6.03819         6.72942        -6.53446
|114>    H       -6.53761         6.62072        -4.85093
|115>    H       -5.64437        11.70178        -6.03577
|116>    H       -9.05689        13.94937        -4.73797
|117>    H       -9.68277        12.16069        -3.18836
|118>    H       -6.01715        13.75442        -7.00630
|119>    H       -8.39869        15.43429        -6.06648
|120>    H       -6.84465        20.16430       -10.27581
|121>    H       -5.88079        21.48862       -12.02230
|122>    H       -4.05313        21.51258       -13.83034
|123>    H       -2.26057        20.98316       -15.27550
|124>    H       -0.29920        19.89319       -16.54023
|125>    H        1.13780        17.64879       -16.51408
|126>    H        0.71621        16.38590       -15.24578
|127> *
|128>
|129>                          ****END OF INPUT****

CARTESIAN COORDINATES (ANGSTROEM)
---------------------------------
  C     -9.287670   -0.147780    5.139050
  C    -10.348680   -0.936560    4.779650
  C    -10.914090   -1.926850    5.609860
  N    -11.421200   -2.737400    6.244870
  C    -10.993850   -0.889440    3.525740
  N    -11.550640   -0.918420    2.521990
  C     -8.534570   -0.233620    6.381770
  C     -7.428740    0.651870    6.305570
  C     -6.521620    0.792950    7.328140
  C     -6.713270    0.024650    8.480410
  C     -7.822560   -0.852980    8.549810
  C     -8.740160   -0.996370    7.515540
  S     -7.863970   -1.693710   10.066740
  C     -6.425800   -0.883910   10.583120
  C     -5.931220   -0.021260    9.668440
  C     -7.440960    1.343220    5.009050
  O     -6.652670    2.184640    4.622940
  C     -8.657260    0.864390    4.310500
  C     -9.208950    1.451750    3.208720
  C     -8.592290    2.390140    2.348720
  S     -9.573110    3.634770    1.625930
  C     -8.206680    4.379490    0.856590
  C     -7.049830    3.651000    1.122820
  C     -7.271800    2.525360    1.932520
  S     -6.132510    1.215040    2.167410
  C     -4.518260    1.892800    2.004620
  O     -3.575590    1.155200    2.106520
  C     -4.293740    3.354260    1.697970
  O     -3.268110    3.901340    1.976410
  S     -5.452080    4.220190    0.651850
  C     -8.434320    5.571120    0.115390
  C     -7.565630    6.162960   -0.733260
  C     -7.792340    7.380100   -1.466860
  C     -6.862790    7.734970   -2.461210
  C     -7.041490    8.884280   -3.189660
  C     -8.122020    9.740880   -2.901910
  C     -9.044950    9.405710   -1.918750
  C     -8.882560    8.228590   -1.221040
  C     -8.014480   10.917200   -3.731070
  C     -6.870110   10.790430   -4.538850
  C     -6.200000    9.452000   -4.309780
  C     -4.723410    9.599510   -3.915690
  C     -4.534480   10.503960   -2.703160
  C     -6.365480    8.637940   -5.615540
  C     -5.924980    7.181630   -5.551440
  C     -6.521710   11.789440   -5.411000
  C     -7.306130   12.954780   -5.495230
  C     -8.445580   13.062730   -4.680160
  C     -8.803150   12.059320   -3.806310
  C     -6.900560   13.974490   -6.423070
  C     -7.517320   15.162410   -6.629030
  C     -7.106140   16.152370   -7.566080
  C     -7.847460   17.356430   -7.673660
  C     -7.506170   18.399970   -8.603710
  N     -8.238480   19.516080   -8.655890
  C     -9.273940   19.650690   -7.855400
  C     -9.620550   18.611230   -6.937050
  N     -8.912870   17.510890   -6.867260
  C    -10.743810   18.761380   -6.085360
  N    -11.658440   18.910490   -5.411730
  C    -10.041060   20.837670   -7.916680
  N    -10.681620   21.787920   -7.944690
  C     -6.395450   18.287940   -9.499150
  C     -5.653660   17.086340   -9.379350
  C     -5.995430   16.044960   -8.436380
  N     -5.143760   15.021480   -8.515640
  S     -4.036450   15.323900   -9.641420
  N     -4.578710   16.771080  -10.090630
  C     -6.148740   19.340460  -10.389610
  C     -5.209600   19.517120  -11.383870
  C     -5.177640   20.690380  -12.183630
  C     -4.211110   20.702990  -13.140670
  C     -3.422400   19.531150  -13.146240
  S     -3.944660   18.424730  -11.888990
  C     -2.375250   19.221280  -13.989830
  C     -1.851360   20.015280  -15.047030
  C     -0.821240   19.446050  -15.713200
  C     -0.450230   18.148600  -15.227200
  S     -1.502540   17.713280  -13.869610
  C      0.522230   17.347210  -15.685040
  H     -5.688230    1.472420    7.239010
  H     -9.571390   -1.674220    7.616720
  H     -6.033450   -1.107370   11.556160
  H     -5.045050    0.569330    9.814610
  H    -10.254870    1.264610    2.996210
  H     -9.423150    5.987020    0.250800
  H     -6.613520    5.686530   -0.920620
  H     -6.010530    7.093730   -2.629880
  H     -9.872990   10.062350   -1.698120
  H     -9.593730    7.972770   -0.451390
  H     -4.172060   10.009010   -4.764600
  H     -4.312010    8.614730   -3.691410
  H     -4.908650   11.504890   -2.906440
  H     -3.479250   10.575560   -2.450250
  H     -5.068060   10.107230   -1.842090
  H     -5.798350    9.148760   -6.396820
  H     -7.420770    8.672080   -5.899540
  H     -4.881770    7.094000   -5.260030
  H     -6.038190    6.729420   -6.534460
  H     -6.537610    6.620720   -4.850930
  H     -5.644370   11.701780   -6.035770
  H     -9.056890   13.949370   -4.737970
  H     -9.682770   12.160690   -3.188360
  H     -6.017150   13.754420   -7.006300
  H     -8.398690   15.434290   -6.066480
  H     -6.844650   20.164300  -10.275810
  H     -5.880790   21.488620  -12.022300
  H     -4.053130   21.512580  -13.830340
  H     -2.260570   20.983160  -15.275500
  H     -0.299200   19.893190  -16.540230
  H      1.137800   17.648790  -16.514080
  H      0.716210   16.385900  -15.245780

 Total Charge           Charge          ....    0
 Multiplicity           Mult            ....    1
 Number of Electrons    NEL             ....  596
 Basis Dimension        Dim             .... 1308

ORBITAL ENERGIES
----------------

  NO   OCC          E(Eh)            E(eV)
   0   2.0000     -89.037472     -2422.8328
   1   2.0000     -88.978716     -2421.2340
   2   2.0000     -88.966736     -2420.9080
   3   2.0000     -88.966286     -2420.8957
   4   2.0000     -88.965806     -2420.8826
   5   2.0000     -88.958003     -2420.6703
   6   2.0000     -88.957235     -2420.6494
   7   2.0000     -19.245858      -523.7064
   8   2.0000     -19.234973      -523.4102
   9   2.0000     -19.217801      -522.9430
  10   2.0000     -14.453159      -393.2905
  11   2.0000     -14.453116      -393.2893
  12   2.0000     -14.449435      -393.1891
  13   2.0000     -14.444858      -393.0646
  14   2.0000     -14.421280      -392.4230
  15   2.0000     -14.418563      -392.3491
  16   2.0000     -14.416076      -392.2814
  17   2.0000     -14.415669      -392.2703
  18   2.0000     -10.404705      -283.1264
  19   2.0000     -10.399769      -282.9921
  20   2.0000     -10.370927      -282.2073
  21   2.0000     -10.366850      -282.0963
  22   2.0000     -10.366506      -282.0870
  23   2.0000     -10.343789      -281.4688
  24   2.0000     -10.341706      -281.4121
  25   2.0000     -10.340060      -281.3673
  26   2.0000     -10.338299      -281.3194
  27   2.0000     -10.337534      -281.2986
  28   2.0000     -10.336421      -281.2683
  29   2.0000     -10.335507      -281.2435
  30   2.0000     -10.335108      -281.2326
  31   2.0000     -10.332079      -281.1502
  32   2.0000     -10.330844      -281.1166
  33   2.0000     -10.327895      -281.0363
  34   2.0000     -10.327593      -281.0281
  35   2.0000     -10.326218      -280.9907
  36   2.0000     -10.324383      -280.9408
  37   2.0000     -10.320169      -280.8261
  38   2.0000     -10.318758      -280.7877
  39   2.0000     -10.318242      -280.7736
  40   2.0000     -10.314977      -280.6848
  41   2.0000     -10.313938      -280.6565
  42   2.0000     -10.313176      -280.6358
  43   2.0000     -10.312760      -280.6245
  44   2.0000     -10.312518      -280.6179
  45   2.0000     -10.306274      -280.4480
  46   2.0000     -10.305841      -280.4362
  47   2.0000     -10.304332      -280.3951
  48   2.0000     -10.303760      -280.3796
  49   2.0000     -10.303560      -280.3741
  50   2.0000     -10.301607      -280.3210
  51   2.0000     -10.299274      -280.2575
  52   2.0000     -10.298494      -280.2363
  53   2.0000     -10.295618      -280.1580
  54   2.0000     -10.294995      -280.1411
  55   2.0000     -10.294127      -280.1174
  56   2.0000     -10.292817      -280.0818
  57   2.0000     -10.291791      -280.0539
  58   2.0000     -10.290772      -280.0261
  59   2.0000     -10.289145      -279.9819
  60   2.0000     -10.288596      -279.9669
  61   2.0000     -10.285003      -279.8691
  62   2.0000     -10.280688      -279.7517
  63   2.0000     -10.277938      -279.6769
  64   2.0000     -10.277262      -279.6585
  65   2.0000     -10.276992      -279.6512
  66   2.0000     -10.276245      -279.6308
  67   2.0000     -10.275605      -279.6134
  68   2.0000     -10.273012      -279.5429
  69   2.0000     -10.271499      -279.5017
  70   2.0000     -10.270831      -279.4835
  71   2.0000     -10.268281      -279.4141
  72   2.0000     -10.267897      -279.4037
  73   2.0000     -10.267716      -279.3988
  74   2.0000     -10.267655      -279.3971
  75   2.0000     -10.266013      -279.3524
  76   2.0000     -10.265481      -279.3379
  77   2.0000     -10.264437      -279.3095
  78   2.0000     -10.253607      -279.0148
  79   2.0000     -10.247262      -278.8422
  80   2.0000      -8.128818      -221.1964
  81   2.0000      -8.074609      -219.7213
  82   2.0000      -8.062969      -219.4046
  83   2.0000      -8.062587      -219.3942
  84   2.0000      -8.062131      -219.3817
  85   2.0000      -8.054700      -219.1795
  86   2.0000      -8.051617      -219.0956
  87   2.0000      -6.100077      -165.9915
  88   2.0000      -6.092318      -165.7804
  89   2.0000      -6.091221      -165.7505
  90   2.0000      -6.043886      -164.4625
  91   2.0000      -6.039934      -164.3550
  92   2.0000      -6.036414      -164.2592
  93   2.0000      -6.032851      -164.1622
  94   2.0000      -6.032103      -164.1419
  95   2.0000      -6.032032      -164.1399
  96   2.0000      -6.028498      -164.0438
  97   2.0000      -6.027783      -164.0243
  98   2.0000      -6.027514      -164.0170
  99   2.0000      -6.024455      -163.9338
 100   2.0000      -6.024252      -163.9282
 101   2.0000      -6.023636      -163.9115
 102   2.0000      -6.022839      -163.8898
 103   2.0000      -6.021426      -163.8513
 104   2.0000      -6.020478      -163.8255
 105   2.0000      -6.017015      -163.7313
 106   2.0000      -6.015400      -163.6874
 107   2.0000      -6.012756      -163.6154
 108   2.0000      -1.177320       -32.0365
 109   2.0000      -1.145629       -31.1742
 110   2.0000      -1.136516       -30.9262
 111   2.0000      -1.132207       -30.8089
 112   2.0000      -1.109324       -30.1862
 113   2.0000      -1.036035       -28.1919
 114   2.0000      -1.024384       -27.8749
 115   2.0000      -1.020082       -27.7578
 116   2.0000      -1.008287       -27.4369
 117   2.0000      -1.007915       -27.4268
 118   2.0000      -1.004341       -27.3295
 119   2.0000      -0.995632       -27.0925
 120   2.0000      -0.994431       -27.0598
 121   2.0000      -0.992271       -27.0011
 122   2.0000      -0.989689       -26.9308
 123   2.0000      -0.985857       -26.8265
 124   2.0000      -0.982761       -26.7423
 125   2.0000      -0.967432       -26.3252
 126   2.0000      -0.950972       -25.8773
 127   2.0000      -0.938738       -25.5444
 128   2.0000      -0.936168       -25.4744
 129   2.0000      -0.926417       -25.2091
 130   2.0000      -0.919086       -25.0096
 131   2.0000      -0.908439       -24.7199
 132   2.0000      -0.899407       -24.4741
 133   2.0000      -0.898531       -24.4503
 134   2.0000      -0.893137       -24.3035
 135   2.0000      -0.889635       -24.2082
 136   2.0000      -0.881221       -23.9793
 137   2.0000      -0.876217       -23.8431
 138   2.0000      -0.870039       -23.6750
 139   2.0000      -0.861398       -23.4398
 140   2.0000      -0.857358       -23.3299
 141   2.0000      -0.843753       -22.9597
 142   2.0000      -0.838936       -22.8286
 143   2.0000      -0.837765       -22.7967
 144   2.0000      -0.835445       -22.7336
 145   2.0000      -0.833992       -22.6941
 146   2.0000      -0.831198       -22.6180
 147   2.0000      -0.826250       -22.4834
 148   2.0000      -0.823050       -22.3963
 149   2.0000      -0.815913       -22.2021
 150   2.0000      -0.799349       -21.7514
 151   2.0000      -0.797165       -21.6920
 152   2.0000      -0.778231       -21.1767
 153   2.0000      -0.768256       -20.9053
 154   2.0000      -0.765867       -20.8403
 155   2.0000      -0.758068       -20.6281
 156   2.0000      -0.749480       -20.3944
 157   2.0000      -0.747746       -20.3472
 158   2.0000      -0.730200       -19.8698
 159   2.0000      -0.726887       -19.7796
 160   2.0000      -0.718764       -19.5585
 161   2.0000      -0.715426       -19.4677
 162   2.0000      -0.711496       -19.3608
 163   2.0000      -0.700288       -19.0558
 164   2.0000      -0.692986       -18.8571
 165   2.0000      -0.691379       -18.8134
 166   2.0000      -0.689831       -18.7712
 167   2.0000      -0.686812       -18.6891
 168   2.0000      -0.683237       -18.5918
 169   2.0000      -0.676751       -18.4153
 170   2.0000      -0.669841       -18.2273
 171   2.0000      -0.663332       -18.0502
 172   2.0000      -0.661584       -18.0026
 173   2.0000      -0.658470       -17.9179
 174   2.0000      -0.653871       -17.7927
 175   2.0000      -0.648983       -17.6597
 176   2.0000      -0.644449       -17.5364
 177   2.0000      -0.635392       -17.2899
 178   2.0000      -0.629586       -17.1319
 179   2.0000      -0.624073       -16.9819
 180   2.0000      -0.620879       -16.8950
 181   2.0000      -0.620017       -16.8715
 182   2.0000      -0.616225       -16.7683
 183   2.0000      -0.615151       -16.7391
 184   2.0000      -0.613345       -16.6900
 185   2.0000      -0.608539       -16.5592
 186   2.0000      -0.595153       -16.1949
 187   2.0000      -0.594120       -16.1668
 188   2.0000      -0.588162       -16.0047
 189   2.0000      -0.582849       -15.8601
 190   2.0000      -0.576902       -15.6983
 191   2.0000      -0.573720       -15.6117
 192   2.0000      -0.570142       -15.5143
 193   2.0000      -0.566816       -15.4238
 194   2.0000      -0.561007       -15.2658
 195   2.0000      -0.555547       -15.1172
 196   2.0000      -0.550283       -14.9740
 197   2.0000      -0.549743       -14.9593
 198   2.0000      -0.548714       -14.9313
 199   2.0000      -0.545125       -14.8336
 200   2.0000      -0.544531       -14.8174
 201   2.0000      -0.542634       -14.7658
 202   2.0000      -0.541044       -14.7226
 203   2.0000      -0.539327       -14.6758
 204   2.0000      -0.534225       -14.5370
 205   2.0000      -0.533657       -14.5216
 206   2.0000      -0.530136       -14.4257
 207   2.0000      -0.528203       -14.3731
 208   2.0000      -0.525469       -14.2987
 209   2.0000      -0.521780       -14.1984
 210   2.0000      -0.521194       -14.1824
 211   2.0000      -0.518440       -14.1075
 212   2.0000      -0.516975       -14.0676
 213   2.0000      -0.515517       -14.0279
 214   2.0000      -0.512501       -13.9459
 215   2.0000      -0.509372       -13.8607
 216   2.0000      -0.509171       -13.8553
 217   2.0000      -0.506604       -13.7854
 218   2.0000      -0.503365       -13.6973
 219   2.0000      -0.500257       -13.6127
 220   2.0000      -0.497655       -13.5419
 221   2.0000      -0.494884       -13.4665
 222   2.0000      -0.494367       -13.4524
 223   2.0000      -0.492834       -13.4107
 224   2.0000      -0.490277       -13.3411
 225   2.0000      -0.488357       -13.2889
 226   2.0000      -0.484866       -13.1939
 227   2.0000      -0.482798       -13.1376
 228   2.0000      -0.482177       -13.1207
 229   2.0000      -0.478860       -13.0305
 230   2.0000      -0.475470       -12.9382
 231   2.0000      -0.474262       -12.9053
 232   2.0000      -0.472437       -12.8557
 233   2.0000      -0.471779       -12.8378
 234   2.0000      -0.471249       -12.8233
 235   2.0000      -0.469442       -12.7742
 236   2.0000      -0.462213       -12.5775
 237   2.0000      -0.457314       -12.4441
 238   2.0000      -0.456705       -12.4276
 239   2.0000      -0.453455       -12.3391
 240   2.0000      -0.450729       -12.2650
 241   2.0000      -0.449059       -12.2195
 242   2.0000      -0.448706       -12.2099
 243   2.0000      -0.447793       -12.1851
 244   2.0000      -0.446561       -12.1515
 245   2.0000      -0.444785       -12.1032
 246   2.0000      -0.444445       -12.0940
 247   2.0000      -0.443492       -12.0680
 248   2.0000      -0.442527       -12.0418
 249   2.0000      -0.441903       -12.0248
 250   2.0000      -0.438669       -11.9368
 251   2.0000      -0.437123       -11.8947
 252   2.0000      -0.435538       -11.8516
 253   2.0000      -0.434296       -11.8178
 254   2.0000      -0.432666       -11.7734
 255   2.0000      -0.429598       -11.6900
 256   2.0000      -0.428239       -11.6530
 257   2.0000      -0.426819       -11.6143
 258   2.0000      -0.424648       -11.5553
 259   2.0000      -0.424225       -11.5438
 260   2.0000      -0.423825       -11.5329
 261   2.0000      -0.422840       -11.5061
 262   2.0000      -0.420084       -11.4311
 263   2.0000      -0.416556       -11.3351
 264   2.0000      -0.413507       -11.2521
 265   2.0000      -0.410462       -11.1692
 266   2.0000      -0.408149       -11.1063
 267   2.0000      -0.405747       -11.0409
 268   2.0000      -0.399085       -10.8597
 269   2.0000      -0.398201       -10.8356
 270   2.0000      -0.395950       -10.7743
 271   2.0000      -0.394432       -10.7330
 272   2.0000      -0.389530       -10.5996
 273   2.0000      -0.388747       -10.5783
 274   2.0000      -0.387586       -10.5468
 275   2.0000      -0.384578       -10.4649
 276   2.0000      -0.379984       -10.3399
 277   2.0000      -0.374750       -10.1975
 278   2.0000      -0.365103        -9.9350
 279   2.0000      -0.355940        -9.6856
 280   2.0000      -0.354836        -9.6556
 281   2.0000      -0.351529        -9.5656
 282   2.0000      -0.349217        -9.5027
 283   2.0000      -0.346559        -9.4304
 284   2.0000      -0.342476        -9.3192
 285   2.0000      -0.336530        -9.1574
 286   2.0000      -0.334800        -9.1104
 287   2.0000      -0.331575        -9.0226
 288   2.0000      -0.325678        -8.8622
 289   2.0000      -0.323574        -8.8049
 290   2.0000      -0.315431        -8.5833
 291   2.0000      -0.314148        -8.5484
 292   2.0000      -0.301120        -8.1939
 293   2.0000      -0.299761        -8.1569
 294   2.0000      -0.293460        -7.9854
 295   2.0000      -0.276533        -7.5248
 296   2.0000      -0.254495        -6.9252
 297   2.0000      -0.216591        -5.8937
 298   0.0000      -0.121000        -3.2926
 299   0.0000      -0.096736        -2.6323
 300   0.0000      -0.064745        -1.7618
 301   0.0000      -0.064401        -1.7525
 302   0.0000      -0.049153        -1.3375

MULLIKEN ATOMIC CHARGES
-----------------------
   0 C :    0.289074
   1 C :   -0.330534
   2 C :   -0.186071
   3 N :    0.152516
   4 C :   -0.207222
   5 N :    0.160941
   6 C :    0.020568
   7 C :   -0.014115
   8 C :   -0.065502
   9 C :    0.113543
  10 C :   -0.093880
  11 C :   -0.026873
  12 S :    0.141626
  13 C :   -0.046765
  14 C :    0.025494
  15 C :    0.149310
  16 O :   -0.158291
  17 C :   -0.092534
  18 C :    0.009124
  19 C :   -0.140661
  20 S :    0.170835
  21 C :   -0.108972
  22 C :   -0.030144
  23 C :   -0.002917
  24 S :    0.122600
  25 C :    0.094576
  26 O :   -0.147958
  27 C :    0.082712
  28 O :   -0.113912
  29 S :    0.052146
  30 C :    0.060073
  31 C :   -0.014521
  32 C :    0.115942
  33 C :   -0.110948
  34 C :    0.025518
  35 C :    0.105592
  36 C :   -0.045470
  37 C :   -0.009479
  38 C :    0.100071
  39 C :    0.028060
  40 C :   -0.129583
  41 C :    0.053180
  42 C :    0.023225
  43 C :    0.078165
  44 C :    0.030115
  45 C :   -0.114170
  46 C :    0.132991
  47 C :   -0.008865
  48 C :   -0.041620
  49 C :   -0.002009
  50 C :   -0.060952
  51 C :    0.082571
  52 C :   -0.055742
  53 C :   -0.055712
  54 N :    0.055227
  55 C :   -0.147964
  56 C :   -0.130489
  57 N :    0.045894
  58 C :   -0.215689
  59 N :    0.232804
  60 C :   -0.218059
  61 N :    0.226867
  62 C :    0.115149
  63 C :    0.045622
  64 C :    0.020569
  65 N :   -0.294879
  66 S :    0.533480
  67 N :   -0.324823
  68 C :   -0.141950
  69 C :    0.025352
  70 C :    0.017996
  71 C :    0.044227
  72 C :   -0.034814
  73 S :    0.128874
  74 C :   -0.066157
  75 C :    0.031013
  76 C :    0.062865
  77 C :   -0.072083
  78 S :    0.098039
  79 C :   -0.013093
  80 H :   -0.009459
  81 H :   -0.005389
  82 H :    0.038575
  83 H :   -0.005284
  84 H :    0.032773
  85 H :   -0.012578
  86 H :    0.003380
  87 H :   -0.032583
  88 H :   -0.031418
  89 H :   -0.026470
  90 H :   -0.002010
  91 H :    0.004962
  92 H :    0.022611
  93 H :    0.011004
  94 H :    0.019213
  95 H :   -0.003652
  96 H :    0.006309
  97 H :    0.003994
  98 H :    0.013094
  99 H :    0.019429
 100 H :   -0.039383
 101 H :   -0.022162
 102 H :   -0.034997
 103 H :   -0.010773
 104 H :   -0.011920
 105 H :    0.003556
 106 H :   -0.000697
 107 H :   -0.010846
 108 H :   -0.004711
 109 H :   -0.002638
 110 H :    0.029706
 111 H :    0.029240
Sum of atomic charges:   -0.0000000

LOEWDIN ATOMIC CHARGES
----------------------
   0 C :    0.075171
   1 C :   -0.137069
   2 C :   -0.018287
   3 N :   -0.050207
   4 C :   -0.025169
   5 N :   -0.049132
   6 C :   -0.023621
   7 C :   -0.050830
   8 C :    0.024234
   9 C :   -0.033664
  10 C :   -0.146025
  11 C :   -0.007756
  12 S :    0.430809
  13 C :   -0.148198
  14 C :   -0.056963
  15 C :    0.073685
  16 O :   -0.155976
  17 C :   -0.090988
  18 C :    0.036560
  19 C :   -0.202204
  20 S :    0.470812
  21 C :   -0.155917
  22 C :   -0.219858
  23 C :   -0.179524
  24 S :    0.428616
  25 C :   -0.110937
  26 O :   -0.113307
  27 C :   -0.096190
  28 O :   -0.085490
  29 S :    0.371476
  30 C :   -0.063873
  31 C :    0.008341
  32 C :   -0.034288
  33 C :   -0.013071
  34 C :    0.002895
  35 C :   -0.005062
  36 C :   -0.017029
  37 C :   -0.007745
  38 C :   -0.020376
  39 C :    0.005429
  40 C :   -0.034421
  41 C :   -0.015241
  42 C :   -0.056439
  43 C :   -0.008871
  44 C :   -0.059365
  45 C :   -0.018020
  46 C :   -0.020674
  47 C :   -0.008958
  48 C :   -0.015220
  49 C :   -0.003736
  50 C :   -0.023979
  51 C :   -0.044663
  52 C :   -0.004346
  53 C :   -0.012843
  54 N :    0.001610
  55 C :   -0.045475
  56 C :   -0.028614
  57 N :   -0.004237
  58 C :   -0.034671
  59 N :   -0.012226
  60 C :   -0.038378
  61 N :   -0.019026
  62 C :   -0.027339
  63 C :   -0.038061
  64 C :   -0.033208
  65 N :   -0.284549
  66 S :    0.651139
  67 N :   -0.287420
  68 C :   -0.048526
  69 C :   -0.125211
  70 C :   -0.032902
  71 C :   -0.021528
  72 C :   -0.199069
  73 S :    0.438180
  74 C :   -0.155741
  75 C :   -0.026561
  76 C :   -0.016912
  77 C :   -0.142193
  78 S :    0.368683
  79 C :   -0.052846
  80 H :    0.041301
  81 H :    0.040899
  82 H :    0.029623
  83 H :    0.035982
  84 H :    0.046523
  85 H :    0.028255
  86 H :    0.017164
  87 H :    0.025678
  88 H :    0.028858
  89 H :    0.026214
  90 H :    0.020472
  91 H :    0.019369
  92 H :    0.025812
  93 H :    0.024587
  94 H :    0.025142
  95 H :    0.020243
  96 H :    0.027146
  97 H :    0.020085
  98 H :    0.028117
  99 H :    0.023646
 100 H :    0.024414
 101 H :    0.029322
 102 H :    0.027468
 103 H :    0.023984
 104 H :    0.027062
 105 H :    0.040819
 106 H :    0.037123
 107 H :    0.031782
 108 H :    0.035369
 109 H :    0.037171
 110 H :    0.033040
 111 H :    0.029920

  Mayer bond orders larger than 0.100000
B(  0-C ,  1-C ) :   1.6469 B(  0-C ,  6-C ) :   1.0120 B(  0-C , 17-C ) :   1.0574
B(  1-C ,  2-C ) :   1.1402 B(  1-C ,  4-C ) :   1.1376 B(  2-C ,  3-N ) :   2.9742
B(  4-C ,  5-N ) :   2.9964 B(  6-C ,  7-C ) :   1.2622 B(  6-C , 11-C ) :   1.4107
B(  7-C ,  8-C ) :   1.4267 B(  7-C , 15-C ) :   0.9498 B(  8-C ,  9-C ) :   1.2447
B(  8-C , 80-H ) :   1.0168 B(  9-C , 10-C ) :   1.3010 B(  9-C , 14-C ) :   1.1728
B( 10-C , 11-C ) :   1.3226 B( 10-C , 12-S ) :   1.0983 B( 11-C , 81-H ) :   0.9839
B( 12-S , 13-C ) :   1.1276 B( 13-C , 14-C ) :   1.6268 B( 13-C , 82-H ) :   0.9686
B( 14-C , 83-H ) :   0.9998 B( 15-C , 16-O ) :   2.1917 B( 15-C , 17-C ) :   0.9555
B( 17-C , 18-C ) :   1.6185 B( 18-C , 19-C ) :   1.1655 B( 18-C , 84-H ) :   0.9323
B( 19-C , 20-S ) :   1.1032 B( 19-C , 21-C ) :   0.1012 B( 19-C , 23-C ) :   1.5157
B( 20-S , 21-C ) :   1.1544 B( 21-C , 22-C ) :   1.5179 B( 21-C , 30-C ) :   1.1337
B( 22-C , 23-C ) :   1.2930 B( 22-C , 29-S ) :   0.9786 B( 23-C , 24-S ) :   1.0055
B( 24-S , 25-C ) :   1.0593 B( 24-S , 26-O ) :   0.1364 B( 25-C , 26-O ) :   2.1348
B( 25-C , 27-C ) :   0.7731 B( 27-C , 28-O ) :   2.1919 B( 27-C , 29-S ) :   1.0194
B( 28-O , 29-S ) :   0.1201 B( 30-C , 31-C ) :   1.6620 B( 30-C , 85-H ) :   0.9460
B( 31-C , 32-C ) :   1.0972 B( 31-C , 86-H ) :   0.9718 B( 32-C , 33-C ) :   1.2732
B( 32-C , 37-C ) :   1.3373 B( 33-C , 34-C ) :   1.3867 B( 33-C , 87-H ) :   1.0075
B( 34-C , 35-C ) :   1.3776 B( 34-C , 40-C ) :   0.9182 B( 35-C , 36-C ) :   1.3242
B( 35-C , 38-C ) :   1.0086 B( 36-C , 37-C ) :   1.4036 B( 36-C , 88-H ) :   0.9900
B( 37-C , 89-H ) :   0.9853 B( 38-C , 39-C ) :   1.3731 B( 38-C , 48-C ) :   1.3158
B( 39-C , 40-C ) :   0.9236 B( 39-C , 45-C ) :   1.3721 B( 40-C , 41-C ) :   1.0332
B( 40-C , 43-C ) :   1.0124 B( 41-C , 42-C ) :   1.1045 B( 41-C , 90-H ) :   0.9389
B( 41-C , 91-H ) :   0.9378 B( 42-C , 92-H ) :   0.9634 B( 42-C , 93-H ) :   0.9647
B( 42-C , 94-H ) :   0.9652 B( 43-C , 44-C ) :   1.1139 B( 43-C , 95-H ) :   0.9369
B( 43-C , 96-H ) :   0.9393 B( 44-C , 97-H ) :   0.9632 B( 44-C , 98-H ) :   0.9596
B( 44-C , 99-H ) :   0.9606 B( 45-C , 46-C ) :   1.2784 B( 45-C ,100-H ) :   1.0156
B( 46-C , 47-C ) :   1.3308 B( 46-C , 49-C ) :   1.0667 B( 47-C , 48-C ) :   1.4110
B( 47-C ,101-H ) :   0.9862 B( 48-C ,102-H ) :   0.9902 B( 49-C , 50-C ) :   1.5759
B( 49-C ,103-H ) :   0.9730 B( 50-C , 51-C ) :   1.2042 B( 50-C ,104-H ) :   0.9544
B( 51-C , 52-C ) :   1.2377 B( 51-C , 62-C ) :   0.1161 B( 51-C , 64-C ) :   1.1654
B( 52-C , 53-C ) :   1.1159 B( 52-C , 57-N ) :   1.4328 B( 53-C , 54-N ) :   1.4891
B( 53-C , 62-C ) :   1.1891 B( 54-N , 55-C ) :   1.7016 B( 55-C , 56-C ) :   1.2211
B( 55-C , 60-C ) :   1.1598 B( 56-C , 57-N ) :   1.7425 B( 56-C , 58-C ) :   1.1507
B( 58-C , 59-N ) :   3.0528 B( 60-C , 61-N ) :   3.0443 B( 62-C , 63-C ) :   1.1363
B( 62-C , 68-C ) :   1.3020 B( 63-C , 64-C ) :   1.1154 B( 63-C , 67-N ) :   1.4923
B( 64-C , 65-N ) :   1.5142 B( 65-N , 66-S ) :   1.2537 B( 65-N , 67-N ) :   0.1407
B( 66-S , 67-N ) :   1.2525 B( 68-C , 69-C ) :   1.4313 B( 68-C ,105-H ) :   0.9432
B( 69-C , 70-C ) :   1.1649 B( 69-C , 73-S ) :   1.0805 B( 70-C , 71-C ) :   1.5654
B( 70-C ,106-H ) :   1.0033 B( 71-C , 72-C ) :   1.1884 B( 71-C ,107-H ) :   0.9927
B( 72-C , 73-S ) :   1.0055 B( 72-C , 74-C ) :   1.5115 B( 74-C , 75-C ) :   1.1625
B( 74-C , 78-S ) :   1.0693 B( 75-C , 76-C ) :   1.6491 B( 75-C ,108-H ) :   0.9921
B( 76-C , 77-C ) :   1.0815 B( 76-C ,109-H ) :   0.9939 B( 77-C , 78-S ) :   1.0046
B( 77-C , 79-C ) :   1.8566 B( 79-C ,110-H ) :   0.9515 B( 79-C ,111-H ) :   0.9421

-----------------------------------------------------------------------------
         ABSORPTION SPECTRUM VIA TRANSITION ELECTRIC DIPOLE MOMENTS
-----------------------------------------------------------------------------
State   Energy  Wavelength   fosc         T2         TX        TY        TZ
        (cm-1)    (nm)                  (au**2)     (au)      (au)      (au)
-----------------------------------------------------------------------------
   0    6890.9   1451.2   0.512983524  24.50762   2.35687   2.29338  -3.70043
   1   16925.9    590.8   0.310248989   6.03441   0.62225  -2.21928   0.84971
   2   18179.9    550.1   1.340044831  24.26630  -1.16492  -3.29200   3.47448
   3   19023.7    525.7   0.482362626   8.34747   2.26988  -1.06719  -1.43395
   4   21674.9    461.4   0.376404754   5.71708  -0.88885  -1.29197   1.80495
   5   22154.4    451.4   0.079037491   1.17449   0.30775  -0.96941   0.37419
   6   23097.6    432.9   0.118600512   1.69042   0.55901   0.62032  -0.99656
   7   23260.4    429.9   0.202105714   2.86047  -0.73120   1.49721  -0.29015
   8   25281.7    395.5   0.216726310   2.82215  -0.70458   1.38928  -0.62897
   9   25880.3    386.4   0.057918197   0.73675   0.71083   0.20191  -0.43669
  10   26405.7    378.7   0.198987224   2.48087   0.45921  -0.99148   1.13444
  11   26894.1    371.8   0.044026422   0.53893   0.58014  -0.00828   0.44977
  12   27311.2    366.2   0.072253518   0.87095   0.04036  -0.92283   0.13308
  13   27437.2    364.5   0.001442566   0.01731  -0.13148   0.00242  -0.00406
  14   27477.4    363.9   0.121612474   1.45706   0.19279  -0.80070  -0.88248
  15   27777.4    360.0   0.025866498   0.30656   0.03437   0.23064   0.50218
  16   28866.9    346.4   0.146160482   1.66688  -0.07767   1.10553  -0.66230
  17   28895.3    346.1   0.032892783   0.37476   0.36656  -0.36052   0.33229
  18   29135.2    343.2   0.019847372   0.22426   0.30584  -0.33322   0.14033
  19   29379.1    340.4   0.092521243   1.03676  -0.18151   0.29667  -0.95698
  20   29510.9    338.9   0.044074269   0.49167   0.66200   0.11334   0.20147
  21   29576.5    338.1   0.033441280   0.37223   0.59016   0.02946  -0.15191
  22   29906.9    334.4   0.030644017   0.33733  -0.46788   0.03546  -0.34228
  23   30248.9    330.6   0.190832691   2.07692   0.35207  -1.23885   0.64670
  24   30984.4    322.7   0.066962008   0.71148   0.14462   0.36476  -0.74667
  25   31234.1    320.2   0.004089625   0.04311  -0.01541   0.13749   0.15481
  26   31903.4    313.4   0.434210030   4.48062  -1.68743   0.78349   1.00962
  27   32220.4    310.4   0.034388973   0.35137  -0.41766   0.42063  -0.00114
  28   32292.3    309.7   0.068308074   0.69638   0.51884   0.64771  -0.08748
  29   32526.3    307.4   0.346667612   3.50877  -1.00190   1.57475  -0.15851
  30   32931.9    303.7   0.079382040   0.79356   0.31500  -0.27091   0.78800
  31   33183.4    301.4   0.406407192   4.03196  -1.29299  -0.42994  -1.47489
  32   33652.0    297.2   0.016179109   0.15828   0.37072  -0.09876   0.10532
  33   33797.3    295.9   0.026449218   0.25764  -0.42343   0.25866   0.10693
  34   33903.2    295.0   0.044392263   0.43106  -0.59973  -0.26317  -0.04613
  35   34242.6    292.0   0.037499611   0.36053  -0.51104   0.10506  -0.29720
  36   34343.6    291.2   0.028355568   0.27181   0.37619   0.11806   0.34110
  37   34427.6    290.5   0.045201653   0.43224  -0.18760  -0.35147   0.52299
  38   34524.8    289.6   0.031394921   0.29937  -0.22939  -0.43759   0.23509
  39   34651.4    288.6   0.153547075   1.45880   0.07296  -1.06965   0.55617
  40   35308.7    283.2   0.023560807   0.21968  -0.18941  -0.16157   0.39711
  41   35669.5    280.4   0.093119498   0.85945  -0.87410  -0.26537  -0.15806
  42   35858.3    278.9   0.081384733   0.74719   0.73257  -0.30695  -0.34105
  43   36092.8    277.1   0.071112010   0.64863  -0.70246   0.07918   0.38589
  44   36540.0    273.7   0.010686330   0.09628  -0.07571   0.25940  -0.15251
  45   36713.1    272.4   0.055426279   0.49702  -0.49551   0.39621   0.30741
  46   36846.4    271.4   0.099289955   0.88713   0.66780  -0.55549  -0.36415
  47   36892.5    271.1   0.018349523   0.16374   0.28862  -0.22491  -0.17279
  48   37387.3    267.5   0.036389615   0.32043   0.51199   0.16502   0.17624
  49   37931.9    263.6   0.064111057   0.55642  -0.67065  -0.32043  -0.06301
  50   38426.5    260.2   0.053154808   0.45539  -0.02239  -0.60057   0.30693
  51   38646.4    258.8   0.014149506   0.12053  -0.15685  -0.14065   0.27595
  52   38873.1    257.2   0.077875168   0.65952   0.43506   0.68503   0.03115
  53   39101.6    255.7   0.089509271   0.75361   0.04494  -0.54158   0.67697
  54   39291.5    254.5   0.118188861   0.99027   0.87410  -0.00098  -0.47563
  55   39393.4    253.8   0.122843444   1.02661  -0.58591   0.82463   0.05744
  56   39596.4    252.5   0.040080778   0.33324  -0.04905  -0.51271   0.26069
  57   39908.8    250.6   0.071947758   0.59350  -0.50693  -0.31697   0.48586
  58   40136.0    249.2   0.040609280   0.33309  -0.55887   0.12587   0.07008

FINAL SINGLE POINT ENERGY     -5828.034352964116

DIPOLE MOMENT
-------------
                                X             Y             Z
Electronic contribution:    -21.14768     -23.93366      36.88854
Nuclear contribution   :     25.10350      25.81038     -39.78680
                        -----------------------------------------
Total Dipole Moment    :      3.95582       1.87672      -2.89827
                        -----------------------------------------
Magnitude (a.u.)       :      5.25076
Magnitude (Debye)      :     13.34638

Rotational constants in cm-1:     0.001632     0.000130     0.000124
Rotational constants in MHz :    48.913225     3.900894     3.723546

                             ****ORCA TERMINATED NORMALLY****
TOTAL RUN TIME: 0 days 0 hours 12 minutes 5 seconds 703 msec
