                         Program Version 4.2.0 -  RELEASE  -
|  1> # ORCA input file
|  2> # SCF done       -185.690996911261          0.000568866716
|  3> ! CAM-B3LYP def2-SVP def2/J RIJCOSX Grid4 TightSCF
|  4> %maxcore 5000
|  5> %tddft
|  6>     Mode sTDDFT
|  7>     Ethresh 5.0
|  8>     maxcore 5000
|  9> end
| 10>
| 11> %pal
| 12>   nprocs 6
| 13>   end
| 14> * xyz 0 1
| 15>    C       -7.49245        -0.31325         0.72760
| 16>    C       -8.66273         0.34232         0.99197
| 17>    F       -8.70892         1.67834         0.97276
| 18>    C       -9.83727        -0.37843         1.29055
| 19>    F      -10.96859         0.28912         1.55020
| 20>    C       -9.82985        -1.74546         1.31129
| 21>    C       -8.64127        -2.44984         1.04092
| 22>    C       -7.45073        -1.72164         0.75177
| 23>    C       -6.24493        -2.40876         0.48474
| 24>    C       -6.23783        -3.77948         0.47633
| 25>    C       -7.43404        -4.49911         0.75572
| 26>    C       -8.60606        -3.86299         1.04462
| 27>    C       -7.16097        -5.94775         0.68198
| 28>    O       -7.90238        -6.85229         1.01467
| 29>    C       -5.75446        -6.06248         0.25300
| 30>    C       -5.18380        -4.73516         0.15800
| 31>    C       -3.92971        -4.41840        -0.29889
| 32>    C       -3.42651        -3.10417        -0.38062
| 33>    N       -2.95752        -2.06071        -0.47212
| 34>    C       -3.00134        -5.35216        -0.79977
| 35>    N       -2.23201        -6.06706        -1.26562
| 36>    C       -5.07389        -7.24023         0.08585
| 37>    N       -5.60555        -8.45487        -0.15815
| 38>    C       -6.86645        -8.82136        -0.55713
| 39>    S       -7.37028       -10.41542        -0.06785
| 40>    C       -8.90015       -10.16568        -0.82842
| 41>    N       -9.84203       -11.20728        -0.78601
| 42>    O      -10.91356       -11.01878        -1.32588
| 43>    O       -9.50358       -12.22615        -0.21292
| 44>    C       -9.00893        -8.93968        -1.41840
| 45>    C       -7.83942        -8.15315        -1.30682
| 46>    C       -7.79559        -6.85711        -1.92936
| 47>    C       -6.71241        -6.15640        -2.31476
| 48>    N       -6.83083        -4.89054        -2.82748
| 49>    C       -5.82806        -4.00133        -3.10886
| 50>    S       -6.13515        -2.32914        -2.73506
| 51>    C       -4.53995        -1.92798        -3.28136
| 52>    N       -4.16755        -0.57946        -3.18417
| 53>    O       -3.09588        -0.24676        -3.64237
| 54>    O       -4.97468         0.15720        -2.64075
| 55>    C       -3.83120        -3.00548        -3.72419
| 56>    C       -4.55497        -4.22170        -3.64720
| 57>    C       -4.08066        -5.48321        -4.12938
| 58>    C       -2.84861        -5.70519        -4.65742
| 59>    C       -2.43418        -6.95994        -5.14002
| 60>    C       -1.24723        -7.18813        -5.78645
| 61>    C       -0.77672        -8.42999        -6.28488
| 62>    C        0.41319        -8.35686        -6.93929
| 63>    C        0.95158        -7.05048        -7.00614
| 64>    S       -0.09367        -5.92083        -6.17140
| 65>    C        2.09996        -6.64453        -7.65466
| 66>    C        3.00552        -7.44841        -8.38740
| 67>    C        4.02328        -6.75861        -8.96653
| 68>    C        3.98421        -5.35806        -8.72318
| 69>    S        2.60110        -4.96714        -7.70609
| 70>    C        4.81813        -4.37581        -9.17128
| 71>    N        5.89638        -4.61128        -9.96483
| 72>    C        6.70587        -3.67686       -10.51657
| 73>    S        6.38207        -1.97960       -10.34230
| 74>    C        7.72751        -1.63300       -11.38623
| 75>    N        8.00930        -0.29511       -11.64723
| 76>    O        8.94844        -0.04199       -12.38336
| 77>    O        7.28205         0.53189       -11.11606
| 78>    C        8.36613        -2.75965       -11.83935
| 79>    C        7.80910        -3.94387       -11.33669
| 80>    C        8.34078        -5.25735       -11.65866
| 81>    C        8.31948        -6.33723       -10.88405
| 82>    H       -6.60511         0.25105         0.48676
| 83>    H      -10.73888        -2.28049         1.53766
| 84>    H       -5.35743        -1.82810         0.29320
| 85>    H       -9.49829        -4.43001         1.26302
| 86>    H       -3.99202        -7.24122         0.11800
| 87>    H       -5.00387        -9.24319         0.05311
| 88>    H       -9.89783        -8.62407        -1.93446
| 89>    H       -8.77021        -6.41675        -2.09627
| 90>    H       -5.71167        -6.55115        -2.27466
| 91>    H       -7.75212        -4.47882        -2.73946
| 92>    H       -2.82764        -2.91236        -4.09519
| 93>    H       -4.78166        -6.30550        -4.11800
| 94>    H       -2.13044        -4.90068        -4.72371
| 95>    H       -3.09734        -7.80515        -5.00849
| 96>    H       -1.33922        -9.33609        -6.14405
| 97>    H        0.91190        -9.20005        -7.38239
| 98>    H        2.87687        -8.51248        -8.47098
| 99>    H        4.79069        -7.22134        -9.56299
|100>    H        4.64446        -3.34572        -8.89988
|101>    H        6.08100        -5.56850       -10.24363
|102>    H        9.21726        -2.71518       -12.49452
|103>    H        8.82843        -5.31050       -12.62335
|104>    H        7.93404        -6.33530        -9.87740
|105>    H        8.75567        -7.26316       -11.21611
|106> *
|107>
|108>                          ****END OF INPUT****

CARTESIAN COORDINATES (ANGSTROEM)
---------------------------------
  C     -7.492450   -0.313250    0.727600
  C     -8.662730    0.342320    0.991970
  F     -8.708920    1.678340    0.972760
  C     -9.837270   -0.378430    1.290550
  F    -10.968590    0.289120    1.550200
  C     -9.829850   -1.745460    1.311290
  C     -8.641270   -2.449840    1.040920
  C     -7.450730   -1.721640    0.751770
  C     -6.244930   -2.408760    0.484740
  C     -6.237830   -3.779480    0.476330
  C     -7.434040   -4.499110    0.755720
  C     -8.606060   -3.862990    1.044620
  C     -7.160970   -5.947750    0.681980
  O     -7.902380   -6.852290    1.014670
  C     -5.754460   -6.062480    0.253000
  C     -5.183800   -4.735160    0.158000
  C     -3.929710   -4.418400   -0.298890
  C     -3.426510   -3.104170   -0.380620
  N     -2.957520   -2.060710   -0.472120
  C     -3.001340   -5.352160   -0.799770
  N     -2.232010   -6.067060   -1.265620
  C     -5.073890   -7.240230    0.085850
  N     -5.605550   -8.454870   -0.158150
  C     -6.866450   -8.821360   -0.557130
  S     -7.370280  -10.415420   -0.067850
  C     -8.900150  -10.165680   -0.828420
  N     -9.842030  -11.207280   -0.786010
  O    -10.913560  -11.018780   -1.325880
  O     -9.503580  -12.226150   -0.212920
  C     -9.008930   -8.939680   -1.418400
  C     -7.839420   -8.153150   -1.306820
  C     -7.795590   -6.857110   -1.929360
  C     -6.712410   -6.156400   -2.314760
  N     -6.830830   -4.890540   -2.827480
  C     -5.828060   -4.001330   -3.108860
  S     -6.135150   -2.329140   -2.735060
  C     -4.539950   -1.927980   -3.281360
  N     -4.167550   -0.579460   -3.184170
  O     -3.095880   -0.246760   -3.642370
  O     -4.974680    0.157200   -2.640750
  C     -3.831200   -3.005480   -3.724190
  C     -4.554970   -4.221700   -3.647200
  C     -4.080660   -5.483210   -4.129380
  C     -2.848610   -5.705190   -4.657420
  C     -2.434180   -6.959940   -5.140020
  C     -1.247230   -7.188130   -5.786450
  C     -0.776720   -8.429990   -6.284880
  C      0.413190   -8.356860   -6.939290
  C      0.951580   -7.050480   -7.006140
  S     -0.093670   -5.920830   -6.171400
  C      2.099960   -6.644530   -7.654660
  C      3.005520   -7.448410   -8.387400
  C      4.023280   -6.758610   -8.966530
  C      3.984210   -5.358060   -8.723180
  S      2.601100   -4.967140   -7.706090
  C      4.818130   -4.375810   -9.171280
  N      5.896380   -4.611280   -9.964830
  C      6.705870   -3.676860  -10.516570
  S      6.382070   -1.979600  -10.342300
  C      7.727510   -1.633000  -11.386230
  N      8.009300   -0.295110  -11.647230
  O      8.948440   -0.041990  -12.383360
  O      7.282050    0.531890  -11.116060
  C      8.366130   -2.759650  -11.839350
  C      7.809100   -3.943870  -11.336690
  C      8.340780   -5.257350  -11.658660
  C      8.319480   -6.337230  -10.884050
  H     -6.605110    0.251050    0.486760
  H    -10.738880   -2.280490    1.537660
  H     -5.357430   -1.828100    0.293200
  H     -9.498290   -4.430010    1.263020
  H     -3.992020   -7.241220    0.118000
  H     -5.003870   -9.243190    0.053110
  H     -9.897830   -8.624070   -1.934460
  H     -8.770210   -6.416750   -2.096270
  H     -5.711670   -6.551150   -2.274660
  H     -7.752120   -4.478820   -2.739460
  H     -2.827640   -2.912360   -4.095190
  H     -4.781660   -6.305500   -4.118000
  H     -2.130440   -4.900680   -4.723710
  H     -3.097340   -7.805150   -5.008490
  H     -1.339220   -9.336090   -6.144050
  H      0.911900   -9.200050   -7.382390
  H      2.876870   -8.512480   -8.470980
  H      4.790690   -7.221340   -9.562990
  H      4.644460   -3.345720   -8.899880
  H      6.081000   -5.568500  -10.243630
  H      9.217260   -2.715180  -12.494520
  H      8.828430   -5.310500  -12.623350
  H      7.934040   -6.335300   -9.877400
  H      8.755670   -7.263160  -11.216110

 Total Charge           Charge          ....    0
 Multiplicity           Mult            ....    1
 Number of Electrons    NEL             ....  504
 Basis Dimension        Dim             .... 1078

ORBITAL ENERGIES
----------------

  NO   OCC          E(Eh)            E(eV)
   0   2.0000     -88.990569     -2421.5565
   1   2.0000     -88.983546     -2421.3654
   2   2.0000     -88.980322     -2421.2777
   3   2.0000     -88.948661     -2420.4161
   4   2.0000     -88.944706     -2420.3085
   5   2.0000     -24.801799      -674.8913
   6   2.0000     -24.798960      -674.8140
   7   2.0000     -19.246148      -523.7143
   8   2.0000     -19.245547      -523.6980
   9   2.0000     -19.236337      -523.4473
  10   2.0000     -19.235361      -523.4208
  11   2.0000     -19.225583      -523.1547
  12   2.0000     -19.224856      -523.1349
  13   2.0000     -19.219832      -522.9982
  14   2.0000     -14.657684      -398.8559
  15   2.0000     -14.646550      -398.5529
  16   2.0000     -14.637578      -398.3088
  17   2.0000     -14.520486      -395.1225
  18   2.0000     -14.486547      -394.1990
  19   2.0000     -14.485650      -394.1746
  20   2.0000     -14.427888      -392.6028
  21   2.0000     -14.422425      -392.4541
  22   2.0000     -10.385332      -282.5993
  23   2.0000     -10.383135      -282.5395
  24   2.0000     -10.374285      -282.2987
  25   2.0000     -10.374072      -282.2928
  26   2.0000     -10.371614      -282.2260
  27   2.0000     -10.368052      -282.1290
  28   2.0000     -10.366906      -282.0979
  29   2.0000     -10.352443      -281.7043
  30   2.0000     -10.352141      -281.6961
  31   2.0000     -10.349753      -281.6311
  32   2.0000     -10.347068      -281.5580
  33   2.0000     -10.340886      -281.3898
  34   2.0000     -10.337030      -281.2849
  35   2.0000     -10.332373      -281.1582
  36   2.0000     -10.330560      -281.1088
  37   2.0000     -10.325612      -280.9742
  38   2.0000     -10.316979      -280.7393
  39   2.0000     -10.315449      -280.6976
  40   2.0000     -10.315439      -280.6974
  41   2.0000     -10.314510      -280.6721
  42   2.0000     -10.313713      -280.6504
  43   2.0000     -10.313595      -280.6472
  44   2.0000     -10.312007      -280.6040
  45   2.0000     -10.310783      -280.5707
  46   2.0000     -10.308797      -280.5166
  47   2.0000     -10.308290      -280.5028
  48   2.0000     -10.307629      -280.4848
  49   2.0000     -10.306777      -280.4617
  50   2.0000     -10.305973      -280.4398
  51   2.0000     -10.304762      -280.4068
  52   2.0000     -10.304236      -280.3925
  53   2.0000     -10.302620      -280.3486
  54   2.0000     -10.301096      -280.3071
  55   2.0000     -10.300131      -280.2808
  56   2.0000     -10.298292      -280.2308
  57   2.0000     -10.297893      -280.2199
  58   2.0000     -10.296760      -280.1891
  59   2.0000     -10.294323      -280.1228
  60   2.0000     -10.294022      -280.1146
  61   2.0000     -10.290689      -280.0239
  62   2.0000     -10.285374      -279.8792
  63   2.0000     -10.285340      -279.8783
  64   2.0000     -10.282704      -279.8066
  65   2.0000     -10.281998      -279.7874
  66   2.0000     -10.278653      -279.6964
  67   2.0000      -8.086634      -220.0485
  68   2.0000      -8.078574      -219.8292
  69   2.0000      -8.075730      -219.7518
  70   2.0000      -8.045083      -218.9178
  71   2.0000      -8.041015      -218.8071
  72   2.0000      -6.056325      -164.8010
  73   2.0000      -6.051933      -164.6815
  74   2.0000      -6.048266      -164.5817
  75   2.0000      -6.047951      -164.5731
  76   2.0000      -6.045439      -164.5048
  77   2.0000      -6.043917      -164.4633
  78   2.0000      -6.041014      -164.3843
  79   2.0000      -6.040041      -164.3579
  80   2.0000      -6.037113      -164.2782
  81   2.0000      -6.015069      -163.6783
  82   2.0000      -6.010990      -163.5673
  83   2.0000      -6.010759      -163.5611
  84   2.0000      -6.006833      -163.4542
  85   2.0000      -6.005498      -163.4179
  86   2.0000      -6.001811      -163.3176
  87   2.0000      -1.328108       -36.1397
  88   2.0000      -1.323996       -36.0278
  89   2.0000      -1.316974       -35.8367
  90   2.0000      -1.308839       -35.6153
  91   2.0000      -1.305196       -35.5162
  92   2.0000      -1.147442       -31.2235
  93   2.0000      -1.138246       -30.9732
  94   2.0000      -1.137137       -30.9431
  95   2.0000      -1.124225       -30.5917
  96   2.0000      -1.111556       -30.2470
  97   2.0000      -1.093605       -29.7585
  98   2.0000      -1.090473       -29.6733
  99   2.0000      -1.029118       -28.0037
 100   2.0000      -1.015208       -27.6252
 101   2.0000      -1.011218       -27.5166
 102   2.0000      -1.005151       -27.3516
 103   2.0000      -1.002649       -27.2835
 104   2.0000      -1.002092       -27.2683
 105   2.0000      -0.994975       -27.0747
 106   2.0000      -0.986654       -26.8482
 107   2.0000      -0.974904       -26.5285
 108   2.0000      -0.937806       -25.5190
 109   2.0000      -0.925404       -25.1815
 110   2.0000      -0.920306       -25.0428
 111   2.0000      -0.914302       -24.8794
 112   2.0000      -0.913518       -24.8581
 113   2.0000      -0.898926       -24.4610
 114   2.0000      -0.895741       -24.3744
 115   2.0000      -0.892903       -24.2971
 116   2.0000      -0.885285       -24.0898
 117   2.0000      -0.875894       -23.8343
 118   2.0000      -0.864028       -23.5114
 119   2.0000      -0.861066       -23.4308
 120   2.0000      -0.852903       -23.2087
 121   2.0000      -0.845350       -23.0032
 122   2.0000      -0.845025       -22.9943
 123   2.0000      -0.839604       -22.8468
 124   2.0000      -0.830814       -22.6076
 125   2.0000      -0.824157       -22.4264
 126   2.0000      -0.815363       -22.1872
 127   2.0000      -0.798695       -21.7336
 128   2.0000      -0.787691       -21.4342
 129   2.0000      -0.776041       -21.1172
 130   2.0000      -0.774088       -21.0640
 131   2.0000      -0.757606       -20.6155
 132   2.0000      -0.751705       -20.4549
 133   2.0000      -0.742106       -20.1937
 134   2.0000      -0.738711       -20.1014
 135   2.0000      -0.726661       -19.7734
 136   2.0000      -0.717264       -19.5178
 137   2.0000      -0.714864       -19.4524
 138   2.0000      -0.705098       -19.1867
 139   2.0000      -0.696689       -18.9579
 140   2.0000      -0.691441       -18.8151
 141   2.0000      -0.688551       -18.7364
 142   2.0000      -0.681479       -18.5440
 143   2.0000      -0.671330       -18.2678
 144   2.0000      -0.663345       -18.0505
 145   2.0000      -0.661336       -17.9959
 146   2.0000      -0.656668       -17.8688
 147   2.0000      -0.648727       -17.6528
 148   2.0000      -0.647394       -17.6165
 149   2.0000      -0.644637       -17.5415
 150   2.0000      -0.640185       -17.4203
 151   2.0000      -0.638615       -17.3776
 152   2.0000      -0.636719       -17.3260
 153   2.0000      -0.635602       -17.2956
 154   2.0000      -0.631008       -17.1706
 155   2.0000      -0.627783       -17.0828
 156   2.0000      -0.624716       -16.9994
 157   2.0000      -0.619309       -16.8523
 158   2.0000      -0.618870       -16.8403
 159   2.0000      -0.617031       -16.7903
 160   2.0000      -0.610672       -16.6172
 161   2.0000      -0.606246       -16.4968
 162   2.0000      -0.600353       -16.3364
 163   2.0000      -0.597773       -16.2662
 164   2.0000      -0.594994       -16.1906
 165   2.0000      -0.591299       -16.0901
 166   2.0000      -0.588289       -16.0081
 167   2.0000      -0.584209       -15.8971
 168   2.0000      -0.580693       -15.8015
 169   2.0000      -0.580138       -15.7863
 170   2.0000      -0.579448       -15.7676
 171   2.0000      -0.568779       -15.4773
 172   2.0000      -0.565452       -15.3867
 173   2.0000      -0.562467       -15.3055
 174   2.0000      -0.561759       -15.2862
 175   2.0000      -0.558417       -15.1953
 176   2.0000      -0.555861       -15.1257
 177   2.0000      -0.551148       -14.9975
 178   2.0000      -0.549513       -14.9530
 179   2.0000      -0.548442       -14.9239
 180   2.0000      -0.542869       -14.7722
 181   2.0000      -0.539043       -14.6681
 182   2.0000      -0.535230       -14.5643
 183   2.0000      -0.535175       -14.5628
 184   2.0000      -0.525623       -14.3029
 185   2.0000      -0.525044       -14.2872
 186   2.0000      -0.522761       -14.2250
 187   2.0000      -0.519414       -14.1340
 188   2.0000      -0.518297       -14.1036
 189   2.0000      -0.514525       -14.0009
 190   2.0000      -0.510760       -13.8985
 191   2.0000      -0.509872       -13.8743
 192   2.0000      -0.507296       -13.8042
 193   2.0000      -0.504919       -13.7396
 194   2.0000      -0.503209       -13.6930
 195   2.0000      -0.500219       -13.6116
 196   2.0000      -0.498062       -13.5530
 197   2.0000      -0.494207       -13.4480
 198   2.0000      -0.493393       -13.4259
 199   2.0000      -0.489304       -13.3146
 200   2.0000      -0.477202       -12.9853
 201   2.0000      -0.475135       -12.9291
 202   2.0000      -0.473878       -12.8949
 203   2.0000      -0.470820       -12.8117
 204   2.0000      -0.468014       -12.7353
 205   2.0000      -0.465510       -12.6672
 206   2.0000      -0.462586       -12.5876
 207   2.0000      -0.461354       -12.5541
 208   2.0000      -0.459921       -12.5151
 209   2.0000      -0.458460       -12.4753
 210   2.0000      -0.454053       -12.3554
 211   2.0000      -0.451099       -12.2750
 212   2.0000      -0.450275       -12.2526
 213   2.0000      -0.449930       -12.2432
 214   2.0000      -0.447167       -12.1680
 215   2.0000      -0.443032       -12.0555
 216   2.0000      -0.441849       -12.0233
 217   2.0000      -0.435909       -11.8617
 218   2.0000      -0.433589       -11.7986
 219   2.0000      -0.432603       -11.7717
 220   2.0000      -0.427559       -11.6345
 221   2.0000      -0.419333       -11.4106
 222   2.0000      -0.410997       -11.1838
 223   2.0000      -0.402460       -10.9515
 224   2.0000      -0.400117       -10.8877
 225   2.0000      -0.393144       -10.6980
 226   2.0000      -0.393053       -10.6955
 227   2.0000      -0.389143       -10.5891
 228   2.0000      -0.386557       -10.5188
 229   2.0000      -0.382842       -10.4177
 230   2.0000      -0.380472       -10.3532
 231   2.0000      -0.378463       -10.2985
 232   2.0000      -0.374303       -10.1853
 233   2.0000      -0.374246       -10.1838
 234   2.0000      -0.374097       -10.1797
 235   2.0000      -0.366108        -9.9623
 236   2.0000      -0.364409        -9.9161
 237   2.0000      -0.358412        -9.7529
 238   2.0000      -0.354590        -9.6489
 239   2.0000      -0.347973        -9.4688
 240   2.0000      -0.347365        -9.4523
 241   2.0000      -0.343348        -9.3430
 242   2.0000      -0.331811        -9.0290
 243   2.0000      -0.330152        -8.9839
 244   2.0000      -0.326256        -8.8779
 245   2.0000      -0.317303        -8.6342
 246   2.0000      -0.310837        -8.4583
 247   2.0000      -0.303010        -8.2453
 248   2.0000      -0.297672        -8.1001
 249   2.0000      -0.280097        -7.6218
 250   2.0000      -0.260383        -7.0854
 251   2.0000      -0.208650        -5.6776
 252   0.0000      -0.097178        -2.6444
 253   0.0000      -0.079616        -2.1665
 254   0.0000      -0.065846        -1.7918
 255   0.0000      -0.054623        -1.4864
 256   0.0000      -0.050897        -1.3850

MULLIKEN ATOMIC CHARGES
-----------------------
   0 C :   -0.102236
   1 C :    0.240968
   2 F :   -0.166669
   3 C :    0.241597
   4 F :   -0.169828
   5 C :   -0.111994
   6 C :    0.124457
   7 C :    0.102625
   8 C :   -0.074678
   9 C :    0.027433
  10 C :    0.002084
  11 C :   -0.109788
  12 C :    0.169168
  13 O :   -0.152671
  14 C :   -0.213715
  15 C :    0.360110
  16 C :   -0.358926
  17 C :   -0.181740
  18 N :    0.150018
  19 C :   -0.216700
  20 N :    0.164771
  21 C :    0.009159
  22 N :    0.029607
  23 C :   -0.137677
  24 S :    0.164795
  25 C :    0.017973
  26 N :    0.278660
  27 O :   -0.244193
  28 O :   -0.257687
  29 C :   -0.029610
  30 C :    0.174987
  31 C :   -0.080992
  32 C :    0.119622
  33 N :   -0.039624
  34 C :   -0.136278
  35 S :    0.153794
  36 C :    0.000499
  37 N :    0.287659
  38 O :   -0.233145
  39 O :   -0.276266
  40 C :   -0.002676
  41 C :    0.135824
  42 C :   -0.064015
  43 C :    0.037436
  44 C :   -0.018035
  45 C :   -0.010945
  46 C :    0.031030
  47 C :    0.030609
  48 C :   -0.051585
  49 S :    0.070628
  50 C :   -0.049062
  51 C :    0.013264
  52 C :    0.016289
  53 C :   -0.062143
  54 S :    0.095999
  55 C :    0.051111
  56 N :   -0.024340
  57 C :   -0.112845
  58 S :    0.152844
  59 C :   -0.014162
  60 N :    0.281366
  61 O :   -0.262392
  62 O :   -0.274504
  63 C :    0.014226
  64 C :    0.079202
  65 C :   -0.023168
  66 C :   -0.058828
  67 H :    0.016008
  68 H :   -0.001046
  69 H :   -0.001480
  70 H :   -0.013770
  71 H :    0.050310
  72 H :    0.156182
  73 H :    0.007796
  74 H :   -0.013473
  75 H :    0.022330
  76 H :    0.133118
  77 H :    0.011700
  78 H :   -0.020562
  79 H :    0.001629
  80 H :   -0.025519
  81 H :   -0.016249
  82 H :   -0.016325
  83 H :   -0.011383
  84 H :   -0.019499
  85 H :    0.024226
  86 H :    0.135393
  87 H :    0.007349
  88 H :    0.010406
  89 H :    0.022617
  90 H :    0.033547
Sum of atomic charges:    0.0000000

LOEWDIN ATOMIC CHARGES
----------------------
   0 C :   -0.023009
   1 C :    0.066205
   2 F :   -0.044638
   3 C :    0.069664
   4 F :   -0.047582
   5 C :   -0.037266
   6 C :   -0.010128
   7 C :   -0.012629
   8 C :    0.018062
   9 C :   -0.036134
  10 C :   -0.052940
  11 C :    0.018231
  12 C :    0.072487
  13 O :   -0.152677
  14 C :   -0.138462
  15 C :    0.077600
  16 C :   -0.149689
  17 C :   -0.019367
  18 N :   -0.052428
  19 C :   -0.026023
  20 N :   -0.054905
  21 C :    0.082386
  22 N :    0.079730
  23 C :   -0.122652
  24 S :    0.454717
  25 C :   -0.198554
  26 N :    0.274237
  27 O :   -0.209024
  28 O :   -0.223002
  29 C :    0.003133
  30 C :   -0.064992
  31 C :   -0.094195
  32 C :    0.047458
  33 N :    0.025137
  34 C :   -0.115906
  35 S :    0.458981
  36 C :   -0.200177
  37 N :    0.278073
  38 O :   -0.198348
  39 O :   -0.239975
  40 C :    0.005389
  41 C :   -0.095992
  42 C :   -0.043014
  43 C :   -0.013945
  44 C :   -0.061116
  45 C :   -0.138923
  46 C :   -0.038748
  47 C :   -0.029905
  48 C :   -0.185075
  49 S :    0.367180
  50 C :   -0.177274
  51 C :   -0.025105
  52 C :   -0.050592
  53 C :   -0.188683
  54 S :    0.370248
  55 C :   -0.011946
  56 N :    0.052208
  57 C :   -0.094129
  58 S :    0.453917
  59 C :   -0.220690
  60 N :    0.274077
  61 O :   -0.227408
  62 O :   -0.241264
  63 C :    0.005195
  64 C :   -0.116699
  65 C :   -0.011013
  66 C :   -0.070024
  67 H :    0.051940
  68 H :    0.044221
  69 H :    0.038352
  70 H :    0.038800
  71 H :    0.044162
  72 H :    0.103581
  73 H :    0.045617
  74 H :    0.030213
  75 H :    0.031242
  76 H :    0.089548
  77 H :    0.046150
  78 H :    0.024770
  79 H :    0.022865
  80 H :    0.029443
  81 H :    0.032043
  82 H :    0.030619
  83 H :    0.032998
  84 H :    0.026447
  85 H :    0.027881
  86 H :    0.091181
  87 H :    0.045622
  88 H :    0.036762
  89 H :    0.018281
  90 H :    0.029197

  Mayer bond orders larger than 0.100000
B(  0-C ,  1-C ) :   1.4353 B(  0-C ,  5-C ) :   0.1087 B(  0-C ,  7-C ) :   1.1901
B(  0-C , 67-H ) :   1.0088 B(  1-C ,  2-F ) :   1.1392 B(  1-C ,  3-C ) :   1.1917
B(  3-C ,  4-F ) :   1.1353 B(  3-C ,  5-C ) :   1.4398 B(  5-C ,  6-C ) :   1.1912
B(  5-C , 68-H ) :   1.0076 B(  6-C ,  7-C ) :   1.2581 B(  6-C , 11-C ) :   1.1751
B(  7-C ,  8-C ) :   1.2114 B(  8-C ,  9-C ) :   1.4350 B(  8-C , 69-H ) :   0.9936
B(  9-C , 10-C ) :   1.2337 B(  9-C , 15-C ) :   0.9937 B( 10-C , 11-C ) :   1.4659
B( 10-C , 12-C ) :   0.9318 B( 11-C , 70-H ) :   1.0211 B( 12-C , 13-O ) :   2.2234
B( 12-C , 14-C ) :   0.9450 B( 14-C , 15-C ) :   1.1019 B( 14-C , 21-C ) :   1.5009
B( 15-C , 16-C ) :   1.6227 B( 16-C , 17-C ) :   1.1525 B( 16-C , 19-C ) :   1.1503
B( 17-C , 18-N ) :   2.9302 B( 19-C , 20-N ) :   2.9587 B( 21-C , 22-N ) :   1.3115
B( 21-C , 71-H ) :   0.9331 B( 22-N , 23-C ) :   1.1334 B( 22-N , 72-H ) :   0.8979
B( 23-C , 24-S ) :   1.1236 B( 23-C , 30-C ) :   1.3978 B( 24-S , 25-C ) :   1.0982
B( 25-C , 26-N ) :   0.9574 B( 25-C , 29-C ) :   1.4931 B( 26-N , 27-O ) :   1.5428
B( 26-N , 28-O ) :   1.5175 B( 27-O , 28-O ) :   0.2645 B( 29-C , 30-C ) :   1.2022
B( 29-C , 73-H ) :   1.0120 B( 30-C , 31-C ) :   1.1411 B( 31-C , 32-C ) :   1.6819
B( 31-C , 74-H ) :   0.9545 B( 32-C , 33-N ) :   1.1523 B( 32-C , 75-H ) :   0.9267
B( 33-N , 34-C ) :   1.1552 B( 33-N , 76-H ) :   0.9105 B( 34-C , 35-S ) :   1.1315
B( 34-C , 41-C ) :   1.3951 B( 35-S , 36-C ) :   1.0852 B( 36-C , 37-N ) :   0.9590
B( 36-C , 40-C ) :   1.5129 B( 37-N , 38-O ) :   1.5523 B( 37-N , 39-O ) :   1.5005
B( 38-O , 39-O ) :   0.2594 B( 40-C , 41-C ) :   1.2052 B( 40-C , 77-H ) :   1.0015
B( 41-C , 42-C ) :   1.0670 B( 42-C , 43-C ) :   1.6595 B( 42-C , 78-H ) :   0.9809
B( 43-C , 44-C ) :   1.1472 B( 43-C , 79-H ) :   0.9655 B( 44-C , 45-C ) :   1.5723
B( 44-C , 80-H ) :   0.9826 B( 45-C , 46-C ) :   1.1369 B( 45-C , 49-S ) :   1.0318
B( 46-C , 47-C ) :   1.5946 B( 46-C , 81-H ) :   0.9988 B( 47-C , 48-C ) :   1.1887
B( 47-C , 82-H ) :   0.9925 B( 48-C , 49-S ) :   1.0413 B( 48-C , 50-C ) :   1.5124
B( 50-C , 51-C ) :   1.1892 B( 50-C , 54-S ) :   1.0505 B( 51-C , 52-C ) :   1.6357
B( 51-C , 83-H ) :   0.9916 B( 52-C , 53-C ) :   1.1220 B( 52-C , 84-H ) :   0.9844
B( 53-C , 54-S ) :   1.0211 B( 53-C , 55-C ) :   1.6115 B( 55-C , 56-N ) :   1.1524
B( 55-C , 85-H ) :   0.9467 B( 56-N , 57-C ) :   1.2429 B( 56-N , 86-H ) :   0.8959
B( 57-C , 58-S ) :   1.1392 B( 57-C , 64-C ) :   1.3635 B( 58-S , 59-C ) :   1.0610
B( 59-C , 60-N ) :   0.9913 B( 59-C , 63-C ) :   1.4706 B( 60-N , 61-O ) :   1.5234
B( 60-N , 62-O ) :   1.4993 B( 61-O , 62-O ) :   0.2498 B( 63-C , 64-C ) :   1.2517
B( 63-C , 87-H ) :   1.0065 B( 64-C , 65-C ) :   1.0578 B( 65-C , 66-C ) :   1.9359
B( 65-C , 88-H ) :   0.9603 B( 66-C , 89-H ) :   0.9584 B( 66-C , 90-H ) :   0.9499

-----------------------------------------------------------------------------
         ABSORPTION SPECTRUM VIA TRANSITION ELECTRIC DIPOLE MOMENTS
-----------------------------------------------------------------------------
State   Energy  Wavelength   fosc         T2         TX        TY        TZ
        (cm-1)    (nm)                  (au**2)     (au)      (au)      (au)
-----------------------------------------------------------------------------
   0   11284.6    886.2   0.023146386   0.67526   0.60803   0.11142  -0.54143
   1   14671.0    681.6   1.827664062  41.01202  -5.39854  -1.12585   3.25580
   2   18807.2    531.7   0.017920723   0.31369  -0.40568  -0.24420  -0.29914
   3   19668.9    508.4   0.014079245   0.23565  -0.00081   0.12460   0.46918
   4   20438.6    489.3   0.081650269   1.31517   0.67089   0.91056  -0.18966
   5   22831.8    438.0   0.099962360   1.44136   0.37791  -1.13605  -0.08900
   6   23528.7    425.0   0.001166211   0.01632  -0.11727  -0.04186   0.02850
   7   25059.9    399.0   0.266409483   3.49982  -0.34646   1.77822   0.46661
   8   25624.4    390.3   0.047859111   0.61487   0.41833  -0.41984  -0.51342
   9   26125.1    382.8   0.066429313   0.83710   0.69501   0.16557   0.57153
  10   26279.5    380.5   0.316549665   3.96553  -0.98103  -1.72268  -0.18840
  11   27767.1    360.1   0.025206662   0.29885   0.30146  -0.42843  -0.15627
  12   27801.1    359.7   0.031020896   0.36734   0.07726  -0.60088   0.01789
  13   29194.3    342.5   0.837982789   9.44957  -1.08162  -2.87272   0.16484
  14   29455.0    339.5   0.078108262   0.87300   0.70795  -0.54058  -0.28210
  15   29865.4    334.8   0.001722130   0.01898   0.09737  -0.09680   0.01151
  16   30209.0    331.0   0.006947988   0.07572  -0.07451   0.11921  -0.23655
  17   30418.2    328.8   0.007237346   0.07833   0.01940   0.23043   0.15765
  18   30533.8    327.5   0.129757024   1.39902  -0.15983  -1.14780   0.23670
  19   31272.6    319.8   0.007150915   0.07528  -0.18290   0.11471   0.16932
  20   31790.5    314.6   0.136743980   1.41608   1.06329  -0.32205  -0.42635
  21   32007.1    312.4   0.024899910   0.25611   0.43141   0.06510  -0.25644
  22   32232.0    310.3   0.202657137   2.06991   0.60415  -1.26717  -0.31494
  23   33185.2    301.3   0.035177729   0.34898  -0.30888  -0.36021   0.35188
  24   33899.9    295.0   0.035252478   0.34235  -0.43873  -0.20253   0.32991
  25   33963.9    294.4   0.013935803   0.13508   0.28122  -0.07391  -0.22480
  26   34366.3    291.0   0.237715589   2.27720  -0.92248   1.07610   0.51790
  27   34388.7    290.8   0.264654696   2.53361   1.39391  -0.75652  -0.13532
  28   34672.2    288.4   0.073845763   0.70116   0.67764   0.47224   0.13769
  29   35106.1    284.9   0.061757161   0.57914  -0.51038  -0.44550   0.34667
  30   35268.6    283.5   0.002060798   0.01924   0.09760   0.05205  -0.08368
  31   35591.9    281.0   0.063908155   0.59113  -0.48529   0.57096   0.17212
  32   35731.7    279.9   0.137545125   1.26726  -0.44250   1.00642   0.24204
  33   36187.6    276.3   0.053279400   0.48470   0.54242  -0.39286  -0.19011
  34   36307.7    275.4   0.105565754   0.95719  -0.88715  -0.32830   0.24974
  35   36390.0    274.8   0.006521515   0.05900   0.17013   0.06968   0.15874
  36   36714.5    272.4   0.004233644   0.03796   0.18344   0.04785   0.04497
  37   36803.6    271.7   0.033725907   0.30168  -0.46734  -0.18555   0.22100
  38   37246.6    268.5   0.075819003   0.67014   0.69443  -0.14552  -0.40833
  39   37571.4    266.2   0.029422123   0.25781  -0.35452   0.31958   0.17316
  40   37950.2    263.5   0.038844025   0.33697  -0.42069  -0.30942  -0.25346
  41   38337.6    260.8   0.002199396   0.01889  -0.06997   0.07802  -0.08890
  42   38437.5    260.2   0.002448668   0.02097  -0.06827  -0.12657  -0.01705
  43   38628.8    258.9   0.290093454   2.47231  -0.77831  -1.36569  -0.03772
  44   38905.0    257.0   0.093205009   0.78870  -0.53813   0.68119   0.18735
  45   39035.5    256.2   0.093837054   0.79139   0.69153  -0.36643  -0.42297
  46   39126.7    255.6   0.011810602   0.09937  -0.09326  -0.28069  -0.10903
  47   39606.4    252.5   0.079141041   0.65783   0.19402  -0.78738   0.01483
  48   39730.6    251.7   0.031461855   0.26070  -0.37411  -0.32019   0.13496
  49   40204.9    248.7   0.038132387   0.31224   0.33251   0.44903   0.00731
  50   40310.0    248.1   0.032397884   0.26459  -0.43910   0.07584   0.25696

FINAL SINGLE POINT ENERGY     -4879.873502664952

DIPOLE MOMENT
-------------
                                X             Y             Z
Electronic contribution:    -41.82489      29.99180      34.88986
Nuclear contribution   :     41.51118     -34.19195     -34.93930
                        -----------------------------------------
Total Dipole Moment    :     -0.31370      -4.20015      -0.04944
                        -----------------------------------------
Magnitude (a.u.)       :      4.21213
Magnitude (Debye)      :     10.70640

Rotational constants in cm-1:     0.001456     0.000312     0.000265
Rotational constants in MHz :    43.648800     9.350331     7.954006

                             ****ORCA TERMINATED NORMALLY****
TOTAL RUN TIME: 0 days 0 hours 8 minutes 45 seconds 526 msec
