                         Program Version 4.2.0 -  RELEASE  -
|  1> # ORCA input file
|  2> # SCF done       -156.617236653442          0.000718804526
|  3> ! CAM-B3LYP def2-SVP def2/J RIJCOSX Grid4 TightSCF
|  4> %maxcore 5000
|  5> %tddft
|  6>     Mode sTDDFT
|  7>     Ethresh 5.0
|  8>     maxcore 5000
|  9> end
| 10>
| 11> %pal
| 12>   nprocs 6
| 13>   end
| 14> * xyz 0 1
| 15>    C        0.52958       -18.77750        -8.60145
| 16>    C        1.74302       -18.79333        -8.03378
| 17>    C        2.86265       -19.62351        -8.37733
| 18>    C        3.96336       -19.41853        -7.62185
| 19>    C        3.81177       -18.41612        -6.62195
| 20>    S        2.19679       -17.73658        -6.68661
| 21>    C        4.75131       -18.00219        -5.71032
| 22>    C        6.07887       -18.47477        -5.55087
| 23>    C        6.76353       -17.86874        -4.54841
| 24>    C        6.03006       -16.87398        -3.84416
| 25>    S        4.41821       -16.74682        -4.53004
| 26>    C        6.51553       -16.14569        -2.79294
| 27>    C        5.85680       -15.14902        -2.04635
| 28>    C        4.60691       -14.58052        -2.20055
| 29>    C        4.31333       -13.60740        -1.24208
| 30>    S        2.88735       -12.57561        -1.27112
| 31>    C        1.66154       -13.69735        -2.00134
| 32>    C        5.32841       -13.41954        -0.31527
| 33>    S        6.69176       -14.43408        -0.68830
| 34>    C        5.36550       -12.51665         0.78542
| 35>    S        6.76017       -11.52362         1.05098
| 36>    C        6.02814       -10.69018         2.38304
| 37>    C        4.74209       -11.19204         2.62967
| 38>    C        4.38540       -12.25465         1.73909
| 39>    C        3.17584       -12.97560         1.95048
| 40>    C        2.86607       -14.16125         1.25754
| 41>    N        2.57974       -15.16763         0.78170
| 42>    C        2.31844       -12.55421         2.94118
| 43>    C        2.61955       -11.45498         3.75212
| 44>    C        3.81567       -10.78275         3.63294
| 45>    O        4.18534        -9.74393         4.42460
| 46>    C        3.30188        -9.30820         5.43241
| 47>    C        6.72585        -9.66491         3.06731
| 48>    C        7.98593        -9.27762         2.76835
| 49>    N        8.62762        -8.28026         3.44221
| 50>    C        9.90948        -7.88917         3.25889
| 51>    S       10.96711        -8.75971         2.19149
| 52>    C       12.28099        -7.72838         2.67505
| 53>    N       13.52131        -7.95141         2.09079
| 54>    O       14.45227        -7.23730         2.43046
| 55>    O       13.59087        -8.85858         1.27173
| 56>    C       11.91336        -6.78565         3.60118
| 57>    C       10.55092        -6.84124         3.93594
| 58>    C        9.94295        -5.91530         4.86160
| 59>    C        8.65881        -5.51053         4.86883
| 60>    C        8.09419        -4.57909         5.80157
| 61>    C        8.74558        -3.97597         6.92374
| 62>    C        7.85159        -3.12887         7.56036
| 63>    C        7.99502        -2.30282         8.69322
| 64>    C        6.91021        -1.55866         9.07843
| 65>    C        6.71905        -0.63446        10.15287
| 66>    C        5.42613        -0.14457        10.09824
| 67>    C        4.77171        -0.75326         8.98372
| 68>    C        5.65931        -1.61614         8.35215
| 69>    C        5.51406        -2.44142         7.22376
| 70>    C        6.60053        -3.18850         6.83549
| 71>    C        6.79258        -4.10099         5.75751
| 72>    C        4.86187         0.81413        11.01826
| 73>    C        3.62282         1.29517        10.97474
| 74>    H        0.29737       -19.43859        -9.41765
| 75>    H       -0.24452       -18.11280        -8.26454
| 76>    H        2.78905       -20.33847        -9.17756
| 77>    H        4.88954       -19.95258        -7.74188
| 78>    H        6.48409       -19.24767        -6.17884
| 79>    H        7.77987       -18.09796        -4.27996
| 80>    H        7.53020       -16.36700        -2.48716
| 81>    H        3.93993       -14.84819        -2.99671
| 82>    H        0.69991       -13.20812        -1.88131
| 83>    H        1.68249       -14.63214        -1.44751
| 84>    H        1.86975       -13.85147        -3.05562
| 85>    H        1.39666       -13.09154         3.10868
| 86>    H        1.89819       -11.16738         4.49919
| 87>    H        3.10909       -10.09752         6.16502
| 88>    H        2.35456        -8.95903         5.01160
| 89>    H        3.80470        -8.47686         5.92442
| 90>    H        6.19668        -9.18283         3.87452
| 91>    H        8.54872        -9.73817         1.96914
| 92>    H        8.12745        -7.83233         4.20249
| 93>    H       12.60893        -6.06916         3.99935
| 94>    H       10.63222        -5.48448         5.57406
| 95>    H        7.97471        -5.84349         4.09738
| 96>    H        9.76244        -4.15159         7.22372
| 97>    H        8.93331        -2.26382         9.22893
| 98>    H        7.46645        -0.36937        10.87860
| 99>    H        3.75615        -0.57022         8.68316
|100>    H        4.57705        -2.47796         6.68521
|101>    H        6.04729        -4.36273         5.02793
|102>    H        5.53690         1.14750        11.79681
|103>    H        2.91591         0.99631        10.22015
|104>    H        3.27145         2.01161        11.69686
|105> *
|106>
|107>                          ****END OF INPUT****

CARTESIAN COORDINATES (ANGSTROEM)
---------------------------------
  C      0.529580  -18.777500   -8.601450
  C      1.743020  -18.793330   -8.033780
  C      2.862650  -19.623510   -8.377330
  C      3.963360  -19.418530   -7.621850
  C      3.811770  -18.416120   -6.621950
  S      2.196790  -17.736580   -6.686610
  C      4.751310  -18.002190   -5.710320
  C      6.078870  -18.474770   -5.550870
  C      6.763530  -17.868740   -4.548410
  C      6.030060  -16.873980   -3.844160
  S      4.418210  -16.746820   -4.530040
  C      6.515530  -16.145690   -2.792940
  C      5.856800  -15.149020   -2.046350
  C      4.606910  -14.580520   -2.200550
  C      4.313330  -13.607400   -1.242080
  S      2.887350  -12.575610   -1.271120
  C      1.661540  -13.697350   -2.001340
  C      5.328410  -13.419540   -0.315270
  S      6.691760  -14.434080   -0.688300
  C      5.365500  -12.516650    0.785420
  S      6.760170  -11.523620    1.050980
  C      6.028140  -10.690180    2.383040
  C      4.742090  -11.192040    2.629670
  C      4.385400  -12.254650    1.739090
  C      3.175840  -12.975600    1.950480
  C      2.866070  -14.161250    1.257540
  N      2.579740  -15.167630    0.781700
  C      2.318440  -12.554210    2.941180
  C      2.619550  -11.454980    3.752120
  C      3.815670  -10.782750    3.632940
  O      4.185340   -9.743930    4.424600
  C      3.301880   -9.308200    5.432410
  C      6.725850   -9.664910    3.067310
  C      7.985930   -9.277620    2.768350
  N      8.627620   -8.280260    3.442210
  C      9.909480   -7.889170    3.258890
  S     10.967110   -8.759710    2.191490
  C     12.280990   -7.728380    2.675050
  N     13.521310   -7.951410    2.090790
  O     14.452270   -7.237300    2.430460
  O     13.590870   -8.858580    1.271730
  C     11.913360   -6.785650    3.601180
  C     10.550920   -6.841240    3.935940
  C      9.942950   -5.915300    4.861600
  C      8.658810   -5.510530    4.868830
  C      8.094190   -4.579090    5.801570
  C      8.745580   -3.975970    6.923740
  C      7.851590   -3.128870    7.560360
  C      7.995020   -2.302820    8.693220
  C      6.910210   -1.558660    9.078430
  C      6.719050   -0.634460   10.152870
  C      5.426130   -0.144570   10.098240
  C      4.771710   -0.753260    8.983720
  C      5.659310   -1.616140    8.352150
  C      5.514060   -2.441420    7.223760
  C      6.600530   -3.188500    6.835490
  C      6.792580   -4.100990    5.757510
  C      4.861870    0.814130   11.018260
  C      3.622820    1.295170   10.974740
  H      0.297370  -19.438590   -9.417650
  H     -0.244520  -18.112800   -8.264540
  H      2.789050  -20.338470   -9.177560
  H      4.889540  -19.952580   -7.741880
  H      6.484090  -19.247670   -6.178840
  H      7.779870  -18.097960   -4.279960
  H      7.530200  -16.367000   -2.487160
  H      3.939930  -14.848190   -2.996710
  H      0.699910  -13.208120   -1.881310
  H      1.682490  -14.632140   -1.447510
  H      1.869750  -13.851470   -3.055620
  H      1.396660  -13.091540    3.108680
  H      1.898190  -11.167380    4.499190
  H      3.109090  -10.097520    6.165020
  H      2.354560   -8.959030    5.011600
  H      3.804700   -8.476860    5.924420
  H      6.196680   -9.182830    3.874520
  H      8.548720   -9.738170    1.969140
  H      8.127450   -7.832330    4.202490
  H     12.608930   -6.069160    3.999350
  H     10.632220   -5.484480    5.574060
  H      7.974710   -5.843490    4.097380
  H      9.762440   -4.151590    7.223720
  H      8.933310   -2.263820    9.228930
  H      7.466450   -0.369370   10.878600
  H      3.756150   -0.570220    8.683160
  H      4.577050   -2.477960    6.685210
  H      6.047290   -4.362730    5.027930
  H      5.536900    1.147500   11.796810
  H      2.915910    0.996310   10.220150
  H      3.271450    2.011610   11.696860

 Total Charge           Charge          ....    0
 Multiplicity           Mult            ....    1
 Number of Electrons    NEL             ....  454
 Basis Dimension        Dim             .... 1005

ORBITAL ENERGIES
----------------

  NO   OCC          E(Eh)            E(eV)
   0   2.0000     -88.974866     -2421.1292
   1   2.0000     -88.962942     -2420.8047
   2   2.0000     -88.944073     -2420.2913
   3   2.0000     -88.938454     -2420.1384
   4   2.0000     -88.932620     -2419.9796
   5   2.0000     -88.910563     -2419.3794
   6   2.0000     -19.268071      -524.3109
   7   2.0000     -19.221361      -523.0398
   8   2.0000     -19.220440      -523.0148
   9   2.0000     -14.633134      -398.1878
  10   2.0000     -14.478457      -393.9789
  11   2.0000     -14.382775      -391.3752
  12   2.0000     -10.361955      -281.9631
  13   2.0000     -10.353247      -281.7262
  14   2.0000     -10.338655      -281.3291
  15   2.0000     -10.328281      -281.0468
  16   2.0000     -10.327736      -281.0320
  17   2.0000     -10.311226      -280.5827
  18   2.0000     -10.304231      -280.3924
  19   2.0000     -10.303955      -280.3849
  20   2.0000     -10.303790      -280.3804
  21   2.0000     -10.302844      -280.3546
  22   2.0000     -10.302207      -280.3373
  23   2.0000     -10.301472      -280.3173
  24   2.0000     -10.300756      -280.2978
  25   2.0000     -10.299124      -280.2534
  26   2.0000     -10.295056      -280.1427
  27   2.0000     -10.294907      -280.1387
  28   2.0000     -10.294392      -280.1247
  29   2.0000     -10.289363      -279.9878
  30   2.0000     -10.289353      -279.9875
  31   2.0000     -10.289312      -279.9864
  32   2.0000     -10.289162      -279.9823
  33   2.0000     -10.288230      -279.9570
  34   2.0000     -10.287706      -279.9427
  35   2.0000     -10.287621      -279.9404
  36   2.0000     -10.287076      -279.9256
  37   2.0000     -10.285911      -279.8939
  38   2.0000     -10.284483      -279.8550
  39   2.0000     -10.283536      -279.8293
  40   2.0000     -10.280632      -279.7502
  41   2.0000     -10.279933      -279.7312
  42   2.0000     -10.279673      -279.7241
  43   2.0000     -10.277773      -279.6724
  44   2.0000     -10.277058      -279.6530
  45   2.0000     -10.276995      -279.6512
  46   2.0000     -10.276572      -279.6397
  47   2.0000     -10.275005      -279.5971
  48   2.0000     -10.274022      -279.5704
  49   2.0000     -10.273571      -279.5581
  50   2.0000     -10.271734      -279.5081
  51   2.0000     -10.271094      -279.4907
  52   2.0000     -10.269241      -279.4402
  53   2.0000     -10.268595      -279.4227
  54   2.0000     -10.268543      -279.4213
  55   2.0000     -10.268402      -279.4174
  56   2.0000     -10.264819      -279.3199
  57   2.0000     -10.262831      -279.2658
  58   2.0000     -10.260429      -279.2005
  59   2.0000      -8.070285      -219.6036
  60   2.0000      -8.058530      -219.2837
  61   2.0000      -8.039982      -218.7790
  62   2.0000      -8.034173      -218.6210
  63   2.0000      -8.029399      -218.4911
  64   2.0000      -8.005517      -217.8412
  65   2.0000      -6.039996      -164.3566
  66   2.0000      -6.035599      -164.2370
  67   2.0000      -6.031655      -164.1297
  68   2.0000      -6.027483      -164.0162
  69   2.0000      -6.023486      -163.9074
  70   2.0000      -6.021138      -163.8435
  71   2.0000      -6.009271      -163.5206
  72   2.0000      -6.005370      -163.4144
  73   2.0000      -6.003990      -163.3769
  74   2.0000      -6.001778      -163.3167
  75   2.0000      -5.999937      -163.2666
  76   2.0000      -5.999241      -163.2476
  77   2.0000      -5.995319      -163.1409
  78   2.0000      -5.995034      -163.1332
  79   2.0000      -5.989879      -162.9929
  80   2.0000      -5.976108      -162.6182
  81   2.0000      -5.971885      -162.5032
  82   2.0000      -5.965099      -162.3186
  83   2.0000      -1.300019       -35.3753
  84   2.0000      -1.170512       -31.8512
  85   2.0000      -1.118644       -30.4398
  86   2.0000      -1.085688       -29.5431
  87   2.0000      -1.003360       -27.3028
  88   2.0000      -0.993517       -27.0350
  89   2.0000      -0.990886       -26.9634
  90   2.0000      -0.986517       -26.8445
  91   2.0000      -0.974918       -26.5289
  92   2.0000      -0.970858       -26.4184
  93   2.0000      -0.965442       -26.2710
  94   2.0000      -0.961729       -26.1700
  95   2.0000      -0.935609       -25.4592
  96   2.0000      -0.915878       -24.9223
  97   2.0000      -0.903463       -24.5845
  98   2.0000      -0.895443       -24.3662
  99   2.0000      -0.887865       -24.1600
 100   2.0000      -0.876514       -23.8512
 101   2.0000      -0.875271       -23.8173
 102   2.0000      -0.866776       -23.5862
 103   2.0000      -0.862971       -23.4826
 104   2.0000      -0.855309       -23.2741
 105   2.0000      -0.853491       -23.2247
 106   2.0000      -0.839090       -22.8328
 107   2.0000      -0.837287       -22.7837
 108   2.0000      -0.835293       -22.7295
 109   2.0000      -0.826159       -22.4809
 110   2.0000      -0.815267       -22.1845
 111   2.0000      -0.805195       -21.9105
 112   2.0000      -0.803256       -21.8577
 113   2.0000      -0.800847       -21.7922
 114   2.0000      -0.795516       -21.6471
 115   2.0000      -0.780130       -21.2284
 116   2.0000      -0.770523       -20.9670
 117   2.0000      -0.752074       -20.4650
 118   2.0000      -0.745845       -20.2955
 119   2.0000      -0.733308       -19.9543
 120   2.0000      -0.724012       -19.7014
 121   2.0000      -0.721068       -19.6213
 122   2.0000      -0.714621       -19.4458
 123   2.0000      -0.706883       -19.2353
 124   2.0000      -0.694927       -18.9099
 125   2.0000      -0.684996       -18.6397
 126   2.0000      -0.682412       -18.5694
 127   2.0000      -0.672143       -18.2899
 128   2.0000      -0.666842       -18.1457
 129   2.0000      -0.664721       -18.0880
 130   2.0000      -0.646701       -17.5976
 131   2.0000      -0.645012       -17.5517
 132   2.0000      -0.634093       -17.2546
 133   2.0000      -0.627458       -17.0740
 134   2.0000      -0.626488       -17.0476
 135   2.0000      -0.622984       -16.9522
 136   2.0000      -0.620861       -16.8945
 137   2.0000      -0.615474       -16.7479
 138   2.0000      -0.614223       -16.7139
 139   2.0000      -0.610666       -16.6171
 140   2.0000      -0.604183       -16.4406
 141   2.0000      -0.601275       -16.3615
 142   2.0000      -0.598216       -16.2783
 143   2.0000      -0.591686       -16.1006
 144   2.0000      -0.590396       -16.0655
 145   2.0000      -0.585982       -15.9454
 146   2.0000      -0.582776       -15.8581
 147   2.0000      -0.575972       -15.6730
 148   2.0000      -0.571367       -15.5477
 149   2.0000      -0.567077       -15.4309
 150   2.0000      -0.560172       -15.2431
 151   2.0000      -0.556982       -15.1562
 152   2.0000      -0.551392       -15.0041
 153   2.0000      -0.538294       -14.6477
 154   2.0000      -0.537018       -14.6130
 155   2.0000      -0.532662       -14.4945
 156   2.0000      -0.530721       -14.4417
 157   2.0000      -0.527690       -14.3592
 158   2.0000      -0.526339       -14.3224
 159   2.0000      -0.519435       -14.1345
 160   2.0000      -0.515117       -14.0171
 161   2.0000      -0.513277       -13.9670
 162   2.0000      -0.506399       -13.7798
 163   2.0000      -0.505763       -13.7625
 164   2.0000      -0.502946       -13.6859
 165   2.0000      -0.500440       -13.6177
 166   2.0000      -0.498299       -13.5594
 167   2.0000      -0.497586       -13.5400
 168   2.0000      -0.495683       -13.4882
 169   2.0000      -0.491867       -13.3844
 170   2.0000      -0.489455       -13.3188
 171   2.0000      -0.488229       -13.2854
 172   2.0000      -0.485454       -13.2099
 173   2.0000      -0.481397       -13.0995
 174   2.0000      -0.480154       -13.0657
 175   2.0000      -0.475732       -12.9453
 176   2.0000      -0.474485       -12.9114
 177   2.0000      -0.471493       -12.8300
 178   2.0000      -0.468813       -12.7570
 179   2.0000      -0.464327       -12.6350
 180   2.0000      -0.462263       -12.5788
 181   2.0000      -0.461683       -12.5630
 182   2.0000      -0.457734       -12.4556
 183   2.0000      -0.453937       -12.3523
 184   2.0000      -0.452532       -12.3140
 185   2.0000      -0.451025       -12.2730
 186   2.0000      -0.448901       -12.2152
 187   2.0000      -0.443826       -12.0771
 188   2.0000      -0.441970       -12.0266
 189   2.0000      -0.441738       -12.0203
 190   2.0000      -0.432108       -11.7583
 191   2.0000      -0.430257       -11.7079
 192   2.0000      -0.426643       -11.6095
 193   2.0000      -0.422868       -11.5068
 194   2.0000      -0.421846       -11.4790
 195   2.0000      -0.416519       -11.3340
 196   2.0000      -0.414839       -11.2883
 197   2.0000      -0.411202       -11.1894
 198   2.0000      -0.408574       -11.1179
 199   2.0000      -0.407139       -11.0788
 200   2.0000      -0.405037       -11.0216
 201   2.0000      -0.399997       -10.8845
 202   2.0000      -0.390127       -10.6159
 203   2.0000      -0.386686       -10.5223
 204   2.0000      -0.381360       -10.3773
 205   2.0000      -0.376384       -10.2419
 206   2.0000      -0.376180       -10.2364
 207   2.0000      -0.370503       -10.0819
 208   2.0000      -0.369635       -10.0583
 209   2.0000      -0.368776       -10.0349
 210   2.0000      -0.361917        -9.8483
 211   2.0000      -0.349957        -9.5228
 212   2.0000      -0.342955        -9.3323
 213   2.0000      -0.339074        -9.2267
 214   2.0000      -0.332353        -9.0438
 215   2.0000      -0.329982        -8.9793
 216   2.0000      -0.323170        -8.7939
 217   2.0000      -0.320980        -8.7343
 218   2.0000      -0.313570        -8.5327
 219   2.0000      -0.303186        -8.2501
 220   2.0000      -0.290034        -7.8922
 221   2.0000      -0.276708        -7.5296
 222   2.0000      -0.271363        -7.3842
 223   2.0000      -0.262609        -7.1460
 224   2.0000      -0.243596        -6.6286
 225   2.0000      -0.228410        -6.2153
 226   2.0000      -0.204806        -5.5731
 227   0.0000      -0.099311        -2.7024
 228   0.0000      -0.068797        -1.8721
 229   0.0000      -0.052941        -1.4406
 230   0.0000      -0.034092        -0.9277
 231   0.0000      -0.023728        -0.6457

MULLIKEN ATOMIC CHARGES
-----------------------
   0 C :   -0.030866
   1 C :   -0.062460
   2 C :    0.049531
   3 C :    0.031845
   4 C :   -0.066730
   5 S :    0.078115
   6 C :   -0.038906
   7 C :    0.030178
   8 C :    0.033022
   9 C :   -0.024110
  10 S :    0.054138
  11 C :    0.041732
  12 C :   -0.062753
  13 C :   -0.034833
  14 C :    0.025579
  15 S :   -0.028643
  16 C :   -0.084179
  17 C :   -0.164197
  18 S :    0.128556
  19 C :   -0.207167
  20 S :    0.154628
  21 C :   -0.145719
  22 C :    0.081772
  23 C :    0.217985
  24 C :   -0.105109
  25 C :   -0.180915
  26 N :    0.093561
  27 C :    0.025294
  28 C :   -0.127881
  29 C :    0.210796
  30 O :   -0.315845
  31 C :    0.179545
  32 C :   -0.002151
  33 C :    0.043127
  34 N :   -0.019386
  35 C :   -0.118549
  36 S :    0.146671
  37 C :   -0.012777
  38 N :    0.280612
  39 O :   -0.265845
  40 O :   -0.277771
  41 C :    0.009720
  42 C :    0.116236
  43 C :   -0.028311
  44 C :   -0.021131
  45 C :    0.071098
  46 C :   -0.031242
  47 C :    0.050927
  48 C :   -0.001681
  49 C :    0.056694
  50 C :   -0.028506
  51 C :    0.062072
  52 C :   -0.018523
  53 C :    0.042359
  54 C :   -0.002504
  55 C :    0.058078
  56 C :   -0.046201
  57 C :    0.011521
  58 C :   -0.025666
  59 H :    0.018585
  60 H :    0.020600
  61 H :   -0.011544
  62 H :   -0.012409
  63 H :   -0.015724
  64 H :   -0.013386
  65 H :   -0.020120
  66 H :   -0.011093
  67 H :    0.050493
  68 H :    0.080275
  69 H :    0.063367
  70 H :   -0.011110
  71 H :   -0.028707
  72 H :    0.033331
  73 H :    0.032080
  74 H :    0.037691
  75 H :   -0.005425
  76 H :    0.032445
  77 H :    0.135374
  78 H :    0.004609
  79 H :   -0.011524
  80 H :   -0.021809
  81 H :   -0.023308
  82 H :   -0.025109
  83 H :   -0.027342
  84 H :   -0.024029
  85 H :   -0.027026
  86 H :   -0.033933
  87 H :   -0.018780
  88 H :    0.007318
  89 H :    0.021378
Sum of atomic charges:    0.0000000

LOEWDIN ATOMIC CHARGES
----------------------
   0 C :   -0.078720
   1 C :   -0.138773
   2 C :   -0.032079
   3 C :   -0.026064
   4 C :   -0.176782
   5 S :    0.348765
   6 C :   -0.180098
   7 C :   -0.036800
   8 C :   -0.030876
   9 C :   -0.142204
  10 S :    0.377979
  11 C :   -0.077614
  12 C :   -0.159036
  13 C :   -0.076874
  14 C :   -0.173313
  15 S :    0.298723
  16 C :   -0.151718
  17 C :   -0.229524
  18 S :    0.424225
  19 C :   -0.204199
  20 S :    0.473749
  21 C :   -0.157864
  22 C :   -0.066401
  23 C :   -0.028503
  24 C :   -0.085610
  25 C :   -0.026298
  26 N :   -0.085854
  27 C :    0.026725
  28 C :   -0.103034
  29 C :    0.084980
  30 O :   -0.088701
  31 C :    0.080103
  32 C :   -0.089063
  33 C :    0.011534
  34 N :    0.048840
  35 C :   -0.095751
  36 S :    0.449982
  37 C :   -0.221217
  38 N :    0.274586
  39 O :   -0.231126
  40 O :   -0.244373
  41 C :    0.004204
  42 C :   -0.110514
  43 C :   -0.030043
  44 C :   -0.040037
  45 C :   -0.062061
  46 C :    0.033455
  47 C :   -0.060860
  48 C :    0.069120
  49 C :   -0.058139
  50 C :    0.013964
  51 C :   -0.059878
  52 C :    0.048535
  53 C :   -0.065675
  54 C :    0.069967
  55 C :   -0.061139
  56 C :    0.000483
  57 C :   -0.020764
  58 C :   -0.054838
  59 H :    0.028109
  60 H :    0.025891
  61 H :    0.033087
  62 H :    0.032177
  63 H :    0.030733
  64 H :    0.033146
  65 H :    0.032494
  66 H :    0.015263
  67 H :    0.029787
  68 H :    0.029665
  69 H :    0.020769
  70 H :    0.039705
  71 H :    0.029460
  72 H :    0.020309
  73 H :    0.019640
  74 H :    0.028937
  75 H :    0.030812
  76 H :    0.017269
  77 H :    0.094253
  78 H :    0.044371
  79 H :    0.029267
  80 H :    0.023251
  81 H :    0.023412
  82 H :    0.034798
  83 H :    0.024125
  84 H :    0.024904
  85 H :    0.033974
  86 H :    0.021069
  87 H :    0.029534
  88 H :    0.017459
  89 H :    0.024829

  Mayer bond orders larger than 0.100000
B(  0-C ,  1-C ) :   1.8656 B(  0-C , 59-H ) :   0.9508 B(  0-C , 60-H ) :   0.9415
B(  1-C ,  2-C ) :   1.0782 B(  1-C ,  5-S ) :   1.0077 B(  2-C ,  3-C ) :   1.6642
B(  2-C , 61-H ) :   0.9934 B(  3-C ,  4-C ) :   1.1489 B(  3-C , 62-H ) :   0.9913
B(  4-C ,  5-S ) :   1.0422 B(  4-C ,  6-C ) :   1.5668 B(  6-C ,  7-C ) :   1.1628
B(  6-C , 10-S ) :   1.0317 B(  7-C ,  8-C ) :   1.6137 B(  7-C , 63-H ) :   0.9925
B(  8-C ,  9-C ) :   1.1324 B(  8-C , 64-H ) :   0.9984 B(  9-C , 10-S ) :   1.0343
B(  9-C , 11-C ) :   1.6224 B( 11-C , 12-C ) :   1.1518 B( 11-C , 65-H ) :   0.9506
B( 12-C , 13-C ) :   1.4799 B( 12-C , 17-C ) :   0.1049 B( 12-C , 18-S ) :   1.0981
B( 13-C , 14-C ) :   1.2610 B( 13-C , 66-H ) :   0.9797 B( 14-C , 15-S ) :   1.0257
B( 14-C , 17-C ) :   1.5425 B( 15-S , 16-C ) :   1.0075 B( 16-C , 67-H ) :   0.9694
B( 16-C , 68-H ) :   0.9549 B( 16-C , 69-H ) :   0.9663 B( 17-C , 18-S ) :   1.1199
B( 17-C , 19-C ) :   1.0678 B( 19-C , 20-S ) :   1.1423 B( 19-C , 21-C ) :   0.1146
B( 19-C , 23-C ) :   1.4339 B( 20-S , 21-C ) :   1.1444 B( 21-C , 22-C ) :   1.3678
B( 21-C , 32-C ) :   1.1991 B( 22-C , 23-C ) :   1.2017 B( 22-C , 29-C ) :   1.1665
B( 23-C , 24-C ) :   1.1778 B( 24-C , 25-C ) :   1.1010 B( 24-C , 27-C ) :   1.5591
B( 25-C , 26-N ) :   2.9698 B( 27-C , 28-C ) :   1.1810 B( 27-C , 70-H ) :   0.9948
B( 28-C , 29-C ) :   1.4326 B( 28-C , 71-H ) :   0.9917 B( 29-C , 30-O ) :   1.1692
B( 30-O , 31-C ) :   0.9496 B( 31-C , 72-H ) :   0.9699 B( 31-C , 73-H ) :   0.9695
B( 31-C , 74-H ) :   0.9784 B( 32-C , 33-C ) :   1.6281 B( 32-C , 75-H ) :   0.9529
B( 33-C , 34-N ) :   1.1221 B( 33-C , 76-H ) :   0.9598 B( 34-N , 35-C ) :   1.2392
B( 34-N , 77-H ) :   0.9040 B( 35-C , 36-S ) :   1.1361 B( 35-C , 42-C ) :   1.3484
B( 36-S , 37-C ) :   1.0590 B( 37-C , 38-N ) :   0.9948 B( 37-C , 41-C ) :   1.4642
B( 38-N , 39-O ) :   1.5196 B( 38-N , 40-O ) :   1.4970 B( 39-O , 40-O ) :   0.2482
B( 41-C , 42-C ) :   1.2446 B( 41-C , 78-H ) :   1.0076 B( 42-C , 43-C ) :   1.0602
B( 43-C , 44-C ) :   1.6969 B( 43-C , 79-H ) :   0.9647 B( 44-C , 45-C ) :   1.1013
B( 44-C , 80-H ) :   0.9667 B( 45-C , 46-C ) :   1.1541 B( 45-C , 56-C ) :   1.4785
B( 46-C , 47-C ) :   1.4375 B( 46-C , 81-H ) :   1.0057 B( 47-C , 48-C ) :   1.1223
B( 47-C , 55-C ) :   1.1391 B( 48-C , 49-C ) :   1.4668 B( 48-C , 82-H ) :   1.0045
B( 49-C , 50-C ) :   1.0830 B( 49-C , 53-C ) :   1.1334 B( 50-C , 51-C ) :   1.5046
B( 50-C , 83-H ) :   1.0166 B( 51-C , 52-C ) :   1.1517 B( 51-C , 57-C ) :   1.0831
B( 52-C , 53-C ) :   1.4275 B( 52-C , 84-H ) :   1.0073 B( 53-C , 54-C ) :   1.1374
B( 54-C , 55-C ) :   1.4436 B( 54-C , 85-H ) :   1.0044 B( 55-C , 56-C ) :   1.0952
B( 56-C , 86-H ) :   1.0178 B( 57-C , 58-C ) :   1.9347 B( 57-C , 87-H ) :   0.9667
B( 58-C , 88-H ) :   0.9524 B( 58-C , 89-H ) :   0.9496

-----------------------------------------------------------------------------
         ABSORPTION SPECTRUM VIA TRANSITION ELECTRIC DIPOLE MOMENTS
-----------------------------------------------------------------------------
State   Energy  Wavelength   fosc         T2         TX        TY        TZ
        (cm-1)    (nm)                  (au**2)     (au)      (au)      (au)
-----------------------------------------------------------------------------
   0    8641.9   1157.1   0.004261749   0.16235   0.08813  -0.31171  -0.23963
   1   14900.1    671.1   0.353388341   7.80796   0.86059   1.96903   1.78613
   2   15676.8    637.9   1.312367408  27.55961  -2.25725  -3.28966  -3.41211
   3   20016.6    499.6   0.058923788   0.96912  -0.14767   0.59924   0.76696
   4   20085.2    497.9   0.235708270   3.86343   0.15826   0.44871   1.90710
   5   21550.8    464.0   0.108991312   1.66496  -0.74148  -1.01691   0.28470
   6   22747.4    439.6   0.318148971   4.60441   0.94156  -1.34614  -1.38050
   7   24270.1    412.0   0.313594930   4.25376   1.95974   0.59793   0.23589
   8   24838.1    402.6   0.040668092   0.53903   0.42383   0.25148   0.54420
   9   25225.2    396.4   0.153040413   1.99731   0.50612  -0.94406  -0.92191
  10   26338.4    379.7   0.119681900   1.49594   1.21504  -0.11686   0.07724
  11   27003.2    370.3   0.202831204   2.47283   0.54097   1.15427   0.92078
  12   27275.2    366.6   0.609140936   7.35233  -1.69416   1.61764   1.36580
  13   28066.2    356.3   0.023712316   0.27814   0.34673  -0.33801  -0.20897
  14   29295.7    341.3   0.002085438   0.02344  -0.06129   0.13697   0.03031
  15   29495.0    339.0   0.016694284   0.18634   0.12698   0.08307   0.40412
  16   29966.1    333.7   0.037713948   0.41433   0.43922  -0.34659  -0.31826
  17   30388.4    329.1   0.003043979   0.03298   0.10852  -0.14552   0.00479
  18   31644.5    316.0   0.537481202   5.59165   1.91584  -0.75019  -1.16552
  19   32135.6    311.2   0.238389133   2.44217   0.98445  -0.96562  -0.73527
  20   32399.0    308.7   0.531089129   5.39649   1.53749  -1.36747  -1.07826
  21   32713.0    305.7   0.242089385   2.43630   1.05999  -0.94145  -0.65299
  22   33385.8    299.5   0.017597165   0.17352  -0.25041   0.28028   0.17962
  23   33988.4    294.2   0.172134280   1.66730  -1.16102   0.46415   0.32232
  24   34646.8    288.6   0.026956727   0.25614   0.47337   0.14723   0.10190
  25   34717.6    288.0   0.012193104   0.11562  -0.28224  -0.07957  -0.17214
  26   34923.6    286.3   0.002515928   0.02372  -0.03442   0.06950   0.13304
  27   34964.8    286.0   0.013592707   0.12798   0.26509  -0.07767  -0.22733
  28   35024.0    285.5   0.011120239   0.10453  -0.31239   0.00631   0.08306
  29   35304.5    283.2   0.260928317   2.43314   0.77595  -0.95016  -0.96345
  30   35596.1    280.9   0.006710824   0.06207  -0.11262   0.10337  -0.19671
  31   35681.4    280.3   0.214485649   1.97894  -0.65552   0.88510   0.87512
  32   36936.9    270.7   0.066069411   0.58887   0.37248  -0.65535  -0.14367
  33   37344.8    267.8   0.008051644   0.07098  -0.16333  -0.12487  -0.16944
  34   37656.8    265.6   0.012661846   0.11070   0.14518  -0.23718  -0.18265
  35   38029.6    263.0   0.001662581   0.01439  -0.00416   0.10519   0.05754
  36   38072.3    262.7   0.019491553   0.16854   0.35306  -0.09022  -0.18909
  37   38430.7    260.2   0.057157980   0.48964  -0.49048   0.28628   0.40878
  38   38555.5    259.4   0.070059009   0.59821   0.54154  -0.34667  -0.42985
  39   38834.8    257.5   0.025644668   0.21740  -0.40377  -0.02334   0.23200
  40   39142.5    255.5   0.044584389   0.37498   0.56209   0.04089  -0.23950
  41   39654.3    252.2   0.007772385   0.06453  -0.18292   0.06760   0.16278
  42   39823.5    251.1   0.017113105   0.14147  -0.25535   0.00068   0.27617
  43   40140.7    249.1   0.009842532   0.08072  -0.15137  -0.23030  -0.06907
  44   40316.5    248.0   0.004574777   0.03736  -0.18565   0.04795   0.02431

FINAL SINGLE POINT ENERGY     -4584.945834910928

DIPOLE MOMENT
-------------
                                X             Y             Z
Electronic contribution:     28.00519     -30.11663     -26.99261
Nuclear contribution   :    -30.31349      31.29249      28.73845
                        -----------------------------------------
Total Dipole Moment    :     -2.30830       1.17586       1.74585
                        -----------------------------------------
Magnitude (a.u.)       :      3.12392
Magnitude (Debye)      :      7.94038

Rotational constants in cm-1:     0.001994     0.000320     0.000285
Rotational constants in MHz :    59.784823     9.598729     8.531392

                             ****ORCA TERMINATED NORMALLY****
TOTAL RUN TIME: 0 days 0 hours 8 minutes 15 seconds 842 msec
