                         Program Version 4.2.0 -  RELEASE  -
|  1> # ORCA input file
|  2> # SCF done       -153.347759815087          0.000706481552
|  3> ! CAM-B3LYP def2-SVP def2/J RIJCOSX Grid4 TightSCF
|  4> %maxcore 5000
|  5> %tddft
|  6>     Mode sTDDFT
|  7>     Ethresh 5.0
|  8>     maxcore 5000
|  9> end
| 10>
| 11> %pal
| 12>   nprocs 6
| 13>   end
| 14> * xyz 0 1
| 15>    C        9.66874       -12.20693        -9.63346
| 16>    C        9.97071       -12.75132        -8.44802
| 17>    C       11.10888       -13.56133        -8.11577
| 18>    C       11.14539       -13.97733        -6.83208
| 19>    C       10.04616       -13.53620        -6.04055
| 20>    S        8.95854       -12.55620        -7.00806
| 21>    C        9.80855       -13.80900        -4.71838
| 22>    C       10.58667       -14.59233        -3.82655
| 23>    C       10.07450       -14.69549        -2.57491
| 24>    C        8.85074       -13.99717        -2.38672
| 25>    S        8.38882       -13.18980        -3.89090
| 26>    C        8.09815       -13.93198        -1.25585
| 27>    N        6.93689       -13.22500        -1.19348
| 28>    C        6.08045       -13.15508        -0.15354
| 29>    S        6.34390       -14.06204         1.30151
| 30>    C        4.84665       -13.44385         1.93516
| 31>    N        4.48329       -13.83763         3.21887
| 32>    O        3.43840       -13.40241         3.67465
| 33>    O        5.25100       -14.59239         3.79983
| 34>    C        4.19675       -12.59930         1.07341
| 35>    C        4.88902       -12.40629        -0.13409
| 36>    C        4.49007       -11.53788        -1.20337
| 37>    C        3.26161       -10.99405        -1.34428
| 38>    C        2.90414       -10.10557        -2.39334
| 39>    S        4.08223        -9.60575        -3.57419
| 40>    C        2.94788        -8.68862        -4.44439
| 41>    C        1.69560        -8.74181        -3.87572
| 42>    C        1.65778        -9.54130        -2.68359
| 43>    C        0.41558        -9.68583        -2.00905
| 44>    C       -0.70279        -9.08885        -2.53074
| 45>    C       -0.66287        -8.31901        -3.70586
| 46>    C        0.51288        -8.12625        -4.37629
| 47>    O        0.62634        -7.38804        -5.50673
| 48>    N        0.32456       -10.44917        -0.81619
| 49>    C       -0.71692       -11.29809        -0.59433
| 50>    S       -1.43282       -11.41203         0.98042
| 51>    C       -2.54518       -12.60436         0.37675
| 52>    N       -3.46592       -13.14444         1.27177
| 53>    O       -4.24357       -13.98428         0.85009
| 54>    O       -3.43157       -12.72731         2.42010
| 55>    C       -2.36687       -12.88294        -0.95217
| 56>    C       -1.31037       -12.15550        -1.53364
| 57>    C       -0.83199       -12.29884        -2.87728
| 58>    C       -1.47108       -12.95016        -3.87918
| 59>    C       -0.93252       -13.05910        -5.17898
| 60>    C       -1.54490       -13.68449        -6.22833
| 61>    C       -1.04249       -13.80899        -7.55246
| 62>    C       -1.85920       -14.48003        -8.40271
| 63>    C       -3.06525       -14.93440        -7.80882
| 64>    S       -3.11629       -14.46845        -6.11799
| 65>    C       -4.08104       -15.63940        -8.40476
| 66>    C       -4.15366       -16.06917        -9.76077
| 67>    C       -5.27673       -16.75212       -10.06991
| 68>    C       -6.18989       -16.92003        -8.97503
| 69>    S       -5.51601       -16.14380        -7.53284
| 70>    C       -7.37079       -17.55196        -8.98279
| 71>    H       10.31202       -12.35150       -10.48328
| 72>    H        8.78386       -11.61396        -9.77523
| 73>    H       11.84905       -13.79515        -8.86026
| 74>    H       11.92399       -14.59072        -6.41439
| 75>    H       11.50162       -15.05848        -4.14436
| 76>    H       10.52547       -15.25091        -1.77240
| 77>    H        8.39941       -14.45091        -0.35878
| 78>    H        6.67722       -12.72270        -2.03612
| 79>    H        3.26589       -12.13169         1.33498
| 80>    H        5.24375       -11.28902        -1.94049
| 81>    H        2.47602       -11.25908        -0.65496
| 82>    H        3.23573        -8.15852        -5.32899
| 83>    H       -1.64787        -9.20959        -2.02347
| 84>    H       -1.57647        -7.87035        -4.06850
| 85>    H       -0.23520        -7.02728        -5.75093
| 86>    H        0.70803       -10.00591         0.00923
| 87>    H       -2.96595       -13.61122        -1.46676
| 88>    H        0.12755       -11.84978        -3.09069
| 89>    H       -2.43957       -13.40042        -3.71220
| 90>    H        0.03561       -12.61068        -5.36333
| 91>    H       -0.08792       -13.39308        -7.82382
| 92>    H       -1.63483       -14.66507        -9.43792
| 93>    H       -3.36406       -15.85332       -10.45872
| 94>    H       -5.50605       -17.15400       -11.04100
| 95>    H       -7.74174       -18.01120        -9.88214
| 96>    H       -7.98050       -17.62201        -8.10089
| 97> *
| 98>
| 99>                          ****END OF INPUT****

CARTESIAN COORDINATES (ANGSTROEM)
---------------------------------
  C      9.668740  -12.206930   -9.633460
  C      9.970710  -12.751320   -8.448020
  C     11.108880  -13.561330   -8.115770
  C     11.145390  -13.977330   -6.832080
  C     10.046160  -13.536200   -6.040550
  S      8.958540  -12.556200   -7.008060
  C      9.808550  -13.809000   -4.718380
  C     10.586670  -14.592330   -3.826550
  C     10.074500  -14.695490   -2.574910
  C      8.850740  -13.997170   -2.386720
  S      8.388820  -13.189800   -3.890900
  C      8.098150  -13.931980   -1.255850
  N      6.936890  -13.225000   -1.193480
  C      6.080450  -13.155080   -0.153540
  S      6.343900  -14.062040    1.301510
  C      4.846650  -13.443850    1.935160
  N      4.483290  -13.837630    3.218870
  O      3.438400  -13.402410    3.674650
  O      5.251000  -14.592390    3.799830
  C      4.196750  -12.599300    1.073410
  C      4.889020  -12.406290   -0.134090
  C      4.490070  -11.537880   -1.203370
  C      3.261610  -10.994050   -1.344280
  C      2.904140  -10.105570   -2.393340
  S      4.082230   -9.605750   -3.574190
  C      2.947880   -8.688620   -4.444390
  C      1.695600   -8.741810   -3.875720
  C      1.657780   -9.541300   -2.683590
  C      0.415580   -9.685830   -2.009050
  C     -0.702790   -9.088850   -2.530740
  C     -0.662870   -8.319010   -3.705860
  C      0.512880   -8.126250   -4.376290
  O      0.626340   -7.388040   -5.506730
  N      0.324560  -10.449170   -0.816190
  C     -0.716920  -11.298090   -0.594330
  S     -1.432820  -11.412030    0.980420
  C     -2.545180  -12.604360    0.376750
  N     -3.465920  -13.144440    1.271770
  O     -4.243570  -13.984280    0.850090
  O     -3.431570  -12.727310    2.420100
  C     -2.366870  -12.882940   -0.952170
  C     -1.310370  -12.155500   -1.533640
  C     -0.831990  -12.298840   -2.877280
  C     -1.471080  -12.950160   -3.879180
  C     -0.932520  -13.059100   -5.178980
  C     -1.544900  -13.684490   -6.228330
  C     -1.042490  -13.808990   -7.552460
  C     -1.859200  -14.480030   -8.402710
  C     -3.065250  -14.934400   -7.808820
  S     -3.116290  -14.468450   -6.117990
  C     -4.081040  -15.639400   -8.404760
  C     -4.153660  -16.069170   -9.760770
  C     -5.276730  -16.752120  -10.069910
  C     -6.189890  -16.920030   -8.975030
  S     -5.516010  -16.143800   -7.532840
  C     -7.370790  -17.551960   -8.982790
  H     10.312020  -12.351500  -10.483280
  H      8.783860  -11.613960   -9.775230
  H     11.849050  -13.795150   -8.860260
  H     11.923990  -14.590720   -6.414390
  H     11.501620  -15.058480   -4.144360
  H     10.525470  -15.250910   -1.772400
  H      8.399410  -14.450910   -0.358780
  H      6.677220  -12.722700   -2.036120
  H      3.265890  -12.131690    1.334980
  H      5.243750  -11.289020   -1.940490
  H      2.476020  -11.259080   -0.654960
  H      3.235730   -8.158520   -5.328990
  H     -1.647870   -9.209590   -2.023470
  H     -1.576470   -7.870350   -4.068500
  H     -0.235200   -7.027280   -5.750930
  H      0.708030  -10.005910    0.009230
  H     -2.965950  -13.611220   -1.466760
  H      0.127550  -11.849780   -3.090690
  H     -2.439570  -13.400420   -3.712200
  H      0.035610  -12.610680   -5.363330
  H     -0.087920  -13.393080   -7.823820
  H     -1.634830  -14.665070   -9.437920
  H     -3.364060  -15.853320  -10.458720
  H     -5.506050  -17.154000  -11.041000
  H     -7.741740  -18.011200   -9.882140
  H     -7.980500  -17.622010   -8.100890

 Total Charge           Charge          ....    0
 Multiplicity           Mult            ....    1
 Number of Electrons    NEL             ....  446
 Basis Dimension        Dim             ....  942

ORBITAL ENERGIES
----------------

  NO   OCC          E(Eh)            E(eV)
   0   2.0000     -88.979814     -2421.2638
   1   2.0000     -88.974877     -2421.1295
   2   2.0000     -88.970028     -2420.9975
   3   2.0000     -88.952192     -2420.5122
   4   2.0000     -88.940360     -2420.1902
   5   2.0000     -88.935095     -2420.0470
   6   2.0000     -88.931430     -2419.9472
   7   2.0000     -19.263113      -524.1759
   8   2.0000     -19.226060      -523.1677
   9   2.0000     -19.225456      -523.1512
  10   2.0000     -19.220006      -523.0030
  11   2.0000     -19.219192      -522.9808
  12   2.0000     -14.637834      -398.3157
  13   2.0000     -14.631727      -398.1495
  14   2.0000     -14.487902      -394.2358
  15   2.0000     -14.458020      -393.4227
  16   2.0000     -10.366393      -282.0839
  17   2.0000     -10.353797      -281.7411
  18   2.0000     -10.349990      -281.6375
  19   2.0000     -10.335914      -281.2545
  20   2.0000     -10.333453      -281.1875
  21   2.0000     -10.325883      -280.9816
  22   2.0000     -10.318339      -280.7763
  23   2.0000     -10.315243      -280.6920
  24   2.0000     -10.313290      -280.6389
  25   2.0000     -10.311673      -280.5949
  26   2.0000     -10.310847      -280.5724
  27   2.0000     -10.308405      -280.5060
  28   2.0000     -10.306693      -280.4594
  29   2.0000     -10.303954      -280.3848
  30   2.0000     -10.302683      -280.3503
  31   2.0000     -10.302260      -280.3387
  32   2.0000     -10.300120      -280.2805
  33   2.0000     -10.298796      -280.2445
  34   2.0000     -10.294899      -280.1384
  35   2.0000     -10.294837      -280.1368
  36   2.0000     -10.294554      -280.1291
  37   2.0000     -10.293274      -280.0942
  38   2.0000     -10.291786      -280.0537
  39   2.0000     -10.291445      -280.0445
  40   2.0000     -10.291356      -280.0420
  41   2.0000     -10.291023      -280.0330
  42   2.0000     -10.288876      -279.9745
  43   2.0000     -10.285963      -279.8953
  44   2.0000     -10.285153      -279.8732
  45   2.0000     -10.283905      -279.8393
  46   2.0000     -10.282440      -279.7994
  47   2.0000     -10.282058      -279.7890
  48   2.0000     -10.278760      -279.6993
  49   2.0000     -10.278454      -279.6909
  50   2.0000     -10.276673      -279.6425
  51   2.0000     -10.274404      -279.5808
  52   2.0000     -10.271495      -279.5016
  53   2.0000     -10.270971      -279.4873
  54   2.0000     -10.270796      -279.4826
  55   2.0000     -10.263231      -279.2767
  56   2.0000      -8.075260      -219.7390
  57   2.0000      -8.070211      -219.6016
  58   2.0000      -8.065929      -219.4851
  59   2.0000      -8.048522      -219.0114
  60   2.0000      -8.037061      -218.6996
  61   2.0000      -8.031433      -218.5464
  62   2.0000      -8.028119      -218.4562
  63   2.0000      -6.045001      -164.4928
  64   2.0000      -6.040625      -164.3738
  65   2.0000      -6.039132      -164.3331
  66   2.0000      -6.036541      -164.2626
  67   2.0000      -6.035536      -164.2353
  68   2.0000      -6.034894      -164.2178
  69   2.0000      -6.033295      -164.1743
  70   2.0000      -6.031280      -164.1195
  71   2.0000      -6.027309      -164.0114
  72   2.0000      -6.018416      -163.7694
  73   2.0000      -6.014535      -163.6638
  74   2.0000      -6.009042      -163.5143
  75   2.0000      -6.006909      -163.4563
  76   2.0000      -6.003047      -163.3512
  77   2.0000      -6.001197      -163.3009
  78   2.0000      -5.997959      -163.2128
  79   2.0000      -5.997525      -163.2010
  80   2.0000      -5.997318      -163.1953
  81   2.0000      -5.994057      -163.1066
  82   2.0000      -5.992122      -163.0539
  83   2.0000      -5.988607      -162.9583
  84   2.0000      -1.305254       -35.5178
  85   2.0000      -1.299587       -35.3636
  86   2.0000      -1.157947       -31.5093
  87   2.0000      -1.124368       -30.5956
  88   2.0000      -1.118323       -30.4311
  89   2.0000      -1.094965       -29.7955
  90   2.0000      -1.068971       -29.0882
  91   2.0000      -1.004110       -27.3232
  92   2.0000      -1.001810       -27.2606
  93   2.0000      -0.992678       -27.0121
  94   2.0000      -0.985468       -26.8159
  95   2.0000      -0.984858       -26.7994
  96   2.0000      -0.970718       -26.4146
  97   2.0000      -0.962458       -26.1898
  98   2.0000      -0.935035       -25.4436
  99   2.0000      -0.916690       -24.9444
 100   2.0000      -0.908729       -24.7278
 101   2.0000      -0.896721       -24.4010
 102   2.0000      -0.883746       -24.0480
 103   2.0000      -0.878690       -23.9104
 104   2.0000      -0.871123       -23.7045
 105   2.0000      -0.860721       -23.4214
 106   2.0000      -0.852073       -23.1861
 107   2.0000      -0.850857       -23.1530
 108   2.0000      -0.848632       -23.0925
 109   2.0000      -0.842600       -22.9283
 110   2.0000      -0.838183       -22.8081
 111   2.0000      -0.832650       -22.6576
 112   2.0000      -0.824503       -22.4359
 113   2.0000      -0.820000       -22.3133
 114   2.0000      -0.808890       -22.0110
 115   2.0000      -0.801276       -21.8038
 116   2.0000      -0.791903       -21.5488
 117   2.0000      -0.778218       -21.1764
 118   2.0000      -0.761177       -20.7127
 119   2.0000      -0.757590       -20.6151
 120   2.0000      -0.732766       -19.9396
 121   2.0000      -0.728090       -19.8123
 122   2.0000      -0.724781       -19.7223
 123   2.0000      -0.716288       -19.4912
 124   2.0000      -0.699583       -19.0366
 125   2.0000      -0.695492       -18.9253
 126   2.0000      -0.685263       -18.6470
 127   2.0000      -0.679764       -18.4973
 128   2.0000      -0.665454       -18.1079
 129   2.0000      -0.658770       -17.9260
 130   2.0000      -0.654695       -17.8152
 131   2.0000      -0.648473       -17.6459
 132   2.0000      -0.642175       -17.4745
 133   2.0000      -0.637052       -17.3351
 134   2.0000      -0.631079       -17.1725
 135   2.0000      -0.626089       -17.0368
 136   2.0000      -0.621154       -16.9025
 137   2.0000      -0.619781       -16.8651
 138   2.0000      -0.619346       -16.8533
 139   2.0000      -0.619046       -16.8451
 140   2.0000      -0.616369       -16.7722
 141   2.0000      -0.612756       -16.6739
 142   2.0000      -0.608199       -16.5499
 143   2.0000      -0.602829       -16.4038
 144   2.0000      -0.600902       -16.3514
 145   2.0000      -0.595038       -16.1918
 146   2.0000      -0.591389       -16.0925
 147   2.0000      -0.588686       -16.0189
 148   2.0000      -0.583995       -15.8913
 149   2.0000      -0.578125       -15.7316
 150   2.0000      -0.574385       -15.6298
 151   2.0000      -0.567995       -15.4559
 152   2.0000      -0.556374       -15.1397
 153   2.0000      -0.551404       -15.0045
 154   2.0000      -0.549237       -14.9455
 155   2.0000      -0.545066       -14.8320
 156   2.0000      -0.541279       -14.7289
 157   2.0000      -0.538685       -14.6584
 158   2.0000      -0.535972       -14.5845
 159   2.0000      -0.528037       -14.3686
 160   2.0000      -0.523690       -14.2503
 161   2.0000      -0.519763       -14.1435
 162   2.0000      -0.516272       -14.0485
 163   2.0000      -0.515398       -14.0247
 164   2.0000      -0.507424       -13.8077
 165   2.0000      -0.501633       -13.6501
 166   2.0000      -0.500095       -13.6083
 167   2.0000      -0.497786       -13.5454
 168   2.0000      -0.494890       -13.4667
 169   2.0000      -0.493056       -13.4167
 170   2.0000      -0.489824       -13.3288
 171   2.0000      -0.488267       -13.2864
 172   2.0000      -0.487191       -13.2571
 173   2.0000      -0.484749       -13.1907
 174   2.0000      -0.481079       -13.0908
 175   2.0000      -0.480056       -13.0630
 176   2.0000      -0.476991       -12.9796
 177   2.0000      -0.473464       -12.8836
 178   2.0000      -0.470674       -12.8077
 179   2.0000      -0.466314       -12.6890
 180   2.0000      -0.465450       -12.6655
 181   2.0000      -0.459252       -12.4969
 182   2.0000      -0.456259       -12.4154
 183   2.0000      -0.452978       -12.3262
 184   2.0000      -0.447501       -12.1771
 185   2.0000      -0.446895       -12.1606
 186   2.0000      -0.446161       -12.1406
 187   2.0000      -0.444248       -12.0886
 188   2.0000      -0.438268       -11.9259
 189   2.0000      -0.434476       -11.8227
 190   2.0000      -0.428735       -11.6665
 191   2.0000      -0.426835       -11.6148
 192   2.0000      -0.421356       -11.4657
 193   2.0000      -0.419927       -11.4268
 194   2.0000      -0.411810       -11.2059
 195   2.0000      -0.407020       -11.0756
 196   2.0000      -0.403813       -10.9883
 197   2.0000      -0.403569       -10.9817
 198   2.0000      -0.390422       -10.6239
 199   2.0000      -0.389523       -10.5995
 200   2.0000      -0.386027       -10.5043
 201   2.0000      -0.374703       -10.1962
 202   2.0000      -0.372021       -10.1232
 203   2.0000      -0.368671       -10.0320
 204   2.0000      -0.367435        -9.9984
 205   2.0000      -0.360111        -9.7991
 206   2.0000      -0.354996        -9.6599
 207   2.0000      -0.353860        -9.6290
 208   2.0000      -0.348365        -9.4795
 209   2.0000      -0.343824        -9.3559
 210   2.0000      -0.338604        -9.2139
 211   2.0000      -0.336538        -9.1577
 212   2.0000      -0.331296        -9.0150
 213   2.0000      -0.328371        -8.9354
 214   2.0000      -0.325648        -8.8613
 215   2.0000      -0.319120        -8.6837
 216   2.0000      -0.315770        -8.5925
 217   2.0000      -0.299987        -8.1631
 218   2.0000      -0.286055        -7.7839
 219   2.0000      -0.267877        -7.2893
 220   2.0000      -0.243356        -6.6221
 221   2.0000      -0.217651        -5.9226
 222   2.0000      -0.209368        -5.6972
 223   0.0000      -0.068129        -1.8539
 224   0.0000      -0.060881        -1.6567
 225   0.0000      -0.054846        -1.4924
 226   0.0000      -0.038832        -1.0567
 227   0.0000      -0.034056        -0.9267

MULLIKEN ATOMIC CHARGES
-----------------------
   0 C :   -0.031252
   1 C :   -0.062422
   2 C :    0.049817
   3 C :    0.031498
   4 C :   -0.069187
   5 S :    0.067743
   6 C :   -0.044450
   7 C :    0.026442
   8 C :    0.043039
   9 C :   -0.043914
  10 S :    0.026779
  11 C :    0.025417
  12 N :   -0.029552
  13 C :   -0.115875
  14 S :    0.148921
  15 C :   -0.010182
  16 N :    0.280377
  17 O :   -0.259279
  18 O :   -0.275253
  19 C :    0.006796
  20 C :    0.135645
  21 C :   -0.064118
  22 C :    0.003959
  23 C :   -0.192896
  24 S :    0.140356
  25 C :   -0.123947
  26 C :    0.027274
  27 C :    0.181225
  28 C :   -0.031586
  29 C :    0.027711
  30 C :   -0.100908
  31 C :    0.184016
  32 O :   -0.178986
  33 N :   -0.068483
  34 C :   -0.119918
  35 S :    0.161251
  36 C :   -0.014839
  37 N :    0.281043
  38 O :   -0.260762
  39 O :   -0.273474
  40 C :   -0.006086
  41 C :    0.096957
  42 C :   -0.003180
  43 C :    0.006241
  44 C :   -0.023052
  45 C :   -0.014453
  46 C :    0.035870
  47 C :    0.025911
  48 C :   -0.046377
  49 S :    0.064529
  50 C :   -0.071084
  51 C :    0.028683
  52 C :    0.051232
  53 C :   -0.063869
  54 S :    0.078378
  55 C :   -0.031367
  56 H :    0.019821
  57 H :    0.019662
  58 H :   -0.011226
  59 H :   -0.011883
  60 H :   -0.013034
  61 H :   -0.009835
  62 H :    0.025114
  63 H :    0.149827
  64 H :    0.000897
  65 H :   -0.021875
  66 H :   -0.024965
  67 H :    0.029172
  68 H :   -0.012398
  69 H :   -0.037343
  70 H :    0.188159
  71 H :    0.147356
  72 H :    0.008856
  73 H :   -0.003836
  74 H :   -0.005250
  75 H :   -0.019612
  76 H :   -0.017265
  77 H :   -0.017198
  78 H :   -0.014041
  79 H :   -0.014301
  80 H :    0.017188
  81 H :    0.021651
Sum of atomic charges:   -0.0000000

LOEWDIN ATOMIC CHARGES
----------------------
   0 C :   -0.080502
   1 C :   -0.138272
   2 C :   -0.033083
   3 C :   -0.025758
   4 C :   -0.183139
   5 S :    0.341330
   6 C :   -0.174957
   7 C :   -0.038616
   8 C :   -0.029576
   9 C :   -0.181502
  10 S :    0.331173
  11 C :   -0.014629
  12 N :    0.048933
  13 C :   -0.100399
  14 S :    0.448504
  15 C :   -0.214525
  16 N :    0.274121
  17 O :   -0.225376
  18 O :   -0.241591
  19 C :    0.004792
  20 C :   -0.107151
  21 C :   -0.046372
  22 C :   -0.043305
  23 C :   -0.184746
  24 S :    0.486470
  25 C :   -0.176313
  26 C :   -0.070221
  27 C :   -0.050188
  28 C :   -0.021974
  29 C :   -0.011789
  30 C :   -0.098524
  31 C :    0.066928
  32 O :   -0.045257
  33 N :   -0.001477
  34 C :   -0.105150
  35 S :    0.442333
  36 C :   -0.216580
  37 N :    0.274588
  38 O :   -0.225852
  39 O :   -0.239734
  40 C :    0.006309
  41 C :   -0.107253
  42 C :   -0.019471
  43 C :   -0.032841
  44 C :   -0.058067
  45 C :   -0.147394
  46 C :   -0.035040
  47 C :   -0.033600
  48 C :   -0.179785
  49 S :    0.357214
  50 C :   -0.180874
  51 C :   -0.027405
  52 C :   -0.034028
  53 C :   -0.139061
  54 S :    0.349192
  55 C :   -0.080261
  56 H :    0.028607
  57 H :    0.025441
  58 H :    0.033550
  59 H :    0.032316
  60 H :    0.032571
  61 H :    0.034602
  62 H :    0.030909
  63 H :    0.085683
  64 H :    0.041373
  65 H :    0.011179
  66 H :    0.026586
  67 H :    0.030159
  68 H :    0.036529
  69 H :    0.027477
  70 H :    0.100534
  71 H :    0.083801
  72 H :    0.044155
  73 H :    0.032749
  74 H :    0.020693
  75 H :    0.031791
  76 H :    0.031753
  77 H :    0.030120
  78 H :    0.031173
  79 H :    0.032295
  80 H :    0.027601
  81 H :    0.026103

  Mayer bond orders larger than 0.100000
B(  0-C ,  1-C ) :   1.8687 B(  0-C , 56-H ) :   0.9501 B(  0-C , 57-H ) :   0.9413
B(  1-C ,  2-C ) :   1.0793 B(  1-C ,  5-S ) :   1.0061 B(  2-C ,  3-C ) :   1.6673
B(  2-C , 58-H ) :   0.9924 B(  3-C ,  4-C ) :   1.1483 B(  3-C , 59-H ) :   0.9916
B(  4-C ,  5-S ) :   1.0367 B(  4-C ,  6-C ) :   1.5792 B(  6-C ,  7-C ) :   1.1616
B(  6-C , 10-S ) :   1.0325 B(  7-C ,  8-C ) :   1.6362 B(  7-C , 60-H ) :   0.9918
B(  8-C ,  9-C ) :   1.1390 B(  8-C , 61-H ) :   0.9945 B(  9-C , 10-S ) :   1.0065
B(  9-C , 11-C ) :   1.6299 B( 11-C , 12-N ) :   1.1261 B( 11-C , 62-H ) :   0.9590
B( 12-N , 13-C ) :   1.2516 B( 12-N , 63-H ) :   0.9017 B( 13-C , 14-S ) :   1.1288
B( 13-C , 20-C ) :   1.3320 B( 14-S , 15-C ) :   1.0599 B( 15-C , 16-N ) :   0.9901
B( 15-C , 19-C ) :   1.4795 B( 16-N , 17-O ) :   1.5209 B( 16-N , 18-O ) :   1.4977
B( 17-O , 18-O ) :   0.2507 B( 19-C , 20-C ) :   1.2419 B( 19-C , 64-H ) :   0.9993
B( 20-C , 21-C ) :   1.0733 B( 21-C , 22-C ) :   1.7009 B( 21-C , 65-H ) :   0.9605
B( 22-C , 23-C ) :   1.1523 B( 22-C , 66-H ) :   0.9616 B( 23-C , 24-S ) :   1.1457
B( 23-C , 25-C ) :   0.1046 B( 23-C , 27-C ) :   1.3660 B( 24-S , 25-C ) :   1.2044
B( 25-C , 26-C ) :   1.4392 B( 25-C , 67-H ) :   0.9710 B( 26-C , 27-C ) :   1.2145
B( 26-C , 31-C ) :   1.1424 B( 27-C , 28-C ) :   1.2117 B( 28-C , 29-C ) :   1.5597
B( 28-C , 33-N ) :   0.9936 B( 29-C , 30-C ) :   1.1577 B( 29-C , 68-H ) :   0.9849
B( 30-C , 31-C ) :   1.4654 B( 30-C , 69-H ) :   0.9919 B( 31-C , 32-O ) :   1.2679
B( 32-O , 70-H ) :   0.9570 B( 33-N , 34-C ) :   1.1990 B( 33-N , 71-H ) :   0.9032
B( 34-C , 35-S ) :   1.1376 B( 34-C , 41-C ) :   1.3647 B( 35-S , 36-C ) :   1.0684
B( 36-C , 37-N ) :   0.9841 B( 36-C , 40-C ) :   1.4751 B( 37-N , 38-O ) :   1.5245
B( 37-N , 39-O ) :   1.5025 B( 38-O , 39-O ) :   0.2522 B( 40-C , 41-C ) :   1.2337
B( 40-C , 72-H ) :   1.0026 B( 41-C , 42-C ) :   1.0695 B( 42-C , 43-C ) :   1.6758
B( 42-C , 73-H ) :   0.9765 B( 43-C , 44-C ) :   1.1330 B( 43-C , 74-H ) :   0.9691
B( 44-C , 45-C ) :   1.5888 B( 44-C , 75-H ) :   0.9843 B( 45-C , 46-C ) :   1.1252
B( 45-C , 49-S ) :   1.0226 B( 46-C , 47-C ) :   1.6149 B( 46-C , 76-H ) :   0.9987
B( 47-C , 48-C ) :   1.1668 B( 47-C , 77-H ) :   0.9925 B( 48-C , 49-S ) :   1.0346
B( 48-C , 50-C ) :   1.5655 B( 50-C , 51-C ) :   1.1498 B( 50-C , 54-S ) :   1.0409
B( 51-C , 52-C ) :   1.6654 B( 51-C , 78-H ) :   0.9910 B( 52-C , 53-C ) :   1.0783
B( 52-C , 79-H ) :   0.9924 B( 53-C , 54-S ) :   1.0084 B( 53-C , 55-C ) :   1.8657
B( 55-C , 80-H ) :   0.9505 B( 55-C , 81-H ) :   0.9415

-----------------------------------------------------------------------------
         ABSORPTION SPECTRUM VIA TRANSITION ELECTRIC DIPOLE MOMENTS
-----------------------------------------------------------------------------
State   Energy  Wavelength   fosc         T2         TX        TY        TZ
        (cm-1)    (nm)                  (au**2)     (au)      (au)      (au)
-----------------------------------------------------------------------------
   0   18014.0    555.1   0.958940632  17.52499  -3.64097  -0.22320   2.05391
   1   18810.5    531.6   1.070621869  18.73748   1.34126   2.22645   3.46142
   2   19937.7    501.6   0.536873446   8.86488  -0.90774  -0.94083  -2.67502
   3   21257.5    470.4   0.515106040   7.97737  -0.32424   1.16995  -2.55019
   4   22195.3    450.5   0.006134474   0.09099  -0.26213  -0.07228  -0.13059
   5   23076.1    433.3   0.154382719   2.20247   1.18681   0.89094  -0.01363
   6   23710.5    421.8   0.035865724   0.49798   0.45447   0.32992   0.42731
   7   24763.1    403.8   0.350833893   4.66415  -0.54558   1.24133  -1.68095
   8   25624.0    390.3   0.008323757   0.10694  -0.04596   0.32048  -0.04607
   9   26145.0    382.5   0.303277599   3.81880   0.09687  -0.79765   1.78134
  10   27054.6    369.6   0.056008264   0.68153  -0.69611   0.15189  -0.41700
  11   27303.9    366.2   0.084311942   1.01658   0.82922   0.34931  -0.45492
  12   28391.9    352.2   0.005330182   0.06180  -0.05852  -0.18791   0.15189
  13   28755.0    347.8   0.029540192   0.33820  -0.41062   0.09128  -0.40158
  14   29953.3    333.9   0.201677647   2.21661  -1.03639   0.60416  -0.88175
  15   30761.0    325.1   0.013213434   0.14141  -0.09976  -0.20149   0.30143
  16   31080.0    321.8   0.245363784   2.59899   0.96393   0.77972  -1.03047
  17   31658.7    315.9   0.133310926   1.38627  -0.74152  -0.06219   0.91244
  18   31993.9    312.6   0.028378866   0.29201   0.17231  -0.35200   0.37205
  19   32207.7    310.5   0.059427668   0.60744   0.46162  -0.27719  -0.56348
  20   33256.6    300.7   0.006148167   0.06086  -0.24444  -0.01678  -0.02881
  21   33348.2    299.9   0.002624167   0.02591   0.11774  -0.10628   0.02735
  22   34258.5    291.9   0.060739793   0.58369   0.60657   0.20302  -0.41779
  23   34402.4    290.7   0.132738936   1.27024   1.03083  -0.14446  -0.43215
  24   34515.5    289.7   0.013271584   0.12659   0.00192   0.19930  -0.29473
  25   34569.3    289.3   0.004662912   0.04441  -0.12646  -0.08577   0.14511
  26   34824.7    287.2   0.108163162   1.02251  -0.34241  -0.78919   0.53146
  27   35113.5    284.8   0.057885816   0.54272  -0.68816   0.18692   0.18499
  28   36377.0    274.9   0.063279203   0.57268   0.39681  -0.44615   0.46493
  29   37153.6    269.2   0.074821769   0.66298   0.20910  -0.10931  -0.77930
  30   37240.6    268.5   0.120167879   1.06230   0.14597  -0.25480  -0.98796
  31   37538.6    266.4   0.009513939   0.08344   0.04919  -0.14769   0.24332
  32   37844.8    264.2   0.008796634   0.07652  -0.12265   0.08674  -0.23228
  33   38116.6    262.4   0.003173184   0.02741  -0.01284  -0.00794   0.16486
  34   38600.2    259.1   0.023676664   0.20193  -0.12017   0.17610   0.39558
  35   38784.3    257.8   0.046172796   0.39193   0.02721  -0.03074   0.62469
  36   38979.2    256.5   0.001180900   0.00997   0.04744  -0.07186   0.05059
  37   39593.2    252.6   0.070153845   0.58332  -0.05646  -0.23109   0.72576
  38   39738.4    251.6   0.028285572   0.23433  -0.30731   0.02407   0.37325
  39   39842.8    251.0   0.082636443   0.68281   0.26504   0.42347  -0.65820
  40   40107.9    249.3   0.009154803   0.07514   0.19953  -0.04343  -0.18288

FINAL SINGLE POINT ENERGY     -4918.535077862910

DIPOLE MOMENT
-------------
                                X             Y             Z
Electronic contribution:     -0.48628       3.62733      37.85915
Nuclear contribution   :      3.50706      -1.77159     -42.61749
                        -----------------------------------------
Total Dipole Moment    :      3.02079       1.85573      -4.75834
                        -----------------------------------------
Magnitude (a.u.)       :      5.93386
Magnitude (Debye)      :     15.08267

Rotational constants in cm-1:     0.001039     0.000606     0.000466
Rotational constants in MHz :    31.154836    18.157049    13.959468

                             ****ORCA TERMINATED NORMALLY****
TOTAL RUN TIME: 0 days 0 hours 5 minutes 54 seconds 128 msec
