                         Program Version 4.2.0 -  RELEASE  -
|  1> # ORCA input file
|  2> # SCF done       -189.248785659455          0.000683520834
|  3> ! CAM-B3LYP def2-SVP def2/J RIJCOSX Grid4 TightSCF
|  4> %maxcore 5000
|  5> %tddft
|  6>     Mode sTDDFT
|  7>     Ethresh 5.0
|  8>     maxcore 5000
|  9> end
| 10>
| 11> %pal
| 12>   nprocs 6
| 13>   end
| 14> * xyz 0 1
| 15>    C       -1.28451        -9.12128        -7.88725
| 16>    C       -0.76095        -7.88908        -7.81554
| 17>    C       -1.27481        -6.67971        -8.39288
| 18>    C       -0.51830        -5.58690        -8.14727
| 19>    C        0.64102        -5.84714        -7.36182
| 20>    S        0.74184        -7.53456        -6.94613
| 21>    C        1.59521        -4.93816        -6.94609
| 22>    C        1.65709        -3.55454        -7.21045
| 23>    C        2.74056        -2.95610        -6.64207
| 24>    C        3.58152        -3.82683        -5.90140
| 25>    S        2.95587        -5.45153        -5.95916
| 26>    C        4.70995        -3.36525        -5.24882
| 27>    C        5.66380        -3.99751        -4.44473
| 28>    C        5.71778        -5.38059        -4.10971
| 29>    C        6.73712        -5.91805        -3.23769
| 30>    N        6.63455        -7.19090        -2.82293
| 31>    C        5.70805        -7.96511        -3.32474
| 32>    C        4.79336        -7.47725        -4.30738
| 33>    N        4.80468        -6.19674        -4.62486
| 34>    C        3.85291        -8.34213        -4.90661
| 35>    N        3.10754        -9.08562        -5.36272
| 36>    C        5.62365        -9.30496        -2.86842
| 37>    N        5.55866       -10.39614        -2.52592
| 38>    C        7.79416        -5.13069        -2.74058
| 39>    C        7.76530        -3.76116        -3.08216
| 40>    C        6.71884        -3.20778        -3.90256
| 41>    N        6.88686        -1.90568        -4.11373
| 42>    S        8.23309        -1.42470        -3.37211
| 43>    N        8.67211        -2.83992        -2.75469
| 44>    C        8.83359        -5.69504        -1.92208
| 45>    C        9.34479        -5.00730        -0.80109
| 46>    C       10.42195        -5.54338        -0.00482
| 47>    N       11.02118        -4.74991         0.89288
| 48>    C       10.51827        -3.57542         1.16169
| 49>    C        9.27509        -3.16875         0.56237
| 50>    N        8.75859        -3.86685        -0.41240
| 51>    C        8.61180        -1.99847         1.00126
| 52>    N        8.10688        -1.03640         1.36635
| 53>    C       11.19507        -2.72212         2.06483
| 54>    N       11.70963        -2.01842         2.80891
| 55>    C       10.91303        -6.85217        -0.19952
| 56>    C       10.37290        -7.55573        -1.29316
| 57>    C        9.37776        -6.97072        -2.16275
| 58>    N        9.06408        -7.79022        -3.17163
| 59>    S        9.86995        -9.16196        -3.00055
| 60>    N       10.67989        -8.80195        -1.66776
| 61>    C       11.90498        -7.42307         0.67019
| 62>    C       12.93838        -8.24362         0.17611
| 63>    C       13.86773        -8.92378         1.04834
| 64>    N       14.75140        -9.76764         0.52663
| 65>    C       14.82081        -9.94473        -0.77889
| 66>    C       14.00647        -9.14708        -1.63987
| 67>    N       13.10448        -8.33524        -1.15281
| 68>    C       14.16723        -9.21936        -3.04682
| 69>    N       14.30054        -9.30754        -4.18113
| 70>    C       15.72382       -10.88861        -1.31306
| 71>    N       16.44003       -11.64338        -1.79664
| 72>    C       13.86136        -8.72678         2.45864
| 73>    C       12.85922        -7.83211         2.93441
| 74>    C       11.89307        -7.20964         2.06622
| 75>    N       11.00889        -6.48667         2.75448
| 76>    S       11.38015        -6.54394         4.31536
| 77>    N       12.66069        -7.51471         4.21031
| 78>    C       14.69960        -9.33951         3.39544
| 79>    C       15.71480       -10.27095         3.27546
| 80>    C       16.41565       -10.75879         4.40890
| 81>    C       17.37196       -11.68865         4.13299
| 82>    C       17.47215       -11.97779         2.75672
| 83>    S       16.32006       -11.02880         1.82863
| 84>    C       18.31983       -12.87034         2.12856
| 85>    C       19.29824       -13.70885         2.73547
| 86>    C       19.97902       -14.48346         1.86179
| 87>    C       19.58226       -14.30973         0.49344
| 88>    S       18.29223       -13.09832         0.40319
| 89>    C       20.06978       -14.93256        -0.58908
| 90>    H       -2.19807        -9.30316        -8.42617
| 91>    H       -0.80852        -9.96108        -7.41463
| 92>    H       -2.18638        -6.68431        -8.96361
| 93>    H       -0.74732        -4.59637        -8.49802
| 94>    H        0.92125        -3.03766        -7.80057
| 95>    H        2.96581        -1.90722        -6.72585
| 96>    H        4.89490        -2.30302        -5.36645
| 97>    H       14.49640        -9.02413         4.41309
| 98>    H       16.18400       -10.40429         5.39813
| 99>    H       17.98945       -12.15981         4.87703
|100>    H       19.45841       -13.70482         3.79893
|101>    H       20.75409       -15.18007         2.12772
|102>    H       20.85508       -15.66288        -0.49975
|103>    H       19.69563       -14.72024        -1.57400
|104> *
|105>
|106>                          ****END OF INPUT****

CARTESIAN COORDINATES (ANGSTROEM)
---------------------------------
  C     -1.284510   -9.121280   -7.887250
  C     -0.760950   -7.889080   -7.815540
  C     -1.274810   -6.679710   -8.392880
  C     -0.518300   -5.586900   -8.147270
  C      0.641020   -5.847140   -7.361820
  S      0.741840   -7.534560   -6.946130
  C      1.595210   -4.938160   -6.946090
  C      1.657090   -3.554540   -7.210450
  C      2.740560   -2.956100   -6.642070
  C      3.581520   -3.826830   -5.901400
  S      2.955870   -5.451530   -5.959160
  C      4.709950   -3.365250   -5.248820
  C      5.663800   -3.997510   -4.444730
  C      5.717780   -5.380590   -4.109710
  C      6.737120   -5.918050   -3.237690
  N      6.634550   -7.190900   -2.822930
  C      5.708050   -7.965110   -3.324740
  C      4.793360   -7.477250   -4.307380
  N      4.804680   -6.196740   -4.624860
  C      3.852910   -8.342130   -4.906610
  N      3.107540   -9.085620   -5.362720
  C      5.623650   -9.304960   -2.868420
  N      5.558660  -10.396140   -2.525920
  C      7.794160   -5.130690   -2.740580
  C      7.765300   -3.761160   -3.082160
  C      6.718840   -3.207780   -3.902560
  N      6.886860   -1.905680   -4.113730
  S      8.233090   -1.424700   -3.372110
  N      8.672110   -2.839920   -2.754690
  C      8.833590   -5.695040   -1.922080
  C      9.344790   -5.007300   -0.801090
  C     10.421950   -5.543380   -0.004820
  N     11.021180   -4.749910    0.892880
  C     10.518270   -3.575420    1.161690
  C      9.275090   -3.168750    0.562370
  N      8.758590   -3.866850   -0.412400
  C      8.611800   -1.998470    1.001260
  N      8.106880   -1.036400    1.366350
  C     11.195070   -2.722120    2.064830
  N     11.709630   -2.018420    2.808910
  C     10.913030   -6.852170   -0.199520
  C     10.372900   -7.555730   -1.293160
  C      9.377760   -6.970720   -2.162750
  N      9.064080   -7.790220   -3.171630
  S      9.869950   -9.161960   -3.000550
  N     10.679890   -8.801950   -1.667760
  C     11.904980   -7.423070    0.670190
  C     12.938380   -8.243620    0.176110
  C     13.867730   -8.923780    1.048340
  N     14.751400   -9.767640    0.526630
  C     14.820810   -9.944730   -0.778890
  C     14.006470   -9.147080   -1.639870
  N     13.104480   -8.335240   -1.152810
  C     14.167230   -9.219360   -3.046820
  N     14.300540   -9.307540   -4.181130
  C     15.723820  -10.888610   -1.313060
  N     16.440030  -11.643380   -1.796640
  C     13.861360   -8.726780    2.458640
  C     12.859220   -7.832110    2.934410
  C     11.893070   -7.209640    2.066220
  N     11.008890   -6.486670    2.754480
  S     11.380150   -6.543940    4.315360
  N     12.660690   -7.514710    4.210310
  C     14.699600   -9.339510    3.395440
  C     15.714800  -10.270950    3.275460
  C     16.415650  -10.758790    4.408900
  C     17.371960  -11.688650    4.132990
  C     17.472150  -11.977790    2.756720
  S     16.320060  -11.028800    1.828630
  C     18.319830  -12.870340    2.128560
  C     19.298240  -13.708850    2.735470
  C     19.979020  -14.483460    1.861790
  C     19.582260  -14.309730    0.493440
  S     18.292230  -13.098320    0.403190
  C     20.069780  -14.932560   -0.589080
  H     -2.198070   -9.303160   -8.426170
  H     -0.808520   -9.961080   -7.414630
  H     -2.186380   -6.684310   -8.963610
  H     -0.747320   -4.596370   -8.498020
  H      0.921250   -3.037660   -7.800570
  H      2.965810   -1.907220   -6.725850
  H      4.894900   -2.303020   -5.366450
  H     14.496400   -9.024130    4.413090
  H     16.184000  -10.404290    5.398130
  H     17.989450  -12.159810    4.877030
  H     19.458410  -13.704820    3.798930
  H     20.754090  -15.180070    2.127720
  H     20.855080  -15.662880   -0.499750
  H     19.695630  -14.720240   -1.574000

 Total Charge           Charge          ....    0
 Multiplicity           Mult            ....    1
 Number of Electrons    NEL             ....  552
 Basis Dimension        Dim             .... 1148

ORBITAL ENERGIES
----------------

  NO   OCC          E(Eh)            E(eV)
   0   2.0000     -89.027113     -2422.5509
   1   2.0000     -89.022842     -2422.4347
   2   2.0000     -89.022764     -2422.4326
   3   2.0000     -88.961313     -2420.7604
   4   2.0000     -88.960984     -2420.7514
   5   2.0000     -88.956720     -2420.6354
   6   2.0000     -88.956467     -2420.6285
   7   2.0000     -14.453517      -393.3002
   8   2.0000     -14.453468      -393.2989
   9   2.0000     -14.438555      -392.8930
  10   2.0000     -14.438441      -392.8900
  11   2.0000     -14.437827      -392.8733
  12   2.0000     -14.437695      -392.8697
  13   2.0000     -14.437636      -392.8681
  14   2.0000     -14.437448      -392.8629
  15   2.0000     -14.431039      -392.6885
  16   2.0000     -14.430919      -392.6853
  17   2.0000     -14.430195      -392.6656
  18   2.0000     -14.430076      -392.6623
  19   2.0000     -14.418379      -392.3440
  20   2.0000     -14.417803      -392.3284
  21   2.0000     -14.417516      -392.3205
  22   2.0000     -14.417511      -392.3204
  23   2.0000     -14.413724      -392.2174
  24   2.0000     -14.413290      -392.2055
  25   2.0000     -10.365210      -282.0517
  26   2.0000     -10.364716      -282.0383
  27   2.0000     -10.358883      -281.8795
  28   2.0000     -10.358873      -281.8793
  29   2.0000     -10.358041      -281.8566
  30   2.0000     -10.357529      -281.8427
  31   2.0000     -10.336685      -281.2755
  32   2.0000     -10.336616      -281.2736
  33   2.0000     -10.335648      -281.2473
  34   2.0000     -10.335610      -281.2462
  35   2.0000     -10.333173      -281.1799
  36   2.0000     -10.332960      -281.1741
  37   2.0000     -10.327666      -281.0301
  38   2.0000     -10.327523      -281.0262
  39   2.0000     -10.325765      -280.9783
  40   2.0000     -10.325453      -280.9699
  41   2.0000     -10.325059      -280.9591
  42   2.0000     -10.324923      -280.9554
  43   2.0000     -10.324333      -280.9394
  44   2.0000     -10.324086      -280.9327
  45   2.0000     -10.323065      -280.9049
  46   2.0000     -10.323032      -280.9040
  47   2.0000     -10.321376      -280.8589
  48   2.0000     -10.321066      -280.8505
  49   2.0000     -10.313463      -280.6436
  50   2.0000     -10.313438      -280.6429
  51   2.0000     -10.312285      -280.6115
  52   2.0000     -10.311954      -280.6025
  53   2.0000     -10.311948      -280.6024
  54   2.0000     -10.311699      -280.5956
  55   2.0000     -10.307963      -280.4939
  56   2.0000     -10.307635      -280.4850
  57   2.0000     -10.307449      -280.4799
  58   2.0000     -10.307414      -280.4790
  59   2.0000     -10.307205      -280.4733
  60   2.0000     -10.307098      -280.4704
  61   2.0000     -10.305854      -280.4366
  62   2.0000     -10.305830      -280.4359
  63   2.0000     -10.300297      -280.2853
  64   2.0000     -10.300249      -280.2840
  65   2.0000     -10.300044      -280.2784
  66   2.0000     -10.299881      -280.2740
  67   2.0000     -10.295078      -280.1433
  68   2.0000     -10.294914      -280.1388
  69   2.0000     -10.291117      -280.0355
  70   2.0000     -10.290967      -280.0314
  71   2.0000     -10.289667      -279.9961
  72   2.0000     -10.289468      -279.9907
  73   2.0000     -10.288246      -279.9574
  74   2.0000     -10.288159      -279.9550
  75   2.0000      -8.118102      -220.9048
  76   2.0000      -8.114233      -220.7995
  77   2.0000      -8.114222      -220.7992
  78   2.0000      -8.054098      -219.1632
  79   2.0000      -8.053906      -219.1579
  80   2.0000      -8.053047      -219.1345
  81   2.0000      -8.052890      -219.1303
  82   2.0000      -6.089013      -165.6905
  83   2.0000      -6.085415      -165.5926
  84   2.0000      -6.085391      -165.5919
  85   2.0000      -6.081289      -165.4803
  86   2.0000      -6.081254      -165.4793
  87   2.0000      -6.077694      -165.3824
  88   2.0000      -6.077691      -165.3824
  89   2.0000      -6.076753      -165.3569
  90   2.0000      -6.076732      -165.3563
  91   2.0000      -6.023972      -163.9206
  92   2.0000      -6.023809      -163.9162
  93   2.0000      -6.022732      -163.8869
  94   2.0000      -6.022575      -163.8826
  95   2.0000      -6.019376      -163.7955
  96   2.0000      -6.019167      -163.7899
  97   2.0000      -6.018604      -163.7745
  98   2.0000      -6.018451      -163.7704
  99   2.0000      -6.015603      -163.6929
 100   2.0000      -6.015352      -163.6860
 101   2.0000      -6.013916      -163.6470
 102   2.0000      -6.013727      -163.6418
 103   2.0000      -1.123093       -30.5609
 104   2.0000      -1.122086       -30.5335
 105   2.0000      -1.120908       -30.5015
 106   2.0000      -1.106395       -30.1066
 107   2.0000      -1.105898       -30.0930
 108   2.0000      -1.099426       -29.9169
 109   2.0000      -1.034445       -28.1487
 110   2.0000      -1.033258       -28.1164
 111   2.0000      -1.025997       -27.9188
 112   2.0000      -1.007252       -27.4087
 113   2.0000      -1.007132       -27.4055
 114   2.0000      -1.002553       -27.2809
 115   2.0000      -1.002332       -27.2748
 116   2.0000      -0.997642       -27.1472
 117   2.0000      -0.993256       -27.0279
 118   2.0000      -0.992828       -27.0162
 119   2.0000      -0.988397       -26.8957
 120   2.0000      -0.984642       -26.7935
 121   2.0000      -0.984521       -26.7902
 122   2.0000      -0.978075       -26.6148
 123   2.0000      -0.976751       -26.5788
 124   2.0000      -0.974295       -26.5119
 125   2.0000      -0.968547       -26.3555
 126   2.0000      -0.959050       -26.0971
 127   2.0000      -0.947052       -25.7706
 128   2.0000      -0.906657       -24.6714
 129   2.0000      -0.903716       -24.5914
 130   2.0000      -0.894066       -24.3288
 131   2.0000      -0.892322       -24.2813
 132   2.0000      -0.889220       -24.1969
 133   2.0000      -0.886647       -24.1269
 134   2.0000      -0.879164       -23.9233
 135   2.0000      -0.864702       -23.5297
 136   2.0000      -0.861161       -23.4334
 137   2.0000      -0.859881       -23.3985
 138   2.0000      -0.849026       -23.1032
 139   2.0000      -0.838574       -22.8187
 140   2.0000      -0.832942       -22.6655
 141   2.0000      -0.829476       -22.5712
 142   2.0000      -0.818666       -22.2770
 143   2.0000      -0.816113       -22.2076
 144   2.0000      -0.811233       -22.0748
 145   2.0000      -0.799259       -21.7489
 146   2.0000      -0.799068       -21.7437
 147   2.0000      -0.782502       -21.2930
 148   2.0000      -0.781541       -21.2668
 149   2.0000      -0.771820       -21.0023
 150   2.0000      -0.756769       -20.5927
 151   2.0000      -0.737232       -20.0611
 152   2.0000      -0.721921       -19.6445
 153   2.0000      -0.721443       -19.6315
 154   2.0000      -0.719462       -19.5776
 155   2.0000      -0.707861       -19.2619
 156   2.0000      -0.702266       -19.1096
 157   2.0000      -0.692378       -18.8406
 158   2.0000      -0.690483       -18.7890
 159   2.0000      -0.686031       -18.6679
 160   2.0000      -0.683609       -18.6020
 161   2.0000      -0.680625       -18.5207
 162   2.0000      -0.678872       -18.4731
 163   2.0000      -0.664471       -18.0812
 164   2.0000      -0.662577       -18.0297
 165   2.0000      -0.657892       -17.9021
 166   2.0000      -0.647040       -17.6069
 167   2.0000      -0.644050       -17.5255
 168   2.0000      -0.637993       -17.3607
 169   2.0000      -0.636155       -17.3106
 170   2.0000      -0.632045       -17.1988
 171   2.0000      -0.628788       -17.1102
 172   2.0000      -0.625549       -17.0221
 173   2.0000      -0.620170       -16.8757
 174   2.0000      -0.614025       -16.7085
 175   2.0000      -0.613892       -16.7048
 176   2.0000      -0.610698       -16.6179
 177   2.0000      -0.606375       -16.5003
 178   2.0000      -0.604521       -16.4499
 179   2.0000      -0.603106       -16.4113
 180   2.0000      -0.590590       -16.0708
 181   2.0000      -0.586109       -15.9488
 182   2.0000      -0.576981       -15.7004
 183   2.0000      -0.569749       -15.5037
 184   2.0000      -0.566885       -15.4257
 185   2.0000      -0.564397       -15.3580
 186   2.0000      -0.558788       -15.2054
 187   2.0000      -0.555895       -15.1267
 188   2.0000      -0.544017       -14.8035
 189   2.0000      -0.543272       -14.7832
 190   2.0000      -0.542504       -14.7623
 191   2.0000      -0.540706       -14.7133
 192   2.0000      -0.537299       -14.6206
 193   2.0000      -0.531925       -14.4744
 194   2.0000      -0.527153       -14.3446
 195   2.0000      -0.527052       -14.3418
 196   2.0000      -0.523583       -14.2474
 197   2.0000      -0.520069       -14.1518
 198   2.0000      -0.519546       -14.1376
 199   2.0000      -0.512438       -13.9441
 200   2.0000      -0.509776       -13.8717
 201   2.0000      -0.509104       -13.8534
 202   2.0000      -0.508918       -13.8484
 203   2.0000      -0.503454       -13.6997
 204   2.0000      -0.493817       -13.4375
 205   2.0000      -0.493575       -13.4309
 206   2.0000      -0.491235       -13.3672
 207   2.0000      -0.489694       -13.3253
 208   2.0000      -0.482875       -13.1397
 209   2.0000      -0.482425       -13.1274
 210   2.0000      -0.480931       -13.0868
 211   2.0000      -0.479732       -13.0542
 212   2.0000      -0.469706       -12.7813
 213   2.0000      -0.469184       -12.7671
 214   2.0000      -0.466411       -12.6917
 215   2.0000      -0.466108       -12.6834
 216   2.0000      -0.465123       -12.6566
 217   2.0000      -0.464037       -12.6271
 218   2.0000      -0.463572       -12.6144
 219   2.0000      -0.460080       -12.5194
 220   2.0000      -0.456405       -12.4194
 221   2.0000      -0.453822       -12.3491
 222   2.0000      -0.453091       -12.3292
 223   2.0000      -0.452392       -12.3102
 224   2.0000      -0.451877       -12.2962
 225   2.0000      -0.445099       -12.1117
 226   2.0000      -0.444837       -12.1046
 227   2.0000      -0.444220       -12.0878
 228   2.0000      -0.444002       -12.0819
 229   2.0000      -0.441542       -12.0150
 230   2.0000      -0.439772       -11.9668
 231   2.0000      -0.435907       -11.8616
 232   2.0000      -0.434504       -11.8234
 233   2.0000      -0.433001       -11.7826
 234   2.0000      -0.432858       -11.7787
 235   2.0000      -0.427213       -11.6250
 236   2.0000      -0.424160       -11.5420
 237   2.0000      -0.423287       -11.5182
 238   2.0000      -0.420699       -11.4478
 239   2.0000      -0.419921       -11.4266
 240   2.0000      -0.413999       -11.2655
 241   2.0000      -0.412463       -11.2237
 242   2.0000      -0.411037       -11.1849
 243   2.0000      -0.410203       -11.1622
 244   2.0000      -0.408246       -11.1089
 245   2.0000      -0.406886       -11.0719
 246   2.0000      -0.405396       -11.0314
 247   2.0000      -0.402262       -10.9461
 248   2.0000      -0.395526       -10.7628
 249   2.0000      -0.395438       -10.7604
 250   2.0000      -0.394143       -10.7252
 251   2.0000      -0.390280       -10.6201
 252   2.0000      -0.387932       -10.5562
 253   2.0000      -0.383967       -10.4483
 254   2.0000      -0.380832       -10.3630
 255   2.0000      -0.364771        -9.9259
 256   2.0000      -0.360314        -9.8046
 257   2.0000      -0.356483        -9.7004
 258   2.0000      -0.352264        -9.5856
 259   2.0000      -0.352023        -9.5790
 260   2.0000      -0.351513        -9.5651
 261   2.0000      -0.345526        -9.4022
 262   2.0000      -0.344834        -9.3834
 263   2.0000      -0.337719        -9.1898
 264   2.0000      -0.333227        -9.0676
 265   2.0000      -0.332682        -9.0527
 266   2.0000      -0.332112        -9.0372
 267   2.0000      -0.330950        -9.0056
 268   2.0000      -0.329601        -8.9689
 269   2.0000      -0.323869        -8.8129
 270   2.0000      -0.320028        -8.7084
 271   2.0000      -0.303030        -8.2459
 272   2.0000      -0.291388        -7.9291
 273   2.0000      -0.272448        -7.4137
 274   2.0000      -0.232352        -6.3226
 275   2.0000      -0.215228        -5.8566
 276   0.0000      -0.121575        -3.3082
 277   0.0000      -0.111669        -3.0387
 278   0.0000      -0.092736        -2.5235
 279   0.0000      -0.060362        -1.6425
 280   0.0000      -0.060213        -1.6385

MULLIKEN ATOMIC CHARGES
-----------------------
   0 C :    0.002447
   1 C :   -0.084570
   2 C :    0.073341
   3 C :    0.026243
   4 C :   -0.059692
   5 S :    0.153110
   6 C :   -0.035238
   7 C :    0.045585
   8 C :    0.014699
   9 C :    0.042920
  10 S :    0.129563
  11 C :   -0.146784
  12 C :    0.123956
  13 C :   -0.023196
  14 C :   -0.043662
  15 N :    0.059974
  16 C :   -0.138292
  17 C :   -0.078851
  18 N :   -0.029328
  19 C :   -0.234518
  20 N :    0.207123
  21 C :   -0.233835
  22 N :    0.234987
  23 C :    0.003797
  24 C :    0.026728
  25 C :   -0.011134
  26 N :   -0.280107
  27 S :    0.523944
  28 N :   -0.281385
  29 C :    0.076337
  30 C :   -0.076046
  31 C :   -0.075737
  32 N :    0.074315
  33 C :   -0.136393
  34 C :   -0.142914
  35 N :    0.073270
  36 C :   -0.207003
  37 N :    0.217022
  38 C :   -0.207447
  39 N :    0.213879
  40 C :    0.078353
  41 C :    0.009061
  42 C :    0.014471
  43 N :   -0.279141
  44 S :    0.552484
  45 N :   -0.282113
  46 C :   -0.000177
  47 C :   -0.043513
  48 C :   -0.021690
  49 N :   -0.028257
  50 C :   -0.077155
  51 C :   -0.133089
  52 N :    0.061467
  53 C :   -0.232347
  54 N :    0.231514
  55 C :   -0.235427
  56 N :    0.204118
  57 C :    0.126894
  58 C :   -0.019046
  59 C :    0.029953
  60 N :   -0.284394
  61 S :    0.524055
  62 N :   -0.276516
  63 C :   -0.143062
  64 C :    0.037863
  65 C :    0.017715
  66 C :    0.045871
  67 C :   -0.037118
  68 S :    0.128758
  69 C :   -0.055822
  70 C :    0.025437
  71 C :    0.070415
  72 C :   -0.079534
  73 S :    0.153755
  74 C :   -0.003502
  75 H :    0.032237
  76 H :    0.045014
  77 H :   -0.000197
  78 H :   -0.004161
  79 H :   -0.011564
  80 H :   -0.003626
  81 H :    0.002367
  82 H :    0.001981
  83 H :   -0.004961
  84 H :   -0.012208
  85 H :   -0.002669
  86 H :    0.000569
  87 H :    0.033708
  88 H :    0.046122
Sum of atomic charges:   -0.0000000

LOEWDIN ATOMIC CHARGES
----------------------
   0 C :   -0.030829
   1 C :   -0.146842
   2 C :   -0.005881
   3 C :   -0.029623
   4 C :   -0.141578
   5 S :    0.420300
   6 C :   -0.211669
   7 C :   -0.014416
   8 C :   -0.039718
   9 C :   -0.114791
  10 S :    0.470499
  11 C :   -0.052217
  12 C :   -0.010371
  13 C :   -0.010047
  14 C :    0.012364
  15 N :   -0.000021
  16 C :   -0.023176
  17 C :   -0.056540
  18 N :   -0.026556
  19 C :   -0.046407
  20 N :   -0.036361
  21 C :   -0.033360
  22 N :   -0.018060
  23 C :   -0.056375
  24 C :   -0.031020
  25 C :   -0.048897
  26 N :   -0.284038
  27 S :    0.656516
  28 N :   -0.285702
  29 C :   -0.006530
  30 C :   -0.002472
  31 C :   -0.003011
  32 N :    0.016001
  33 C :   -0.035879
  34 C :   -0.035323
  35 N :    0.014675
  36 C :   -0.035257
  37 N :   -0.022234
  38 C :   -0.035175
  39 N :   -0.022393
  40 C :   -0.006087
  41 C :   -0.035805
  42 C :   -0.036146
  43 N :   -0.282842
  44 S :    0.688895
  45 N :   -0.284258
  46 C :   -0.057191
  47 C :    0.012793
  48 C :   -0.009641
  49 N :   -0.027016
  50 C :   -0.055766
  51 C :   -0.022901
  52 N :    0.000752
  53 C :   -0.033053
  54 N :   -0.017804
  55 C :   -0.046130
  56 N :   -0.036835
  57 C :   -0.010452
  58 C :   -0.049230
  59 C :   -0.030512
  60 N :   -0.286824
  61 S :    0.655688
  62 N :   -0.283350
  63 C :   -0.051788
  64 C :   -0.115052
  65 C :   -0.039580
  66 C :   -0.014332
  67 C :   -0.211976
  68 S :    0.471308
  69 C :   -0.141381
  70 C :   -0.029968
  71 C :   -0.005865
  72 C :   -0.146788
  73 S :    0.421762
  74 C :   -0.030736
  75 H :    0.034364
  76 H :    0.036668
  77 H :    0.038145
  78 H :    0.035259
  79 H :    0.031485
  80 H :    0.035934
  81 H :    0.043280
  82 H :    0.043153
  83 H :    0.035627
  84 H :    0.031388
  85 H :    0.035533
  86 H :    0.038244
  87 H :    0.034534
  88 H :    0.036909

  Mayer bond orders larger than 0.100000
B(  0-C ,  1-C ) :   1.8579 B(  0-C , 75-H ) :   0.9521 B(  0-C , 76-H ) :   0.9398
B(  1-C ,  2-C ) :   1.0767 B(  1-C ,  5-S ) :   1.0066 B(  2-C ,  3-C ) :   1.6532
B(  2-C , 77-H ) :   0.9932 B(  3-C ,  4-C ) :   1.1554 B(  3-C , 78-H ) :   0.9936
B(  4-C ,  5-S ) :   1.1000 B(  4-C ,  6-C ) :   1.4831 B(  6-C ,  7-C ) :   1.2074
B(  6-C , 10-S ) :   0.9926 B(  7-C ,  8-C ) :   1.5431 B(  7-C , 79-H ) :   0.9928
B(  8-C ,  9-C ) :   1.1853 B(  8-C , 80-H ) :   1.0033 B(  9-C , 10-S ) :   1.1050
B(  9-C , 11-C ) :   1.3860 B( 10-S , 18-N ) :   0.1023 B( 11-C , 12-C ) :   1.3529
B( 11-C , 81-H ) :   0.9547 B( 12-C , 13-C ) :   1.1373 B( 12-C , 23-C ) :   0.1097
B( 12-C , 25-C ) :   1.1319 B( 13-C , 14-C ) :   1.0976 B( 13-C , 18-N ) :   1.4586
B( 14-C , 15-N ) :   1.4095 B( 14-C , 23-C ) :   1.3650 B( 15-N , 16-C ) :   1.7108
B( 16-C , 17-C ) :   1.2363 B( 16-C , 21-C ) :   1.1702 B( 17-C , 18-N ) :   1.5803
B( 17-C , 19-C ) :   1.1616 B( 19-C , 20-N ) :   2.9767 B( 21-C , 22-N ) :   3.0561
B( 23-C , 24-C ) :   1.2408 B( 23-C , 29-C ) :   0.9863 B( 24-C , 25-C ) :   1.1185
B( 24-C , 28-N ) :   1.5089 B( 25-C , 26-N ) :   1.5600 B( 26-N , 27-S ) :   1.2681
B( 26-N , 28-N ) :   0.1443 B( 27-S , 28-N ) :   1.2637 B( 29-C , 30-C ) :   1.3186
B( 29-C , 40-C ) :   0.1336 B( 29-C , 42-C ) :   1.2697 B( 30-C , 31-C ) :   1.0917
B( 30-C , 35-N ) :   1.4177 B( 31-C , 32-N ) :   1.4188 B( 31-C , 40-C ) :   1.3126
B( 32-N , 33-C ) :   1.7306 B( 33-C , 34-C ) :   1.1731 B( 33-C , 38-C ) :   1.1454
B( 34-C , 35-N ) :   1.7330 B( 34-C , 36-C ) :   1.1483 B( 36-C , 37-N ) :   3.0532
B( 38-C , 39-N ) :   3.0534 B( 40-C , 41-C ) :   1.2704 B( 40-C , 46-C ) :   0.9926
B( 41-C , 42-C ) :   1.1042 B( 41-C , 45-N ) :   1.4680 B( 42-C , 43-N ) :   1.4681
B( 43-N , 44-S ) :   1.3026 B( 43-N , 45-N ) :   0.1579 B( 44-S , 45-N ) :   1.3009
B( 46-C , 47-C ) :   1.3566 B( 46-C , 57-C ) :   0.1074 B( 46-C , 59-C ) :   1.2433
B( 47-C , 48-C ) :   1.1001 B( 47-C , 52-N ) :   1.4108 B( 48-C , 49-N ) :   1.4559
B( 48-C , 57-C ) :   1.1389 B( 49-N , 50-C ) :   1.5795 B( 49-N , 68-S ) :   0.1031
B( 50-C , 51-C ) :   1.2368 B( 50-C , 55-C ) :   1.1615 B( 51-C , 52-N ) :   1.7092
B( 51-C , 53-C ) :   1.1659 B( 53-C , 54-N ) :   3.0567 B( 55-C , 56-N ) :   2.9754
B( 57-C , 58-C ) :   1.1316 B( 57-C , 63-C ) :   1.3499 B( 58-C , 59-C ) :   1.1216
B( 58-C , 62-N ) :   1.5625 B( 59-C , 60-N ) :   1.5055 B( 60-N , 61-S ) :   1.2609
B( 60-N , 62-N ) :   0.1441 B( 61-S , 62-N ) :   1.2677 B( 63-C , 64-C ) :   1.3855
B( 63-C , 82-H ) :   0.9557 B( 64-C , 65-C ) :   1.1847 B( 64-C , 68-S ) :   1.1063
B( 65-C , 66-C ) :   1.5437 B( 65-C , 83-H ) :   1.0034 B( 66-C , 67-C ) :   1.2092
B( 66-C , 84-H ) :   0.9923 B( 67-C , 68-S ) :   0.9909 B( 67-C , 69-C ) :   1.4818
B( 69-C , 70-C ) :   1.1555 B( 69-C , 73-S ) :   1.0990 B( 70-C , 71-C ) :   1.6516
B( 70-C , 85-H ) :   0.9935 B( 71-C , 72-C ) :   1.0781 B( 71-C , 86-H ) :   0.9936
B( 72-C , 73-S ) :   1.0069 B( 72-C , 74-C ) :   1.8537 B( 74-C , 87-H ) :   0.9534
B( 74-C , 88-H ) :   0.9406

-----------------------------------------------------------------------------
         ABSORPTION SPECTRUM VIA TRANSITION ELECTRIC DIPOLE MOMENTS
-----------------------------------------------------------------------------
State   Energy  Wavelength   fosc         T2         TX        TY        TZ
        (cm-1)    (nm)                  (au**2)     (au)      (au)      (au)
-----------------------------------------------------------------------------
   0    7301.8   1369.5   1.118979225  50.45060   6.03447  -2.26430   2.98474
   1    9615.1   1040.0   0.164749487   5.64084   0.28620   2.08521   1.10038
   2   11305.5    884.5   0.003020454   0.08795   0.27131  -0.07872  -0.09028
   3   12360.3    809.0   0.070003792   1.86452   0.11485   1.19480   0.65099
   4   15072.3    663.5   0.030184625   0.65930  -0.80894   0.05333   0.04548
   5   16266.5    614.8   0.000068506   0.00139  -0.01014  -0.01737  -0.03133
   6   19726.8    506.9   0.019530780   0.32594   0.44918  -0.17363   0.30665
   7   19805.9    504.9   0.102685525   1.70683  -0.16734  -1.14399  -0.60837
   8   19929.6    501.8   0.187448994   3.09642  -1.74602   0.21396   0.04551
   9   21259.9    470.4   0.070948542   1.09865   0.08386   0.91448   0.50532
  10   23177.5    431.5   0.084902714   1.20595  -1.08930   0.13672   0.02629
  11   23418.8    427.0   0.091121909   1.28095  -0.12769  -0.95415  -0.59518
  12   23791.5    420.3   0.041868368   0.57935   0.15312   0.70741   0.23552
  13   23830.6    419.6   0.179249492   2.47628  -0.04863   1.31771   0.85881
  14   24170.2    413.7   0.203168625   2.76727   1.65621  -0.04550   0.14886
  15   24645.0    405.8   0.021760931   0.29069   0.05523  -0.45729  -0.28021
  16   24807.1    403.1   0.004210765   0.05588   0.21357  -0.09690   0.02960
  17   25386.6    393.9   0.034668114   0.44957  -0.15037  -0.29590   0.58258
  18   25514.3    391.9   0.010791466   0.13924  -0.01796  -0.34126  -0.14987
  19   25716.8    388.9   0.099946392   1.27946   0.96541   0.20481  -0.55272
  20   25961.7    385.2   0.076728067   0.97297  -0.13739  -0.87094  -0.44221
  21   26793.8    373.2   0.023076726   0.28354   0.14960   0.49528  -0.12594
  22   26887.2    371.9   0.040459562   0.49540  -0.07828   0.46487   0.52265
  23   27298.9    366.3   0.117767424   1.42022  -0.02233  -0.99115  -0.66132
  24   27705.4    360.9   0.023114598   0.27466  -0.05932  -0.44160  -0.27591
  25   27796.1    359.8   0.004692223   0.05557  -0.10833   0.19994   0.06213
  26   28491.4    351.0   0.031153570   0.35997  -0.59695  -0.03648   0.04784
  27   28864.4    346.4   0.040619371   0.46328   0.46555  -0.26285  -0.42126
  28   28945.9    345.5   0.078133688   0.88864  -0.25328  -0.81868  -0.39275
  29   29330.9    340.9   0.002841094   0.03189  -0.03830  -0.10746   0.13738
  30   29420.0    339.9   0.068633002   0.76801   0.61278  -0.40512  -0.47789
  31   29444.9    339.6   0.091657541   1.02479  -0.45154  -0.81860  -0.38833
  32   29835.0    335.2   0.016636938   0.18358  -0.00836   0.35969   0.23267
  33   30238.2    330.7   0.039082776   0.42551  -0.03600  -0.57330  -0.30908
  34   30372.5    329.2   0.058407153   0.63308   0.10758   0.38197  -0.68964
  35   30533.8    327.5   0.002409900   0.02598   0.00472  -0.16090   0.00850
  36   31013.2    322.4   0.124217299   1.31859   1.13571   0.03443  -0.16607
  37   31236.9    320.1   0.083298135   0.87790   0.01421   0.52292  -0.77733
  38   31320.6    319.3   0.047892831   0.50340  -0.06288  -0.51608  -0.48281
  39   31493.6    317.5   0.039228213   0.41006  -0.12387  -0.08176   0.62293
  40   31513.7    317.3   0.199546652   2.08459   0.01852   1.29357   0.64103
  41   31926.8    313.2   0.020851107   0.21501   0.18152  -0.31003   0.29315
  42   31952.4    313.0   0.021638938   0.22295  -0.00804   0.34020   0.32734
  43   32154.9    311.0   0.005357436   0.05485   0.01212  -0.19855  -0.12363
  44   32236.6    310.2   0.020964258   0.21409  -0.45010  -0.06920   0.08195
  45   32399.7    308.6   0.073817787   0.75006  -0.14208   0.37719  -0.76655
  46   32554.5    307.2   0.099092814   1.00209   0.02478  -0.86653  -0.50061
  47   33014.7    302.9   0.050295922   0.50153   0.28617   0.52453  -0.38015
  48   33039.1    302.7   0.097714083   0.97365   0.39367   0.20175  -0.88203
  49   33341.2    299.9   0.199954923   1.97436   0.04403   1.15542   0.79840
  50   33412.9    299.3   0.133662619   1.31696  -0.50807   0.70756  -0.74711
  51   33610.6    297.5   0.185290940   1.81490  -0.07926  -1.17340  -0.65708
  52   33697.3    296.8   0.000785076   0.00767  -0.07244  -0.02863  -0.04004
  53   34362.7    291.0   0.002141460   0.02052  -0.11788  -0.06841   0.04406
  54   34476.6    290.1   0.165592027   1.58121  -1.07872  -0.31018   0.56690
  55   34623.5    288.8   0.018344348   0.17442   0.20961  -0.21120   0.29306
  56   34753.0    287.7   0.000776571   0.00736  -0.04125  -0.05384  -0.05250
  57   34901.5    286.5   0.036629961   0.34552   0.02700  -0.49148  -0.32129
  58   35418.5    282.3   0.073627661   0.68436   0.04917   0.71114   0.41980
  59   35463.4    282.0   0.081814260   0.75949   0.68690   0.21010  -0.49347
  60   35541.6    281.4   0.080580527   0.74639   0.03812  -0.70237  -0.50161
  61   35882.8    278.7   0.034086645   0.31273  -0.29928  -0.33664   0.33143
  62   36072.2    277.2   0.056251977   0.51338  -0.00487  -0.58169  -0.41832
  63   36582.1    273.4   0.144539913   1.30075  -0.33507   0.71129  -0.82617
  64   36724.6    272.3   0.082822858   0.74245  -0.09211  -0.72494  -0.45653
  65   37156.6    269.1   0.177426906   1.57202  -0.48332   0.74875   0.88193
  66   37192.6    268.9   0.149096409   1.31973  -0.87727  -0.74077   0.03717
  67   37463.2    266.9   0.011870880   0.10432  -0.20296   0.14317  -0.20647
  68   37602.7    265.9   0.009993915   0.08750  -0.16877   0.19677   0.14246
  69   37675.2    265.4   0.124164246   1.08497   0.10210   0.88243   0.54394
  70   37750.6    264.9   0.605820495   5.28319  -0.02747   1.93308   1.24323
  71   37954.8    263.5   0.041377780   0.35890  -0.35660   0.26589  -0.40130
  72   38277.1    261.3   0.144717528   1.24468  -1.09295  -0.15361   0.16292
  73   38551.6    259.4   0.008279339   0.07070   0.02179   0.22054   0.14693
  74   38649.0    258.7   0.001238443   0.01055  -0.05172   0.06769  -0.05737
  75   38727.6    258.2   0.065606085   0.55770  -0.74655  -0.01175   0.01513
  76   38848.2    257.4   0.036886626   0.31259  -0.02286   0.44977   0.33132
  77   39271.6    254.6   0.252726137   2.11859   0.01897   1.21512   0.80107
  78   39366.6    254.0   0.030575738   0.25570  -0.14965  -0.41370  -0.24931
  79   39450.4    253.5   0.212001741   1.76915   0.82425  -0.58659   0.86352
  80   39633.9    252.3   0.079439313   0.65985  -0.49987  -0.34264   0.54090
  81   39887.6    250.7   0.154229396   1.27293  -0.06761   0.97394   0.56551
  82   39942.7    250.4   0.006312830   0.05203  -0.08269   0.09864  -0.18831
  83   40282.9    248.2   0.027592586   0.22550   0.06461   0.38545   0.26973

FINAL SINGLE POINT ENERGY     -5681.824489797031

DIPOLE MOMENT
-------------
                                X             Y             Z
Electronic contribution:      3.24061      21.86755      10.63410
Nuclear contribution   :     -3.69485     -23.74885     -11.39873
                        -----------------------------------------
Total Dipole Moment    :     -0.45424      -1.88129      -0.76463
                        -----------------------------------------
Magnitude (a.u.)       :      2.08093
Magnitude (Debye)      :      5.28930

Rotational constants in cm-1:     0.001472     0.000331     0.000292
Rotational constants in MHz :    44.144074     9.936538     8.753832

                             ****ORCA TERMINATED NORMALLY****
TOTAL RUN TIME: 0 days 0 hours 10 minutes 5 seconds 285 msec
