                         Program Version 4.2.0 -  RELEASE  -
|  1> # ORCA input file
|  2> # SCF done       -218.870320460776          0.000975141367
|  3> ! CAM-B3LYP def2-SVP def2/J RIJCOSX Grid4 TightSCF
|  4> %maxcore 5000
|  5> %tddft
|  6>     Mode sTDDFT
|  7>     Ethresh 5.0
|  8>     maxcore 5000
|  9> end
| 10>
| 11> %pal
| 12>   nprocs 6
| 13>   end
| 14> * xyz 0 1
| 15>    C       -1.43205        -2.50726        -0.39551
| 16>    C       -0.27545        -2.51717        -1.13079
| 17>    C        0.61307        -3.61053        -1.19169
| 18>    N        1.37430        -4.46583        -1.27446
| 19>    C        0.20531        -1.42800        -1.88858
| 20>    N        0.67991        -0.57883        -2.49817
| 21>    C       -1.89340        -3.56750         0.48982
| 22>    C       -3.04705        -3.11541         1.17880
| 23>    C       -3.71168        -3.89333         2.09612
| 24>    C       -3.21258        -5.17399         2.35165
| 25>    C       -2.06222        -5.61784         1.65608
| 26>    C       -1.39196        -4.83397         0.72450
| 27>    S       -1.63059        -7.23289         2.12214
| 28>    C       -2.96325        -7.29765         3.22308
| 29>    C       -3.70251        -6.16727         3.24588
| 30>    C       -3.39156        -1.75449         0.73127
| 31>    O       -4.38027        -1.12529         1.04025
| 32>    C       -2.35276        -1.39279        -0.27371
| 33>    C       -2.39624        -0.28671        -1.06508
| 34>    C       -3.17172         0.87908        -0.79227
| 35>    C       -3.73915         1.63261        -1.84471
| 36>    C       -4.54905         2.80025        -1.59984
| 37>    N       -5.14725         3.42186        -2.62975
| 38>    C       -4.95304         2.97330        -3.84909
| 39>    C       -4.09971         1.85229        -4.09416
| 40>    N       -3.53468         1.20843        -3.10071
| 41>    C       -3.86839         1.42279        -5.42487
| 42>    N       -3.71522         1.10388        -6.51419
| 43>    C       -5.59233         3.62999        -4.92917
| 44>    N       -6.08619         4.15224        -5.82145
| 45>    C       -4.77354         3.28072        -0.29341
| 46>    C       -4.17187         2.55371         0.75142
| 47>    C       -3.35888         1.38708         0.50701
| 48>    N       -2.80525         0.92601         1.62745
| 49>    S       -3.29721         1.81855         2.86057
| 50>    N       -4.21382         2.86486         2.05091
| 51>    C       -5.58973         4.43487         0.02293
| 52>    C       -6.35057         4.29864         1.28183
| 53>    C       -7.14700         3.17302         1.50739
| 54>    C       -7.85068         2.99522         2.69224
| 55>    C       -7.77858         3.96195         3.69184
| 56>    C       -6.99737         5.09330         3.48777
| 57>    C       -6.29178         5.24676         2.30101
| 58>    F       -5.53350         6.34329         2.16746
| 59>    F       -6.93394         6.04822         4.42391
| 60>    F       -8.45802         3.80940         4.82815
| 61>    F       -8.60539         1.91148         2.87295
| 62>    F       -7.25905         2.24674         0.55446
| 63>    C       -5.68566         5.59148        -0.69612
| 64>    C       -4.84526         5.87784        -1.86513
| 65>    C       -3.46352         5.66538        -1.87351
| 66>    C       -2.68109         5.95305        -2.98390
| 67>    C       -3.26595         6.49429        -4.12543
| 68>    C       -4.63560         6.74418        -4.13586
| 69>    C       -5.40325         6.43671        -3.01977
| 70>    F       -6.71693         6.67311        -3.07301
| 71>    F       -5.20283         7.29453        -5.20757
| 72>    F       -2.51867         6.78446        -5.18901
| 73>    F       -1.36599         5.72474        -2.95126
| 74>    F       -2.85366         5.19334        -0.77749
| 75>    C       -6.67448         6.59279        -0.31893
| 76>    C       -6.52425         7.92274        -0.32180
| 77>    C       -5.27069         8.65908        -0.66349
| 78>    C       -7.64274         8.79024         0.20706
| 79>    N       -7.37548         9.09350         1.59664
| 80>    C       -6.76499        10.21196         2.01854
| 81>    C       -6.19055        10.34411         3.25072
| 82>    C       -5.62897        11.53929         3.71487
| 83>    C       -5.02116        11.69125         4.93873
| 84>    C       -4.43560        12.86754         5.46156
| 85>    C       -3.89778        12.72208         6.70432
| 86>    C       -4.02644        11.41671         7.23392
| 87>    S       -4.86086        10.38059         6.10018
| 88>    C       -3.57917        10.95061         8.45421
| 89>    C       -2.88789        11.68264         9.45619
| 90>    C       -2.56522        10.95784        10.55251
| 91>    C       -2.98137         9.58731        10.49759
| 92>    S       -3.80942         9.29219         8.96062
| 93>    C       -2.80172         8.63381        11.42377
| 94>    H       -4.58929        -3.52228         2.60248
| 95>    H       -0.52498        -5.21947         0.21436
| 96>    H       -3.11331        -8.19383         3.79321
| 97>    H       -4.56848        -6.02641         3.86707
| 98>    H       -1.84681        -0.26728        -1.99786
| 99>    H       -7.61643         6.18734         0.03056
|100>    H       -4.39594         8.02035        -0.59511
|101>    H       -5.13739         9.49603         0.02124
|102>    H       -5.33294         9.06247        -1.67496
|103>    H       -8.60279         8.27224         0.13713
|104>    H       -7.70453         9.72710        -0.34981
|105>    H       -7.29258         8.29012         2.20550
|106>    H       -6.79652        11.05167         1.33594
|107>    H       -6.16027         9.48503         3.90774
|108>    H       -5.66582        12.40894         3.07129
|109>    H       -4.43049        13.78643         4.90190
|110>    H       -3.41440        13.51217         7.24975
|111>    H       -2.65262        12.72426         9.32865
|112>    H       -2.04185        11.33924        11.41094
|113>    H       -2.29170         8.85283        12.34510
|114>    H       -3.15630         7.63004        11.27787
|115> *
|116>
|117>                          ****END OF INPUT****

CARTESIAN COORDINATES (ANGSTROEM)
---------------------------------
  C     -1.432050   -2.507260   -0.395510
  C     -0.275450   -2.517170   -1.130790
  C      0.613070   -3.610530   -1.191690
  N      1.374300   -4.465830   -1.274460
  C      0.205310   -1.428000   -1.888580
  N      0.679910   -0.578830   -2.498170
  C     -1.893400   -3.567500    0.489820
  C     -3.047050   -3.115410    1.178800
  C     -3.711680   -3.893330    2.096120
  C     -3.212580   -5.173990    2.351650
  C     -2.062220   -5.617840    1.656080
  C     -1.391960   -4.833970    0.724500
  S     -1.630590   -7.232890    2.122140
  C     -2.963250   -7.297650    3.223080
  C     -3.702510   -6.167270    3.245880
  C     -3.391560   -1.754490    0.731270
  O     -4.380270   -1.125290    1.040250
  C     -2.352760   -1.392790   -0.273710
  C     -2.396240   -0.286710   -1.065080
  C     -3.171720    0.879080   -0.792270
  C     -3.739150    1.632610   -1.844710
  C     -4.549050    2.800250   -1.599840
  N     -5.147250    3.421860   -2.629750
  C     -4.953040    2.973300   -3.849090
  C     -4.099710    1.852290   -4.094160
  N     -3.534680    1.208430   -3.100710
  C     -3.868390    1.422790   -5.424870
  N     -3.715220    1.103880   -6.514190
  C     -5.592330    3.629990   -4.929170
  N     -6.086190    4.152240   -5.821450
  C     -4.773540    3.280720   -0.293410
  C     -4.171870    2.553710    0.751420
  C     -3.358880    1.387080    0.507010
  N     -2.805250    0.926010    1.627450
  S     -3.297210    1.818550    2.860570
  N     -4.213820    2.864860    2.050910
  C     -5.589730    4.434870    0.022930
  C     -6.350570    4.298640    1.281830
  C     -7.147000    3.173020    1.507390
  C     -7.850680    2.995220    2.692240
  C     -7.778580    3.961950    3.691840
  C     -6.997370    5.093300    3.487770
  C     -6.291780    5.246760    2.301010
  F     -5.533500    6.343290    2.167460
  F     -6.933940    6.048220    4.423910
  F     -8.458020    3.809400    4.828150
  F     -8.605390    1.911480    2.872950
  F     -7.259050    2.246740    0.554460
  C     -5.685660    5.591480   -0.696120
  C     -4.845260    5.877840   -1.865130
  C     -3.463520    5.665380   -1.873510
  C     -2.681090    5.953050   -2.983900
  C     -3.265950    6.494290   -4.125430
  C     -4.635600    6.744180   -4.135860
  C     -5.403250    6.436710   -3.019770
  F     -6.716930    6.673110   -3.073010
  F     -5.202830    7.294530   -5.207570
  F     -2.518670    6.784460   -5.189010
  F     -1.365990    5.724740   -2.951260
  F     -2.853660    5.193340   -0.777490
  C     -6.674480    6.592790   -0.318930
  C     -6.524250    7.922740   -0.321800
  C     -5.270690    8.659080   -0.663490
  C     -7.642740    8.790240    0.207060
  N     -7.375480    9.093500    1.596640
  C     -6.764990   10.211960    2.018540
  C     -6.190550   10.344110    3.250720
  C     -5.628970   11.539290    3.714870
  C     -5.021160   11.691250    4.938730
  C     -4.435600   12.867540    5.461560
  C     -3.897780   12.722080    6.704320
  C     -4.026440   11.416710    7.233920
  S     -4.860860   10.380590    6.100180
  C     -3.579170   10.950610    8.454210
  C     -2.887890   11.682640    9.456190
  C     -2.565220   10.957840   10.552510
  C     -2.981370    9.587310   10.497590
  S     -3.809420    9.292190    8.960620
  C     -2.801720    8.633810   11.423770
  H     -4.589290   -3.522280    2.602480
  H     -0.524980   -5.219470    0.214360
  H     -3.113310   -8.193830    3.793210
  H     -4.568480   -6.026410    3.867070
  H     -1.846810   -0.267280   -1.997860
  H     -7.616430    6.187340    0.030560
  H     -4.395940    8.020350   -0.595110
  H     -5.137390    9.496030    0.021240
  H     -5.332940    9.062470   -1.674960
  H     -8.602790    8.272240    0.137130
  H     -7.704530    9.727100   -0.349810
  H     -7.292580    8.290120    2.205500
  H     -6.796520   11.051670    1.335940
  H     -6.160270    9.485030    3.907740
  H     -5.665820   12.408940    3.071290
  H     -4.430490   13.786430    4.901900
  H     -3.414400   13.512170    7.249750
  H     -2.652620   12.724260    9.328650
  H     -2.041850   11.339240   11.410940
  H     -2.291700    8.852830   12.345100
  H     -3.156300    7.630040   11.277870

 Total Charge           Charge          ....    0
 Multiplicity           Mult            ....    1
 Number of Electrons    NEL             ....  576
 Basis Dimension        Dim             .... 1227

ORBITAL ENERGIES
----------------

  NO   OCC          E(Eh)            E(eV)
   0   2.0000     -89.060898     -2423.4702
   1   2.0000     -88.972800     -2421.0730
   2   2.0000     -88.924171     -2419.7497
   3   2.0000     -88.918796     -2419.6035
   4   2.0000     -24.822070      -675.4429
   5   2.0000     -24.821419      -675.4252
   6   2.0000     -24.820656      -675.4044
   7   2.0000     -24.820176      -675.3913
   8   2.0000     -24.817957      -675.3309
   9   2.0000     -24.817747      -675.3252
  10   2.0000     -24.815402      -675.2614
  11   2.0000     -24.815124      -675.2538
  12   2.0000     -24.814310      -675.2317
  13   2.0000     -24.811510      -675.1555
  14   2.0000     -19.224299      -523.1198
  15   2.0000     -14.478275      -393.9739
  16   2.0000     -14.476382      -393.9224
  17   2.0000     -14.466989      -393.6668
  18   2.0000     -14.463397      -393.5690
  19   2.0000     -14.443563      -393.0293
  20   2.0000     -14.442887      -393.0109
  21   2.0000     -14.439706      -392.9244
  22   2.0000     -14.422102      -392.4454
  23   2.0000     -14.420841      -392.4110
  24   2.0000     -10.403300      -283.0882
  25   2.0000     -10.402115      -283.0559
  26   2.0000     -10.398612      -282.9606
  27   2.0000     -10.398438      -282.9559
  28   2.0000     -10.398105      -282.9468
  29   2.0000     -10.397397      -282.9276
  30   2.0000     -10.397083      -282.9190
  31   2.0000     -10.396680      -282.9081
  32   2.0000     -10.396563      -282.9049
  33   2.0000     -10.396483      -282.9027
  34   2.0000     -10.395707      -282.8816
  35   2.0000     -10.395618      -282.8791
  36   2.0000     -10.375739      -282.3382
  37   2.0000     -10.365692      -282.0648
  38   2.0000     -10.363458      -282.0040
  39   2.0000     -10.355955      -281.7998
  40   2.0000     -10.355420      -281.7853
  41   2.0000     -10.351500      -281.6786
  42   2.0000     -10.347698      -281.5752
  43   2.0000     -10.341311      -281.4014
  44   2.0000     -10.335825      -281.2521
  45   2.0000     -10.332666      -281.1661
  46   2.0000     -10.332351      -281.1576
  47   2.0000     -10.331971      -281.1472
  48   2.0000     -10.330285      -281.1013
  49   2.0000     -10.329770      -281.0873
  50   2.0000     -10.327442      -281.0240
  51   2.0000     -10.327350      -281.0215
  52   2.0000     -10.326007      -280.9849
  53   2.0000     -10.325863      -280.9810
  54   2.0000     -10.324029      -280.9311
  55   2.0000     -10.322767      -280.8968
  56   2.0000     -10.320410      -280.8326
  57   2.0000     -10.318569      -280.7825
  58   2.0000     -10.313537      -280.6456
  59   2.0000     -10.313093      -280.6335
  60   2.0000     -10.309889      -280.5463
  61   2.0000     -10.308634      -280.5122
  62   2.0000     -10.305898      -280.4377
  63   2.0000     -10.303441      -280.3709
  64   2.0000     -10.297708      -280.2149
  65   2.0000     -10.295094      -280.1438
  66   2.0000     -10.292062      -280.0612
  67   2.0000     -10.290087      -280.0075
  68   2.0000     -10.288261      -279.9578
  69   2.0000     -10.285417      -279.8804
  70   2.0000     -10.282757      -279.8080
  71   2.0000     -10.282119      -279.7907
  72   2.0000     -10.271756      -279.5087
  73   2.0000     -10.271109      -279.4911
  74   2.0000     -10.269356      -279.4434
  75   2.0000     -10.266844      -279.3750
  76   2.0000     -10.263587      -279.2864
  77   2.0000     -10.255922      -279.0778
  78   2.0000     -10.248984      -278.8890
  79   2.0000      -8.151673      -221.8183
  80   2.0000      -8.068963      -219.5676
  81   2.0000      -8.020504      -218.2490
  82   2.0000      -8.015636      -218.1165
  83   2.0000      -6.122533      -166.6026
  84   2.0000      -6.114955      -166.3964
  85   2.0000      -6.114783      -166.3917
  86   2.0000      -6.038478      -164.3153
  87   2.0000      -6.034160      -164.1978
  88   2.0000      -6.030674      -164.1030
  89   2.0000      -5.990243      -163.0028
  90   2.0000      -5.986358      -162.8971
  91   2.0000      -5.985449      -162.8723
  92   2.0000      -5.981600      -162.7676
  93   2.0000      -5.981308      -162.7597
  94   2.0000      -5.976128      -162.6187
  95   2.0000      -1.347875       -36.6775
  96   2.0000      -1.345975       -36.6258
  97   2.0000      -1.342443       -36.5297
  98   2.0000      -1.339829       -36.4586
  99   2.0000      -1.336758       -36.3750
 100   2.0000      -1.333724       -36.2925
 101   2.0000      -1.326159       -36.0866
 102   2.0000      -1.323866       -36.0242
 103   2.0000      -1.321176       -35.9510
 104   2.0000      -1.318231       -35.8709
 105   2.0000      -1.155327       -31.4381
 106   2.0000      -1.138916       -30.9915
 107   2.0000      -1.135668       -30.9031
 108   2.0000      -1.062827       -28.9210
 109   2.0000      -1.048115       -28.5206
 110   2.0000      -1.027602       -27.9625
 111   2.0000      -1.026640       -27.9363
 112   2.0000      -1.019053       -27.7298
 113   2.0000      -1.014614       -27.6091
 114   2.0000      -1.014420       -27.6038
 115   2.0000      -1.008518       -27.4432
 116   2.0000      -1.003658       -27.3109
 117   2.0000      -0.999564       -27.1995
 118   2.0000      -0.995510       -27.0892
 119   2.0000      -0.990164       -26.9437
 120   2.0000      -0.973380       -26.4870
 121   2.0000      -0.962534       -26.1919
 122   2.0000      -0.950535       -25.8654
 123   2.0000      -0.939264       -25.5587
 124   2.0000      -0.927800       -25.2467
 125   2.0000      -0.923369       -25.1261
 126   2.0000      -0.911420       -24.8010
 127   2.0000      -0.900622       -24.5072
 128   2.0000      -0.893619       -24.3166
 129   2.0000      -0.887774       -24.1576
 130   2.0000      -0.883979       -24.0543
 131   2.0000      -0.874412       -23.7940
 132   2.0000      -0.873566       -23.7709
 133   2.0000      -0.864762       -23.5314
 134   2.0000      -0.855364       -23.2756
 135   2.0000      -0.849637       -23.1198
 136   2.0000      -0.845322       -23.0024
 137   2.0000      -0.829493       -22.5717
 138   2.0000      -0.825988       -22.4763
 139   2.0000      -0.824528       -22.4365
 140   2.0000      -0.819093       -22.2887
 141   2.0000      -0.806822       -21.9548
 142   2.0000      -0.801192       -21.8015
 143   2.0000      -0.789930       -21.4951
 144   2.0000      -0.782176       -21.2841
 145   2.0000      -0.778652       -21.1882
 146   2.0000      -0.764578       -20.8052
 147   2.0000      -0.759949       -20.6793
 148   2.0000      -0.757857       -20.6223
 149   2.0000      -0.756191       -20.5770
 150   2.0000      -0.752170       -20.4676
 151   2.0000      -0.746681       -20.3182
 152   2.0000      -0.735955       -20.0264
 153   2.0000      -0.717417       -19.5219
 154   2.0000      -0.711661       -19.3653
 155   2.0000      -0.708622       -19.2826
 156   2.0000      -0.706140       -19.2151
 157   2.0000      -0.698119       -18.9968
 158   2.0000      -0.696421       -18.9506
 159   2.0000      -0.694129       -18.8882
 160   2.0000      -0.689277       -18.7562
 161   2.0000      -0.687554       -18.7093
 162   2.0000      -0.683836       -18.6081
 163   2.0000      -0.681391       -18.5416
 164   2.0000      -0.675108       -18.3706
 165   2.0000      -0.668577       -18.1929
 166   2.0000      -0.668050       -18.1786
 167   2.0000      -0.664407       -18.0794
 168   2.0000      -0.659346       -17.9417
 169   2.0000      -0.652227       -17.7480
 170   2.0000      -0.641000       -17.4425
 171   2.0000      -0.639411       -17.3993
 172   2.0000      -0.639127       -17.3915
 173   2.0000      -0.637339       -17.3429
 174   2.0000      -0.635369       -17.2893
 175   2.0000      -0.630993       -17.1702
 176   2.0000      -0.626871       -17.0580
 177   2.0000      -0.626391       -17.0450
 178   2.0000      -0.625861       -17.0305
 179   2.0000      -0.621777       -16.9194
 180   2.0000      -0.620712       -16.8904
 181   2.0000      -0.618822       -16.8390
 182   2.0000      -0.611772       -16.6472
 183   2.0000      -0.609124       -16.5751
 184   2.0000      -0.605738       -16.4830
 185   2.0000      -0.603118       -16.4117
 186   2.0000      -0.601702       -16.3732
 187   2.0000      -0.599412       -16.3108
 188   2.0000      -0.595595       -16.2070
 189   2.0000      -0.593654       -16.1541
 190   2.0000      -0.589316       -16.0361
 191   2.0000      -0.584430       -15.9031
 192   2.0000      -0.582856       -15.8603
 193   2.0000      -0.579915       -15.7803
 194   2.0000      -0.579279       -15.7630
 195   2.0000      -0.576832       -15.6964
 196   2.0000      -0.570352       -15.5201
 197   2.0000      -0.569046       -15.4845
 198   2.0000      -0.565192       -15.3796
 199   2.0000      -0.562841       -15.3157
 200   2.0000      -0.561115       -15.2687
 201   2.0000      -0.556689       -15.1483
 202   2.0000      -0.555171       -15.1070
 203   2.0000      -0.553341       -15.0572
 204   2.0000      -0.552275       -15.0282
 205   2.0000      -0.546306       -14.8657
 206   2.0000      -0.544977       -14.8296
 207   2.0000      -0.540245       -14.7008
 208   2.0000      -0.539234       -14.6733
 209   2.0000      -0.538510       -14.6536
 210   2.0000      -0.533791       -14.5252
 211   2.0000      -0.533147       -14.5077
 212   2.0000      -0.530997       -14.4492
 213   2.0000      -0.529418       -14.4062
 214   2.0000      -0.527511       -14.3543
 215   2.0000      -0.526781       -14.3344
 216   2.0000      -0.517645       -14.0858
 217   2.0000      -0.516729       -14.0609
 218   2.0000      -0.507952       -13.8221
 219   2.0000      -0.507120       -13.7994
 220   2.0000      -0.506536       -13.7835
 221   2.0000      -0.505020       -13.7423
 222   2.0000      -0.500373       -13.6158
 223   2.0000      -0.499700       -13.5975
 224   2.0000      -0.497984       -13.5508
 225   2.0000      -0.496890       -13.5211
 226   2.0000      -0.494012       -13.4427
 227   2.0000      -0.493643       -13.4327
 228   2.0000      -0.490371       -13.3437
 229   2.0000      -0.486666       -13.2429
 230   2.0000      -0.483902       -13.1676
 231   2.0000      -0.481183       -13.0937
 232   2.0000      -0.479572       -13.0498
 233   2.0000      -0.477433       -12.9916
 234   2.0000      -0.476494       -12.9661
 235   2.0000      -0.475434       -12.9372
 236   2.0000      -0.472848       -12.8668
 237   2.0000      -0.470824       -12.8118
 238   2.0000      -0.469428       -12.7738
 239   2.0000      -0.466455       -12.6929
 240   2.0000      -0.462757       -12.5923
 241   2.0000      -0.461088       -12.5468
 242   2.0000      -0.460339       -12.5265
 243   2.0000      -0.458185       -12.4679
 244   2.0000      -0.456065       -12.4101
 245   2.0000      -0.455530       -12.3956
 246   2.0000      -0.453948       -12.3525
 247   2.0000      -0.453681       -12.3453
 248   2.0000      -0.451926       -12.2975
 249   2.0000      -0.448429       -12.2024
 250   2.0000      -0.446033       -12.1372
 251   2.0000      -0.443361       -12.0645
 252   2.0000      -0.441376       -12.0105
 253   2.0000      -0.438746       -11.9389
 254   2.0000      -0.436878       -11.8880
 255   2.0000      -0.433375       -11.7927
 256   2.0000      -0.431918       -11.7531
 257   2.0000      -0.428061       -11.6481
 258   2.0000      -0.427042       -11.6204
 259   2.0000      -0.424402       -11.5486
 260   2.0000      -0.422473       -11.4961
 261   2.0000      -0.419198       -11.4070
 262   2.0000      -0.415344       -11.3021
 263   2.0000      -0.410359       -11.1664
 264   2.0000      -0.406898       -11.0723
 265   2.0000      -0.402581       -10.9548
 266   2.0000      -0.402123       -10.9423
 267   2.0000      -0.395092       -10.7510
 268   2.0000      -0.382436       -10.4066
 269   2.0000      -0.380291       -10.3482
 270   2.0000      -0.379371       -10.3232
 271   2.0000      -0.375547       -10.2192
 272   2.0000      -0.362963        -9.8767
 273   2.0000      -0.357370        -9.7245
 274   2.0000      -0.351478        -9.5642
 275   2.0000      -0.343222        -9.3395
 276   2.0000      -0.340864        -9.2754
 277   2.0000      -0.336726        -9.1628
 278   2.0000      -0.335519        -9.1299
 279   2.0000      -0.329730        -8.9724
 280   2.0000      -0.319963        -8.7066
 281   2.0000      -0.319508        -8.6942
 282   2.0000      -0.318593        -8.6694
 283   2.0000      -0.304045        -8.2735
 284   2.0000      -0.301176        -8.1954
 285   2.0000      -0.285239        -7.7617
 286   2.0000      -0.264644        -7.2013
 287   2.0000      -0.191877        -5.2212
 288   0.0000      -0.142307        -3.8724
 289   0.0000      -0.089846        -2.4448
 290   0.0000      -0.067439        -1.8351
 291   0.0000      -0.064692        -1.7604
 292   0.0000      -0.050197        -1.3659

MULLIKEN ATOMIC CHARGES
-----------------------
   0 C :    0.291050
   1 C :   -0.332620
   2 C :   -0.183842
   3 N :    0.157560
   4 C :   -0.199865
   5 N :    0.171594
   6 C :    0.024235
   7 C :   -0.024577
   8 C :   -0.064935
   9 C :    0.114534
  10 C :   -0.095021
  11 C :   -0.022314
  12 S :    0.146323
  13 C :   -0.047169
  14 C :    0.024490
  15 C :    0.159013
  16 O :   -0.153852
  17 C :   -0.051365
  18 C :   -0.080767
  19 C :    0.047961
  20 C :   -0.023724
  21 C :   -0.084876
  22 N :    0.063453
  23 C :   -0.128260
  24 C :   -0.129356
  25 N :    0.068953
  26 C :   -0.206551
  27 N :    0.250631
  28 C :   -0.219260
  29 N :    0.251921
  30 C :    0.076470
  31 C :   -0.009331
  32 C :    0.053494
  33 N :   -0.265442
  34 S :    0.577837
  35 N :   -0.273721
  36 C :    0.003235
  37 C :   -0.138041
  38 C :    0.198662
  39 C :    0.170881
  40 C :    0.132627
  41 C :    0.173253
  42 C :    0.181719
  43 F :   -0.159675
  44 F :   -0.160155
  45 F :   -0.150007
  46 F :   -0.154259
  47 F :   -0.157965
  48 C :    0.099725
  49 C :   -0.115292
  50 C :    0.176192
  51 C :    0.173147
  52 C :    0.122673
  53 C :    0.175429
  54 C :    0.175671
  55 F :   -0.153148
  56 F :   -0.148295
  57 F :   -0.146080
  58 F :   -0.153846
  59 F :   -0.164665
  60 C :   -0.041535
  61 C :   -0.195029
  62 C :    0.113332
  63 C :    0.199242
  64 N :   -0.136387
  65 C :    0.038035
  66 C :   -0.025881
  67 C :   -0.008967
  68 C :   -0.039760
  69 C :    0.038610
  70 C :    0.011109
  71 C :   -0.039087
  72 S :    0.052313
  73 C :   -0.076226
  74 C :    0.030042
  75 C :    0.039176
  76 C :   -0.057465
  77 S :    0.059854
  78 C :   -0.043230
  79 H :   -0.013285
  80 H :   -0.004505
  81 H :    0.041433
  82 H :   -0.004906
  83 H :    0.050209
  84 H :    0.003511
  85 H :    0.027647
  86 H :    0.031526
  87 H :    0.034229
  88 H :    0.016890
  89 H :    0.018343
  90 H :    0.116934
  91 H :    0.001732
  92 H :   -0.009559
  93 H :   -0.027167
  94 H :   -0.023104
  95 H :   -0.023347
  96 H :   -0.018970
  97 H :   -0.021276
  98 H :    0.009902
  99 H :    0.011157
Sum of atomic charges:   -0.0000000

LOEWDIN ATOMIC CHARGES
----------------------
   0 C :    0.072134
   1 C :   -0.126619
   2 C :   -0.017503
   3 N :   -0.044848
   4 C :   -0.024074
   5 N :   -0.040294
   6 C :   -0.021942
   7 C :   -0.052492
   8 C :    0.024095
   9 C :   -0.033612
  10 C :   -0.143886
  11 C :   -0.007393
  12 S :    0.433469
  13 C :   -0.146534
  14 C :   -0.057667
  15 C :    0.085059
  16 O :   -0.145994
  17 C :   -0.060989
  18 C :    0.072546
  19 C :   -0.023135
  20 C :    0.010170
  21 C :   -0.013892
  22 N :    0.013086
  23 C :   -0.030626
  24 C :   -0.017021
  25 N :    0.003966
  26 C :   -0.035963
  27 N :    0.008616
  28 C :   -0.042188
  29 N :    0.002651
  30 C :    0.004209
  31 C :   -0.038767
  32 C :   -0.024502
  33 N :   -0.266076
  34 S :    0.709099
  35 N :   -0.281787
  36 C :   -0.014436
  37 C :   -0.069542
  38 C :    0.064343
  39 C :    0.027424
  40 C :    0.043026
  41 C :    0.025746
  42 C :    0.067290
  43 F :   -0.033594
  44 F :   -0.040338
  45 F :   -0.029583
  46 F :   -0.035136
  47 F :   -0.033751
  48 C :    0.027686
  49 C :   -0.071849
  50 C :    0.051196
  51 C :    0.024122
  52 C :    0.040367
  53 C :    0.030022
  54 C :    0.069375
  55 F :   -0.029387
  56 F :   -0.027071
  57 F :   -0.026212
  58 F :   -0.035750
  59 F :   -0.037790
  60 C :   -0.056622
  61 C :   -0.011478
  62 C :   -0.050975
  63 C :    0.051691
  64 N :    0.007106
  65 C :    0.034596
  66 C :   -0.119215
  67 C :   -0.041842
  68 C :   -0.175770
  69 C :   -0.031418
  70 C :   -0.051430
  71 C :   -0.173607
  72 S :    0.352803
  73 C :   -0.198920
  74 C :   -0.025628
  75 C :   -0.048476
  76 C :   -0.136589
  77 S :    0.337891
  78 C :   -0.100284
  79 H :    0.040048
  80 H :    0.041397
  81 H :    0.030643
  82 H :    0.035950
  83 H :    0.050658
  84 H :    0.029987
  85 H :    0.034110
  86 H :    0.038267
  87 H :    0.041264
  88 H :    0.027970
  89 H :    0.032093
  90 H :    0.074826
  91 H :    0.025091
  92 H :    0.019634
  93 H :    0.028111
  94 H :    0.029260
  95 H :    0.027348
  96 H :    0.029553
  97 H :    0.029093
  98 H :    0.024084
  99 H :    0.021329

  Mayer bond orders larger than 0.100000
B(  0-C ,  1-C ) :   1.6569 B(  0-C ,  6-C ) :   1.0113 B(  0-C , 17-C ) :   1.0507
B(  1-C ,  2-C ) :   1.1396 B(  1-C ,  4-C ) :   1.1430 B(  2-C ,  3-N ) :   2.9734
B(  4-C ,  5-N ) :   2.9891 B(  6-C ,  7-C ) :   1.2655 B(  6-C , 11-C ) :   1.4040
B(  7-C ,  8-C ) :   1.4225 B(  7-C , 15-C ) :   0.9556 B(  8-C ,  9-C ) :   1.2464
B(  8-C , 79-H ) :   1.0180 B(  9-C , 10-C ) :   1.2985 B(  9-C , 14-C ) :   1.1712
B( 10-C , 11-C ) :   1.3255 B( 10-C , 12-S ) :   1.1012 B( 11-C , 80-H ) :   0.9841
B( 12-S , 13-C ) :   1.1265 B( 13-C , 14-C ) :   1.6291 B( 13-C , 81-H ) :   0.9682
B( 14-C , 82-H ) :   0.9999 B( 15-C , 16-O ) :   2.2174 B( 15-C , 17-C ) :   0.9284
B( 17-C , 18-C ) :   1.6406 B( 18-C , 19-C ) :   1.1441 B( 18-C , 83-H ) :   0.9287
B( 19-C , 20-C ) :   1.2560 B( 19-C , 30-C ) :   0.1417 B( 19-C , 32-C ) :   1.2144
B( 20-C , 21-C ) :   1.1193 B( 20-C , 25-N ) :   1.4571 B( 21-C , 22-N ) :   1.4510
B( 21-C , 30-C ) :   1.2659 B( 22-N , 23-C ) :   1.7199 B( 23-C , 24-C ) :   1.2059
B( 23-C , 28-C ) :   1.1465 B( 24-C , 25-N ) :   1.7460 B( 24-C , 26-C ) :   1.1572
B( 26-C , 27-N ) :   3.0444 B( 28-C , 29-N ) :   3.0237 B( 30-C , 31-C ) :   1.2614
B( 30-C , 36-C ) :   1.0762 B( 31-C , 32-C ) :   1.1142 B( 31-C , 35-N ) :   1.5002
B( 32-C , 33-N ) :   1.4917 B( 33-N , 34-S ) :   1.3075 B( 33-N , 35-N ) :   0.1560
B( 34-S , 35-N ) :   1.2959 B( 36-C , 37-C ) :   0.9531 B( 36-C , 48-C ) :   1.7484
B( 37-C , 38-C ) :   1.3290 B( 37-C , 40-C ) :   0.1084 B( 37-C , 42-C ) :   1.3317
B( 38-C , 39-C ) :   1.2923 B( 38-C , 47-F ) :   1.1689 B( 39-C , 40-C ) :   1.2728
B( 39-C , 46-F ) :   1.1780 B( 40-C , 41-C ) :   1.2759 B( 40-C , 45-F ) :   1.1825
B( 41-C , 42-C ) :   1.2841 B( 41-C , 44-F ) :   1.1674 B( 42-C , 43-F ) :   1.1545
B( 48-C , 49-C ) :   0.9728 B( 48-C , 60-C ) :   1.0592 B( 49-C , 50-C ) :   1.3183
B( 49-C , 52-C ) :   0.1147 B( 49-C , 54-C ) :   1.3116 B( 50-C , 51-C ) :   1.2938
B( 50-C , 59-F ) :   1.1440 B( 51-C , 52-C ) :   1.2777 B( 51-C , 58-F ) :   1.1807
B( 52-C , 53-C ) :   1.2677 B( 52-C , 57-F ) :   1.1870 B( 53-C , 54-C ) :   1.2869
B( 53-C , 56-F ) :   1.1783 B( 54-C , 55-F ) :   1.1781 B( 60-C , 61-C ) :   1.8243
B( 60-C , 84-H ) :   0.9350 B( 61-C , 62-C ) :   1.0837 B( 61-C , 63-C ) :   1.0329
B( 62-C , 85-H ) :   0.9421 B( 62-C , 86-H ) :   0.9409 B( 62-C , 87-H ) :   0.9344
B( 63-C , 64-N ) :   1.0227 B( 63-C , 88-H ) :   0.9422 B( 63-C , 89-H ) :   0.9324
B( 64-N , 65-C ) :   1.2222 B( 64-N , 90-H ) :   0.9317 B( 65-C , 66-C ) :   1.5904
B( 65-C , 91-H ) :   0.9640 B( 66-C , 67-C ) :   1.1751 B( 66-C , 92-H ) :   0.9621
B( 67-C , 68-C ) :   1.5856 B( 67-C , 93-H ) :   0.9778 B( 68-C , 69-C ) :   1.1451
B( 68-C , 72-S ) :   1.0111 B( 69-C , 70-C ) :   1.5962 B( 69-C , 94-H ) :   0.9977
B( 70-C , 71-C ) :   1.1797 B( 70-C , 95-H ) :   0.9932 B( 71-C , 72-S ) :   1.0465
B( 71-C , 73-C ) :   1.5374 B( 73-C , 74-C ) :   1.1662 B( 73-C , 77-S ) :   1.0314
B( 74-C , 75-C ) :   1.6479 B( 74-C , 96-H ) :   0.9914 B( 75-C , 76-C ) :   1.0868
B( 75-C , 97-H ) :   0.9924 B( 76-C , 77-S ) :   1.0113 B( 76-C , 78-C ) :   1.8556
B( 78-C , 98-H ) :   0.9499 B( 78-C , 99-H ) :   0.9412

-----------------------------------------------------------------------------
         ABSORPTION SPECTRUM VIA TRANSITION ELECTRIC DIPOLE MOMENTS
-----------------------------------------------------------------------------
State   Energy  Wavelength   fosc         T2         TX        TY        TZ
        (cm-1)    (nm)                  (au**2)     (au)      (au)      (au)
-----------------------------------------------------------------------------
   0    1194.5   8371.5   0.018124735   4.99516   0.19973  -1.73970  -1.38879
   1   13426.6    744.8   0.297666450   7.29859  -0.95448   2.49785   0.38511
   2   14463.2    691.4   0.019885981   0.45265   0.23403  -0.62654  -0.07295
   3   16001.1    625.0   0.100554479   2.06884  -0.65588   0.01805  -1.27997
   4   16956.6    589.7   0.008971778   0.17419  -0.08386  -0.21101  -0.35018
   5   19347.0    516.9   0.029264768   0.49797   0.30594   0.04827   0.63407
   6   19558.8    511.3   0.040537722   0.68233  -0.48773   0.51354   0.42511
   7   19712.4    507.3   1.156990704  19.32265  -1.83548   0.25611  -3.98599
   8   20890.7    478.7   0.000113121   0.00178   0.02141  -0.03463   0.01117
   9   21222.5    471.2   0.059965583   0.93021   0.17961  -0.90413   0.28371
  10   22291.8    448.6   0.081633923   1.20560  -0.31740   0.89227  -0.55561
  11   22454.8    445.3   0.009424614   0.13818   0.11087  -0.19099   0.29901
  12   23046.0    433.9   0.013463684   0.19233  -0.10476   0.39742  -0.15301
  13   23633.5    423.1   0.031263457   0.43550   0.06950  -0.62862   0.18841
  14   23795.1    420.3   0.001497863   0.02072  -0.03024   0.04600  -0.13301
  15   24632.4    406.0   0.006667587   0.08911   0.20798  -0.17243  -0.12697
  16   25073.8    398.8   0.337040404   4.42525  -1.05027   1.76529  -0.45378
  17   25713.4    388.9   0.001215368   0.01556   0.02421   0.06590  -0.10311
  18   27343.8    365.7   0.076293876   0.91856   0.17485  -0.35473   0.87301
  19   27862.6    358.9   0.125584580   1.48385  -0.60556   0.76036  -0.73417
  20   28470.5    351.2   0.004212426   0.04871   0.07504  -0.19914   0.05851
  21   28676.8    348.7   0.015337226   0.17607   0.21261   0.22505  -0.28324
  22   28902.2    346.0   0.000128630   0.00147   0.02939   0.01777  -0.01690
  23   29087.5    343.8   0.074352644   0.84152   0.01825   0.73343  -0.55070
  24   29467.2    339.4   0.072307644   0.80783  -0.14555  -0.88689   0.00869
  25   29661.1    337.1   0.132201933   1.46733  -0.44124  -0.82752   0.76670
  26   29738.4    336.3   0.263607371   2.91821  -0.37310  -1.52549   0.67221
  27   29990.6    333.4   0.010708657   0.11755  -0.08051  -0.04516  -0.33020
  28   30353.7    329.4   0.017843963   0.19353   0.06413   0.39810   0.17590
  29   30533.8    327.5   0.157735834   1.70069   0.37849   0.45151   1.16343
  30   31327.7    319.2   0.042342281   0.44496  -0.17974   0.22358  -0.60222
  31   31788.5    314.6   0.022435132   0.23235   0.07500  -0.32256  -0.35025
  32   31873.5    313.7   0.025309946   0.26142  -0.03851   0.19102   0.47270
  33   32159.1    311.0   0.175164427   1.79315   0.61263   0.60373  -1.02633
  34   32220.4    310.4   0.016198926   0.16551  -0.12108  -0.23914  -0.30605
  35   32383.3    308.8   0.007987021   0.08120   0.03442   0.23573   0.15634
  36   32644.7    306.3   0.055822917   0.56296  -0.29559   0.35839  -0.58919
  37   32695.9    305.8   0.000514050   0.00518   0.00720   0.03981   0.05949
  38   33011.7    302.9   0.119524489   1.19197  -0.01387  -0.74281   0.80001
  39   33654.5    297.1   0.028467466   0.27847  -0.23821   0.12759  -0.45327
  40   33767.5    296.1   0.057866366   0.56416   0.21050   0.56442   0.44865
  41   34010.6    294.0   0.048296363   0.46749   0.36013   0.58112  -0.01002
  42   34420.4    290.5   0.209694973   2.00561  -0.45647  -1.33788  -0.08566
  43   34752.3    287.8   0.460727255   4.36452  -0.92028  -0.54186   1.79555
  44   35041.0    285.4   0.096673103   0.90825  -0.90057  -0.28896  -0.11719
  45   35401.7    282.5   0.095440637   0.88753   0.45974  -0.04751   0.82092
  46   36178.6    276.4   0.000801609   0.00729  -0.02150  -0.05387  -0.06269
  47   36507.4    273.9   0.271903240   2.45193  -0.33504  -0.24514   1.50983
  48   36647.9    272.9   0.021857805   0.19635  -0.23012  -0.30599   0.22309
  49   36770.2    272.0   0.070162104   0.62818  -0.16277  -0.61718  -0.46986
  50   37057.6    269.9   0.020446565   0.18164   0.12764  -0.03436  -0.40518
  51   37365.7    267.6   0.479736650   4.22674   0.00405   0.84306  -1.87509
  52   37806.7    264.5   0.025740836   0.22414  -0.01224   0.25247  -0.40031
  53   38033.2    262.9   0.039535434   0.34222   0.33533   0.46861  -0.10089
  54   38244.3    261.5   0.003217130   0.02769  -0.03953  -0.15596  -0.04252
  55   38533.9    259.5   0.015202978   0.12989   0.28401  -0.21481   0.05549
  56   38964.3    256.6   0.016100223   0.13603  -0.30769   0.16280   0.12189
  57   39127.0    255.6   0.004773042   0.04016   0.13624  -0.12384   0.07914
  58   39279.8    254.6   0.065108303   0.54569   0.55438  -0.48029   0.08754
  59   39306.4    254.4   0.040654150   0.34050  -0.44160   0.35468  -0.14033
  60   39358.1    254.1   0.017931838   0.14999   0.21524  -0.25139  -0.20117
  61   39566.6    252.7   0.125209055   1.04180  -0.10960  -0.64236   0.78559
  62   39852.8    250.9   0.134875486   1.11417   0.47865  -0.03156  -0.94025
  63   40136.3    249.2   0.001930216   0.01583   0.01094  -0.06514  -0.10709
  64   40209.9    248.7   0.012126334   0.09928  -0.16920   0.20829   0.16513

FINAL SINGLE POINT ENERGY     -5262.514772747619

DIPOLE MOMENT
-------------
                                X             Y             Z
Electronic contribution:     -5.91014     -40.92490     -56.27002
Nuclear contribution   :      4.13456      40.66551      58.61266
                        -----------------------------------------
Total Dipole Moment    :     -1.77558      -0.25938       2.34264
                        -----------------------------------------
Magnitude (a.u.)       :      2.95092
Magnitude (Debye)      :      7.50064

Rotational constants in cm-1:     0.000882     0.000425     0.000333
Rotational constants in MHz :    26.437543    12.749409     9.979973

                             ****ORCA TERMINATED NORMALLY****
TOTAL RUN TIME: 0 days 0 hours 11 minutes 50 seconds 485 msec
