                         Program Version 4.2.0 -  RELEASE  -
|  1> # ORCA input file
|  2> # SCF done       -182.012820828893          0.001387098762
|  3> ! CAM-B3LYP def2-SVP def2/J RIJCOSX Grid4 TightSCF
|  4> %maxcore 5000
|  5> %tddft
|  6>     Mode sTDDFT
|  7>     Ethresh 5.0
|  8>     maxcore 5000
|  9> end
| 10>
| 11> %pal
| 12>   nprocs 6
| 13>   end
| 14> * xyz 0 1
| 15>    C       -3.52661        -1.88005        -0.76835
| 16>    C       -2.72211        -2.27487        -1.80637
| 17>    C       -2.06717        -3.52260        -1.86816
| 18>    N       -1.48179        -4.50613        -1.95412
| 19>    C       -2.39875        -1.48897        -2.93020
| 20>    N       -2.06997        -0.91310        -3.86808
| 21>    C       -3.87430        -2.68402         0.39507
| 22>    C       -4.69403        -1.91512         1.26055
| 23>    C       -5.17539        -2.40085         2.45124
| 24>    C       -4.81997        -3.70350         2.81600
| 25>    C       -4.00348        -4.46662         1.94518
| 26>    C       -3.52835        -3.97996         0.73414
| 27>    S       -3.67731        -6.04280         2.59241
| 28>    C       -4.63097        -5.66573         4.00181
| 29>    C       -5.16718        -4.42128         3.99119
| 30>   Br       -4.83308        -6.94798         5.35143
| 31>    C       -4.92276        -0.58749         0.66736
| 32>    O       -5.70088         0.25807         1.04495
| 33>    C       -4.10171        -0.56015        -0.57785
| 34>    C       -3.97409         0.52225        -1.38808
| 35>    C       -4.32184         1.86044        -1.01821
| 36>    N       -4.70342         2.67889        -1.98661
| 37>    N       -5.05278         3.89800        -1.77668
| 38>    C       -5.10724         4.49325        -0.58095
| 39>    C       -4.65174         3.74062         0.54120
| 40>    C       -4.19760         2.39481         0.30247
| 41>    N       -3.64494         1.96577         1.41572
| 42>    O       -3.76924         2.96072         2.29474
| 43>    N       -4.37244         4.03398         1.79044
| 44>    C       -5.52326         5.83702        -0.58075
| 45>    C       -5.62179         6.48884        -1.78971
| 46>    C       -5.98782         7.84008        -2.03988
| 47>    C       -5.84888         8.21781        -3.34098
| 48>    C       -5.32338         7.18561        -4.15467
| 49>    S       -5.15232         5.68202        -3.25310
| 50>    C       -4.84397         7.21248        -5.44868
| 51>    C       -4.94930         8.19067        -6.46448
| 52>    C       -4.25283         7.86086        -7.58759
| 53>    C       -3.53075         6.64115        -7.47796
| 54>    S       -3.81468         5.87139        -5.95112
| 55>    C       -2.62475         6.10886        -8.37053
| 56>    C       -1.88456         4.97895        -7.98579
| 57>    N       -2.20529         4.42404        -6.81111
| 58>    N       -1.50848         3.53213        -6.19669
| 59>    C       -0.39065         3.01834        -6.68996
| 60>    C       -0.00091         3.40854        -8.01122
| 61>    C       -0.77025         4.42429        -8.68449
| 62>    N       -0.21757         4.62618        -9.85857
| 63>    O        0.82151         3.79312        -9.92207
| 64>    N        0.97171         3.05579        -8.82138
| 65>    C        0.37490         2.07366        -5.94569
| 66>    C        0.31665         1.73996        -4.63042
| 67>    C       -0.39182         2.27695        -3.48365
| 68>    C       -0.83802         3.56013        -3.30826
| 69>    C       -1.53099         4.00735        -2.16694
| 70>    N       -2.11235         4.42037        -1.26598
| 71>    C       -0.53496         4.63286        -4.17420
| 72>    N       -0.20596         5.57606        -4.74083
| 73>    C       -0.36372         1.25217        -2.44327
| 74>    C        0.47232         0.18635        -2.85934
| 75>    C        1.00579         0.48414        -4.20180
| 76>    O        1.81024        -0.14939        -4.83962
| 77>    C        0.69944        -0.92544        -2.08324
| 78>    C        0.06646        -0.99349        -0.83846
| 79>    C       -0.74086         0.09057        -0.41366
| 80>    C       -0.96069         1.21648        -1.19650
| 81>    S       -1.41772        -0.18587         1.16276
| 82>    C       -0.63560        -1.74744         1.21676
| 83>    C        0.10555        -2.04203         0.12372
| 84>   Br       -0.88972        -2.83835         2.71592
| 85>    H       -5.79756        -1.79004         3.08640
| 86>    H       -2.91207        -4.60172         0.10636
| 87>    H       -5.78154        -4.02515         4.77910
| 88>    H       -3.60127         0.41807        -2.39808
| 89>    H       -5.70335         6.34283         0.35393
| 90>    H       -6.32480         8.48558        -1.24742
| 91>    H       -6.05081         9.20767        -3.71182
| 92>    H       -5.53479         9.08657        -6.35292
| 93>    H       -4.20691         8.46189        -8.47912
| 94>    H       -2.41476         6.58492        -9.31496
| 95>    H        1.08131         1.49902        -6.53760
| 96>    H        1.33553        -1.72404        -2.43105
| 97>    H       -1.57769         2.01705        -0.82720
| 98>    H        0.64877        -2.95980        -0.01021
| 99> *
|100>
|101>                          ****END OF INPUT****

CARTESIAN COORDINATES (ANGSTROEM)
---------------------------------
  C     -3.526610   -1.880050   -0.768350
  C     -2.722110   -2.274870   -1.806370
  C     -2.067170   -3.522600   -1.868160
  N     -1.481790   -4.506130   -1.954120
  C     -2.398750   -1.488970   -2.930200
  N     -2.069970   -0.913100   -3.868080
  C     -3.874300   -2.684020    0.395070
  C     -4.694030   -1.915120    1.260550
  C     -5.175390   -2.400850    2.451240
  C     -4.819970   -3.703500    2.816000
  C     -4.003480   -4.466620    1.945180
  C     -3.528350   -3.979960    0.734140
  S     -3.677310   -6.042800    2.592410
  C     -4.630970   -5.665730    4.001810
  C     -5.167180   -4.421280    3.991190
  Br    -4.833080   -6.947980    5.351430
  C     -4.922760   -0.587490    0.667360
  O     -5.700880    0.258070    1.044950
  C     -4.101710   -0.560150   -0.577850
  C     -3.974090    0.522250   -1.388080
  C     -4.321840    1.860440   -1.018210
  N     -4.703420    2.678890   -1.986610
  N     -5.052780    3.898000   -1.776680
  C     -5.107240    4.493250   -0.580950
  C     -4.651740    3.740620    0.541200
  C     -4.197600    2.394810    0.302470
  N     -3.644940    1.965770    1.415720
  O     -3.769240    2.960720    2.294740
  N     -4.372440    4.033980    1.790440
  C     -5.523260    5.837020   -0.580750
  C     -5.621790    6.488840   -1.789710
  C     -5.987820    7.840080   -2.039880
  C     -5.848880    8.217810   -3.340980
  C     -5.323380    7.185610   -4.154670
  S     -5.152320    5.682020   -3.253100
  C     -4.843970    7.212480   -5.448680
  C     -4.949300    8.190670   -6.464480
  C     -4.252830    7.860860   -7.587590
  C     -3.530750    6.641150   -7.477960
  S     -3.814680    5.871390   -5.951120
  C     -2.624750    6.108860   -8.370530
  C     -1.884560    4.978950   -7.985790
  N     -2.205290    4.424040   -6.811110
  N     -1.508480    3.532130   -6.196690
  C     -0.390650    3.018340   -6.689960
  C     -0.000910    3.408540   -8.011220
  C     -0.770250    4.424290   -8.684490
  N     -0.217570    4.626180   -9.858570
  O      0.821510    3.793120   -9.922070
  N      0.971710    3.055790   -8.821380
  C      0.374900    2.073660   -5.945690
  C      0.316650    1.739960   -4.630420
  C     -0.391820    2.276950   -3.483650
  C     -0.838020    3.560130   -3.308260
  C     -1.530990    4.007350   -2.166940
  N     -2.112350    4.420370   -1.265980
  C     -0.534960    4.632860   -4.174200
  N     -0.205960    5.576060   -4.740830
  C     -0.363720    1.252170   -2.443270
  C      0.472320    0.186350   -2.859340
  C      1.005790    0.484140   -4.201800
  O      1.810240   -0.149390   -4.839620
  C      0.699440   -0.925440   -2.083240
  C      0.066460   -0.993490   -0.838460
  C     -0.740860    0.090570   -0.413660
  C     -0.960690    1.216480   -1.196500
  S     -1.417720   -0.185870    1.162760
  C     -0.635600   -1.747440    1.216760
  C      0.105550   -2.042030    0.123720
  Br    -0.889720   -2.838350    2.715920
  H     -5.797560   -1.790040    3.086400
  H     -2.912070   -4.601720    0.106360
  H     -5.781540   -4.025150    4.779100
  H     -3.601270    0.418070   -2.398080
  H     -5.703350    6.342830    0.353930
  H     -6.324800    8.485580   -1.247420
  H     -6.050810    9.207670   -3.711820
  H     -5.534790    9.086570   -6.352920
  H     -4.206910    8.461890   -8.479120
  H     -2.414760    6.584920   -9.314960
  H      1.081310    1.499020   -6.537600
  H      1.335530   -1.724040   -2.431050
  H     -1.577690    2.017050   -0.827200
  H      0.648770   -2.959800   -0.010210

 Total Charge           Charge          ....    0
 Multiplicity           Mult            ....    1
 Number of Electrons    NEL             ....  552
 Basis Dimension        Dim             .... 1102

ORBITAL ENERGIES
----------------

  NO   OCC          E(Eh)            E(eV)
   0   2.0000    -482.888237    -13140.0570
   1   2.0000    -482.885838    -13139.9917
   2   2.0000     -88.978532     -2421.2290
   3   2.0000     -88.975022     -2421.1334
   4   2.0000     -88.958122     -2420.6736
   5   2.0000     -88.957450     -2420.6553
   6   2.0000     -62.565950     -1702.5061
   7   2.0000     -62.563205     -1702.4314
   8   2.0000     -56.399896     -1534.7192
   9   2.0000     -56.397189     -1534.6455
  10   2.0000     -56.397152     -1534.6445
  11   2.0000     -56.397143     -1534.6443
  12   2.0000     -56.394489     -1534.5721
  13   2.0000     -56.394426     -1534.5704
  14   2.0000     -19.366929      -527.0009
  15   2.0000     -19.364654      -526.9390
  16   2.0000     -19.220517      -523.0168
  17   2.0000     -19.212542      -522.7998
  18   2.0000     -14.496216      -394.4621
  19   2.0000     -14.493667      -394.3927
  20   2.0000     -14.493174      -394.3793
  21   2.0000     -14.489722      -394.2854
  22   2.0000     -14.464021      -393.5860
  23   2.0000     -14.461495      -393.5173
  24   2.0000     -14.450667      -393.2226
  25   2.0000     -14.448508      -393.1639
  26   2.0000     -14.424054      -392.4985
  27   2.0000     -14.423346      -392.4792
  28   2.0000     -14.421009      -392.4156
  29   2.0000     -14.408018      -392.0621
  30   2.0000     -10.370757      -282.2026
  31   2.0000     -10.362050      -281.9657
  32   2.0000     -10.361710      -281.9565
  33   2.0000     -10.356402      -281.8120
  34   2.0000     -10.349913      -281.6355
  35   2.0000     -10.347146      -281.5602
  36   2.0000     -10.347097      -281.5588
  37   2.0000     -10.346850      -281.5521
  38   2.0000     -10.341460      -281.4054
  39   2.0000     -10.340145      -281.3697
  40   2.0000     -10.339467      -281.3512
  41   2.0000     -10.339183      -281.3435
  42   2.0000     -10.339142      -281.3424
  43   2.0000     -10.338773      -281.3323
  44   2.0000     -10.336100      -281.2596
  45   2.0000     -10.335751      -281.2501
  46   2.0000     -10.329092      -281.0689
  47   2.0000     -10.329002      -281.0664
  48   2.0000     -10.327814      -281.0341
  49   2.0000     -10.326427      -280.9964
  50   2.0000     -10.326242      -280.9913
  51   2.0000     -10.325302      -280.9658
  52   2.0000     -10.324914      -280.9552
  53   2.0000     -10.318035      -280.7680
  54   2.0000     -10.314873      -280.6820
  55   2.0000     -10.313339      -280.6402
  56   2.0000     -10.313045      -280.6322
  57   2.0000     -10.312413      -280.6150
  58   2.0000     -10.311544      -280.5914
  59   2.0000     -10.310021      -280.5499
  60   2.0000     -10.308623      -280.5119
  61   2.0000     -10.307520      -280.4819
  62   2.0000     -10.306974      -280.4670
  63   2.0000     -10.306839      -280.4633
  64   2.0000     -10.306280      -280.4481
  65   2.0000     -10.305276      -280.4208
  66   2.0000     -10.304024      -280.3867
  67   2.0000     -10.303600      -280.3752
  68   2.0000     -10.303592      -280.3750
  69   2.0000     -10.303129      -280.3624
  70   2.0000     -10.301255      -280.3114
  71   2.0000     -10.299242      -280.2566
  72   2.0000     -10.297898      -280.2200
  73   2.0000     -10.295812      -280.1633
  74   2.0000     -10.295426      -280.1528
  75   2.0000     -10.295220      -280.1472
  76   2.0000     -10.295113      -280.1443
  77   2.0000     -10.290136      -280.0088
  78   2.0000      -8.795387      -239.3347
  79   2.0000      -8.792527      -239.2568
  80   2.0000      -8.074573      -219.7203
  81   2.0000      -8.069474      -219.5816
  82   2.0000      -8.050661      -219.0696
  83   2.0000      -8.049964      -219.0507
  84   2.0000      -6.631660      -180.4566
  85   2.0000      -6.628710      -180.3764
  86   2.0000      -6.617148      -180.0618
  87   2.0000      -6.616925      -180.0557
  88   2.0000      -6.614351      -179.9857
  89   2.0000      -6.614098      -179.9787
  90   2.0000      -6.044226      -164.4718
  91   2.0000      -6.039978      -164.3562
  92   2.0000      -6.039271      -164.3369
  93   2.0000      -6.035833      -164.2434
  94   2.0000      -6.034788      -164.2149
  95   2.0000      -6.030817      -164.1069
  96   2.0000      -6.020840      -163.8354
  97   2.0000      -6.020188      -163.8176
  98   2.0000      -6.015567      -163.6919
  99   2.0000      -6.014933      -163.6746
 100   2.0000      -6.012128      -163.5983
 101   2.0000      -6.011359      -163.5774
 102   2.0000      -2.747593       -74.7658
 103   2.0000      -2.744612       -74.6847
 104   2.0000      -2.743442       -74.6529
 105   2.0000      -2.743288       -74.6487
 106   2.0000      -2.740558       -74.5744
 107   2.0000      -2.740455       -74.5716
 108   2.0000      -2.731752       -74.3348
 109   2.0000      -2.731746       -74.3346
 110   2.0000      -2.728991       -74.2596
 111   2.0000      -2.728975       -74.2592
 112   2.0000      -1.319765       -35.9126
 113   2.0000      -1.317787       -35.8588
 114   2.0000      -1.140058       -31.0226
 115   2.0000      -1.139345       -31.0032
 116   2.0000      -1.136119       -30.9154
 117   2.0000      -1.128432       -30.7062
 118   2.0000      -1.029415       -28.0118
 119   2.0000      -1.026297       -27.9270
 120   2.0000      -1.023655       -27.8551
 121   2.0000      -1.021478       -27.7958
 122   2.0000      -1.018474       -27.7141
 123   2.0000      -1.012723       -27.5576
 124   2.0000      -1.010100       -27.4862
 125   2.0000      -1.002682       -27.2844
 126   2.0000      -0.996028       -27.1033
 127   2.0000      -0.994125       -27.0515
 128   2.0000      -0.992569       -27.0092
 129   2.0000      -0.988178       -26.8897
 130   2.0000      -0.984968       -26.8023
 131   2.0000      -0.983833       -26.7715
 132   2.0000      -0.964936       -26.2573
 133   2.0000      -0.958831       -26.0911
 134   2.0000      -0.944957       -25.7136
 135   2.0000      -0.938999       -25.5515
 136   2.0000      -0.913540       -24.8587
 137   2.0000      -0.909789       -24.7566
 138   2.0000      -0.906958       -24.6796
 139   2.0000      -0.902673       -24.5630
 140   2.0000      -0.889343       -24.2003
 141   2.0000      -0.886999       -24.1365
 142   2.0000      -0.884039       -24.0559
 143   2.0000      -0.875691       -23.8288
 144   2.0000      -0.867205       -23.5978
 145   2.0000      -0.853185       -23.2164
 146   2.0000      -0.844314       -22.9750
 147   2.0000      -0.836284       -22.7564
 148   2.0000      -0.832608       -22.6564
 149   2.0000      -0.829938       -22.5838
 150   2.0000      -0.826725       -22.4963
 151   2.0000      -0.815070       -22.1792
 152   2.0000      -0.794096       -21.6084
 153   2.0000      -0.784810       -21.3558
 154   2.0000      -0.779832       -21.2203
 155   2.0000      -0.773331       -21.0434
 156   2.0000      -0.769327       -20.9344
 157   2.0000      -0.762771       -20.7561
 158   2.0000      -0.755498       -20.5582
 159   2.0000      -0.748620       -20.3710
 160   2.0000      -0.724013       -19.7014
 161   2.0000      -0.714907       -19.4536
 162   2.0000      -0.705840       -19.2069
 163   2.0000      -0.697957       -18.9924
 164   2.0000      -0.695902       -18.9365
 165   2.0000      -0.688345       -18.7308
 166   2.0000      -0.684532       -18.6271
 167   2.0000      -0.679807       -18.4985
 168   2.0000      -0.676693       -18.4138
 169   2.0000      -0.671186       -18.2639
 170   2.0000      -0.666040       -18.1239
 171   2.0000      -0.658816       -17.9273
 172   2.0000      -0.657980       -17.9046
 173   2.0000      -0.654155       -17.8005
 174   2.0000      -0.644005       -17.5243
 175   2.0000      -0.641866       -17.4661
 176   2.0000      -0.638049       -17.3622
 177   2.0000      -0.628313       -17.0973
 178   2.0000      -0.622031       -16.9263
 179   2.0000      -0.618804       -16.8385
 180   2.0000      -0.617485       -16.8026
 181   2.0000      -0.605907       -16.4876
 182   2.0000      -0.604855       -16.4589
 183   2.0000      -0.603042       -16.4096
 184   2.0000      -0.600693       -16.3457
 185   2.0000      -0.599256       -16.3066
 186   2.0000      -0.590548       -16.0696
 187   2.0000      -0.583804       -15.8861
 188   2.0000      -0.579072       -15.7573
 189   2.0000      -0.576755       -15.6943
 190   2.0000      -0.562244       -15.2994
 191   2.0000      -0.557130       -15.1603
 192   2.0000      -0.554274       -15.0826
 193   2.0000      -0.550581       -14.9821
 194   2.0000      -0.547504       -14.8983
 195   2.0000      -0.544915       -14.8279
 196   2.0000      -0.540953       -14.7201
 197   2.0000      -0.539409       -14.6781
 198   2.0000      -0.536550       -14.6003
 199   2.0000      -0.534517       -14.5449
 200   2.0000      -0.532360       -14.4862
 201   2.0000      -0.530943       -14.4477
 202   2.0000      -0.530587       -14.4380
 203   2.0000      -0.525886       -14.3101
 204   2.0000      -0.523572       -14.2471
 205   2.0000      -0.519636       -14.1400
 206   2.0000      -0.516304       -14.0494
 207   2.0000      -0.511950       -13.9309
 208   2.0000      -0.511384       -13.9155
 209   2.0000      -0.508435       -13.8352
 210   2.0000      -0.504538       -13.7292
 211   2.0000      -0.503745       -13.7076
 212   2.0000      -0.500651       -13.6234
 213   2.0000      -0.498992       -13.5783
 214   2.0000      -0.496809       -13.5189
 215   2.0000      -0.491276       -13.3683
 216   2.0000      -0.489784       -13.3277
 217   2.0000      -0.488284       -13.2869
 218   2.0000      -0.481537       -13.1033
 219   2.0000      -0.479991       -13.0612
 220   2.0000      -0.478012       -13.0074
 221   2.0000      -0.471492       -12.8300
 222   2.0000      -0.464576       -12.6418
 223   2.0000      -0.463282       -12.6066
 224   2.0000      -0.462739       -12.5918
 225   2.0000      -0.461360       -12.5542
 226   2.0000      -0.460305       -12.5255
 227   2.0000      -0.457461       -12.4482
 228   2.0000      -0.456306       -12.4167
 229   2.0000      -0.452227       -12.3057
 230   2.0000      -0.451533       -12.2868
 231   2.0000      -0.446916       -12.1612
 232   2.0000      -0.445427       -12.1207
 233   2.0000      -0.443660       -12.0726
 234   2.0000      -0.442309       -12.0358
 235   2.0000      -0.440391       -11.9836
 236   2.0000      -0.437096       -11.8940
 237   2.0000      -0.431503       -11.7418
 238   2.0000      -0.429007       -11.6739
 239   2.0000      -0.427731       -11.6392
 240   2.0000      -0.423917       -11.5354
 241   2.0000      -0.421228       -11.4622
 242   2.0000      -0.420568       -11.4442
 243   2.0000      -0.417123       -11.3505
 244   2.0000      -0.414529       -11.2799
 245   2.0000      -0.413246       -11.2450
 246   2.0000      -0.408758       -11.1229
 247   2.0000      -0.406952       -11.0737
 248   2.0000      -0.405961       -11.0468
 249   2.0000      -0.403721       -10.9858
 250   2.0000      -0.400243       -10.8912
 251   2.0000      -0.398234       -10.8365
 252   2.0000      -0.394530       -10.7357
 253   2.0000      -0.392121       -10.6701
 254   2.0000      -0.387532       -10.5453
 255   2.0000      -0.379549       -10.3281
 256   2.0000      -0.377507       -10.2725
 257   2.0000      -0.377058       -10.2603
 258   2.0000      -0.374260       -10.1841
 259   2.0000      -0.371550       -10.1104
 260   2.0000      -0.365673        -9.9505
 261   2.0000      -0.352308        -9.5868
 262   2.0000      -0.345401        -9.3988
 263   2.0000      -0.340656        -9.2697
 264   2.0000      -0.340020        -9.2524
 265   2.0000      -0.333236        -9.0678
 266   2.0000      -0.327735        -8.9181
 267   2.0000      -0.323098        -8.7920
 268   2.0000      -0.314205        -8.5500
 269   2.0000      -0.311395        -8.4735
 270   2.0000      -0.307011        -8.3542
 271   2.0000      -0.299893        -8.1605
 272   2.0000      -0.295699        -8.0464
 273   2.0000      -0.289790        -7.8856
 274   2.0000      -0.286376        -7.7927
 275   2.0000      -0.245475        -6.6797
 276   0.0000      -0.130543        -3.5523
 277   0.0000      -0.101842        -2.7713
 278   0.0000      -0.083802        -2.2804
 279   0.0000      -0.073347        -1.9959
 280   0.0000      -0.054189        -1.4746

MULLIKEN ATOMIC CHARGES
-----------------------
   0 C :    0.321495
   1 C :   -0.347500
   2 C :   -0.200969
   3 N :    0.162374
   4 C :   -0.175618
   5 N :    0.153081
   6 C :    0.024331
   7 C :   -0.016902
   8 C :   -0.072117
   9 C :    0.124354
  10 C :   -0.085486
  11 C :   -0.029809
  12 S :    0.184956
  13 C :   -0.123558
  14 C :    0.036208
  15 Br:    0.026423
  16 C :    0.156811
  17 O :   -0.140702
  18 C :   -0.074313
  19 C :   -0.020390
  20 C :   -0.115495
  21 N :    0.003054
  22 N :   -0.192699
  23 C :    0.104741
  24 C :    0.015355
  25 C :    0.073926
  26 N :    0.034492
  27 O :   -0.092887
  28 N :    0.079595
  29 C :   -0.072144
  30 C :    0.013265
  31 C :    0.041731
  32 C :    0.051664
  33 C :   -0.051050
  34 S :    0.187069
  35 C :   -0.046034
  36 C :    0.047823
  37 C :    0.041675
  38 C :    0.013966
  39 S :    0.192727
  40 C :   -0.085121
  41 C :    0.106332
  42 N :   -0.179232
  43 N :   -0.034127
  44 C :   -0.053446
  45 C :    0.018567
  46 C :   -0.011554
  47 N :    0.078567
  48 O :   -0.096646
  49 N :    0.084940
  50 C :   -0.013436
  51 C :   -0.063289
  52 C :    0.306345
  53 C :   -0.300403
  54 C :   -0.157944
  55 N :    0.123073
  56 C :   -0.190063
  57 N :    0.152320
  58 C :    0.019553
  59 C :    0.018403
  60 C :    0.133273
  61 O :   -0.132221
  62 C :   -0.074935
  63 C :    0.117917
  64 C :   -0.121404
  65 C :   -0.018268
  66 S :    0.197020
  67 C :   -0.141516
  68 C :    0.057564
  69 Br:    0.026619
  70 H :   -0.007778
  71 H :   -0.008432
  72 H :   -0.001949
  73 H :    0.028567
  74 H :   -0.002055
  75 H :   -0.000049
  76 H :   -0.007027
  77 H :   -0.006460
  78 H :   -0.000448
  79 H :   -0.002322
  80 H :    0.031221
  81 H :   -0.003954
  82 H :   -0.022430
  83 H :    0.002785
Sum of atomic charges:   -0.0000000

LOEWDIN ATOMIC CHARGES
----------------------
   0 C :    0.070927
   1 C :   -0.133874
   2 C :   -0.015257
   3 N :   -0.053616
   4 C :   -0.012561
   5 N :   -0.048807
   6 C :   -0.024022
   7 C :   -0.050317
   8 C :    0.024643
   9 C :   -0.031696
  10 C :   -0.146163
  11 C :   -0.011460
  12 S :    0.433678
  13 C :   -0.272645
  14 C :   -0.069563
  15 Br:    0.139569
  16 C :    0.082598
  17 O :   -0.131924
  18 C :   -0.080060
  19 C :    0.057182
  20 C :   -0.042211
  21 N :   -0.003884
  22 N :   -0.084783
  23 C :    0.020698
  24 C :   -0.057497
  25 C :   -0.053536
  26 N :   -0.024607
  27 O :    0.083314
  28 N :    0.000844
  29 C :   -0.060261
  30 C :   -0.104482
  31 C :   -0.020532
  32 C :   -0.014151
  33 C :   -0.169246
  34 S :    0.479641
  35 C :   -0.174516
  36 C :   -0.015194
  37 C :   -0.022410
  38 C :   -0.106883
  39 S :    0.486096
  40 C :   -0.067920
  41 C :    0.010602
  42 N :   -0.082861
  43 N :    0.003640
  44 C :   -0.037591
  45 C :   -0.057981
  46 C :   -0.063614
  47 N :   -0.005547
  48 O :    0.081659
  49 N :   -0.008235
  50 C :    0.058344
  51 C :   -0.051041
  52 C :    0.077133
  53 C :   -0.116799
  54 C :    0.001233
  55 N :   -0.072380
  56 C :   -0.016248
  57 N :   -0.061579
  58 C :   -0.011679
  59 C :   -0.043002
  60 C :    0.088875
  61 O :   -0.129363
  62 C :    0.025517
  63 C :   -0.035679
  64 C :   -0.144522
  65 C :   -0.021093
  66 S :    0.464779
  67 C :   -0.278847
  68 C :   -0.065986
  69 Br:    0.146788
  70 H :    0.042180
  71 H :    0.039507
  72 H :    0.039526
  73 H :    0.050478
  74 H :    0.042063
  75 H :    0.037579
  76 H :    0.033387
  77 H :    0.033416
  78 H :    0.037233
  79 H :    0.041448
  80 H :    0.053614
  81 H :    0.044272
  82 H :    0.034131
  83 H :    0.041532

  Mayer bond orders larger than 0.100000
B(  0-C ,  1-C ) :   1.6430 B(  0-C ,  6-C ) :   1.0069 B(  0-C , 18-C ) :   1.0579
B(  1-C ,  2-C ) :   1.1471 B(  1-C ,  4-C ) :   1.1468 B(  2-C ,  3-N ) :   2.9624
B(  4-C ,  5-N ) :   2.9184 B(  6-C ,  7-C ) :   1.2685 B(  6-C , 11-C ) :   1.3996
B(  7-C ,  8-C ) :   1.4246 B(  7-C , 16-C ) :   0.9362 B(  8-C ,  9-C ) :   1.2436
B(  8-C , 70-H ) :   1.0156 B(  9-C , 10-C ) :   1.3005 B(  9-C , 14-C ) :   1.1648
B( 10-C , 11-C ) :   1.3259 B( 10-C , 12-S ) :   1.0871 B( 11-C , 71-H ) :   0.9835
B( 12-S , 13-C ) :   1.0846 B( 13-C , 14-C ) :   1.6155 B( 13-C , 15-Br) :   1.0207
B( 14-C , 72-H ) :   1.0004 B( 16-C , 17-O ) :   2.2347 B( 16-C , 18-C ) :   0.9278
B( 18-C , 19-C ) :   1.6531 B( 19-C , 20-C ) :   1.1257 B( 19-C , 73-H ) :   0.9243
B( 20-C , 21-N ) :   1.6582 B( 20-C , 25-C ) :   1.0487 B( 21-N , 22-N ) :   1.2872
B( 22-N , 23-C ) :   1.4017 B( 22-N , 34-S ) :   0.1484 B( 23-C , 24-C ) :   1.0488
B( 23-C , 29-C ) :   1.2711 B( 24-C , 25-C ) :   1.1803 B( 24-C , 28-N ) :   1.6498
B( 25-C , 26-N ) :   1.5653 B( 26-N , 27-O ) :   1.0630 B( 26-N , 28-N ) :   0.1745
B( 27-O , 28-N ) :   1.0737 B( 29-C , 30-C ) :   1.4632 B( 29-C , 74-H ) :   0.9900
B( 30-C , 31-C ) :   1.1354 B( 30-C , 34-S ) :   1.1188 B( 31-C , 32-C ) :   1.5900
B( 31-C , 75-H ) :   0.9991 B( 32-C , 33-C ) :   1.1699 B( 32-C , 76-H ) :   0.9958
B( 33-C , 34-S ) :   0.9923 B( 33-C , 35-C ) :   1.5194 B( 35-C , 36-C ) :   1.1740
B( 35-C , 39-S ) :   0.9874 B( 36-C , 37-C ) :   1.5838 B( 36-C , 77-H ) :   0.9973
B( 37-C , 38-C ) :   1.1389 B( 37-C , 78-H ) :   0.9997 B( 38-C , 39-S ) :   1.1393
B( 38-C , 40-C ) :   1.4415 B( 39-S , 42-N ) :   0.1501 B( 40-C , 41-C ) :   1.2921
B( 40-C , 79-H ) :   0.9919 B( 41-C , 42-N ) :   1.4071 B( 41-C , 46-C ) :   1.0397
B( 42-N , 43-N ) :   1.2928 B( 43-N , 44-C ) :   1.5987 B( 44-C , 45-C ) :   1.0514
B( 44-C , 50-C ) :   1.1267 B( 45-C , 46-C ) :   1.1703 B( 45-C , 49-N ) :   1.6650
B( 46-C , 47-N ) :   1.6538 B( 47-N , 48-O ) :   1.0672 B( 47-N , 49-N ) :   0.1731
B( 48-O , 49-N ) :   1.0620 B( 50-C , 51-C ) :   1.6547 B( 50-C , 80-H ) :   0.9456
B( 51-C , 52-C ) :   1.0214 B( 51-C , 60-C ) :   0.9283 B( 52-C , 53-C ) :   1.6621
B( 52-C , 58-C ) :   1.0234 B( 53-C , 54-C ) :   1.1508 B( 53-C , 56-C ) :   1.1604
B( 54-C , 55-N ) :   2.9240 B( 56-C , 57-N ) :   2.9811 B( 58-C , 59-C ) :   1.2807
B( 58-C , 65-C ) :   1.4132 B( 59-C , 60-C ) :   0.9214 B( 59-C , 62-C ) :   1.3990
B( 60-C , 61-O ) :   2.2745 B( 62-C , 63-C ) :   1.2549 B( 62-C , 81-H ) :   1.0232
B( 63-C , 64-C ) :   1.2826 B( 63-C , 68-C ) :   1.1502 B( 64-C , 65-C ) :   1.3381
B( 64-C , 66-S ) :   1.1006 B( 65-C , 82-H ) :   0.9660 B( 66-S , 67-C ) :   1.0622
B( 67-C , 68-C ) :   1.6153 B( 67-C , 69-Br) :   1.0206 B( 68-C , 83-H ) :   1.0014

-----------------------------------------------------------------------------
         ABSORPTION SPECTRUM VIA TRANSITION ELECTRIC DIPOLE MOMENTS
-----------------------------------------------------------------------------
State   Energy  Wavelength   fosc         T2         TX        TY        TZ
        (cm-1)    (nm)                  (au**2)     (au)      (au)      (au)
-----------------------------------------------------------------------------
   0    9223.9   1084.1   0.262509573   9.36925   1.70870   0.68339  -2.44593
   1   13951.4    716.8   0.015249607   0.35985   0.04373  -0.39038   0.45336
   2   15949.1    627.0   0.333023015   6.87407   0.78996  -2.10680   1.34589
   3   16180.8    618.0   0.043997802   0.89517  -0.38569   0.80264  -0.31966
   4   19086.2    523.9   0.205836015   3.55040  -0.96044   1.48073  -0.65986
   5   20075.4    498.1   0.333723409   5.47267   0.62413  -1.72215   1.45510
   6   20577.7    486.0   0.420946215   6.73449   1.35740  -2.08639  -0.73413
   7   22145.5    451.6   0.024690418   0.36705  -0.31096   0.48311   0.19224
   8   22568.4    443.1   0.111780032   1.63057   0.43490   0.61305  -1.03228
   9   23019.1    434.4   0.025633461   0.36660  -0.03260   0.02626   0.60403
  10   23323.8    428.7   0.052436392   0.74013   0.41295  -0.45379   0.60306
  11   24064.8    415.5   0.196070342   2.68229  -0.20448   1.54576  -0.50110
  12   24206.6    413.1   0.049231376   0.66955  -0.19409  -0.60036   0.52100
  13   24720.9    404.5   0.178826313   2.38145   0.10220  -0.93026   1.22704
  14   25166.6    397.4   0.057386886   0.75069  -0.53100   0.19047   0.65761
  15   25497.3    392.2   0.151074621   1.95062  -0.11909   0.48553   1.30411
  16   26337.0    379.7   0.077424959   0.96781  -0.61664   0.51657   0.56633
  17   26502.8    377.3   0.028764388   0.35731  -0.05423   0.31452  -0.50541
  18   26859.0    372.3   0.031950589   0.39162   0.11791  -0.03780  -0.61342
  19   27370.2    365.4   0.095377021   1.14721  -0.15910  -0.96436   0.43806
  20   27417.7    364.7   0.036270226   0.43551   0.15270   0.63580   0.08917
  21   27706.7    360.9   0.044069184   0.52363  -0.00015   0.69365  -0.20610
  22   28116.6    355.7   0.011834376   0.13857   0.29730   0.21638  -0.05795
  23   28227.1    354.3   0.060847664   0.70966   0.49335   0.06999   0.67924
  24   28466.1    351.3   0.031157449   0.36034  -0.13908   0.58341   0.02494
  25   28838.1    346.8   0.215792118   2.46345   0.41114  -0.02547  -1.51452
  26   29293.6    341.4   0.019862780   0.22322   0.29403   0.12657  -0.34750
  27   29845.0    335.1   0.010565020   0.11654  -0.30683   0.12851  -0.07669
  28   30197.1    331.2   0.691438519   7.53813  -0.58851  -1.52497   2.20596
  29   30463.5    328.3   0.027322054   0.29526  -0.22109  -0.30189   0.39401
  30   30746.8    325.2   0.011262331   0.12059  -0.14672   0.31107   0.04795
  31   30884.9    323.8   0.121522361   1.29534   0.02893   1.12318  -0.18160
  32   31195.9    320.6   0.037967018   0.40067  -0.33652  -0.47064   0.25674
  33   31322.6    319.3   0.064243346   0.67522   0.48519  -0.62069  -0.23357
  34   31412.7    318.3   0.001875020   0.01965  -0.07988   0.05500  -0.10122
  35   31830.6    314.2   0.035926968   0.37158   0.08637  -0.57621   0.17917
  36   32082.2    311.7   0.030731837   0.31535   0.21393  -0.48133  -0.19470
  37   32558.7    307.1   0.022813347   0.23067   0.30509  -0.36078  -0.08624
  38   32803.9    304.8   0.075401997   0.75672  -0.03996   0.45633  -0.73952
  39   32837.9    304.5   0.005629480   0.05644   0.08817   0.03116   0.21839
  40   33062.0    302.5   0.034716617   0.34569  -0.22406   0.52250  -0.14994
  41   33378.7    299.6   0.040889178   0.40329   0.15582  -0.23524  -0.56892
  42   33678.9    296.9   0.034395659   0.33622  -0.11111   0.43287   0.36945
  43   33882.7    295.1   0.036187199   0.35160  -0.04630   0.48091  -0.34377
  44   34115.2    293.1   0.013024334   0.12568   0.12895  -0.22055  -0.24579
  45   34306.0    291.5   0.008680080   0.08330   0.03198  -0.14946  -0.24482
  46   34653.6    288.6   0.151565792   1.43989   0.19112   0.55867  -1.04463
  47   34758.7    287.7   0.033099046   0.31349   0.07678  -0.30853   0.46088
  48   34786.9    287.5   0.019075101   0.18052  -0.12590  -0.07090   0.39955
  49   35028.2    285.5   0.049275589   0.46312   0.18439  -0.35438   0.55094
  50   35132.6    284.6   0.095863548   0.89830  -0.20697  -0.46976   0.79674
  51   35338.2    283.0   0.059818607   0.55727   0.56673  -0.45903  -0.15932
  52   35578.6    281.1   0.094597847   0.87532  -0.26894   0.87106  -0.21034
  53   35745.3    279.8   0.027813760   0.25616   0.26164  -0.34468  -0.26250
  54   36006.4    277.7   0.072567221   0.66349   0.42775  -0.68099   0.12950
  55   36257.1    275.8   0.048185091   0.43752   0.10837  -0.63762   0.13862
  56   36651.9    272.8   0.011053278   0.09928   0.10806  -0.24759   0.16218
  57   36669.2    272.7   0.006277379   0.05636  -0.10456  -0.20644  -0.05298
  58   36765.2    272.0   0.003580480   0.03206  -0.08075   0.03623  -0.15565
  59   36957.7    270.6   0.058215402   0.51857  -0.19065  -0.35420   0.59730
  60   37151.2    269.2   0.008195903   0.07263   0.04879   0.07561  -0.25403
  61   37367.4    267.6   0.084975151   0.74864   0.23246   0.02649  -0.83301
  62   37504.6    266.6   0.066902689   0.58727  -0.44120   0.12821   0.61333
  63   37633.7    265.7   0.002829383   0.02475  -0.02161   0.05665   0.14517
  64   37972.4    263.3   0.002333439   0.02023   0.03986   0.03213   0.13270
  65   38095.8    262.5   0.003345900   0.02891   0.08365   0.13421  -0.06248
  66   38252.4    261.4   0.008743419   0.07525   0.17223   0.00201  -0.21349
  67   38464.9    260.0   0.005875894   0.05029   0.16842   0.01017  -0.14772
  68   38672.4    258.6   0.056971027   0.48498  -0.31738   0.51633   0.34301
  69   38699.1    258.4   0.008762294   0.07454   0.13573  -0.23224   0.04670
  70   38851.1    257.4   0.044263426   0.37507   0.31284  -0.48728  -0.19941
  71   39031.1    256.2   0.006432439   0.05426  -0.12736   0.18825  -0.05096
  72   39125.4    255.6   0.166944525   1.40472  -0.25837   1.04970  -0.48589
  73   39313.3    254.4   0.020461971   0.17135  -0.20616   0.35702   0.03722
  74   39530.5    253.0   0.156817569   1.30598   0.28274  -1.10703   0.02292
  75   39632.1    252.3   0.116700685   0.96940  -0.18626  -0.31861   0.91280
  76   40032.7    249.8   0.013503145   0.11104   0.26342   0.06551  -0.19330
  77   40223.7    248.6   0.037246853   0.30485   0.27952   0.46949  -0.07935
  78   40301.7    248.1   0.010898259   0.08902   0.20294  -0.21568  -0.03635

FINAL SINGLE POINT ENERGY     -9531.763483595489

DIPOLE MOMENT
-------------
                                X             Y             Z
Electronic contribution:      3.02758    -128.78506     115.43839
Nuclear contribution   :     -5.43797     130.18523    -114.15020
                        -----------------------------------------
Total Dipole Moment    :     -2.41039       1.40017       1.28818
                        -----------------------------------------
Magnitude (a.u.)       :      3.07081
Magnitude (Debye)      :      7.80538

Rotational constants in cm-1:     0.001750     0.000470     0.000405
Rotational constants in MHz :    52.467494    14.080293    12.147235

                             ****ORCA TERMINATED NORMALLY****
TOTAL RUN TIME: 0 days 0 hours 10 minutes 43 seconds 751 msec
