                         Program Version 4.2.0 -  RELEASE  -
|  1> # ORCA input file
|  2> # SCF done       -174.601633954583          0.000201432599
|  3> ! CAM-B3LYP def2-SVP def2/J RIJCOSX Grid4 TightSCF
|  4> %maxcore 5000
|  5> %tddft
|  6>     Mode sTDDFT
|  7>     Ethresh 5.0
|  8>     maxcore 5000
|  9> end
| 10>
| 11> %pal
| 12>   nprocs 6
| 13>   end
| 14> * xyz 0 1
| 15>    C        8.29804       -12.05206        17.44430
| 16>    C        8.99637       -11.41869        16.48948
| 17>    C        9.87391       -10.29667        16.63875
| 18>    C       10.44070        -9.87328        15.48347
| 19>    C       10.06183       -10.61747        14.33745
| 20>    S        8.94609       -11.89203        14.78378
| 21>    C       10.47258       -10.41722        13.03396
| 22>    C       11.35805        -9.43542        12.54466
| 23>    C       11.55886        -9.49701        11.19389
| 24>    C       10.84764       -10.52422        10.54758
| 25>    S        9.90482       -11.42564        11.71881
| 26>    C       10.85277       -10.81463         9.19193
| 27>    C       10.13124       -11.83456         8.60402
| 28>    C       10.11725       -12.11695         7.24602
| 29>    C        9.39056       -13.13456         6.60518
| 30>    C        9.55025       -13.17085         5.24598
| 31>    C       10.41491       -12.17954         4.74968
| 32>    S       11.02904       -11.19966         6.06371
| 33>    C       10.76301       -11.93721         3.43001
| 34>    C       10.31465       -12.61608         2.27938
| 35>    C       10.81325       -12.11705         1.11452
| 36>    C       11.69256       -11.01174         1.26781
| 37>    S       11.86412       -10.65409         2.98224
| 38>    C       12.24910       -10.32267         0.22432
| 39>    C       13.12611        -9.19831         0.21603
| 40>    C       13.32114        -8.52489        -1.00976
| 41>    C       14.12656        -7.42063        -1.06466
| 42>    C       14.79980        -6.96403         0.08648
| 43>    C       14.63990        -7.63268         1.29507
| 44>    C       13.80674        -8.72748         1.35345
| 45>    C       15.56725        -5.79582        -0.26190
| 46>    C       15.35147        -5.50481        -1.62364
| 47>    C       14.43441        -6.53150        -2.24693
| 48>    C       13.15675        -5.88195        -2.80870
| 49>    C       12.38451        -5.09392        -1.75760
| 50>    C       15.15087        -7.31161        -3.36517
| 51>    C       16.43931        -7.97385        -2.89231
| 52>    C       15.93646        -4.41616        -2.21292
| 53>    C       16.78282        -3.58303        -1.45578
| 54>    C       17.02200        -3.91457        -0.10949
| 55>    C       16.41757        -4.99530         0.49312
| 56>    C       17.39982        -2.41396        -2.00641
| 57>    C       17.05344        -1.80878        -3.17671
| 58>    C       17.66451        -0.65208        -3.68169
| 59>    C       17.23829         0.00226        -4.81516
| 60>    C       17.78294         1.16490        -5.40090
| 61>    C       17.11577         1.60086        -6.51199
| 62>    C       16.00697         0.80905        -6.85907
| 63>    S       15.84217        -0.52605        -5.74460
| 64>    C       15.10323         0.99932        -7.89788
| 65>    C       15.08439         2.01739        -8.86316
| 66>    C       14.02776         1.93379        -9.73403
| 67>    C       13.16816         0.85078        -9.49591
| 68>    S       13.74663        -0.07959        -8.12906
| 69>    C       12.00989         0.52303       -10.19006
| 70>    C       11.20279        -0.55365        -9.88739
| 71>    C       10.02711        -0.88566       -10.54503
| 72>    C        9.18285        -1.97097       -10.25222
| 73>    C        8.07618        -2.05619       -11.05097
| 74>    C        7.99348        -1.03503       -12.01823
| 75>    S        9.37341         0.03629       -11.88387
| 76>    C        7.00109        -0.83791       -12.95962
| 77>    C        5.83903        -1.62478       -13.15974
| 78>    C        5.03168        -1.18823       -14.15652
| 79>    C        5.50201        -0.01222       -14.82439
| 80>    S        7.03624         0.49246       -14.09800
| 81>    C        4.92222         0.64752       -15.83908
| 82>    H        8.35668       -11.73194        18.46949
| 83>    H        7.66428       -12.89005        17.21992
| 84>    H       10.04231        -9.85517        17.60491
| 85>    H       11.12320        -9.04478        15.41301
| 86>    H       11.82207        -8.71259        13.19125
| 87>    H       12.19989        -8.82879        10.64573
| 88>    H       11.46707       -10.18626         8.55889
| 89>    H        9.52116       -12.46477         9.23924
| 90>    H        8.76601       -13.81256         7.16003
| 91>    H        9.06698       -13.88220         4.60066
| 92>    H        9.63186       -13.44473         2.33780
| 93>    H       10.57471       -12.50431         0.13935
| 94>    H       11.94188       -10.67049        -0.75594
| 95>    H       12.80855        -8.88078        -1.89267
| 96>    H       15.15870        -7.29696         2.18065
| 97>    H       13.69212        -9.24785         2.29063
| 98>    H       12.51573        -6.66620        -3.21754
| 99>    H       13.43390        -5.21639        -3.62902
|100>    H       12.07764        -5.74234        -0.93982
|101>    H       11.49471        -4.65157        -2.19982
|102>    H       12.99970        -4.29508        -1.34936
|103>    H       15.37620        -6.62362        -4.18282
|104>    H       14.47071        -8.07535        -3.74878
|105>    H       17.14234        -7.22826        -2.52746
|106>    H       16.90575        -8.51437        -3.71292
|107>    H       16.23670        -8.67673        -2.08716
|108>    H       15.76662        -4.20439        -3.25731
|109>    H       17.68448        -3.28393         0.46681
|110>    H       16.60216        -5.21817         1.53364
|111>    H       18.17945        -1.95810        -1.40787
|112>    H       16.23630        -2.20639        -3.76425
|113>    H       18.51175        -0.23537        -3.15290
|114>    H       18.64923         1.64874        -4.98488
|115>    H       17.39254         2.47179        -7.07898
|116>    H       15.83601         2.78551        -8.89909
|117>    H       13.84852         2.62868       -10.53569
|118>    H       11.72967         1.16788       -11.01335
|119>    H       11.49515        -1.19695        -9.06624
|120>    H        9.41170        -2.66057        -9.45853
|121>    H        7.32682        -2.82207       -10.96350
|122>    H        5.63802        -2.49152       -12.55517
|123>    H        4.10893        -1.65598       -14.45049
|124>    H        3.98879         0.30734       -16.25126
|125>    H        5.36521         1.52694       -16.26862
|126> *
|127>
|128>                          ****END OF INPUT****

CARTESIAN COORDINATES (ANGSTROEM)
---------------------------------
  C      8.298040  -12.052060   17.444300
  C      8.996370  -11.418690   16.489480
  C      9.873910  -10.296670   16.638750
  C     10.440700   -9.873280   15.483470
  C     10.061830  -10.617470   14.337450
  S      8.946090  -11.892030   14.783780
  C     10.472580  -10.417220   13.033960
  C     11.358050   -9.435420   12.544660
  C     11.558860   -9.497010   11.193890
  C     10.847640  -10.524220   10.547580
  S      9.904820  -11.425640   11.718810
  C     10.852770  -10.814630    9.191930
  C     10.131240  -11.834560    8.604020
  C     10.117250  -12.116950    7.246020
  C      9.390560  -13.134560    6.605180
  C      9.550250  -13.170850    5.245980
  C     10.414910  -12.179540    4.749680
  S     11.029040  -11.199660    6.063710
  C     10.763010  -11.937210    3.430010
  C     10.314650  -12.616080    2.279380
  C     10.813250  -12.117050    1.114520
  C     11.692560  -11.011740    1.267810
  S     11.864120  -10.654090    2.982240
  C     12.249100  -10.322670    0.224320
  C     13.126110   -9.198310    0.216030
  C     13.321140   -8.524890   -1.009760
  C     14.126560   -7.420630   -1.064660
  C     14.799800   -6.964030    0.086480
  C     14.639900   -7.632680    1.295070
  C     13.806740   -8.727480    1.353450
  C     15.567250   -5.795820   -0.261900
  C     15.351470   -5.504810   -1.623640
  C     14.434410   -6.531500   -2.246930
  C     13.156750   -5.881950   -2.808700
  C     12.384510   -5.093920   -1.757600
  C     15.150870   -7.311610   -3.365170
  C     16.439310   -7.973850   -2.892310
  C     15.936460   -4.416160   -2.212920
  C     16.782820   -3.583030   -1.455780
  C     17.022000   -3.914570   -0.109490
  C     16.417570   -4.995300    0.493120
  C     17.399820   -2.413960   -2.006410
  C     17.053440   -1.808780   -3.176710
  C     17.664510   -0.652080   -3.681690
  C     17.238290    0.002260   -4.815160
  C     17.782940    1.164900   -5.400900
  C     17.115770    1.600860   -6.511990
  C     16.006970    0.809050   -6.859070
  S     15.842170   -0.526050   -5.744600
  C     15.103230    0.999320   -7.897880
  C     15.084390    2.017390   -8.863160
  C     14.027760    1.933790   -9.734030
  C     13.168160    0.850780   -9.495910
  S     13.746630   -0.079590   -8.129060
  C     12.009890    0.523030  -10.190060
  C     11.202790   -0.553650   -9.887390
  C     10.027110   -0.885660  -10.545030
  C      9.182850   -1.970970  -10.252220
  C      8.076180   -2.056190  -11.050970
  C      7.993480   -1.035030  -12.018230
  S      9.373410    0.036290  -11.883870
  C      7.001090   -0.837910  -12.959620
  C      5.839030   -1.624780  -13.159740
  C      5.031680   -1.188230  -14.156520
  C      5.502010   -0.012220  -14.824390
  S      7.036240    0.492460  -14.098000
  C      4.922220    0.647520  -15.839080
  H      8.356680  -11.731940   18.469490
  H      7.664280  -12.890050   17.219920
  H     10.042310   -9.855170   17.604910
  H     11.123200   -9.044780   15.413010
  H     11.822070   -8.712590   13.191250
  H     12.199890   -8.828790   10.645730
  H     11.467070  -10.186260    8.558890
  H      9.521160  -12.464770    9.239240
  H      8.766010  -13.812560    7.160030
  H      9.066980  -13.882200    4.600660
  H      9.631860  -13.444730    2.337800
  H     10.574710  -12.504310    0.139350
  H     11.941880  -10.670490   -0.755940
  H     12.808550   -8.880780   -1.892670
  H     15.158700   -7.296960    2.180650
  H     13.692120   -9.247850    2.290630
  H     12.515730   -6.666200   -3.217540
  H     13.433900   -5.216390   -3.629020
  H     12.077640   -5.742340   -0.939820
  H     11.494710   -4.651570   -2.199820
  H     12.999700   -4.295080   -1.349360
  H     15.376200   -6.623620   -4.182820
  H     14.470710   -8.075350   -3.748780
  H     17.142340   -7.228260   -2.527460
  H     16.905750   -8.514370   -3.712920
  H     16.236700   -8.676730   -2.087160
  H     15.766620   -4.204390   -3.257310
  H     17.684480   -3.283930    0.466810
  H     16.602160   -5.218170    1.533640
  H     18.179450   -1.958100   -1.407870
  H     16.236300   -2.206390   -3.764250
  H     18.511750   -0.235370   -3.152900
  H     18.649230    1.648740   -4.984880
  H     17.392540    2.471790   -7.078980
  H     15.836010    2.785510   -8.899090
  H     13.848520    2.628680  -10.535690
  H     11.729670    1.167880  -11.013350
  H     11.495150   -1.196950   -9.066240
  H      9.411700   -2.660570   -9.458530
  H      7.326820   -2.822070  -10.963500
  H      5.638020   -2.491520  -12.555170
  H      4.108930   -1.655980  -14.450490
  H      3.988790    0.307340  -16.251260
  H      5.365210    1.526940  -16.268620

 Total Charge           Charge          ....    0
 Multiplicity           Mult            ....    1
 Number of Electrons    NEL             ....  526
 Basis Dimension        Dim             .... 1190

ORBITAL ENERGIES
----------------

  NO   OCC          E(Eh)            E(eV)
   0   2.0000     -88.938302     -2420.1342
   1   2.0000     -88.937414     -2420.1101
   2   2.0000     -88.937234     -2420.1052
   3   2.0000     -88.936931     -2420.0969
   4   2.0000     -88.936846     -2420.0946
   5   2.0000     -88.936519     -2420.0857
   6   2.0000     -88.932536     -2419.9773
   7   2.0000     -88.932333     -2419.9718
   8   2.0000     -10.302642      -280.3492
   9   2.0000     -10.302627      -280.3487
  10   2.0000     -10.302615      -280.3484
  11   2.0000     -10.302254      -280.3386
  12   2.0000     -10.302113      -280.3347
  13   2.0000     -10.302029      -280.3325
  14   2.0000     -10.301928      -280.3297
  15   2.0000     -10.301368      -280.3145
  16   2.0000     -10.300163      -280.2817
  17   2.0000     -10.300102      -280.2800
  18   2.0000     -10.298624      -280.2398
  19   2.0000     -10.298243      -280.2294
  20   2.0000     -10.298073      -280.2248
  21   2.0000     -10.297886      -280.2197
  22   2.0000     -10.297849      -280.2187
  23   2.0000     -10.297838      -280.2184
  24   2.0000     -10.282906      -279.8121
  25   2.0000     -10.282745      -279.8077
  26   2.0000     -10.279977      -279.7324
  27   2.0000     -10.279146      -279.7098
  28   2.0000     -10.278679      -279.6971
  29   2.0000     -10.278530      -279.6930
  30   2.0000     -10.278479      -279.6916
  31   2.0000     -10.278129      -279.6821
  32   2.0000     -10.277361      -279.6612
  33   2.0000     -10.277218      -279.6573
  34   2.0000     -10.276770      -279.6451
  35   2.0000     -10.276321      -279.6329
  36   2.0000     -10.276240      -279.6307
  37   2.0000     -10.275937      -279.6225
  38   2.0000     -10.275812      -279.6191
  39   2.0000     -10.275336      -279.6061
  40   2.0000     -10.272257      -279.5223
  41   2.0000     -10.272115      -279.5184
  42   2.0000     -10.272104      -279.5182
  43   2.0000     -10.271696      -279.5071
  44   2.0000     -10.271650      -279.5058
  45   2.0000     -10.271226      -279.4943
  46   2.0000     -10.271092      -279.4906
  47   2.0000     -10.270065      -279.4627
  48   2.0000     -10.269639      -279.4511
  49   2.0000     -10.267372      -279.3894
  50   2.0000     -10.266433      -279.3638
  51   2.0000     -10.263631      -279.2876
  52   2.0000     -10.263573      -279.2860
  53   2.0000     -10.263536      -279.2850
  54   2.0000     -10.263484      -279.2836
  55   2.0000     -10.262494      -279.2567
  56   2.0000     -10.262322      -279.2520
  57   2.0000     -10.262191      -279.2484
  58   2.0000     -10.261894      -279.2403
  59   2.0000     -10.261050      -279.2174
  60   2.0000     -10.260751      -279.2092
  61   2.0000     -10.259892      -279.1859
  62   2.0000     -10.259353      -279.1712
  63   2.0000     -10.255964      -279.0790
  64   2.0000     -10.255727      -279.0725
  65   2.0000     -10.239001      -278.6174
  66   2.0000     -10.238582      -278.6060
  67   2.0000      -8.034084      -218.6185
  68   2.0000      -8.033738      -218.6091
  69   2.0000      -8.033550      -218.6040
  70   2.0000      -8.033218      -218.5950
  71   2.0000      -8.033036      -218.5900
  72   2.0000      -8.032842      -218.5847
  73   2.0000      -8.029184      -218.4852
  74   2.0000      -8.029037      -218.4812
  75   2.0000      -6.003832      -163.3726
  76   2.0000      -6.003358      -163.3597
  77   2.0000      -6.003200      -163.3554
  78   2.0000      -6.002876      -163.3466
  79   2.0000      -6.002727      -163.3425
  80   2.0000      -6.002504      -163.3364
  81   2.0000      -5.999790      -163.2626
  82   2.0000      -5.999420      -163.2525
  83   2.0000      -5.999251      -163.2479
  84   2.0000      -5.998980      -163.2405
  85   2.0000      -5.998958      -163.2400
  86   2.0000      -5.998834      -163.2366
  87   2.0000      -5.998776      -163.2350
  88   2.0000      -5.998598      -163.2301
  89   2.0000      -5.995069      -163.1341
  90   2.0000      -5.995045      -163.1335
  91   2.0000      -5.994939      -163.1306
  92   2.0000      -5.994806      -163.1270
  93   2.0000      -5.994572      -163.1206
  94   2.0000      -5.994190      -163.1102
  95   2.0000      -5.994012      -163.1054
  96   2.0000      -5.993793      -163.0994
  97   2.0000      -5.989801      -162.9908
  98   2.0000      -5.989604      -162.9854
  99   2.0000      -0.987827       -26.8801
 100   2.0000      -0.987327       -26.8665
 101   2.0000      -0.985251       -26.8100
 102   2.0000      -0.985182       -26.8082
 103   2.0000      -0.979213       -26.6458
 104   2.0000      -0.966437       -26.2981
 105   2.0000      -0.965828       -26.2815
 106   2.0000      -0.961927       -26.1754
 107   2.0000      -0.961827       -26.1726
 108   2.0000      -0.937451       -25.5093
 109   2.0000      -0.913828       -24.8665
 110   2.0000      -0.899361       -24.4729
 111   2.0000      -0.896572       -24.3970
 112   2.0000      -0.890649       -24.2358
 113   2.0000      -0.879229       -23.9250
 114   2.0000      -0.869320       -23.6554
 115   2.0000      -0.864882       -23.5346
 116   2.0000      -0.856892       -23.3172
 117   2.0000      -0.847304       -23.0563
 118   2.0000      -0.839104       -22.8332
 119   2.0000      -0.837037       -22.7769
 120   2.0000      -0.836910       -22.7735
 121   2.0000      -0.832597       -22.6561
 122   2.0000      -0.829931       -22.5836
 123   2.0000      -0.829733       -22.5782
 124   2.0000      -0.825662       -22.4674
 125   2.0000      -0.824746       -22.4425
 126   2.0000      -0.819801       -22.3079
 127   2.0000      -0.812603       -22.1120
 128   2.0000      -0.811905       -22.0931
 129   2.0000      -0.811427       -22.0800
 130   2.0000      -0.808740       -22.0069
 131   2.0000      -0.799863       -21.7654
 132   2.0000      -0.787071       -21.4173
 133   2.0000      -0.777036       -21.1442
 134   2.0000      -0.759774       -20.6745
 135   2.0000      -0.752963       -20.4892
 136   2.0000      -0.748903       -20.3787
 137   2.0000      -0.735205       -20.0060
 138   2.0000      -0.723026       -19.6745
 139   2.0000      -0.716967       -19.5097
 140   2.0000      -0.703139       -19.1334
 141   2.0000      -0.695931       -18.9372
 142   2.0000      -0.684100       -18.6153
 143   2.0000      -0.678190       -18.4545
 144   2.0000      -0.670499       -18.2452
 145   2.0000      -0.669596       -18.2206
 146   2.0000      -0.667057       -18.1515
 147   2.0000      -0.666789       -18.1442
 148   2.0000      -0.664123       -18.0717
 149   2.0000      -0.655797       -17.8451
 150   2.0000      -0.640148       -17.4193
 151   2.0000      -0.636367       -17.3164
 152   2.0000      -0.632434       -17.2094
 153   2.0000      -0.629780       -17.1372
 154   2.0000      -0.622380       -16.9358
 155   2.0000      -0.621418       -16.9096
 156   2.0000      -0.616980       -16.7889
 157   2.0000      -0.616042       -16.7634
 158   2.0000      -0.613563       -16.6959
 159   2.0000      -0.610598       -16.6152
 160   2.0000      -0.602275       -16.3887
 161   2.0000      -0.599939       -16.3252
 162   2.0000      -0.599525       -16.3139
 163   2.0000      -0.591153       -16.0861
 164   2.0000      -0.590885       -16.0788
 165   2.0000      -0.587019       -15.9736
 166   2.0000      -0.586480       -15.9589
 167   2.0000      -0.585803       -15.9405
 168   2.0000      -0.582382       -15.8474
 169   2.0000      -0.564986       -15.3740
 170   2.0000      -0.558230       -15.1902
 171   2.0000      -0.551224       -14.9996
 172   2.0000      -0.548516       -14.9259
 173   2.0000      -0.542000       -14.7486
 174   2.0000      -0.537565       -14.6279
 175   2.0000      -0.535247       -14.5648
 176   2.0000      -0.528865       -14.3911
 177   2.0000      -0.524071       -14.2607
 178   2.0000      -0.520898       -14.1744
 179   2.0000      -0.513633       -13.9767
 180   2.0000      -0.512046       -13.9335
 181   2.0000      -0.510834       -13.9005
 182   2.0000      -0.509948       -13.8764
 183   2.0000      -0.509429       -13.8623
 184   2.0000      -0.506479       -13.7820
 185   2.0000      -0.501607       -13.6494
 186   2.0000      -0.499182       -13.5834
 187   2.0000      -0.494018       -13.4429
 188   2.0000      -0.491413       -13.3720
 189   2.0000      -0.490711       -13.3529
 190   2.0000      -0.490147       -13.3376
 191   2.0000      -0.489563       -13.3217
 192   2.0000      -0.488035       -13.2801
 193   2.0000      -0.487070       -13.2538
 194   2.0000      -0.486821       -13.2471
 195   2.0000      -0.486528       -13.2391
 196   2.0000      -0.484082       -13.1725
 197   2.0000      -0.480987       -13.0883
 198   2.0000      -0.476430       -12.9643
 199   2.0000      -0.474844       -12.9212
 200   2.0000      -0.473418       -12.8824
 201   2.0000      -0.470524       -12.8036
 202   2.0000      -0.465473       -12.6662
 203   2.0000      -0.463187       -12.6040
 204   2.0000      -0.463019       -12.5994
 205   2.0000      -0.462628       -12.5887
 206   2.0000      -0.459921       -12.5151
 207   2.0000      -0.459042       -12.4912
 208   2.0000      -0.457338       -12.4448
 209   2.0000      -0.455201       -12.3866
 210   2.0000      -0.452454       -12.3119
 211   2.0000      -0.451861       -12.2958
 212   2.0000      -0.450710       -12.2644
 213   2.0000      -0.448650       -12.2084
 214   2.0000      -0.448303       -12.1989
 215   2.0000      -0.445724       -12.1288
 216   2.0000      -0.439708       -11.9651
 217   2.0000      -0.435444       -11.8490
 218   2.0000      -0.430768       -11.7218
 219   2.0000      -0.427510       -11.6331
 220   2.0000      -0.424608       -11.5542
 221   2.0000      -0.423914       -11.5353
 222   2.0000      -0.423390       -11.5210
 223   2.0000      -0.418974       -11.4009
 224   2.0000      -0.417323       -11.3559
 225   2.0000      -0.416504       -11.3337
 226   2.0000      -0.415334       -11.3018
 227   2.0000      -0.410768       -11.1776
 228   2.0000      -0.409958       -11.1555
 229   2.0000      -0.409061       -11.1311
 230   2.0000      -0.408112       -11.1053
 231   2.0000      -0.402144       -10.9429
 232   2.0000      -0.399334       -10.8664
 233   2.0000      -0.393364       -10.7040
 234   2.0000      -0.393099       -10.6968
 235   2.0000      -0.391964       -10.6659
 236   2.0000      -0.386327       -10.5125
 237   2.0000      -0.385894       -10.5007
 238   2.0000      -0.385070       -10.4783
 239   2.0000      -0.378174       -10.2906
 240   2.0000      -0.376676       -10.2499
 241   2.0000      -0.374007       -10.1773
 242   2.0000      -0.365965        -9.9584
 243   2.0000      -0.353296        -9.6137
 244   2.0000      -0.338954        -9.2234
 245   2.0000      -0.330925        -9.0049
 246   2.0000      -0.329830        -8.9751
 247   2.0000      -0.329663        -8.9706
 248   2.0000      -0.328840        -8.9482
 249   2.0000      -0.323315        -8.7978
 250   2.0000      -0.319117        -8.6836
 251   2.0000      -0.317441        -8.6380
 252   2.0000      -0.314117        -8.5476
 253   2.0000      -0.312355        -8.4996
 254   2.0000      -0.311057        -8.4643
 255   2.0000      -0.306905        -8.3513
 256   2.0000      -0.298809        -8.1310
 257   2.0000      -0.284082        -7.7303
 258   2.0000      -0.264581        -7.1996
 259   2.0000      -0.238526        -6.4906
 260   2.0000      -0.228531        -6.2186
 261   2.0000      -0.186717        -5.0808
 262   2.0000      -0.180046        -4.8993
 263   0.0000      -0.090458        -2.4615
 264   0.0000      -0.083501        -2.2722
 265   0.0000      -0.043284        -1.1778
 266   0.0000      -0.032597        -0.8870
 267   0.0000      -0.007933        -0.2159

MULLIKEN ATOMIC CHARGES
-----------------------
   0 C :   -0.034860
   1 C :   -0.061460
   2 C :    0.048220
   3 C :    0.025702
   4 C :   -0.066502
   5 S :    0.077817
   6 C :   -0.042526
   7 C :    0.016507
   8 C :    0.031045
   9 C :   -0.025893
  10 S :    0.072689
  11 C :   -0.012656
  12 C :   -0.013392
  13 C :   -0.024999
  14 C :    0.030124
  15 C :    0.016270
  16 C :   -0.045133
  17 S :    0.074454
  18 C :   -0.038963
  19 C :    0.024042
  20 C :    0.028903
  21 C :   -0.007495
  22 S :    0.063280
  23 C :   -0.041920
  24 C :    0.115407
  25 C :   -0.115262
  26 C :    0.027814
  27 C :    0.100900
  28 C :   -0.046414
  29 C :   -0.019993
  30 C :    0.104153
  31 C :    0.011292
  32 C :   -0.139061
  33 C :    0.064913
  34 C :    0.029298
  35 C :    0.071295
  36 C :    0.024118
  37 C :   -0.091132
  38 C :    0.123947
  39 C :   -0.017078
  40 C :   -0.045649
  41 C :   -0.017710
  42 C :    0.011056
  43 C :   -0.005597
  44 C :   -0.022170
  45 C :    0.032791
  46 C :    0.024347
  47 C :   -0.043031
  48 S :    0.060319
  49 C :   -0.042191
  50 C :    0.015263
  51 C :    0.026460
  52 C :   -0.024706
  53 S :    0.070651
  54 C :   -0.010677
  55 C :   -0.015924
  56 C :   -0.023781
  57 C :    0.028076
  58 C :    0.016441
  59 C :   -0.043277
  60 S :    0.076119
  61 C :   -0.068600
  62 C :    0.029092
  63 C :    0.049945
  64 C :   -0.066191
  65 S :    0.078318
  66 C :   -0.028984
  67 H :    0.018373
  68 H :    0.020652
  69 H :   -0.014332
  70 H :   -0.012206
  71 H :   -0.017125
  72 H :   -0.013958
  73 H :   -0.009249
  74 H :   -0.008375
  75 H :   -0.013874
  76 H :   -0.016924
  77 H :   -0.015394
  78 H :   -0.016381
  79 H :   -0.025172
  80 H :   -0.043846
  81 H :   -0.038218
  82 H :   -0.018159
  83 H :   -0.005235
  84 H :   -0.003225
  85 H :    0.022055
  86 H :    0.006018
  87 H :    0.021418
  88 H :   -0.002484
  89 H :   -0.005315
  90 H :    0.022530
  91 H :    0.007013
  92 H :    0.022359
  93 H :   -0.041911
  94 H :   -0.031461
  95 H :   -0.036946
  96 H :   -0.025749
  97 H :    0.002463
  98 H :   -0.020434
  99 H :   -0.016239
 100 H :   -0.016661
 101 H :   -0.015975
 102 H :   -0.014155
 103 H :   -0.009200
 104 H :   -0.008468
 105 H :   -0.014608
 106 H :   -0.016616
 107 H :   -0.014322
 108 H :   -0.015098
 109 H :    0.017053
 110 H :    0.019538
Sum of atomic charges:    0.0000000

LOEWDIN ATOMIC CHARGES
----------------------
   0 C :   -0.081002
   1 C :   -0.139229
   2 C :   -0.036293
   3 C :   -0.027503
   4 C :   -0.180409
   5 S :    0.351252
   6 C :   -0.179171
   7 C :   -0.037940
   8 C :   -0.036837
   9 C :   -0.146801
  10 S :    0.370271
  11 C :   -0.063770
  12 C :   -0.063091
  13 C :   -0.147649
  14 C :   -0.037253
  15 C :   -0.038073
  16 C :   -0.178912
  17 S :    0.371834
  18 C :   -0.181241
  19 C :   -0.039604
  20 C :   -0.032848
  21 C :   -0.147091
  22 S :    0.380213
  23 C :   -0.050551
  24 C :   -0.028675
  25 C :   -0.020249
  26 C :    0.001611
  27 C :   -0.018135
  28 C :   -0.016556
  29 C :   -0.025579
  30 C :   -0.018338
  31 C :    0.004990
  32 C :   -0.035389
  33 C :   -0.012382
  34 C :   -0.057503
  35 C :   -0.011347
  36 C :   -0.058105
  37 C :   -0.018943
  38 C :   -0.025625
  39 C :   -0.018690
  40 C :   -0.020604
  41 C :   -0.015400
  42 C :   -0.034970
  43 C :   -0.052792
  44 C :   -0.147331
  45 C :   -0.038030
  46 C :   -0.035401
  47 C :   -0.179861
  48 S :    0.368351
  49 C :   -0.180477
  50 C :   -0.038718
  51 C :   -0.039537
  52 C :   -0.147441
  53 S :    0.374648
  54 C :   -0.062705
  55 C :   -0.064101
  56 C :   -0.148370
  57 C :   -0.037154
  58 C :   -0.039034
  59 C :   -0.178924
  60 S :    0.371414
  61 C :   -0.180952
  62 C :   -0.027420
  63 C :   -0.036475
  64 C :   -0.139383
  65 S :    0.351825
  66 C :   -0.080601
  67 H :    0.027699
  68 H :    0.025376
  69 H :    0.032120
  70 H :    0.031899
  71 H :    0.029937
  72 H :    0.033074
  73 H :    0.027664
  74 H :    0.027751
  75 H :    0.033039
  76 H :    0.030312
  77 H :    0.030862
  78 H :    0.031410
  79 H :    0.031687
  80 H :    0.022423
  81 H :    0.026590
  82 H :    0.011883
  83 H :    0.018689
  84 H :    0.019416
  85 H :    0.025794
  86 H :    0.022933
  87 H :    0.025750
  88 H :    0.019737
  89 H :    0.018752
  90 H :    0.025927
  91 H :    0.023131
  92 H :    0.025639
  93 H :    0.023257
  94 H :    0.024987
  95 H :    0.026210
  96 H :    0.025972
  97 H :    0.019061
  98 H :    0.031193
  99 H :    0.031976
 100 H :    0.030759
 101 H :    0.030443
 102 H :    0.032793
 103 H :    0.028169
 104 H :    0.026937
 105 H :    0.032822
 106 H :    0.029916
 107 H :    0.031571
 108 H :    0.031953
 109 H :    0.027426
 110 H :    0.025118

  Mayer bond orders larger than 0.100000
B(  0-C ,  1-C ) :   1.8502 B(  0-C , 67-H ) :   0.9512 B(  0-C , 68-H ) :   0.9426
B(  1-C ,  2-C ) :   1.0885 B(  1-C ,  5-S ) :   1.0096 B(  2-C ,  3-C ) :   1.6416
B(  2-C , 69-H ) :   0.9934 B(  3-C ,  4-C ) :   1.1712 B(  3-C , 70-H ) :   0.9926
B(  4-C ,  5-S ) :   1.0460 B(  4-C ,  6-C ) :   1.5141 B(  6-C ,  7-C ) :   1.2032
B(  6-C , 10-S ) :   1.0432 B(  7-C ,  8-C ) :   1.5558 B(  7-C , 71-H ) :   0.9936
B(  8-C ,  9-C ) :   1.1827 B(  8-C , 72-H ) :   0.9999 B(  9-C , 10-S ) :   1.0427
B(  9-C , 11-C ) :   1.5109 B( 11-C , 12-C ) :   1.2235 B( 11-C , 73-H ) :   0.9724
B( 12-C , 13-C ) :   1.5045 B( 12-C , 74-H ) :   0.9721 B( 13-C , 14-C ) :   1.1906
B( 13-C , 17-S ) :   1.0436 B( 14-C , 15-C ) :   1.5408 B( 14-C , 75-H ) :   1.0000
B( 15-C , 16-C ) :   1.2200 B( 15-C , 76-H ) :   0.9941 B( 16-C , 17-S ) :   1.0474
B( 16-C , 18-C ) :   1.4756 B( 18-C , 19-C ) :   1.1983 B( 18-C , 22-S ) :   1.0409
B( 19-C , 20-C ) :   1.5809 B( 19-C , 77-H ) :   0.9937 B( 20-C , 21-C ) :   1.1414
B( 20-C , 78-H ) :   0.9997 B( 21-C , 22-S ) :   1.0270 B( 21-C , 23-C ) :   1.5801
B( 23-C , 24-C ) :   1.1117 B( 23-C , 79-H ) :   0.9703 B( 24-C , 25-C ) :   1.2580
B( 24-C , 29-C ) :   1.3175 B( 25-C , 26-C ) :   1.3972 B( 25-C , 80-H ) :   1.0132
B( 26-C , 27-C ) :   1.3495 B( 26-C , 32-C ) :   0.9128 B( 27-C , 28-C ) :   1.3294
B( 27-C , 30-C ) :   1.0088 B( 28-C , 29-C ) :   1.4149 B( 28-C , 81-H ) :   0.9898
B( 29-C , 82-H ) :   0.9683 B( 30-C , 31-C ) :   1.3424 B( 30-C , 40-C ) :   1.3337
B( 31-C , 32-C ) :   0.9170 B( 31-C , 37-C ) :   1.4220 B( 32-C , 33-C ) :   1.0384
B( 32-C , 35-C ) :   1.0380 B( 33-C , 34-C ) :   1.1040 B( 33-C , 83-H ) :   0.9388
B( 33-C , 84-H ) :   0.9389 B( 34-C , 85-H ) :   0.9636 B( 34-C , 86-H ) :   0.9635
B( 34-C , 87-H ) :   0.9638 B( 35-C , 36-C ) :   1.1009 B( 35-C , 88-H ) :   0.9393
B( 35-C , 89-H ) :   0.9387 B( 36-C , 90-H ) :   0.9641 B( 36-C , 91-H ) :   0.9638
B( 36-C , 92-H ) :   0.9646 B( 37-C , 38-C ) :   1.2831 B( 37-C , 93-H ) :   0.9987
B( 38-C , 39-C ) :   1.3220 B( 38-C , 41-C ) :   1.0781 B( 39-C , 40-C ) :   1.3857
B( 39-C , 94-H ) :   0.9924 B( 40-C , 95-H ) :   0.9899 B( 41-C , 42-C ) :   1.6298
B( 41-C , 96-H ) :   0.9870 B( 42-C , 43-C ) :   1.1684 B( 42-C , 97-H ) :   0.9619
B( 43-C , 44-C ) :   1.5357 B( 43-C , 98-H ) :   0.9852 B( 44-C , 45-C ) :   1.1623
B( 44-C , 48-S ) :   1.0312 B( 45-C , 46-C ) :   1.5563 B( 45-C , 99-H ) :   0.9993
B( 46-C , 47-C ) :   1.2228 B( 46-C ,100-H ) :   0.9941 B( 47-C , 48-S ) :   1.0529
B( 47-C , 49-C ) :   1.4468 B( 49-C , 50-C ) :   1.2359 B( 49-C , 53-S ) :   1.0524
B( 50-C , 51-C ) :   1.5256 B( 50-C ,101-H ) :   0.9948 B( 51-C , 52-C ) :   1.2004
B( 51-C ,102-H ) :   1.0005 B( 52-C , 53-S ) :   1.0462 B( 52-C , 54-C ) :   1.4903
B( 54-C , 55-C ) :   1.2337 B( 54-C ,103-H ) :   0.9741 B( 55-C , 56-C ) :   1.5026
B( 55-C ,104-H ) :   0.9705 B( 56-C , 57-C ) :   1.1870 B( 56-C , 60-S ) :   1.0427
B( 57-C , 58-C ) :   1.5494 B( 57-C ,105-H ) :   1.0004 B( 58-C , 59-C ) :   1.2073
B( 58-C ,106-H ) :   0.9938 B( 59-C , 60-S ) :   1.0452 B( 59-C , 61-C ) :   1.5078
B( 61-C , 62-C ) :   1.1736 B( 61-C , 65-S ) :   1.0474 B( 62-C , 63-C ) :   1.6406
B( 62-C ,107-H ) :   0.9923 B( 63-C , 64-C ) :   1.0881 B( 63-C ,108-H ) :   0.9932
B( 64-C , 65-S ) :   1.0097 B( 64-C , 66-C ) :   1.8506 B( 66-C ,109-H ) :   0.9507
B( 66-C ,110-H ) :   0.9422

-----------------------------------------------------------------------------
         ABSORPTION SPECTRUM VIA TRANSITION ELECTRIC DIPOLE MOMENTS
-----------------------------------------------------------------------------
State   Energy  Wavelength   fosc         T2         TX        TY        TZ
        (cm-1)    (nm)                  (au**2)     (au)      (au)      (au)
-----------------------------------------------------------------------------
   0    8948.1   1117.6   2.349879590  86.45532  -3.20663   1.96582  -8.50343
   1   10799.1    926.0   1.071718188  32.67132  -4.02912  -0.59273   4.01076
   2   14029.5    712.8   0.000096795   0.00227  -0.01409   0.03755  -0.02575
   3   15211.7    657.4   0.319933495   6.92403   1.58454   1.57491   1.39030
   4   16772.0    596.2   0.000227452   0.00446  -0.04250  -0.00565   0.05125
   5   18155.3    550.8   0.000027425   0.00050  -0.00636   0.01686  -0.01314
   6   20388.7    490.5   0.904262825  14.60091  -2.39856  -2.97335   0.08366
   7   22268.9    449.1   0.085155067   1.25889   0.22892   0.78403   0.76927
   8   23187.2    431.3   0.010521273   0.14938   0.28606   0.21863  -0.14054
   9   23971.3    417.2   0.011210096   0.15396  -0.18632  -0.23422  -0.25374
  10   25208.0    396.7   0.004037204   0.05273  -0.01572   0.18677  -0.13265
  11   25912.9    385.9   0.166298221   2.11275  -0.68199  -1.23203   0.36020
  12   26320.0    379.9   0.004165783   0.05211   0.21587   0.05752   0.04689
  13   26835.0    372.6   0.006817849   0.08364   0.04257   0.01887  -0.28543
  14   28581.8    349.9   0.310426711   3.57556   0.64583   1.56306  -0.84575
  15   29831.3    335.2   0.527356737   5.81980   0.93003   1.98677  -1.00379
  16   29884.9    334.6   0.023843220   0.26266  -0.28493  -0.42541   0.02229
  17   30108.7    332.1   0.088584131   0.96859   0.81832   0.17366   0.51844
  18   31012.4    322.5   0.010562511   0.11213  -0.21006  -0.05959  -0.25387
  19   31158.1    320.9   0.001607908   0.01699   0.03101   0.09677  -0.08162
  20   31338.8    319.1   0.065834568   0.69159  -0.67052  -0.46225  -0.16826
  21   31430.9    318.2   0.013859979   0.14517  -0.01834   0.20830  -0.31851
  22   31623.4    316.2   0.070394076   0.73283   0.60814   0.59911  -0.06381
  23   32050.5    312.0   0.044722154   0.45937   0.02062  -0.41922   0.53217
  24   32078.0    311.7   0.027481608   0.28204   0.42752   0.26274  -0.17388
  25   32370.2    308.9   0.022086955   0.22463  -0.28262  -0.34082   0.16911
  26   32710.7    305.7   0.022364030   0.22508  -0.19529  -0.41618  -0.11719
  27   33099.1    302.1   0.000056254   0.00056  -0.01344  -0.01735   0.00882
  28   33338.6    300.0   0.003614730   0.03569   0.08964   0.12666  -0.10779
  29   33570.7    297.9   0.004200308   0.04119  -0.04483   0.16421  -0.11052
  30   33777.4    296.1   0.005882441   0.05733  -0.02187  -0.12883   0.20064
  31   34624.2    288.8   0.062091859   0.59038   0.17969  -0.28441   0.69080
  32   34733.0    287.9   0.004687788   0.04443   0.03356  -0.10253   0.18109
  33   34873.1    286.8   0.005089461   0.04805   0.16970   0.13057   0.04691
  34   34967.3    286.0   0.045206374   0.42561   0.17068   0.50530  -0.37570
  35   35375.8    282.7   0.053502745   0.49790  -0.55588  -0.25195  -0.35415
  36   35617.3    280.8   0.067755778   0.62627  -0.53068  -0.56562   0.15723
  37   35857.9    278.9   0.073349175   0.67342   0.30907   0.75488  -0.08976
  38   35920.2    278.4   0.072585263   0.66525  -0.28742  -0.15909  -0.74655
  39   36520.7    273.8   0.018302893   0.16499   0.07448  -0.05422  -0.39560
  40   36856.5    271.3   0.003309826   0.02956  -0.05272   0.05236  -0.15506
  41   37062.3    269.8   0.036675163   0.32577  -0.51235  -0.07006  -0.24157
  42   37478.8    266.8   0.066298248   0.58236   0.12976  -0.09746   0.74567
  43   37654.8    265.6   0.021958298   0.19198   0.15901   0.35620  -0.19954
  44   37882.5    264.0   0.003415203   0.02968   0.16425   0.03744   0.03604
  45   38068.7    262.7   0.039109920   0.33822  -0.31236  -0.01436  -0.49035
  46   38354.8    260.7   0.085610216   0.73482   0.15155   0.46528  -0.70382
  47   38767.6    257.9   0.048205461   0.40936   0.50956   0.23023  -0.31097
  48   38840.5    257.5   0.099325651   0.84188  -0.43526  -0.01350  -0.80762
  49   39222.9    255.0   0.027468195   0.23055   0.20651  -0.11907   0.41681
  50   39288.7    254.5   0.037350764   0.31297   0.38790   0.29887   0.27052
  51   39769.3    251.5   0.036875753   0.30526   0.39920  -0.10935  -0.36597

FINAL SINGLE POINT ENERGY     -5456.215419331614

DIPOLE MOMENT
-------------
                                X             Y             Z
Electronic contribution:    -17.30361       2.39062      11.29471
Nuclear contribution   :     17.24504      -2.33565     -11.20091
                        -----------------------------------------
Total Dipole Moment    :     -0.05857       0.05497       0.09380
                        -----------------------------------------
Magnitude (a.u.)       :      0.12349
Magnitude (Debye)      :      0.31389

Rotational constants in cm-1:     0.001021     0.000156     0.000145
Rotational constants in MHz :    30.600008     4.671924     4.354727

                             ****ORCA TERMINATED NORMALLY****
TOTAL RUN TIME: 0 days 0 hours 10 minutes 19 seconds 850 msec
