                         Program Version 4.2.0 -  RELEASE  -
|  1> # ORCA input file
|  2> # SCF done       -176.228512122255          0.000760035305
|  3> ! CAM-B3LYP def2-SVP def2/J RIJCOSX Grid4 TightSCF
|  4> %maxcore 5000
|  5> %tddft
|  6>     Mode sTDDFT
|  7>     Ethresh 5.0
|  8>     maxcore 5000
|  9> end
| 10>
| 11> %pal
| 12>   nprocs 6
| 13>   end
| 14> * xyz 0 1
| 15>    O       -0.98608        -1.49000         2.21921
| 16>    N       -0.12042        -1.44258         3.23256
| 17>    C        1.02439        -1.00154         2.76836
| 18>    C        2.16576        -0.82707         3.58172
| 19>    N        3.10381        -0.67357         4.21735
| 20>    C        0.92278        -0.73653         1.36676
| 21>    C       -0.39300        -1.07323         1.09035
| 22>    C       -1.10808        -1.03904        -0.12231
| 23>    N       -1.69806        -1.01662        -1.10222
| 24>    C        1.93879        -0.23350         0.43347
| 25>    O        1.74166         0.01066        -0.72629
| 26>    O        3.10867        -0.09594         1.08800
| 27>    C        4.24563         0.35195         0.49024
| 28>    C        4.47993         0.85591        -0.75829
| 29>    C        5.83734         1.18941        -0.90878
| 30>    C        6.60064         0.92380         0.24405
| 31>    S        5.66400         0.26920         1.51993
| 32>    C        7.94284         1.28155        -0.00448
| 33>    C        8.03464         1.77703        -1.32174
| 34>    C        6.70147         1.75610        -1.92093
| 35>    C        6.34870         2.22004        -3.15534
| 36>    C        5.01901         2.16698        -3.62928
| 37>    N        3.94330         2.14297        -4.02403
| 38>    C        7.25581         2.84196        -4.03751
| 39>    N        7.95381         3.38565        -4.76792
| 40>    C        9.32108         2.12683        -1.69031
| 41>    C       10.24420         1.91639        -0.66089
| 42>    S        9.45701         1.27898         0.78714
| 43>    C       11.62869         2.12351        -0.62509
| 44>    C       12.44976         2.47121        -1.67575
| 45>    C       13.84810         2.68289        -1.60532
| 46>    C       14.43569         2.98237        -2.80172
| 47>    C       13.53084         3.01504        -3.87943
| 48>    S       11.91044         2.67139        -3.32699
| 49>    C       13.73761         3.26272        -5.22831
| 50>    C       14.90492         3.61042        -5.93465
| 51>    C       14.69883         3.79321        -7.27309
| 52>    C       13.36175         3.59228        -7.69332
| 53>    S       12.37736         3.15465        -6.31475
| 54>    C       12.86628         3.76779        -8.96757
| 55>    C       11.54205         3.56553        -9.37810
| 56>    C       10.48262         2.95598        -8.70056
| 57>    C        9.30285         3.00155        -9.41870
| 58>    C        9.42630         3.64870       -10.66493
| 59>    S       11.02892         4.16959       -10.95798
| 60>    C        8.15186         3.68210       -11.27218
| 61>    C        7.22105         3.06495       -10.41402
| 62>    C        7.91330         2.59143        -9.23606
| 63>    C        7.40859         1.87861        -8.18718
| 64>    C        8.21695         1.37689        -7.14530
| 65>    N        8.86034         0.91507        -6.31544
| 66>    C        6.04345         1.53241        -8.08910
| 67>    N        4.94094         1.23359        -7.99403
| 68>    C        5.91389         3.06150       -10.93002
| 69>    C        5.88023         3.66728       -12.15462
| 70>    S        7.43395         4.25699       -12.71747
| 71>    O        4.85862         3.89338       -13.02423
| 72>    C        3.56863         3.65285       -12.71745
| 73>    O        3.15592         3.22207       -11.67453
| 74>    C        2.72673         4.00324       -13.86827
| 75>    C        3.10470         4.46151       -15.16900
| 76>    N        2.03996         4.65940       -15.90913
| 77>    O        0.96645         4.36071       -15.17641
| 78>    C        1.34378         3.96437       -13.95162
| 79>    C        0.38237         3.59855       -12.98983
| 80>    N       -0.40698         3.30682       -12.21485
| 81>    C        4.41808         4.68055       -15.63985
| 82>    N        5.49191         4.84843       -15.99528
| 83>    H        3.71983         0.96804        -1.51000
| 84>    H        9.58186         2.52619        -2.65179
| 85>    H       12.11152         1.97042         0.33148
| 86>    H       14.37836         2.60635        -0.67247
| 87>    H       15.48655         3.16906        -2.93241
| 88>    H       15.85543         3.72747        -5.44564
| 89>    H       15.46884         4.06911        -7.97187
| 90>    H       13.55751         4.13866        -9.71286
| 91>    H       10.57900         2.48256        -7.74287
| 92>    H        5.04901         2.65208       -10.44035
| 93> *
| 94>
| 95>                          ****END OF INPUT****

CARTESIAN COORDINATES (ANGSTROEM)
---------------------------------
  O     -0.986080   -1.490000    2.219210
  N     -0.120420   -1.442580    3.232560
  C      1.024390   -1.001540    2.768360
  C      2.165760   -0.827070    3.581720
  N      3.103810   -0.673570    4.217350
  C      0.922780   -0.736530    1.366760
  C     -0.393000   -1.073230    1.090350
  C     -1.108080   -1.039040   -0.122310
  N     -1.698060   -1.016620   -1.102220
  C      1.938790   -0.233500    0.433470
  O      1.741660    0.010660   -0.726290
  O      3.108670   -0.095940    1.088000
  C      4.245630    0.351950    0.490240
  C      4.479930    0.855910   -0.758290
  C      5.837340    1.189410   -0.908780
  C      6.600640    0.923800    0.244050
  S      5.664000    0.269200    1.519930
  C      7.942840    1.281550   -0.004480
  C      8.034640    1.777030   -1.321740
  C      6.701470    1.756100   -1.920930
  C      6.348700    2.220040   -3.155340
  C      5.019010    2.166980   -3.629280
  N      3.943300    2.142970   -4.024030
  C      7.255810    2.841960   -4.037510
  N      7.953810    3.385650   -4.767920
  C      9.321080    2.126830   -1.690310
  C     10.244200    1.916390   -0.660890
  S      9.457010    1.278980    0.787140
  C     11.628690    2.123510   -0.625090
  C     12.449760    2.471210   -1.675750
  C     13.848100    2.682890   -1.605320
  C     14.435690    2.982370   -2.801720
  C     13.530840    3.015040   -3.879430
  S     11.910440    2.671390   -3.326990
  C     13.737610    3.262720   -5.228310
  C     14.904920    3.610420   -5.934650
  C     14.698830    3.793210   -7.273090
  C     13.361750    3.592280   -7.693320
  S     12.377360    3.154650   -6.314750
  C     12.866280    3.767790   -8.967570
  C     11.542050    3.565530   -9.378100
  C     10.482620    2.955980   -8.700560
  C      9.302850    3.001550   -9.418700
  C      9.426300    3.648700  -10.664930
  S     11.028920    4.169590  -10.957980
  C      8.151860    3.682100  -11.272180
  C      7.221050    3.064950  -10.414020
  C      7.913300    2.591430   -9.236060
  C      7.408590    1.878610   -8.187180
  C      8.216950    1.376890   -7.145300
  N      8.860340    0.915070   -6.315440
  C      6.043450    1.532410   -8.089100
  N      4.940940    1.233590   -7.994030
  C      5.913890    3.061500  -10.930020
  C      5.880230    3.667280  -12.154620
  S      7.433950    4.256990  -12.717470
  O      4.858620    3.893380  -13.024230
  C      3.568630    3.652850  -12.717450
  O      3.155920    3.222070  -11.674530
  C      2.726730    4.003240  -13.868270
  C      3.104700    4.461510  -15.169000
  N      2.039960    4.659400  -15.909130
  O      0.966450    4.360710  -15.176410
  C      1.343780    3.964370  -13.951620
  C      0.382370    3.598550  -12.989830
  N     -0.406980    3.306820  -12.214850
  C      4.418080    4.680550  -15.639850
  N      5.491910    4.848430  -15.995280
  H      3.719830    0.968040   -1.510000
  H      9.581860    2.526190   -2.651790
  H     12.111520    1.970420    0.331480
  H     14.378360    2.606350   -0.672470
  H     15.486550    3.169060   -2.932410
  H     15.855430    3.727470   -5.445640
  H     15.468840    4.069110   -7.971870
  H     13.557510    4.138660   -9.712860
  H     10.579000    2.482560   -7.742870
  H      5.049010    2.652080  -10.440350

 Total Charge           Charge          ....    0
 Multiplicity           Mult            ....    1
 Number of Electrons    NEL             ....  500
 Basis Dimension        Dim             .... 1026

ORBITAL ENERGIES
----------------

  NO   OCC          E(Eh)            E(eV)
   0   2.0000     -88.989828     -2421.5363
   1   2.0000     -88.989469     -2421.5266
   2   2.0000     -88.979891     -2421.2659
   3   2.0000     -88.979672     -2421.2600
   4   2.0000     -88.949674     -2420.4437
   5   2.0000     -88.948878     -2420.4220
   6   2.0000     -19.382048      -527.4123
   7   2.0000     -19.381740      -527.4040
   8   2.0000     -19.323523      -525.8198
   9   2.0000     -19.323155      -525.8098
  10   2.0000     -19.250948      -523.8449
  11   2.0000     -19.250390      -523.8297
  12   2.0000     -14.524116      -395.2213
  13   2.0000     -14.523727      -395.2107
  14   2.0000     -14.453596      -393.3023
  15   2.0000     -14.453240      -393.2926
  16   2.0000     -14.445902      -393.0930
  17   2.0000     -14.445549      -393.0834
  18   2.0000     -14.423390      -392.4804
  19   2.0000     -14.420342      -392.3975
  20   2.0000     -14.419887      -392.3851
  21   2.0000     -14.419765      -392.3817
  22   2.0000     -10.457168      -284.5540
  23   2.0000     -10.456686      -284.5409
  24   2.0000     -10.428088      -283.7627
  25   2.0000     -10.427800      -283.7549
  26   2.0000     -10.392475      -282.7936
  27   2.0000     -10.392212      -282.7865
  28   2.0000     -10.379913      -282.4518
  29   2.0000     -10.379401      -282.4379
  30   2.0000     -10.358008      -281.8557
  31   2.0000     -10.357721      -281.8479
  32   2.0000     -10.357306      -281.8366
  33   2.0000     -10.356601      -281.8174
  34   2.0000     -10.349179      -281.6155
  35   2.0000     -10.348821      -281.6057
  36   2.0000     -10.344623      -281.4915
  37   2.0000     -10.344264      -281.4817
  38   2.0000     -10.344004      -281.4747
  39   2.0000     -10.342139      -281.4239
  40   2.0000     -10.329757      -281.0870
  41   2.0000     -10.329443      -281.0784
  42   2.0000     -10.323413      -280.9144
  43   2.0000     -10.321320      -280.8574
  44   2.0000     -10.321036      -280.8497
  45   2.0000     -10.320071      -280.8234
  46   2.0000     -10.319641      -280.8117
  47   2.0000     -10.319186      -280.7993
  48   2.0000     -10.317934      -280.7652
  49   2.0000     -10.317045      -280.7411
  50   2.0000     -10.314446      -280.6704
  51   2.0000     -10.314054      -280.6597
  52   2.0000     -10.313560      -280.6462
  53   2.0000     -10.313360      -280.6408
  54   2.0000     -10.298024      -280.2235
  55   2.0000     -10.297509      -280.2095
  56   2.0000     -10.297176      -280.2004
  57   2.0000     -10.296668      -280.1866
  58   2.0000     -10.296127      -280.1719
  59   2.0000     -10.294527      -280.1283
  60   2.0000     -10.293221      -280.0928
  61   2.0000     -10.293209      -280.0924
  62   2.0000     -10.292072      -280.0615
  63   2.0000     -10.291840      -280.0552
  64   2.0000     -10.291133      -280.0360
  65   2.0000     -10.290524      -280.0194
  66   2.0000     -10.290294      -280.0131
  67   2.0000     -10.289286      -279.9857
  68   2.0000      -8.084926      -220.0020
  69   2.0000      -8.084451      -219.9891
  70   2.0000      -8.074636      -219.7220
  71   2.0000      -8.074228      -219.7109
  72   2.0000      -8.045583      -218.9314
  73   2.0000      -8.044941      -218.9140
  74   2.0000      -6.054284      -164.7454
  75   2.0000      -6.053825      -164.7330
  76   2.0000      -6.050163      -164.6333
  77   2.0000      -6.049690      -164.6204
  78   2.0000      -6.046829      -164.5426
  79   2.0000      -6.046393      -164.5307
  80   2.0000      -6.043862      -164.4618
  81   2.0000      -6.043475      -164.4513
  82   2.0000      -6.039842      -164.3525
  83   2.0000      -6.039451      -164.3418
  84   2.0000      -6.036888      -164.2721
  85   2.0000      -6.036515      -164.2619
  86   2.0000      -6.015352      -163.6860
  87   2.0000      -6.014713      -163.6686
  88   2.0000      -6.011131      -163.5712
  89   2.0000      -6.010451      -163.5527
  90   2.0000      -6.006606      -163.4481
  91   2.0000      -6.005951      -163.4302
  92   2.0000      -1.324594       -36.0440
  93   2.0000      -1.324303       -36.0361
  94   2.0000      -1.249935       -34.0125
  95   2.0000      -1.249547       -34.0019
  96   2.0000      -1.154836       -31.4247
  97   2.0000      -1.154351       -31.4115
  98   2.0000      -1.045626       -28.4529
  99   2.0000      -1.045280       -28.4435
 100   2.0000      -1.037091       -28.2207
 101   2.0000      -1.036259       -28.1980
 102   2.0000      -1.032192       -28.0874
 103   2.0000      -1.031834       -28.0776
 104   2.0000      -1.014524       -27.6066
 105   2.0000      -1.011653       -27.5285
 106   2.0000      -1.010686       -27.5022
 107   2.0000      -1.010302       -27.4917
 108   2.0000      -1.002604       -27.2822
 109   2.0000      -0.999114       -27.1873
 110   2.0000      -0.996499       -27.1161
 111   2.0000      -0.991959       -26.9926
 112   2.0000      -0.989398       -26.9229
 113   2.0000      -0.977766       -26.6064
 114   2.0000      -0.971298       -26.4304
 115   2.0000      -0.970592       -26.4112
 116   2.0000      -0.950700       -25.8699
 117   2.0000      -0.949128       -25.8271
 118   2.0000      -0.913356       -24.8537
 119   2.0000      -0.909111       -24.7382
 120   2.0000      -0.890615       -24.2349
 121   2.0000      -0.874857       -23.8061
 122   2.0000      -0.866632       -23.5822
 123   2.0000      -0.865729       -23.5577
 124   2.0000      -0.859345       -23.3840
 125   2.0000      -0.853708       -23.2306
 126   2.0000      -0.853243       -23.2179
 127   2.0000      -0.842706       -22.9312
 128   2.0000      -0.841902       -22.9093
 129   2.0000      -0.825227       -22.4556
 130   2.0000      -0.818392       -22.2696
 131   2.0000      -0.815078       -22.1794
 132   2.0000      -0.811953       -22.0944
 133   2.0000      -0.794146       -21.6098
 134   2.0000      -0.791701       -21.5433
 135   2.0000      -0.782733       -21.2992
 136   2.0000      -0.770593       -20.9689
 137   2.0000      -0.766559       -20.8591
 138   2.0000      -0.754178       -20.5222
 139   2.0000      -0.745699       -20.2915
 140   2.0000      -0.737897       -20.0792
 141   2.0000      -0.725547       -19.7432
 142   2.0000      -0.700842       -19.0709
 143   2.0000      -0.689024       -18.7493
 144   2.0000      -0.686009       -18.6672
 145   2.0000      -0.681232       -18.5373
 146   2.0000      -0.680498       -18.5173
 147   2.0000      -0.669795       -18.2260
 148   2.0000      -0.665180       -18.1005
 149   2.0000      -0.662555       -18.0290
 150   2.0000      -0.658846       -17.9281
 151   2.0000      -0.643284       -17.5046
 152   2.0000      -0.642952       -17.4956
 153   2.0000      -0.634874       -17.2758
 154   2.0000      -0.631670       -17.1886
 155   2.0000      -0.629408       -17.1271
 156   2.0000      -0.627049       -17.0629
 157   2.0000      -0.620853       -16.8943
 158   2.0000      -0.620488       -16.8843
 159   2.0000      -0.619298       -16.8520
 160   2.0000      -0.615799       -16.7568
 161   2.0000      -0.608565       -16.5599
 162   2.0000      -0.606506       -16.5039
 163   2.0000      -0.601245       -16.3607
 164   2.0000      -0.600840       -16.3497
 165   2.0000      -0.589701       -16.0466
 166   2.0000      -0.589067       -16.0293
 167   2.0000      -0.586634       -15.9631
 168   2.0000      -0.582060       -15.8387
 169   2.0000      -0.566855       -15.4249
 170   2.0000      -0.559992       -15.2382
 171   2.0000      -0.556965       -15.1558
 172   2.0000      -0.550661       -14.9843
 173   2.0000      -0.539809       -14.6889
 174   2.0000      -0.538814       -14.6619
 175   2.0000      -0.537967       -14.6388
 176   2.0000      -0.535497       -14.5716
 177   2.0000      -0.529936       -14.4203
 178   2.0000      -0.515302       -14.0221
 179   2.0000      -0.508423       -13.8349
 180   2.0000      -0.504830       -13.7371
 181   2.0000      -0.503619       -13.7042
 182   2.0000      -0.503343       -13.6967
 183   2.0000      -0.502457       -13.6726
 184   2.0000      -0.502412       -13.6713
 185   2.0000      -0.499469       -13.5913
 186   2.0000      -0.498796       -13.5729
 187   2.0000      -0.498243       -13.5579
 188   2.0000      -0.495529       -13.4840
 189   2.0000      -0.492876       -13.4118
 190   2.0000      -0.489512       -13.3203
 191   2.0000      -0.487816       -13.2741
 192   2.0000      -0.484499       -13.1839
 193   2.0000      -0.479057       -13.0358
 194   2.0000      -0.478671       -13.0253
 195   2.0000      -0.476937       -12.9781
 196   2.0000      -0.475464       -12.9380
 197   2.0000      -0.474695       -12.9171
 198   2.0000      -0.473995       -12.8981
 199   2.0000      -0.472751       -12.8642
 200   2.0000      -0.471072       -12.8185
 201   2.0000      -0.470455       -12.8017
 202   2.0000      -0.470250       -12.7962
 203   2.0000      -0.465240       -12.6598
 204   2.0000      -0.464780       -12.6473
 205   2.0000      -0.459878       -12.5139
 206   2.0000      -0.457409       -12.4467
 207   2.0000      -0.455111       -12.3842
 208   2.0000      -0.453378       -12.3370
 209   2.0000      -0.452450       -12.3118
 210   2.0000      -0.451032       -12.2732
 211   2.0000      -0.448888       -12.2149
 212   2.0000      -0.447893       -12.1878
 213   2.0000      -0.445991       -12.1360
 214   2.0000      -0.445720       -12.1287
 215   2.0000      -0.444889       -12.1061
 216   2.0000      -0.437445       -11.9035
 217   2.0000      -0.436083       -11.8664
 218   2.0000      -0.434167       -11.8143
 219   2.0000      -0.433251       -11.7894
 220   2.0000      -0.431795       -11.7497
 221   2.0000      -0.428749       -11.6669
 222   2.0000      -0.428423       -11.6580
 223   2.0000      -0.427515       -11.6333
 224   2.0000      -0.426953       -11.6180
 225   2.0000      -0.421527       -11.4703
 226   2.0000      -0.417563       -11.3625
 227   2.0000      -0.414866       -11.2891
 228   2.0000      -0.409929       -11.1547
 229   2.0000      -0.409547       -11.1443
 230   2.0000      -0.409227       -11.1356
 231   2.0000      -0.403567       -10.9816
 232   2.0000      -0.397130       -10.8064
 233   2.0000      -0.396661       -10.7937
 234   2.0000      -0.395733       -10.7685
 235   2.0000      -0.392321       -10.6756
 236   2.0000      -0.384969       -10.4755
 237   2.0000      -0.384465       -10.4618
 238   2.0000      -0.377902       -10.2832
 239   2.0000      -0.355113        -9.6631
 240   2.0000      -0.345609        -9.4045
 241   2.0000      -0.344692        -9.3795
 242   2.0000      -0.338355        -9.2071
 243   2.0000      -0.329213        -8.9583
 244   2.0000      -0.322995        -8.7891
 245   2.0000      -0.313611        -8.5338
 246   2.0000      -0.312699        -8.5090
 247   2.0000      -0.285841        -7.7781
 248   2.0000      -0.256587        -6.9821
 249   2.0000      -0.208765        -5.6808
 250   0.0000      -0.105956        -2.8832
 251   0.0000      -0.095938        -2.6106
 252   0.0000      -0.080360        -2.1867
 253   0.0000      -0.079205        -2.1553
 254   0.0000      -0.076120        -2.0713

MULLIKEN ATOMIC CHARGES
-----------------------
   0 O :   -0.128772
   1 N :    0.074056
   2 C :   -0.177979
   3 C :   -0.167250
   4 N :    0.245126
   5 C :    0.038557
   6 C :    0.003399
   7 C :   -0.145809
   8 N :    0.258037
   9 C :    0.203048
  10 O :   -0.141853
  11 O :   -0.240909
  12 C :    0.063085
  13 C :   -0.037329
  14 C :   -0.006016
  15 C :   -0.105011
  16 S :    0.211909
  17 C :   -0.109743
  18 C :   -0.000787
  19 C :    0.312146
  20 C :   -0.301805
  21 C :   -0.203296
  22 N :    0.189672
  23 C :   -0.159434
  24 N :    0.159485
  25 C :   -0.040954
  26 C :   -0.096211
  27 S :    0.174698
  28 C :    0.032810
  29 C :   -0.029465
  30 C :    0.031672
  31 C :    0.029341
  32 C :   -0.027496
  33 S :    0.064777
  34 C :   -0.033506
  35 C :    0.033728
  36 C :    0.033320
  37 C :   -0.033107
  38 S :    0.066236
  39 C :    0.036114
  40 C :   -0.096793
  41 C :   -0.039839
  42 C :   -0.003008
  43 C :   -0.108581
  44 S :    0.176092
  45 C :   -0.108463
  46 C :   -0.006741
  47 C :    0.313246
  48 C :   -0.295440
  49 C :   -0.170919
  50 N :    0.165741
  51 C :   -0.207552
  52 N :    0.192185
  53 C :   -0.033192
  54 C :    0.063080
  55 S :    0.211232
  56 O :   -0.241682
  57 C :    0.202815
  58 O :   -0.141074
  59 C :    0.036995
  60 C :   -0.180267
  61 N :    0.074394
  62 O :   -0.129819
  63 C :   -0.000922
  64 C :   -0.142508
  65 N :    0.258731
  66 C :   -0.166103
  67 N :    0.246365
  68 H :    0.036886
  69 H :    0.031987
  70 H :   -0.017045
  71 H :   -0.011302
  72 H :   -0.011388
  73 H :   -0.013040
  74 H :   -0.011093
  75 H :   -0.016768
  76 H :    0.033395
  77 H :    0.035912
Sum of atomic charges:   -0.0000000

LOEWDIN ATOMIC CHARGES
----------------------
   0 O :    0.080019
   1 N :    0.024486
   2 C :   -0.053955
   3 C :   -0.032889
   4 N :   -0.002819
   5 C :   -0.077348
   6 C :    0.042808
   7 C :   -0.040901
   8 N :    0.033442
   9 C :    0.100393
  10 O :   -0.117788
  11 O :   -0.035792
  12 C :   -0.110904
  13 C :   -0.056593
  14 C :   -0.074445
  15 C :   -0.173393
  16 S :    0.476507
  17 C :   -0.195691
  18 C :   -0.059916
  19 C :    0.080024
  20 C :   -0.094237
  21 C :   -0.021755
  22 N :   -0.019573
  23 C :   -0.011851
  24 N :   -0.032833
  25 C :   -0.039487
  26 C :   -0.160421
  27 S :    0.464042
  28 C :   -0.080565
  29 C :   -0.145738
  30 C :   -0.030686
  31 C :   -0.035691
  32 C :   -0.176538
  33 S :    0.406812
  34 C :   -0.176939
  35 C :   -0.035376
  36 C :   -0.030427
  37 C :   -0.145190
  38 S :    0.409884
  39 C :   -0.078343
  40 C :   -0.162294
  41 C :   -0.040410
  42 C :   -0.059349
  43 C :   -0.194664
  44 S :    0.462075
  45 C :   -0.173598
  46 C :   -0.073737
  47 C :    0.079298
  48 C :   -0.091794
  49 C :   -0.013687
  50 N :   -0.033066
  51 C :   -0.022537
  52 N :   -0.021041
  53 C :   -0.056162
  54 C :   -0.110969
  55 S :    0.475802
  56 O :   -0.035799
  57 C :    0.100127
  58 O :   -0.117813
  59 C :   -0.077589
  60 C :   -0.053864
  61 N :    0.024487
  62 O :    0.079765
  63 C :    0.042895
  64 C :   -0.040813
  65 N :    0.033459
  66 C :   -0.032985
  67 N :   -0.002524
  68 H :    0.047720
  69 H :    0.026149
  70 H :    0.033237
  71 H :    0.033483
  72 H :    0.033129
  73 H :    0.032707
  74 H :    0.033667
  75 H :    0.033476
  76 H :    0.025176
  77 H :    0.047711

  Mayer bond orders larger than 0.100000
B(  0-O ,  1-N ) :   1.0264 B(  0-O ,  6-C ) :   1.1884 B(  1-N ,  2-C ) :   1.7072
B(  1-N ,  6-C ) :   0.1026 B(  2-C ,  3-C ) :   1.1529 B(  2-C ,  5-C ) :   1.2237
B(  3-C ,  4-N ) :   3.0667 B(  5-C ,  6-C ) :   1.5419 B(  5-C ,  9-C ) :   0.8935
B(  6-C ,  7-C ) :   1.1307 B(  7-C ,  8-N ) :   3.0350 B(  9-C , 10-O ) :   2.1655
B(  9-C , 11-O ) :   1.1538 B( 11-O , 12-C ) :   1.0053 B( 12-C , 13-C ) :   1.5004
B( 12-C , 16-S ) :   1.1103 B( 13-C , 14-C ) :   1.1951 B( 13-C , 68-H ) :   1.0037
B( 14-C , 15-C ) :   1.4551 B( 14-C , 19-C ) :   1.0326 B( 15-C , 16-S ) :   1.1009
B( 15-C , 17-C ) :   1.2258 B( 17-C , 18-C ) :   1.4325 B( 17-C , 27-S ) :   1.1115
B( 18-C , 19-C ) :   0.9877 B( 18-C , 25-C ) :   1.3557 B( 19-C , 20-C ) :   1.7034
B( 20-C , 21-C ) :   1.1354 B( 20-C , 23-C ) :   1.1479 B( 21-C , 22-N ) :   2.9967
B( 23-C , 24-N ) :   2.9215 B( 25-C , 26-C ) :   1.3932 B( 25-C , 69-H ) :   0.9656
B( 26-C , 27-S ) :   1.0958 B( 26-C , 28-C ) :   1.1848 B( 28-C , 29-C ) :   1.5752
B( 28-C , 70-H ) :   0.9522 B( 29-C , 30-C ) :   1.1574 B( 29-C , 33-S ) :   1.0502
B( 30-C , 31-C ) :   1.5735 B( 30-C , 71-H ) :   0.9994 B( 31-C , 32-C ) :   1.2016
B( 31-C , 72-H ) :   0.9949 B( 32-C , 33-S ) :   1.0529 B( 32-C , 34-C ) :   1.4749
B( 34-C , 35-C ) :   1.2020 B( 34-C , 38-S ) :   1.0552 B( 35-C , 36-C ) :   1.5743
B( 35-C , 73-H ) :   0.9943 B( 36-C , 37-C ) :   1.1603 B( 36-C , 74-H ) :   0.9976
B( 37-C , 38-S ) :   1.0479 B( 37-C , 39-C ) :   1.5727 B( 39-C , 40-C ) :   1.1852
B( 39-C , 75-H ) :   0.9537 B( 40-C , 41-C ) :   1.3930 B( 40-C , 44-S ) :   1.0933
B( 41-C , 42-C ) :   1.3585 B( 41-C , 76-H ) :   0.9602 B( 42-C , 43-C ) :   1.4340
B( 42-C , 47-C ) :   0.9893 B( 43-C , 44-S ) :   1.1100 B( 43-C , 45-C ) :   1.2265
B( 45-C , 46-C ) :   1.4558 B( 45-C , 55-S ) :   1.1001 B( 46-C , 47-C ) :   1.0286
B( 46-C , 53-C ) :   1.1983 B( 47-C , 48-C ) :   1.7086 B( 48-C , 49-C ) :   1.1434
B( 48-C , 51-C ) :   1.1360 B( 49-C , 50-N ) :   2.9382 B( 51-C , 52-N ) :   2.9998
B( 53-C , 54-C ) :   1.4997 B( 53-C , 77-H ) :   1.0036 B( 54-C , 55-S ) :   1.1112
B( 54-C , 56-O ) :   1.0020 B( 56-O , 57-C ) :   1.1566 B( 57-C , 58-O ) :   2.1658
B( 57-C , 59-C ) :   0.8937 B( 59-C , 60-C ) :   1.2241 B( 59-C , 63-C ) :   1.5402
B( 60-C , 61-N ) :   1.7067 B( 60-C , 66-C ) :   1.1544 B( 61-N , 62-O ) :   1.0257
B( 61-N , 63-C ) :   0.1028 B( 62-O , 63-C ) :   1.1877 B( 63-C , 64-C ) :   1.1327
B( 64-C , 65-N ) :   3.0337 B( 66-C , 67-N ) :   3.0665

-----------------------------------------------------------------------------
         ABSORPTION SPECTRUM VIA TRANSITION ELECTRIC DIPOLE MOMENTS
-----------------------------------------------------------------------------
State   Energy  Wavelength   fosc         T2         TX        TY        TZ
        (cm-1)    (nm)                  (au**2)     (au)      (au)      (au)
-----------------------------------------------------------------------------
   0    7474.8   1337.8   0.181982751   8.01505  -0.51876  -0.56413   2.72538
   1    8847.7   1130.2   0.078841581   2.93361   1.64055   0.18622   0.45556
   2   14207.0    703.9   0.689905806  15.98685  -0.61478  -0.72280   3.88413
   3   17140.8    583.4   0.067653315   1.29937   1.11763   0.15956   0.15755
   4   18487.2    540.9   0.002978925   0.05305   0.00955   0.11465  -0.19953
   5   18676.1    535.4   0.303926960   5.35745  -2.25974  -0.32764  -0.37904
   6   18809.9    531.6   0.019584426   0.34277  -0.53267   0.12536   0.20812
   7   23165.8    431.7   0.222623826   3.16374   1.74539   0.24942   0.23480
   8   24654.1    405.6   0.023285964   0.31094  -0.17683  -0.14031   0.50989
   9   25297.4    395.3   0.468354808   6.09500  -2.41850  -0.33590  -0.36476
  10   25591.0    390.8   0.006014696   0.07738   0.15354  -0.15335   0.17402
  11   26381.7    379.1   0.018808772   0.23471   0.47094   0.07608   0.08448
  12   26968.7    370.8   0.923555370  11.27400   3.28482   0.47748   0.50591
  13   27544.6    363.0   0.025426342   0.30389   0.07573   0.38567  -0.38654
  14   27883.9    358.6   0.010085349   0.11907  -0.31969  -0.04881  -0.12036
  15   29981.0    333.5   0.044499264   0.48863  -0.12899  -0.30710   0.61456
  16   30097.9    332.2   0.646401870   7.07036   0.19788   1.08412  -2.41989
  17   30468.7    328.2   0.122336528   1.32183  -0.09539  -0.59837   0.97708
  18   31510.6    317.4   0.215488060   2.25135  -1.42288  -0.31323  -0.35869
  19   32347.2    309.1   0.062259534   0.63364  -0.52058  -0.34830   0.49125
  20   32754.0    305.3   0.194434810   1.95428  -0.17503   0.62880  -1.23622
  21   33163.2    301.5   0.177471116   1.76176   0.11349   0.45656  -1.24114
  22   33374.3    299.6   0.049892543   0.49215  -0.26098   0.32065  -0.56676
  23   33467.5    298.8   0.043633484   0.42921   0.65176   0.06646  -0.00151
  24   34051.5    293.7   0.212413341   2.05363   0.21418   0.56305  -1.30028
  25   34302.3    291.5   0.125895273   1.20826   0.63231   0.49557  -0.75024
  26   34377.9    290.9   0.042466799   0.40667  -0.58464  -0.01260  -0.25439
  27   34428.0    290.5   0.173934768   1.66322  -1.14947   0.06492  -0.58115
  28   34483.1    290.0   0.029368647   0.28038  -0.36970  -0.24060   0.29295
  29   34725.8    288.0   0.004571377   0.04334  -0.07649   0.13745  -0.13636
  30   34876.3    286.7   0.002587622   0.02443   0.12002  -0.04208   0.09083
  31   35430.5    282.2   0.001908957   0.01774   0.02323  -0.00998  -0.13076
  32   35774.4    279.5   0.025932188   0.23864  -0.39773  -0.19774   0.20333
  33   36049.5    277.4   0.147166332   1.34396  -0.06604  -0.48966   1.04873
  34   36684.1    272.6   0.007829601   0.07026  -0.14267   0.05083   0.21755
  35   36888.5    271.1   0.055467721   0.49502  -0.66018  -0.10797  -0.21801
  36   36950.3    270.6   0.008999839   0.08018  -0.25277  -0.05908  -0.11314
  37   37386.0    267.5   0.029523914   0.25998  -0.48268   0.02329  -0.16266
  38   37512.5    266.6   0.029139910   0.25573  -0.43992  -0.17883   0.17385
  39   37632.4    265.7   0.020402103   0.17848   0.00927  -0.20419   0.36973
  40   37721.6    265.1   0.004164477   0.03635  -0.07487  -0.06237   0.16386
  41   38008.4    263.1   0.042155962   0.36514  -0.59539  -0.05753  -0.08567
  42   38721.5    258.3   0.001295564   0.01101   0.08201   0.05199   0.03982
  43   38754.5    258.0   0.004772604   0.04054  -0.19826  -0.02524  -0.02445
  44   39171.0    255.3   0.098581429   0.82853  -0.89479  -0.09586  -0.13672
  45   39553.1    252.8   0.001321631   0.01100   0.09958   0.03228   0.00656

FINAL SINGLE POINT ENERGY     -5142.416069146176

DIPOLE MOMENT
-------------
                                X             Y             Z
Electronic contribution:    -40.89213      -5.03608      -5.93865
Nuclear contribution   :     44.29343       5.69635       6.57032
                        -----------------------------------------
Total Dipole Moment    :      3.40131       0.66027       0.63167
                        -----------------------------------------
Magnitude (a.u.)       :      3.52191
Magnitude (Debye)      :      8.95198

Rotational constants in cm-1:     0.000846     0.000473     0.000306
Rotational constants in MHz :    25.352463    14.193926     9.183823

                             ****ORCA TERMINATED NORMALLY****
TOTAL RUN TIME: 0 days 0 hours 17 minutes 59 seconds 625 msec
