                         Program Version 4.2.0 -  RELEASE  -
|  1> # ORCA input file
|  2> # SCF done       -201.068336750617          0.000798349973
|  3> ! CAM-B3LYP def2-SVP def2/J RIJCOSX Grid4 TightSCF
|  4> %maxcore 5000
|  5> %tddft
|  6>     Mode sTDDFT
|  7>     Ethresh 5.0
|  8>     maxcore 5000
|  9> end
| 10>
| 11> %pal
| 12>   nprocs 6
| 13>   end
| 14> * xyz 0 1
| 15>    C       -1.82536         2.01311        -2.33621
| 16>    C       -3.12877         2.49272        -2.33270
| 17>    C       -3.82644         2.68681        -1.14886
| 18>    C       -3.22841         2.42054         0.07503
| 19>    C       -1.92941         1.95038         0.07792
| 20>    C       -1.22453         1.73204        -1.12031
| 21>    C        0.09829         1.19545        -0.80038
| 22>    C        0.87616         0.47128        -1.66504
| 23>    C        0.55825         0.26249        -3.02410
| 24>    N        0.34763         0.05446        -4.13251
| 25>    C        2.03464        -0.23322        -1.28358
| 26>    N        2.97027        -0.84170        -1.01335
| 27>    C        0.27561         1.32764         0.63002
| 28>    C       -1.06018         1.62652         1.22506
| 29>    O       -1.33533         1.64120         2.40224
| 30>    C        1.36422         1.31065         1.44849
| 31>    C        2.72904         1.43194         1.11103
| 32>    C        3.29927         1.93005        -0.05198
| 33>    C        4.68626         1.92424        -0.00193
| 34>    C        5.19039         1.42080         1.21691
| 35>    S        3.95190         0.97908         2.29604
| 36>    C        6.60326         1.44273         1.15509
| 37>    C        6.99421         1.95240        -0.09700
| 38>    C        5.79927         2.26154        -0.86823
| 39>    C        5.73087         2.73954        -2.14432
| 40>    C        6.88525         3.02685        -2.90144
| 41>    N        7.82772         3.26549        -3.50969
| 42>    C        4.49146         2.97812        -2.77456
| 43>    N        3.47643         3.17152        -3.27192
| 44>    C        8.37530         2.02039        -0.25075
| 45>    C        9.04828         1.56931         0.87412
| 46>    S        7.94066         1.04575         2.13937
| 47>    C       10.45587         1.51309         1.07742
| 48>    C       11.01810         1.04650         2.24356
| 49>    C       12.38306         0.98824         2.50235
| 50>    C       13.36259         1.44041         1.51257
| 51>    C       13.03794         1.92564         0.29388
| 52>    S       11.42771         2.09342        -0.27024
| 53>    C       14.63033         1.24388         2.12498
| 54>    C       14.46950         0.70418         3.40480
| 55>    C       15.71610         0.50521         4.04111
| 56>    C       16.75358         0.88578         3.25028
| 57>    S       16.27489         1.49977         1.70659
| 58>    C       13.05995         0.53141         3.65703
| 59>    C       12.41083         0.00426         4.79031
| 60>    C       13.00218        -0.48894         5.91467
| 61>    C       12.28492        -1.03378         7.00226
| 62>    C       10.90902        -1.16488         7.16786
| 63>    C       10.58002        -1.77842         8.36764
| 64>    C       11.70446        -2.12693         9.14277
| 65>    S       13.16845        -1.68461         8.37719
| 66>    C       11.26010        -2.76302        10.32138
| 67>    C        9.84697        -2.81482        10.29690
| 68>    C        9.37718        -2.20261         9.07156
| 69>    C        8.08432        -2.07881         8.65082
| 70>    C        7.00863        -2.55495         9.42908
| 71>    N        6.14387        -2.93982        10.07641
| 72>    C        7.75254        -1.46610         7.42554
| 73>    N        7.49374        -0.95871         6.42960
| 74>    C        9.31010        -3.46775        11.39749
| 75>    C       10.28762        -3.92458        12.27001
| 76>    S       11.90695        -3.49205        11.71611
| 77>    C       10.14573        -4.61362        13.49071
| 78>    C        9.07009        -5.29956        13.97239
| 79>    C        7.85424        -5.80083        13.36996
| 80>    C        7.68384        -6.20860        12.07080
| 81>    C        6.50921        -6.81993        11.58546
| 82>    N        5.58251        -7.32778        11.13778
| 83>    C        8.69315        -6.16620        11.09101
| 84>    N        9.49103        -6.17907        10.26476
| 85>    C        6.91452        -6.06976        14.45394
| 86>    C        7.60520        -5.97533        15.68972
| 87>    C        8.99878        -5.57109        15.43583
| 88>    O        9.89671        -5.43773        16.23679
| 89>    C        6.99295        -6.22102        16.89503
| 90>    C        5.63664        -6.56110        16.88131
| 91>    C        4.95255        -6.63169        15.64381
| 92>    C        5.57266        -6.39293        14.42254
| 93>    S        3.28485        -7.05215        15.87071
| 94>    C        3.51331        -7.13524        17.58324
| 95>    C        4.77610        -6.85916        17.97541
| 96>    H       -1.29920         1.88089        -3.26777
| 97>    H       -3.60659         2.71846        -3.27411
| 98>    H       -4.84156         3.05271        -1.18150
| 99>    H       -3.75163         2.57199         1.00649
|100>    H        1.13487         1.26697         2.50904
|101>    H        2.71936         2.31889        -0.86892
|102>    H        8.87930         2.37932        -1.13002
|103>    H       10.32857         0.70846         3.00593
|104>    H       13.77919         2.24625        -0.42093
|105>    H       15.86294         0.10763         5.02802
|106>    H       17.80026         0.84456         3.48048
|107>    H       11.33136        -0.01632         4.73999
|108>    H       14.07699        -0.49246         6.00321
|109>    H       10.19205        -0.82972         6.44210
|110>    H        8.25809        -3.57601        11.58956
|111>    H       10.98194        -4.54316        14.18023
|112>    H        7.54390        -6.15260        17.82017
|113>    H        5.01090        -6.44912        13.50477
|114>    H        2.67348        -7.38933        18.20032
|115>    H        5.10318        -6.86202        18.99942
|116> *
|117>
|118>                          ****END OF INPUT****

CARTESIAN COORDINATES (ANGSTROEM)
---------------------------------
  C     -1.825360    2.013110   -2.336210
  C     -3.128770    2.492720   -2.332700
  C     -3.826440    2.686810   -1.148860
  C     -3.228410    2.420540    0.075030
  C     -1.929410    1.950380    0.077920
  C     -1.224530    1.732040   -1.120310
  C      0.098290    1.195450   -0.800380
  C      0.876160    0.471280   -1.665040
  C      0.558250    0.262490   -3.024100
  N      0.347630    0.054460   -4.132510
  C      2.034640   -0.233220   -1.283580
  N      2.970270   -0.841700   -1.013350
  C      0.275610    1.327640    0.630020
  C     -1.060180    1.626520    1.225060
  O     -1.335330    1.641200    2.402240
  C      1.364220    1.310650    1.448490
  C      2.729040    1.431940    1.111030
  C      3.299270    1.930050   -0.051980
  C      4.686260    1.924240   -0.001930
  C      5.190390    1.420800    1.216910
  S      3.951900    0.979080    2.296040
  C      6.603260    1.442730    1.155090
  C      6.994210    1.952400   -0.097000
  C      5.799270    2.261540   -0.868230
  C      5.730870    2.739540   -2.144320
  C      6.885250    3.026850   -2.901440
  N      7.827720    3.265490   -3.509690
  C      4.491460    2.978120   -2.774560
  N      3.476430    3.171520   -3.271920
  C      8.375300    2.020390   -0.250750
  C      9.048280    1.569310    0.874120
  S      7.940660    1.045750    2.139370
  C     10.455870    1.513090    1.077420
  C     11.018100    1.046500    2.243560
  C     12.383060    0.988240    2.502350
  C     13.362590    1.440410    1.512570
  C     13.037940    1.925640    0.293880
  S     11.427710    2.093420   -0.270240
  C     14.630330    1.243880    2.124980
  C     14.469500    0.704180    3.404800
  C     15.716100    0.505210    4.041110
  C     16.753580    0.885780    3.250280
  S     16.274890    1.499770    1.706590
  C     13.059950    0.531410    3.657030
  C     12.410830    0.004260    4.790310
  C     13.002180   -0.488940    5.914670
  C     12.284920   -1.033780    7.002260
  C     10.909020   -1.164880    7.167860
  C     10.580020   -1.778420    8.367640
  C     11.704460   -2.126930    9.142770
  S     13.168450   -1.684610    8.377190
  C     11.260100   -2.763020   10.321380
  C      9.846970   -2.814820   10.296900
  C      9.377180   -2.202610    9.071560
  C      8.084320   -2.078810    8.650820
  C      7.008630   -2.554950    9.429080
  N      6.143870   -2.939820   10.076410
  C      7.752540   -1.466100    7.425540
  N      7.493740   -0.958710    6.429600
  C      9.310100   -3.467750   11.397490
  C     10.287620   -3.924580   12.270010
  S     11.906950   -3.492050   11.716110
  C     10.145730   -4.613620   13.490710
  C      9.070090   -5.299560   13.972390
  C      7.854240   -5.800830   13.369960
  C      7.683840   -6.208600   12.070800
  C      6.509210   -6.819930   11.585460
  N      5.582510   -7.327780   11.137780
  C      8.693150   -6.166200   11.091010
  N      9.491030   -6.179070   10.264760
  C      6.914520   -6.069760   14.453940
  C      7.605200   -5.975330   15.689720
  C      8.998780   -5.571090   15.435830
  O      9.896710   -5.437730   16.236790
  C      6.992950   -6.221020   16.895030
  C      5.636640   -6.561100   16.881310
  C      4.952550   -6.631690   15.643810
  C      5.572660   -6.392930   14.422540
  S      3.284850   -7.052150   15.870710
  C      3.513310   -7.135240   17.583240
  C      4.776100   -6.859160   17.975410
  H     -1.299200    1.880890   -3.267770
  H     -3.606590    2.718460   -3.274110
  H     -4.841560    3.052710   -1.181500
  H     -3.751630    2.571990    1.006490
  H      1.134870    1.266970    2.509040
  H      2.719360    2.318890   -0.868920
  H      8.879300    2.379320   -1.130020
  H     10.328570    0.708460    3.005930
  H     13.779190    2.246250   -0.420930
  H     15.862940    0.107630    5.028020
  H     17.800260    0.844560    3.480480
  H     11.331360   -0.016320    4.739990
  H     14.076990   -0.492460    6.003210
  H     10.192050   -0.829720    6.442100
  H      8.258090   -3.576010   11.589560
  H     10.981940   -4.543160   14.180230
  H      7.543900   -6.152600   17.820170
  H      5.010900   -6.449120   13.504770
  H      2.673480   -7.389330   18.200320
  H      5.103180   -6.862020   18.999420

 Total Charge           Charge          ....    0
 Multiplicity           Mult            ....    1
 Number of Electrons    NEL             ....  588
 Basis Dimension        Dim             .... 1262

ORBITAL ENERGIES
----------------

  NO   OCC          E(Eh)            E(eV)
   0   2.0000     -88.997483     -2421.7446
   1   2.0000     -88.995778     -2421.6982
   2   2.0000     -88.990689     -2421.5598
   3   2.0000     -88.987776     -2421.4805
   4   2.0000     -88.987620     -2421.4763
   5   2.0000     -88.966273     -2420.8954
   6   2.0000     -88.962280     -2420.7867
   7   2.0000     -19.215803      -522.8886
   8   2.0000     -19.209194      -522.7087
   9   2.0000     -14.434643      -392.7866
  10   2.0000     -14.434583      -392.7850
  11   2.0000     -14.433448      -392.7541
  12   2.0000     -14.430624      -392.6773
  13   2.0000     -14.417613      -392.3232
  14   2.0000     -14.412509      -392.1843
  15   2.0000     -14.412111      -392.1735
  16   2.0000     -14.408033      -392.0625
  17   2.0000     -10.369655      -282.1726
  18   2.0000     -10.366427      -282.0848
  19   2.0000     -10.364672      -282.0371
  20   2.0000     -10.360417      -281.9213
  21   2.0000     -10.356726      -281.8208
  22   2.0000     -10.352683      -281.7108
  23   2.0000     -10.344217      -281.4805
  24   2.0000     -10.343934      -281.4728
  25   2.0000     -10.342437      -281.4320
  26   2.0000     -10.341030      -281.3937
  27   2.0000     -10.340846      -281.3887
  28   2.0000     -10.338958      -281.3374
  29   2.0000     -10.338495      -281.3248
  30   2.0000     -10.338096      -281.3139
  31   2.0000     -10.337719      -281.3036
  32   2.0000     -10.336915      -281.2818
  33   2.0000     -10.334768      -281.2233
  34   2.0000     -10.334708      -281.2217
  35   2.0000     -10.334651      -281.2201
  36   2.0000     -10.330987      -281.1204
  37   2.0000     -10.327333      -281.0210
  38   2.0000     -10.326822      -281.0071
  39   2.0000     -10.326427      -280.9964
  40   2.0000     -10.324117      -280.9335
  41   2.0000     -10.321018      -280.8492
  42   2.0000     -10.319174      -280.7990
  43   2.0000     -10.318665      -280.7851
  44   2.0000     -10.316157      -280.7169
  45   2.0000     -10.314848      -280.6813
  46   2.0000     -10.313743      -280.6512
  47   2.0000     -10.312957      -280.6298
  48   2.0000     -10.312767      -280.6247
  49   2.0000     -10.310819      -280.5717
  50   2.0000     -10.310740      -280.5695
  51   2.0000     -10.309709      -280.5415
  52   2.0000     -10.309272      -280.5295
  53   2.0000     -10.308745      -280.5152
  54   2.0000     -10.308724      -280.5146
  55   2.0000     -10.308072      -280.4969
  56   2.0000     -10.307347      -280.4772
  57   2.0000     -10.305683      -280.4319
  58   2.0000     -10.305325      -280.4221
  59   2.0000     -10.301855      -280.3277
  60   2.0000     -10.301513      -280.3184
  61   2.0000     -10.299365      -280.2600
  62   2.0000     -10.299246      -280.2567
  63   2.0000     -10.298193      -280.2281
  64   2.0000     -10.297786      -280.2170
  65   2.0000     -10.297732      -280.2155
  66   2.0000     -10.296968      -280.1947
  67   2.0000     -10.294718      -280.1335
  68   2.0000     -10.294342      -280.1233
  69   2.0000     -10.294103      -280.1168
  70   2.0000     -10.293845      -280.1098
  71   2.0000     -10.293451      -280.0991
  72   2.0000     -10.293038      -280.0878
  73   2.0000     -10.292966      -280.0858
  74   2.0000     -10.291437      -280.0442
  75   2.0000     -10.290805      -280.0270
  76   2.0000     -10.288011      -279.9510
  77   2.0000     -10.286073      -279.8983
  78   2.0000     -10.285653      -279.8869
  79   2.0000     -10.284956      -279.8679
  80   2.0000     -10.284745      -279.8621
  81   2.0000      -8.091751      -220.1877
  82   2.0000      -8.090526      -220.1544
  83   2.0000      -8.085394      -220.0148
  84   2.0000      -8.082857      -219.9457
  85   2.0000      -8.082451      -219.9347
  86   2.0000      -8.061686      -219.3696
  87   2.0000      -8.058538      -219.2840
  88   2.0000      -6.061062      -164.9299
  89   2.0000      -6.059684      -164.8924
  90   2.0000      -6.056906      -164.8168
  91   2.0000      -6.055498      -164.7785
  92   2.0000      -6.054593      -164.7539
  93   2.0000      -6.053961      -164.7366
  94   2.0000      -6.053003      -164.7106
  95   2.0000      -6.052487      -164.6965
  96   2.0000      -6.051652      -164.6738
  97   2.0000      -6.050422      -164.6404
  98   2.0000      -6.047873      -164.5710
  99   2.0000      -6.047837      -164.5700
 100   2.0000      -6.047583      -164.5631
 101   2.0000      -6.044828      -164.4881
 102   2.0000      -6.044647      -164.4832
 103   2.0000      -6.031091      -164.1143
 104   2.0000      -6.028072      -164.0322
 105   2.0000      -6.026842      -163.9987
 106   2.0000      -6.023799      -163.9159
 107   2.0000      -6.023726      -163.9139
 108   2.0000      -6.020210      -163.8183
 109   2.0000      -1.130999       -30.7760
 110   2.0000      -1.124316       -30.5942
 111   2.0000      -1.051986       -28.6260
 112   2.0000      -1.045343       -28.4452
 113   2.0000      -1.026703       -27.9380
 114   2.0000      -1.023352       -27.8468
 115   2.0000      -1.020132       -27.7592
 116   2.0000      -1.017516       -27.6880
 117   2.0000      -1.015647       -27.6372
 118   2.0000      -1.012099       -27.5406
 119   2.0000      -1.009638       -27.4737
 120   2.0000      -1.006402       -27.3856
 121   2.0000      -1.003851       -27.3162
 122   2.0000      -0.997392       -27.1404
 123   2.0000      -0.996803       -27.1244
 124   2.0000      -0.992091       -26.9962
 125   2.0000      -0.988061       -26.8865
 126   2.0000      -0.982426       -26.7332
 127   2.0000      -0.979998       -26.6671
 128   2.0000      -0.963745       -26.2248
 129   2.0000      -0.960864       -26.1464
 130   2.0000      -0.948199       -25.8018
 131   2.0000      -0.939916       -25.5764
 132   2.0000      -0.928621       -25.2691
 133   2.0000      -0.924563       -25.1586
 134   2.0000      -0.918188       -24.9852
 135   2.0000      -0.906000       -24.6535
 136   2.0000      -0.899612       -24.4797
 137   2.0000      -0.895717       -24.3737
 138   2.0000      -0.887303       -24.1447
 139   2.0000      -0.882559       -24.0156
 140   2.0000      -0.876757       -23.8578
 141   2.0000      -0.872676       -23.7467
 142   2.0000      -0.869778       -23.6679
 143   2.0000      -0.863559       -23.4986
 144   2.0000      -0.858813       -23.3695
 145   2.0000      -0.858529       -23.3617
 146   2.0000      -0.855032       -23.2666
 147   2.0000      -0.845181       -22.9985
 148   2.0000      -0.830112       -22.5885
 149   2.0000      -0.818614       -22.2756
 150   2.0000      -0.813759       -22.1435
 151   2.0000      -0.807594       -21.9758
 152   2.0000      -0.796658       -21.6782
 153   2.0000      -0.786151       -21.3922
 154   2.0000      -0.778869       -21.1941
 155   2.0000      -0.774839       -21.0845
 156   2.0000      -0.766882       -20.8679
 157   2.0000      -0.761599       -20.7242
 158   2.0000      -0.752306       -20.4713
 159   2.0000      -0.738871       -20.1057
 160   2.0000      -0.735397       -20.0112
 161   2.0000      -0.717043       -19.5117
 162   2.0000      -0.714739       -19.4490
 163   2.0000      -0.707474       -19.2513
 164   2.0000      -0.703363       -19.1395
 165   2.0000      -0.697082       -18.9686
 166   2.0000      -0.690471       -18.7887
 167   2.0000      -0.687881       -18.7182
 168   2.0000      -0.685842       -18.6627
 169   2.0000      -0.679751       -18.4970
 170   2.0000      -0.679140       -18.4803
 171   2.0000      -0.676750       -18.4153
 172   2.0000      -0.664129       -18.0719
 173   2.0000      -0.662491       -18.0273
 174   2.0000      -0.657136       -17.8816
 175   2.0000      -0.650254       -17.6943
 176   2.0000      -0.645898       -17.5758
 177   2.0000      -0.639500       -17.4017
 178   2.0000      -0.636578       -17.3222
 179   2.0000      -0.634872       -17.2758
 180   2.0000      -0.625258       -17.0141
 181   2.0000      -0.622985       -16.9523
 182   2.0000      -0.618352       -16.8262
 183   2.0000      -0.617590       -16.8055
 184   2.0000      -0.614893       -16.7321
 185   2.0000      -0.611346       -16.6356
 186   2.0000      -0.600774       -16.3479
 187   2.0000      -0.598419       -16.2838
 188   2.0000      -0.593485       -16.1496
 189   2.0000      -0.586509       -15.9597
 190   2.0000      -0.581615       -15.8266
 191   2.0000      -0.578801       -15.7500
 192   2.0000      -0.573614       -15.6088
 193   2.0000      -0.568334       -15.4651
 194   2.0000      -0.560055       -15.2399
 195   2.0000      -0.557926       -15.1819
 196   2.0000      -0.554054       -15.0766
 197   2.0000      -0.548006       -14.9120
 198   2.0000      -0.547262       -14.8918
 199   2.0000      -0.544805       -14.8249
 200   2.0000      -0.541663       -14.7394
 201   2.0000      -0.537808       -14.6345
 202   2.0000      -0.535114       -14.5612
 203   2.0000      -0.533635       -14.5209
 204   2.0000      -0.529789       -14.4163
 205   2.0000      -0.527394       -14.3511
 206   2.0000      -0.526237       -14.3196
 207   2.0000      -0.526081       -14.3154
 208   2.0000      -0.524620       -14.2756
 209   2.0000      -0.521638       -14.1945
 210   2.0000      -0.520256       -14.1569
 211   2.0000      -0.514590       -14.0027
 212   2.0000      -0.511436       -13.9169
 213   2.0000      -0.509784       -13.8719
 214   2.0000      -0.507827       -13.8187
 215   2.0000      -0.505730       -13.7616
 216   2.0000      -0.505270       -13.7491
 217   2.0000      -0.504228       -13.7207
 218   2.0000      -0.503011       -13.6876
 219   2.0000      -0.499632       -13.5957
 220   2.0000      -0.496543       -13.5116
 221   2.0000      -0.493867       -13.4388
 222   2.0000      -0.492744       -13.4082
 223   2.0000      -0.490858       -13.3569
 224   2.0000      -0.487149       -13.2560
 225   2.0000      -0.483539       -13.1578
 226   2.0000      -0.482305       -13.1242
 227   2.0000      -0.480391       -13.0721
 228   2.0000      -0.478012       -13.0074
 229   2.0000      -0.474185       -12.9032
 230   2.0000      -0.470631       -12.8065
 231   2.0000      -0.465351       -12.6629
 232   2.0000      -0.465248       -12.6600
 233   2.0000      -0.464132       -12.6297
 234   2.0000      -0.462719       -12.5912
 235   2.0000      -0.461322       -12.5532
 236   2.0000      -0.460487       -12.5305
 237   2.0000      -0.460131       -12.5208
 238   2.0000      -0.459082       -12.4922
 239   2.0000      -0.454645       -12.3715
 240   2.0000      -0.452479       -12.3126
 241   2.0000      -0.451441       -12.2843
 242   2.0000      -0.449682       -12.2365
 243   2.0000      -0.448816       -12.2129
 244   2.0000      -0.447794       -12.1851
 245   2.0000      -0.446476       -12.1492
 246   2.0000      -0.444989       -12.1088
 247   2.0000      -0.444775       -12.1029
 248   2.0000      -0.444318       -12.0905
 249   2.0000      -0.442431       -12.0391
 250   2.0000      -0.442023       -12.0280
 251   2.0000      -0.441434       -12.0120
 252   2.0000      -0.440727       -11.9928
 253   2.0000      -0.440243       -11.9796
 254   2.0000      -0.438142       -11.9225
 255   2.0000      -0.436285       -11.8719
 256   2.0000      -0.435055       -11.8385
 257   2.0000      -0.432422       -11.7668
 258   2.0000      -0.429098       -11.6764
 259   2.0000      -0.428318       -11.6551
 260   2.0000      -0.427816       -11.6415
 261   2.0000      -0.427400       -11.6301
 262   2.0000      -0.426525       -11.6063
 263   2.0000      -0.422617       -11.5000
 264   2.0000      -0.422156       -11.4875
 265   2.0000      -0.421815       -11.4782
 266   2.0000      -0.421305       -11.4643
 267   2.0000      -0.415928       -11.3180
 268   2.0000      -0.411183       -11.1889
 269   2.0000      -0.408018       -11.1027
 270   2.0000      -0.405713       -11.0400
 271   2.0000      -0.402194       -10.9442
 272   2.0000      -0.398943       -10.8558
 273   2.0000      -0.388080       -10.5602
 274   2.0000      -0.378958       -10.3120
 275   2.0000      -0.374198       -10.1824
 276   2.0000      -0.362174        -9.8553
 277   2.0000      -0.354232        -9.6391
 278   2.0000      -0.347594        -9.4585
 279   2.0000      -0.346776        -9.4362
 280   2.0000      -0.342703        -9.3254
 281   2.0000      -0.340982        -9.2786
 282   2.0000      -0.337313        -9.1788
 283   2.0000      -0.332363        -9.0441
 284   2.0000      -0.326601        -8.8873
 285   2.0000      -0.324407        -8.8276
 286   2.0000      -0.318506        -8.6670
 287   2.0000      -0.315210        -8.5773
 288   2.0000      -0.308908        -8.4058
 289   2.0000      -0.294639        -8.0175
 290   2.0000      -0.291197        -7.9239
 291   2.0000      -0.280992        -7.6462
 292   2.0000      -0.263202        -7.1621
 293   2.0000      -0.227669        -6.1952
 294   0.0000      -0.115878        -3.1532
 295   0.0000      -0.108023        -2.9395
 296   0.0000      -0.087380        -2.3777
 297   0.0000      -0.084322        -2.2945
 298   0.0000      -0.070114        -1.9079

MULLIKEN ATOMIC CHARGES
-----------------------
   0 C :   -0.024148
   1 C :    0.041816
   2 C :    0.045030
   3 C :   -0.029896
   4 C :    0.006220
   5 C :    0.004633
   6 C :    0.264820
   7 C :   -0.325191
   8 C :   -0.174539
   9 N :    0.164189
  10 C :   -0.200406
  11 N :    0.167273
  12 C :   -0.136674
  13 C :    0.132579
  14 O :   -0.142993
  15 C :    0.080215
  16 C :   -0.113997
  17 C :   -0.000571
  18 C :   -0.010448
  19 C :   -0.068616
  20 S :    0.226672
  21 C :   -0.097879
  22 C :    0.024621
  23 C :    0.308850
  24 C :   -0.286004
  25 C :   -0.187270
  26 N :    0.173593
  27 C :   -0.183329
  28 N :    0.171753
  29 C :   -0.057613
  30 C :   -0.061484
  31 S :    0.190908
  32 C :   -0.018620
  33 C :   -0.091568
  34 C :    0.058507
  35 C :    0.062974
  36 C :   -0.116427
  37 S :    0.140597
  38 C :   -0.114570
  39 C :    0.053850
  40 C :   -0.004523
  41 C :   -0.067204
  42 S :    0.136822
  43 C :    0.100605
  44 C :   -0.015944
  45 C :    0.036072
  46 C :   -0.063103
  47 C :   -0.048398
  48 C :    0.021191
  49 C :   -0.115170
  50 S :    0.188004
  51 C :   -0.066278
  52 C :   -0.013290
  53 C :    0.310341
  54 C :   -0.291200
  55 C :   -0.187697
  56 N :    0.170327
  57 C :   -0.173961
  58 N :    0.151810
  59 C :    0.002784
  60 C :   -0.113635
  61 S :    0.205141
  62 C :    0.079443
  63 C :   -0.135983
  64 C :    0.267940
  65 C :   -0.339640
  66 C :   -0.174943
  67 N :    0.158459
  68 C :   -0.204369
  69 N :    0.166870
  70 C :   -0.000903
  71 C :    0.004093
  72 C :    0.130858
  73 O :   -0.149689
  74 C :   -0.070068
  75 C :    0.112282
  76 C :   -0.093172
  77 C :   -0.022065
  78 S :    0.141215
  79 C :   -0.050325
  80 C :    0.022084
  81 H :    0.009971
  82 H :    0.002884
  83 H :    0.001558
  84 H :   -0.002439
  85 H :    0.023494
  86 H :    0.024264
  87 H :    0.022169
  88 H :   -0.001723
  89 H :    0.041385
  90 H :   -0.012888
  91 H :    0.028731
  92 H :   -0.034296
  93 H :   -0.047484
  94 H :    0.002366
  95 H :    0.023437
  96 H :    0.018964
  97 H :   -0.012785
  98 H :    0.000409
  99 H :    0.037944
 100 H :   -0.007598
Sum of atomic charges:   -0.0000000

LOEWDIN ATOMIC CHARGES
----------------------
   0 C :    0.001558
   1 C :    0.003542
   2 C :   -0.002859
   3 C :    0.014195
   4 C :   -0.046186
   5 C :   -0.010516
   6 C :    0.065330
   7 C :   -0.134293
   8 C :   -0.019604
   9 N :   -0.044105
  10 C :   -0.015694
  11 N :   -0.044735
  12 C :   -0.091884
  13 C :    0.084044
  14 O :   -0.140368
  15 C :    0.041927
  16 C :   -0.181515
  17 C :    0.009297
  18 C :   -0.067486
  19 C :   -0.158278
  20 S :    0.507539
  21 C :   -0.181510
  22 C :   -0.055891
  23 C :    0.082858
  24 C :   -0.096766
  25 C :   -0.016144
  26 N :   -0.030109
  27 C :   -0.013327
  28 N :   -0.030249
  29 C :   -0.039508
  30 C :   -0.173183
  31 S :    0.493175
  32 C :   -0.179219
  33 C :   -0.028079
  34 C :   -0.013039
  35 C :   -0.049675
  36 C :   -0.135791
  37 S :    0.469632
  38 C :   -0.198789
  39 C :   -0.037156
  40 C :   -0.066124
  41 C :   -0.162922
  42 S :    0.431076
  43 C :   -0.049494
  44 C :    0.002192
  45 C :   -0.066814
  46 C :   -0.142313
  47 C :   -0.039326
  48 C :   -0.049182
  49 C :   -0.204176
  50 S :    0.473044
  51 C :   -0.148751
  52 C :   -0.075715
  53 C :    0.086687
  54 C :   -0.103374
  55 C :   -0.014620
  56 N :   -0.032415
  57 C :   -0.010265
  58 N :   -0.045818
  59 C :    0.012790
  60 C :   -0.186222
  61 S :    0.491315
  62 C :    0.041051
  63 C :   -0.097392
  64 C :    0.066932
  65 C :   -0.142635
  66 C :   -0.019538
  67 N :   -0.050479
  68 C :   -0.015674
  69 N :   -0.050721
  70 C :   -0.018686
  71 C :   -0.055737
  72 C :    0.082608
  73 O :   -0.149496
  74 C :    0.022847
  75 C :   -0.036637
  76 C :   -0.144868
  77 C :   -0.009482
  78 S :    0.429823
  79 C :   -0.151207
  80 C :   -0.058225
  81 H :    0.041521
  82 H :    0.036786
  83 H :    0.034908
  84 H :    0.039995
  85 H :    0.046590
  86 H :    0.042491
  87 H :    0.035813
  88 H :    0.027786
  89 H :    0.039362
  90 H :    0.028296
  91 H :    0.025089
  92 H :    0.028421
  93 H :    0.024782
  94 H :    0.035936
  95 H :    0.042708
  96 H :    0.044620
  97 H :    0.040036
  98 H :    0.041916
  99 H :    0.028926
 100 H :    0.034825

  Mayer bond orders larger than 0.100000
B(  0-C ,  1-C ) :   1.3698 B(  0-C ,  5-C ) :   1.3859 B(  0-C , 81-H ) :   0.9867
B(  1-C ,  2-C ) :   1.3827 B(  1-C , 82-H ) :   0.9859 B(  2-C ,  3-C ) :   1.3497
B(  2-C , 83-H ) :   0.9896 B(  3-C ,  4-C ) :   1.3901 B(  3-C , 84-H ) :   1.0069
B(  4-C ,  5-C ) :   1.3326 B(  4-C , 13-C ) :   0.9270 B(  5-C ,  6-C ) :   0.9968
B(  6-C ,  7-C ) :   1.6556 B(  6-C , 12-C ) :   1.0370 B(  7-C ,  8-C ) :   1.1262
B(  7-C , 10-C ) :   1.1663 B(  8-C ,  9-N ) :   3.0001 B( 10-C , 11-N ) :   2.9982
B( 12-C , 13-C ) :   0.9426 B( 12-C , 15-C ) :   1.6716 B( 13-C , 14-O ) :   2.2619
B( 15-C , 16-C ) :   1.1393 B( 15-C , 85-H ) :   0.9289 B( 16-C , 17-C ) :   1.3949
B( 16-C , 20-S ) :   1.0888 B( 17-C , 18-C ) :   1.3604 B( 17-C , 86-H ) :   0.9790
B( 18-C , 19-C ) :   1.4027 B( 18-C , 23-C ) :   1.0021 B( 19-C , 20-S ) :   1.1585
B( 19-C , 21-C ) :   1.1968 B( 21-C , 22-C ) :   1.4363 B( 21-C , 31-S ) :   1.1219
B( 22-C , 23-C ) :   0.9954 B( 22-C , 29-C ) :   1.3141 B( 23-C , 24-C ) :   1.7149
B( 24-C , 25-C ) :   1.1331 B( 24-C , 27-C ) :   1.1343 B( 25-C , 26-N ) :   2.9889
B( 27-C , 28-N ) :   2.9828 B( 29-C , 30-C ) :   1.4449 B( 29-C , 87-H ) :   0.9791
B( 30-C , 31-S ) :   1.1135 B( 30-C , 32-C ) :   1.1710 B( 32-C , 33-C ) :   1.5174
B( 32-C , 37-S ) :   1.0604 B( 33-C , 34-C ) :   1.2644 B( 33-C , 88-H ) :   0.9585
B( 34-C , 35-C ) :   1.0545 B( 34-C , 43-C ) :   1.3541 B( 35-C , 36-C ) :   1.6051
B( 35-C , 38-C ) :   1.1777 B( 36-C , 37-S ) :   1.1416 B( 36-C , 89-H ) :   0.9403
B( 38-C , 39-C ) :   1.4494 B( 38-C , 42-S ) :   1.0829 B( 39-C , 40-C ) :   1.2145
B( 39-C , 43-C ) :   1.0700 B( 40-C , 41-C ) :   1.5879 B( 40-C , 90-H ) :   0.9998
B( 41-C , 42-S ) :   1.1589 B( 41-C , 91-H ) :   0.9648 B( 43-C , 44-C ) :   1.2052
B( 44-C , 45-C ) :   1.6066 B( 44-C , 92-H ) :   0.9571 B( 45-C , 46-C ) :   1.1427
B( 45-C , 93-H ) :   0.9673 B( 46-C , 47-C ) :   1.4165 B( 46-C , 50-S ) :   1.1218
B( 47-C , 48-C ) :   1.3257 B( 47-C , 94-H ) :   0.9864 B( 48-C , 49-C ) :   1.4197
B( 48-C , 53-C ) :   0.9943 B( 49-C , 50-S ) :   1.0953 B( 49-C , 51-C ) :   1.2207
B( 51-C , 52-C ) :   1.3890 B( 51-C , 61-S ) :   1.1595 B( 52-C , 53-C ) :   1.0058
B( 52-C , 59-C ) :   1.3622 B( 53-C , 54-C ) :   1.7086 B( 54-C , 55-C ) :   1.1325
B( 54-C , 57-C ) :   1.1363 B( 55-C , 56-N ) :   2.9852 B( 57-C , 58-N ) :   2.9751
B( 59-C , 60-C ) :   1.3908 B( 59-C , 95-H ) :   0.9801 B( 60-C , 61-S ) :   1.0738
B( 60-C , 62-C ) :   1.1510 B( 62-C , 63-C ) :   1.6540 B( 62-C , 96-H ) :   0.9265
B( 63-C , 64-C ) :   1.0442 B( 63-C , 72-C ) :   0.9466 B( 64-C , 65-C ) :   1.6377
B( 64-C , 70-C ) :   1.0105 B( 65-C , 66-C ) :   1.1290 B( 65-C , 68-C ) :   1.1756
B( 66-C , 67-N ) :   2.9940 B( 68-C , 69-N ) :   2.9972 B( 70-C , 71-C ) :   1.2715
B( 70-C , 77-C ) :   1.4159 B( 71-C , 72-C ) :   0.9236 B( 71-C , 74-C ) :   1.4271
B( 72-C , 73-O ) :   2.2588 B( 74-C , 75-C ) :   1.2478 B( 74-C , 97-H ) :   1.0176
B( 75-C , 76-C ) :   1.3053 B( 75-C , 80-C ) :   1.1703 B( 76-C , 77-C ) :   1.3185
B( 76-C , 78-S ) :   1.0984 B( 77-C , 98-H ) :   0.9874 B( 78-S , 79-C ) :   1.1260
B( 79-C , 80-C ) :   1.6308 B( 79-C , 99-H ) :   0.9679 B( 80-C ,100-H ) :   1.0003

-----------------------------------------------------------------------------
         ABSORPTION SPECTRUM VIA TRANSITION ELECTRIC DIPOLE MOMENTS
-----------------------------------------------------------------------------
State   Energy  Wavelength   fosc         T2         TX        TY        TZ
        (cm-1)    (nm)                  (au**2)     (au)      (au)      (au)
-----------------------------------------------------------------------------
   0    9563.4   1045.7   0.362574414  12.48133   0.71663  -1.57100   3.08216
   1   10835.9    922.9   0.164755376   5.00555  -2.22885  -0.14086  -0.13388
   2   16161.6    618.7   0.593370748  12.08695  -0.29067   1.69635  -3.02074
   3   16777.1    596.0   0.314818013   6.17756   0.79235  -1.14734   2.05751
   4   18829.6    531.1   0.895863064  15.66302   3.72570   1.28342  -0.36749
   5   19217.7    520.4   0.064817711   1.11037   0.76762  -0.28143   0.66478
   6   20437.4    489.3   0.027784042   0.44755   0.23568   0.30968  -0.54416
   7   23196.8    431.1   0.191904299   2.72353  -0.55557  -0.83933   1.30782
   8   23508.2    425.4   0.182583336   2.55692   1.59146   0.15234  -0.03102
   9   24139.9    414.3   0.011922262   0.16259  -0.16750  -0.12218   0.34584
  10   24914.9    401.4   0.155362873   2.05288  -0.35258   0.01611  -1.38864
  11   25552.7    391.3   0.163051670   2.10070  -0.93896  -0.76147   0.79952
  12   25602.6    390.6   0.061686436   0.79320  -0.59413   0.49042  -0.44688
  13   26253.5    380.9   0.057802466   0.72483  -0.43083  -0.04153   0.73313
  14   26635.9    375.4   0.417470987   5.15982   1.71192   0.60781  -1.36371
  15   27023.9    370.0   0.016903239   0.20592  -0.28085   0.18062  -0.30727
  16   27674.5    361.3   0.011838574   0.14083   0.00935  -0.07190  -0.36820
  17   28064.5    356.3   0.256847184   3.01296  -1.33432   0.05425   1.10887
  18   28374.9    352.4   0.010637224   0.12342  -0.17162  -0.29032  -0.09838
  19   28840.3    346.7   0.017088466   0.19506  -0.15664   0.25822  -0.32226
  20   29351.2    340.7   0.124267005   1.39382  -0.47740  -0.32157   1.03078
  21   29550.4    338.4   0.022295638   0.24839   0.10950  -0.37460   0.30995
  22   29974.4    333.6   0.147602176   1.62113   0.67851  -0.44325   0.98198
  23   30089.3    332.3   0.250562765   2.74145  -0.43008   0.58990  -1.48610
  24   30430.0    328.6   0.372822248   4.03343   1.85548   0.07530  -0.76482
  25   30513.9    327.7   0.125756191   1.35677   1.13623   0.15673   0.20293
  26   30952.0    323.1   0.050707350   0.53933  -0.58726   0.06529  -0.43611
  27   31483.0    317.6   0.049849639   0.52127  -0.50498  -0.43744   0.27369
  28   31706.8    315.4   0.223308251   2.31861   0.48413   0.56183  -1.32988
  29   31854.4    313.9   0.083576295   0.86375   0.62487   0.26395   0.63531
  30   31946.2    313.0   0.446567084   4.60196  -1.58980   0.67533  -1.27218
  31   32093.5    311.6   0.021259921   0.21808  -0.43310  -0.03923   0.17021
  32   32264.3    309.9   0.140456229   1.43316  -0.99102  -0.38075   0.55324
  33   32661.0    306.2   0.153489075   1.54712   0.93611  -0.61642   0.53930
  34   32713.4    305.7   0.017563086   0.17675   0.11194  -0.18841   0.35877
  35   32775.5    305.1   0.093396654   0.93812  -0.86170   0.39691  -0.19506
  36   32998.1    303.0   0.259223781   2.58619  -1.36240   0.03739   0.85362
  37   33172.5    301.5   0.029113771   0.28893   0.34963   0.02846   0.40728
  38   33645.7    297.2   0.115007055   1.12531   0.80707  -0.09910  -0.68127
  39   34108.6    293.2   0.204100981   1.96995   0.17524  -0.40270   1.33307
  40   34184.6    292.5   0.004518136   0.04351   0.19783  -0.02740   0.06020
  41   34382.9    290.8   0.414200474   3.96592  -1.15824  -0.07066   1.61846
  42   34520.9    289.7   0.117805770   1.12347   0.88285  -0.12395   0.57330
  43   34852.5    286.9   0.117266777   1.10769  -0.79449   0.45145  -0.52217
  44   34987.5    285.8   0.172807510   1.62602  -0.61458   0.24800  -1.08941
  45   35061.2    285.2   0.086442488   0.81166  -0.52377  -0.08708   0.72783
  46   35423.4    282.3   0.235754789   2.19101  -1.44903  -0.05018   0.29802
  47   35600.2    280.9   0.132694778   1.22709  -1.00762   0.14639  -0.43631
  48   35928.8    278.3   0.008163391   0.07480  -0.15588  -0.03528   0.22194
  49   35986.1    277.9   0.105106246   0.96155  -0.91127   0.03414   0.36051
  50   36212.9    276.1   0.022548046   0.20498   0.29875  -0.00080   0.34020
  51   36252.6    275.8   0.002354882   0.02138   0.06699  -0.07946   0.10288
  52   36792.5    271.8   0.015257440   0.13652   0.26468  -0.24731  -0.07281
  53   37201.3    268.8   0.022979923   0.20336  -0.37504   0.24684  -0.04218
  54   37355.1    267.7   0.374393442   3.29955  -1.54605   0.76552   0.56855
  55   37574.3    266.1   0.027165023   0.23801  -0.34261   0.25783   0.23271
  56   37675.2    265.4   0.006348188   0.05547   0.03320   0.07513   0.22074
  57   37889.7    263.9   0.026656647   0.23161  -0.31183   0.01354   0.36632
  58   38115.0    262.4   0.008199472   0.07082  -0.04671  -0.10979  -0.23788
  59   38416.9    260.3   0.002799281   0.02399   0.15009   0.03259   0.01999
  60   38650.6    258.7   0.034548094   0.29427  -0.51795  -0.04708   0.15419
  61   38824.2    257.6   0.036024979   0.30548  -0.31503   0.03022   0.45312
  62   39102.2    255.7   0.102368778   0.86187   0.01813  -0.18964  -0.90861
  63   39159.9    255.4   0.060073104   0.50503   0.66650  -0.10197   0.22451
  64   39304.8    254.4   0.061306492   0.51350  -0.42996  -0.27042  -0.50548
  65   39467.4    253.4   0.014878189   0.12410  -0.17748  -0.20391  -0.22589
  66   39551.8    252.8   0.101307499   0.84324   0.91450   0.01662  -0.08151
  67   39763.3    251.5   0.095421783   0.79002  -0.83178  -0.26602  -0.16555
  68   40149.9    249.1   0.011795300   0.09672   0.22932  -0.20997   0.00628
  69   40317.1    248.0   0.019574358   0.15984  -0.37625  -0.09214  -0.09891

FINAL SINGLE POINT ENERGY     -5821.697465812604

DIPOLE MOMENT
-------------
                                X             Y             Z
Electronic contribution:     14.14791      -2.42172      -4.26796
Nuclear contribution   :    -12.36316       4.82046       6.36774
                        -----------------------------------------
Total Dipole Moment    :      1.78475       2.39874       2.09978
                        -----------------------------------------
Magnitude (a.u.)       :      3.65354
Magnitude (Debye)      :      9.28656

Rotational constants in cm-1:     0.000620     0.000273     0.000194
Rotational constants in MHz :    18.589718     8.195209     5.807994

                             ****ORCA TERMINATED NORMALLY****
TOTAL RUN TIME: 0 days 0 hours 11 minutes 53 seconds 693 msec
