                         Program Version 4.2.0 -  RELEASE  -
|  1> # ORCA input file
|  2> # SCF done       -206.748648182730          0.000808253351
|  3> ! CAM-B3LYP def2-SVP def2/J RIJCOSX Grid4 TightSCF
|  4> %maxcore 5000
|  5> %tddft
|  6>     Mode sTDDFT
|  7>     Ethresh 5.0
|  8>     maxcore 5000
|  9> end
| 10>
| 11> %pal
| 12>   nprocs 6
| 13>   end
| 14> * xyz 0 1
| 15>    C       -3.00249        -4.28681         3.95966
| 16>    C       -4.23916        -3.70834         4.20492
| 17>    F       -4.63010        -3.52690         5.47074
| 18>    C       -5.08337        -3.31623         3.16501
| 19>    F       -6.26522        -2.75679         3.44897
| 20>    C       -4.71285        -3.50309         1.84274
| 21>    C       -3.48668        -4.08876         1.59682
| 22>    C       -2.62678        -4.47733         2.64000
| 23>    C       -1.39997        -5.02137         2.05718
| 24>    C       -0.18954        -5.11925         2.69139
| 25>    C       -0.00979        -4.90707         4.07361
| 26>    N        0.17452        -4.77237         5.19815
| 27>    C        1.02848        -5.33987         2.01115
| 28>    N        2.05313        -5.43413         1.50330
| 29>    C       -1.63070        -5.17255         0.63889
| 30>    C       -2.86759        -4.42570         0.29258
| 31>    O       -3.29472        -4.18988        -0.81223
| 32>    C       -0.98730        -5.91104        -0.31210
| 33>    C       -0.08635        -6.98454        -0.13768
| 34>    C        0.74872        -7.48422        -1.11768
| 35>    C        1.50189        -8.56714        -0.58032
| 36>    C        1.01876        -8.72557         0.78798
| 37>    C        0.08206        -7.80350         1.06513
| 38>    F        1.44342        -9.69079         1.61307
| 39>    C        2.48048        -9.31575        -1.20016
| 40>    C        3.28426       -10.33994        -0.64553
| 41>    C        4.14049       -10.82430        -1.62122
| 42>    C        3.87196       -10.09280        -2.86626
| 43>    C        2.90559        -9.20378        -2.60533
| 44>    F        2.36375        -8.34078        -3.46779
| 45>    C        5.12660       -11.82222        -1.52297
| 46>    C        5.46535       -12.47686        -0.37083
| 47>    C        6.46652       -13.45806        -0.28605
| 48>    S        7.35387       -13.99213        -1.68437
| 49>    C        8.31713       -15.08595        -0.72659
| 50>    C        7.93123       -15.04286         0.62014
| 51>    C        6.90436       -14.13181         0.86178
| 52>    C        6.30568       -13.91344         2.21534
| 53>    C        7.15697       -14.55208         3.31157
| 54>    C        7.59332       -15.97495         2.92265
| 55>    N        6.51033       -16.90036         2.64659
| 56>    C        8.50839       -15.90692         1.69407
| 57>    C        9.29521       -15.83484        -1.41075
| 58>    C       10.34130       -16.53232        -0.87670
| 59>    C       11.27325       -17.25978        -1.64406
| 60>    C       12.42317       -17.85419        -1.15475
| 61>    C       13.11325       -18.48713        -2.21959
| 62>    C       12.27937       -18.25419        -3.40731
| 63>    C       11.20206       -17.52510        -3.08635
| 64>    F       12.58623       -18.71711        -4.62267
| 65>    C       14.31969       -19.15272        -2.18818
| 66>    C       15.00864       -19.77923        -3.26412
| 67>    C       16.20876       -20.28474        -2.80156
| 68>    C       16.30661       -19.99039        -1.36989
| 69>    C       15.18863       -19.33373        -1.02387
| 70>    F       14.87763       -18.88774         0.19901
| 71>    C       17.17064       -20.93638        -3.60132
| 72>    C       18.37639       -21.40141        -3.16236
| 73>    C       19.32460       -22.08943        -3.94919
| 74>    C       19.48556       -22.16587        -5.30608
| 75>    C       20.27578       -23.30269        -5.85234
| 76>    O       20.97670       -24.06506        -5.22994
| 77>    C       19.97477       -23.32492        -7.30126
| 78>    C       19.17901       -22.21322        -7.62783
| 79>    C       18.73354       -22.03643        -8.92767
| 80>    C       19.10401       -22.97964        -9.87504
| 81>    C       19.90756       -24.07227        -9.54615
| 82>    C       20.35291       -24.25739        -8.24706
| 83>    F       20.24622       -24.95301       -10.49464
| 84>    F       18.67443       -22.83690       -11.13308
| 85>    C       18.98678       -21.39876        -6.42483
| 86>    C       18.63330       -20.07426        -6.43028
| 87>    C       18.68577       -19.24359        -5.29264
| 88>    N       18.73738       -18.52356        -4.40090
| 89>    C       18.24741       -19.36687        -7.58778
| 90>    N       17.90806       -18.75182        -8.49523
| 91>    H       -2.38417        -4.57566         4.79413
| 92>    H       -5.36415        -3.19996         1.03856
| 93>    H       -1.26956        -5.68724        -1.33628
| 94>    H        0.86180        -7.08255        -2.10560
| 95>    H       -0.48529        -7.71629         1.97090
| 96>    H        3.22799       -10.66860         0.37273
| 97>    H        4.38017       -10.25809        -3.79605
| 98>    H        5.66257       -12.07184        -2.43066
| 99>    H        4.95062       -12.22747         0.54566
|100>    H        5.29603       -14.33966         2.22846
|101>    H        6.20098       -12.84390         2.41004
|102>    H        6.58973       -14.57641         4.24412
|103>    H        8.05146       -13.94983         3.47935
|104>    H        8.16361       -16.40567         3.75463
|105>    H        5.96132       -16.58813         1.85363
|106>    H        5.89459       -16.98515         3.44679
|107>    H        8.65055       -16.92104         1.31618
|108>    H        9.48199       -15.51007         1.99494
|109>    H        9.21322       -15.79480        -2.48902
|110>    H       10.52332       -16.51362         0.18644
|111>    H       12.75350       -17.83049        -0.13489
|112>    H       10.42188       -17.20751        -3.74891
|113>    H       14.65545       -19.83132        -4.27546
|114>    H       17.12274       -20.25357        -0.72756
|115>    H       16.88516       -21.09927        -4.63307
|116>    H       18.61016       -21.31799        -2.11069
|117>    H       20.00962       -22.73198        -3.40177
|118>    H       18.10873       -21.21157        -9.22919
|119>    H       20.97165       -25.10225        -7.98999
|120> *
|121>
|122>                          ****END OF INPUT****

CARTESIAN COORDINATES (ANGSTROEM)
---------------------------------
  C     -3.002490   -4.286810    3.959660
  C     -4.239160   -3.708340    4.204920
  F     -4.630100   -3.526900    5.470740
  C     -5.083370   -3.316230    3.165010
  F     -6.265220   -2.756790    3.448970
  C     -4.712850   -3.503090    1.842740
  C     -3.486680   -4.088760    1.596820
  C     -2.626780   -4.477330    2.640000
  C     -1.399970   -5.021370    2.057180
  C     -0.189540   -5.119250    2.691390
  C     -0.009790   -4.907070    4.073610
  N      0.174520   -4.772370    5.198150
  C      1.028480   -5.339870    2.011150
  N      2.053130   -5.434130    1.503300
  C     -1.630700   -5.172550    0.638890
  C     -2.867590   -4.425700    0.292580
  O     -3.294720   -4.189880   -0.812230
  C     -0.987300   -5.911040   -0.312100
  C     -0.086350   -6.984540   -0.137680
  C      0.748720   -7.484220   -1.117680
  C      1.501890   -8.567140   -0.580320
  C      1.018760   -8.725570    0.787980
  C      0.082060   -7.803500    1.065130
  F      1.443420   -9.690790    1.613070
  C      2.480480   -9.315750   -1.200160
  C      3.284260  -10.339940   -0.645530
  C      4.140490  -10.824300   -1.621220
  C      3.871960  -10.092800   -2.866260
  C      2.905590   -9.203780   -2.605330
  F      2.363750   -8.340780   -3.467790
  C      5.126600  -11.822220   -1.522970
  C      5.465350  -12.476860   -0.370830
  C      6.466520  -13.458060   -0.286050
  S      7.353870  -13.992130   -1.684370
  C      8.317130  -15.085950   -0.726590
  C      7.931230  -15.042860    0.620140
  C      6.904360  -14.131810    0.861780
  C      6.305680  -13.913440    2.215340
  C      7.156970  -14.552080    3.311570
  C      7.593320  -15.974950    2.922650
  N      6.510330  -16.900360    2.646590
  C      8.508390  -15.906920    1.694070
  C      9.295210  -15.834840   -1.410750
  C     10.341300  -16.532320   -0.876700
  C     11.273250  -17.259780   -1.644060
  C     12.423170  -17.854190   -1.154750
  C     13.113250  -18.487130   -2.219590
  C     12.279370  -18.254190   -3.407310
  C     11.202060  -17.525100   -3.086350
  F     12.586230  -18.717110   -4.622670
  C     14.319690  -19.152720   -2.188180
  C     15.008640  -19.779230   -3.264120
  C     16.208760  -20.284740   -2.801560
  C     16.306610  -19.990390   -1.369890
  C     15.188630  -19.333730   -1.023870
  F     14.877630  -18.887740    0.199010
  C     17.170640  -20.936380   -3.601320
  C     18.376390  -21.401410   -3.162360
  C     19.324600  -22.089430   -3.949190
  C     19.485560  -22.165870   -5.306080
  C     20.275780  -23.302690   -5.852340
  O     20.976700  -24.065060   -5.229940
  C     19.974770  -23.324920   -7.301260
  C     19.179010  -22.213220   -7.627830
  C     18.733540  -22.036430   -8.927670
  C     19.104010  -22.979640   -9.875040
  C     19.907560  -24.072270   -9.546150
  C     20.352910  -24.257390   -8.247060
  F     20.246220  -24.953010  -10.494640
  F     18.674430  -22.836900  -11.133080
  C     18.986780  -21.398760   -6.424830
  C     18.633300  -20.074260   -6.430280
  C     18.685770  -19.243590   -5.292640
  N     18.737380  -18.523560   -4.400900
  C     18.247410  -19.366870   -7.587780
  N     17.908060  -18.751820   -8.495230
  H     -2.384170   -4.575660    4.794130
  H     -5.364150   -3.199960    1.038560
  H     -1.269560   -5.687240   -1.336280
  H      0.861800   -7.082550   -2.105600
  H     -0.485290   -7.716290    1.970900
  H      3.227990  -10.668600    0.372730
  H      4.380170  -10.258090   -3.796050
  H      5.662570  -12.071840   -2.430660
  H      4.950620  -12.227470    0.545660
  H      5.296030  -14.339660    2.228460
  H      6.200980  -12.843900    2.410040
  H      6.589730  -14.576410    4.244120
  H      8.051460  -13.949830    3.479350
  H      8.163610  -16.405670    3.754630
  H      5.961320  -16.588130    1.853630
  H      5.894590  -16.985150    3.446790
  H      8.650550  -16.921040    1.316180
  H      9.481990  -15.510070    1.994940
  H      9.213220  -15.794800   -2.489020
  H     10.523320  -16.513620    0.186440
  H     12.753500  -17.830490   -0.134890
  H     10.421880  -17.207510   -3.748910
  H     14.655450  -19.831320   -4.275460
  H     17.122740  -20.253570   -0.727560
  H     16.885160  -21.099270   -4.633070
  H     18.610160  -21.317990   -2.110690
  H     20.009620  -22.731980   -3.401770
  H     18.108730  -21.211570   -9.229190
  H     20.971650  -25.102250   -7.989990

 Total Charge           Charge          ....    0
 Multiplicity           Mult            ....    1
 Number of Electrons    NEL             ....  528
 Basis Dimension        Dim             .... 1213

ORBITAL ENERGIES
----------------

  NO   OCC          E(Eh)            E(eV)
   0   2.0000     -88.971389     -2421.0346
   1   2.0000     -24.803562      -674.9392
   2   2.0000     -24.803084      -674.9262
   3   2.0000     -24.802519      -674.9109
   4   2.0000     -24.802180      -674.9016
   5   2.0000     -24.801357      -674.8792
   6   2.0000     -24.801033      -674.8704
   7   2.0000     -24.795395      -674.7170
   8   2.0000     -24.793131      -674.6554
   9   2.0000     -19.221229      -523.0362
  10   2.0000     -19.220275      -523.0103
  11   2.0000     -14.420561      -392.4034
  12   2.0000     -14.419970      -392.3873
  13   2.0000     -14.419746      -392.3812
  14   2.0000     -14.413534      -392.2122
  15   2.0000     -14.393173      -391.6581
  16   2.0000     -10.389347      -282.7085
  17   2.0000     -10.388496      -282.6853
  18   2.0000     -10.388418      -282.6832
  19   2.0000     -10.387504      -282.6584
  20   2.0000     -10.372379      -282.2468
  21   2.0000     -10.371829      -282.2318
  22   2.0000     -10.368743      -282.1478
  23   2.0000     -10.367978      -282.1270
  24   2.0000     -10.361695      -281.9561
  25   2.0000     -10.357430      -281.8400
  26   2.0000     -10.349469      -281.6234
  27   2.0000     -10.348761      -281.6041
  28   2.0000     -10.348722      -281.6030
  29   2.0000     -10.346028      -281.5297
  30   2.0000     -10.323095      -280.9057
  31   2.0000     -10.322968      -280.9022
  32   2.0000     -10.321977      -280.8753
  33   2.0000     -10.320248      -280.8282
  34   2.0000     -10.320110      -280.8245
  35   2.0000     -10.319280      -280.8019
  36   2.0000     -10.319276      -280.8018
  37   2.0000     -10.319138      -280.7980
  38   2.0000     -10.318812      -280.7892
  39   2.0000     -10.318285      -280.7748
  40   2.0000     -10.317769      -280.7608
  41   2.0000     -10.315874      -280.7092
  42   2.0000     -10.312337      -280.6129
  43   2.0000     -10.311721      -280.5962
  44   2.0000     -10.311453      -280.5889
  45   2.0000     -10.310610      -280.5660
  46   2.0000     -10.310454      -280.5617
  47   2.0000     -10.310432      -280.5611
  48   2.0000     -10.309625      -280.5392
  49   2.0000     -10.308902      -280.5195
  50   2.0000     -10.308591      -280.5110
  51   2.0000     -10.305901      -280.4378
  52   2.0000     -10.305352      -280.4229
  53   2.0000     -10.305303      -280.4215
  54   2.0000     -10.304540      -280.4008
  55   2.0000     -10.304538      -280.4007
  56   2.0000     -10.301248      -280.3112
  57   2.0000     -10.301159      -280.3088
  58   2.0000     -10.299554      -280.2651
  59   2.0000     -10.299456      -280.2624
  60   2.0000     -10.298548      -280.2378
  61   2.0000     -10.297662      -280.2136
  62   2.0000     -10.297459      -280.2081
  63   2.0000     -10.296599      -280.1847
  64   2.0000     -10.295062      -280.1429
  65   2.0000     -10.290335      -280.0142
  66   2.0000     -10.287613      -279.9402
  67   2.0000     -10.285791      -279.8906
  68   2.0000     -10.283769      -279.8356
  69   2.0000     -10.283314      -279.8232
  70   2.0000     -10.282821      -279.8098
  71   2.0000     -10.280517      -279.7471
  72   2.0000     -10.278024      -279.6792
  73   2.0000     -10.276332      -279.6332
  74   2.0000     -10.274445      -279.5819
  75   2.0000     -10.269767      -279.4546
  76   2.0000      -8.067044      -219.5154
  77   2.0000      -6.036107      -164.2508
  78   2.0000      -6.032343      -164.1484
  79   2.0000      -6.029204      -164.0630
  80   2.0000      -1.327241       -36.1161
  81   2.0000      -1.326233       -36.0886
  82   2.0000      -1.314505       -35.7695
  83   2.0000      -1.314400       -35.7666
  84   2.0000      -1.312003       -35.7014
  85   2.0000      -1.310986       -35.6737
  86   2.0000      -1.307917       -35.5902
  87   2.0000      -1.305275       -35.5183
  88   2.0000      -1.137025       -30.9400
  89   2.0000      -1.135891       -30.9092
  90   2.0000      -1.025276       -27.8992
  91   2.0000      -1.023847       -27.8603
  92   2.0000      -1.012594       -27.5541
  93   2.0000      -1.006079       -27.3768
  94   2.0000      -1.004211       -27.3260
  95   2.0000      -0.999965       -27.2104
  96   2.0000      -0.999191       -27.1894
  97   2.0000      -0.998348       -27.1664
  98   2.0000      -0.994211       -27.0539
  99   2.0000      -0.985238       -26.8097
 100   2.0000      -0.981178       -26.6992
 101   2.0000      -0.979203       -26.6455
 102   2.0000      -0.961563       -26.1655
 103   2.0000      -0.958455       -26.0809
 104   2.0000      -0.930092       -25.3091
 105   2.0000      -0.923565       -25.1315
 106   2.0000      -0.912306       -24.8251
 107   2.0000      -0.906984       -24.6803
 108   2.0000      -0.905308       -24.6347
 109   2.0000      -0.896319       -24.3901
 110   2.0000      -0.889618       -24.2077
 111   2.0000      -0.877785       -23.8857
 112   2.0000      -0.876579       -23.8529
 113   2.0000      -0.874367       -23.7927
 114   2.0000      -0.865658       -23.5558
 115   2.0000      -0.851529       -23.1713
 116   2.0000      -0.848167       -23.0798
 117   2.0000      -0.835219       -22.7275
 118   2.0000      -0.821969       -22.3669
 119   2.0000      -0.820477       -22.3263
 120   2.0000      -0.818740       -22.2790
 121   2.0000      -0.812525       -22.1099
 122   2.0000      -0.801302       -21.8045
 123   2.0000      -0.795931       -21.6584
 124   2.0000      -0.780617       -21.2417
 125   2.0000      -0.777306       -21.1516
 126   2.0000      -0.772608       -21.0237
 127   2.0000      -0.767693       -20.8900
 128   2.0000      -0.753581       -20.5060
 129   2.0000      -0.738560       -20.0972
 130   2.0000      -0.732794       -19.9403
 131   2.0000      -0.730904       -19.8889
 132   2.0000      -0.726441       -19.7675
 133   2.0000      -0.714587       -19.4449
 134   2.0000      -0.710847       -19.3431
 135   2.0000      -0.705414       -19.1953
 136   2.0000      -0.695785       -18.9333
 137   2.0000      -0.689763       -18.7694
 138   2.0000      -0.684004       -18.6127
 139   2.0000      -0.683296       -18.5934
 140   2.0000      -0.681064       -18.5327
 141   2.0000      -0.673549       -18.3282
 142   2.0000      -0.671306       -18.2672
 143   2.0000      -0.668849       -18.2003
 144   2.0000      -0.666174       -18.1275
 145   2.0000      -0.658796       -17.9267
 146   2.0000      -0.653815       -17.7912
 147   2.0000      -0.646815       -17.6007
 148   2.0000      -0.646242       -17.5852
 149   2.0000      -0.643444       -17.5090
 150   2.0000      -0.642223       -17.4758
 151   2.0000      -0.640202       -17.4208
 152   2.0000      -0.635067       -17.2811
 153   2.0000      -0.632189       -17.2027
 154   2.0000      -0.625009       -17.0074
 155   2.0000      -0.616936       -16.7877
 156   2.0000      -0.611717       -16.6457
 157   2.0000      -0.609014       -16.5721
 158   2.0000      -0.606015       -16.4905
 159   2.0000      -0.605182       -16.4678
 160   2.0000      -0.604422       -16.4472
 161   2.0000      -0.596942       -16.2436
 162   2.0000      -0.591968       -16.1083
 163   2.0000      -0.591048       -16.0832
 164   2.0000      -0.586179       -15.9507
 165   2.0000      -0.584448       -15.9036
 166   2.0000      -0.581633       -15.8270
 167   2.0000      -0.570682       -15.5290
 168   2.0000      -0.569997       -15.5104
 169   2.0000      -0.569823       -15.5057
 170   2.0000      -0.566875       -15.4255
 171   2.0000      -0.561341       -15.2749
 172   2.0000      -0.560949       -15.2642
 173   2.0000      -0.559861       -15.2346
 174   2.0000      -0.559383       -15.2216
 175   2.0000      -0.556641       -15.1470
 176   2.0000      -0.556052       -15.1310
 177   2.0000      -0.555226       -15.1085
 178   2.0000      -0.553533       -15.0624
 179   2.0000      -0.552057       -15.0222
 180   2.0000      -0.551325       -15.0023
 181   2.0000      -0.551048       -14.9948
 182   2.0000      -0.549141       -14.9429
 183   2.0000      -0.544760       -14.8237
 184   2.0000      -0.542241       -14.7551
 185   2.0000      -0.539516       -14.6810
 186   2.0000      -0.538474       -14.6526
 187   2.0000      -0.536035       -14.5862
 188   2.0000      -0.534799       -14.5526
 189   2.0000      -0.532072       -14.4784
 190   2.0000      -0.529390       -14.4054
 191   2.0000      -0.528880       -14.3916
 192   2.0000      -0.526895       -14.3375
 193   2.0000      -0.518143       -14.0994
 194   2.0000      -0.513347       -13.9689
 195   2.0000      -0.507817       -13.8184
 196   2.0000      -0.506819       -13.7912
 197   2.0000      -0.505516       -13.7558
 198   2.0000      -0.503427       -13.6989
 199   2.0000      -0.501752       -13.6534
 200   2.0000      -0.500539       -13.6204
 201   2.0000      -0.498747       -13.5716
 202   2.0000      -0.497134       -13.5277
 203   2.0000      -0.495637       -13.4870
 204   2.0000      -0.493440       -13.4272
 205   2.0000      -0.487998       -13.2791
 206   2.0000      -0.487499       -13.2655
 207   2.0000      -0.485471       -13.2103
 208   2.0000      -0.482785       -13.1372
 209   2.0000      -0.481320       -13.0974
 210   2.0000      -0.480378       -13.0718
 211   2.0000      -0.478661       -13.0250
 212   2.0000      -0.473048       -12.8723
 213   2.0000      -0.470292       -12.7973
 214   2.0000      -0.469919       -12.7871
 215   2.0000      -0.467669       -12.7259
 216   2.0000      -0.465124       -12.6567
 217   2.0000      -0.462390       -12.5823
 218   2.0000      -0.461290       -12.5523
 219   2.0000      -0.457994       -12.4626
 220   2.0000      -0.456751       -12.4288
 221   2.0000      -0.456599       -12.4247
 222   2.0000      -0.455882       -12.4052
 223   2.0000      -0.454367       -12.3639
 224   2.0000      -0.453961       -12.3529
 225   2.0000      -0.452865       -12.3231
 226   2.0000      -0.450134       -12.2488
 227   2.0000      -0.449484       -12.2311
 228   2.0000      -0.447512       -12.1774
 229   2.0000      -0.445844       -12.1320
 230   2.0000      -0.443479       -12.0677
 231   2.0000      -0.438670       -11.9368
 232   2.0000      -0.431317       -11.7367
 233   2.0000      -0.429841       -11.6966
 234   2.0000      -0.427246       -11.6259
 235   2.0000      -0.426757       -11.6127
 236   2.0000      -0.425324       -11.5737
 237   2.0000      -0.424951       -11.5635
 238   2.0000      -0.421500       -11.4696
 239   2.0000      -0.420041       -11.4299
 240   2.0000      -0.413631       -11.2555
 241   2.0000      -0.412803       -11.2329
 242   2.0000      -0.409981       -11.1561
 243   2.0000      -0.406677       -11.0663
 244   2.0000      -0.405381       -11.0310
 245   2.0000      -0.388838       -10.5808
 246   2.0000      -0.378280       -10.2935
 247   2.0000      -0.363465        -9.8904
 248   2.0000      -0.353466        -9.6183
 249   2.0000      -0.351347        -9.5606
 250   2.0000      -0.347512        -9.4563
 251   2.0000      -0.342104        -9.3091
 252   2.0000      -0.339421        -9.2361
 253   2.0000      -0.331914        -9.0318
 254   2.0000      -0.325144        -8.8476
 255   2.0000      -0.319192        -8.6857
 256   2.0000      -0.316176        -8.6036
 257   2.0000      -0.315233        -8.5779
 258   2.0000      -0.313699        -8.5362
 259   2.0000      -0.311905        -8.4874
 260   2.0000      -0.290923        -7.9164
 261   2.0000      -0.283744        -7.7211
 262   2.0000      -0.270886        -7.3712
 263   2.0000      -0.241976        -6.5845
 264   0.0000      -0.132544        -3.6067
 265   0.0000      -0.115082        -3.1316
 266   0.0000      -0.083161        -2.2629
 267   0.0000      -0.077883        -2.1193
 268   0.0000      -0.061196        -1.6652

MULLIKEN ATOMIC CHARGES
-----------------------
   0 C :   -0.092190
   1 C :    0.237124
   2 F :   -0.165745
   3 C :    0.233721
   4 F :   -0.168333
   5 C :   -0.101634
   6 C :    0.009327
   7 C :    0.029297
   8 C :    0.253541
   9 C :   -0.334028
  10 C :   -0.181930
  11 N :    0.160714
  12 C :   -0.200190
  13 N :    0.176826
  14 C :   -0.123251
  15 C :    0.138457
  16 O :   -0.134935
  17 C :    0.039616
  18 C :    0.055951
  19 C :   -0.031226
  20 C :    0.003942
  21 C :    0.255471
  22 C :   -0.069847
  23 F :   -0.177890
  24 C :    0.022048
  25 C :   -0.097859
  26 C :    0.119767
  27 C :   -0.077787
  28 C :    0.267153
  29 F :   -0.170073
  30 C :   -0.017667
  31 C :    0.016474
  32 C :   -0.081660
  33 S :    0.124620
  34 C :   -0.104568
  35 C :   -0.090965
  36 C :   -0.081767
  37 C :    0.092369
  38 C :    0.070363
  39 C :   -0.021892
  40 N :   -0.184719
  41 C :    0.140392
  42 C :    0.044639
  43 C :   -0.014173
  44 C :    0.114911
  45 C :   -0.091040
  46 C :    0.022274
  47 C :    0.259252
  48 C :   -0.077598
  49 F :   -0.170133
  50 C :    0.003458
  51 C :   -0.064372
  52 C :    0.088314
  53 C :   -0.062754
  54 C :    0.252883
  55 F :   -0.175942
  56 C :    0.041883
  57 C :    0.008360
  58 C :    0.051600
  59 C :   -0.127418
  60 C :    0.131757
  61 O :   -0.137273
  62 C :    0.014265
  63 C :    0.022275
  64 C :   -0.092418
  65 C :    0.237279
  66 C :    0.234528
  67 C :   -0.102671
  68 F :   -0.168363
  69 F :   -0.164700
  70 C :    0.260662
  71 C :   -0.334697
  72 C :   -0.205769
  73 N :    0.180439
  74 C :   -0.178528
  75 N :    0.160289
  76 H :    0.017310
  77 H :    0.013648
  78 H :    0.022360
  79 H :   -0.001260
  80 H :   -0.004041
  81 H :   -0.016848
  82 H :   -0.012372
  83 H :   -0.010609
  84 H :    0.001563
  85 H :    0.013659
  86 H :    0.029238
  87 H :   -0.001614
  88 H :    0.004478
  89 H :   -0.003645
  90 H :    0.093714
  91 H :    0.093762
  92 H :    0.031043
  93 H :    0.031059
  94 H :   -0.009385
  95 H :   -0.013439
  96 H :   -0.011338
  97 H :   -0.011213
  98 H :   -0.006229
  99 H :   -0.013807
 100 H :    0.004274
 101 H :    0.001596
 102 H :    0.029425
 103 H :    0.017842
 104 H :    0.012592
Sum of atomic charges:   -0.0000000

LOEWDIN ATOMIC CHARGES
----------------------
   0 C :   -0.021393
   1 C :    0.074617
   2 F :   -0.043211
   3 C :    0.069173
   4 F :   -0.045404
   5 C :   -0.004588
   6 C :   -0.046834
   7 C :   -0.012262
   8 C :    0.064227
   9 C :   -0.130959
  10 C :   -0.021296
  11 N :   -0.046114
  12 C :   -0.020605
  13 N :   -0.039708
  14 C :   -0.093938
  15 C :    0.083037
  16 O :   -0.135712
  17 C :    0.077391
  18 C :   -0.031692
  19 C :    0.008437
  20 C :   -0.017260
  21 C :    0.080978
  22 C :   -0.056389
  23 F :   -0.054049
  24 C :    0.026037
  25 C :   -0.073751
  26 C :    0.018810
  27 C :   -0.054115
  28 C :    0.086108
  29 F :   -0.045185
  30 C :   -0.035198
  31 C :    0.006536
  32 C :   -0.173371
  33 S :    0.443897
  34 C :   -0.157599
  35 C :   -0.046879
  36 C :   -0.042189
  37 C :   -0.031989
  38 C :   -0.038549
  39 C :    0.014733
  40 N :   -0.100370
  41 C :   -0.029109
  42 C :   -0.024395
  43 C :   -0.015140
  44 C :    0.011607
  45 C :   -0.059553
  46 C :    0.014921
  47 C :    0.086489
  48 C :   -0.057215
  49 F :   -0.046578
  50 C :   -0.010722
  51 C :   -0.018627
  52 C :   -0.012318
  53 C :   -0.051786
  54 C :    0.080300
  55 F :   -0.052085
  56 C :    0.047534
  57 C :   -0.040242
  58 C :    0.067781
  59 C :   -0.095979
  60 C :    0.083121
  61 O :   -0.137255
  62 C :   -0.047077
  63 C :   -0.012380
  64 C :   -0.021327
  65 C :    0.074515
  66 C :    0.069328
  67 C :   -0.004325
  68 F :   -0.045260
  69 F :   -0.042834
  70 C :    0.063039
  71 C :   -0.138378
  72 C :   -0.018742
  73 N :   -0.034254
  74 C :   -0.022579
  75 N :   -0.047284
  76 H :    0.051251
  77 H :    0.052718
  78 H :    0.050626
  79 H :    0.029691
  80 H :    0.030075
  81 H :    0.020534
  82 H :    0.032503
  83 H :    0.024248
  84 H :    0.038358
  85 H :    0.029554
  86 H :    0.037569
  87 H :    0.023056
  88 H :    0.025451
  89 H :    0.023589
  90 H :    0.050240
  91 H :    0.055380
  92 H :    0.038978
  93 H :    0.035688
  94 H :    0.030249
  95 H :    0.035218
  96 H :    0.025145
  97 H :    0.030689
  98 H :    0.026860
  99 H :    0.031351
 100 H :    0.036845
 101 H :    0.035118
 102 H :    0.048673
 103 H :    0.051222
 104 H :    0.052557

  Mayer bond orders larger than 0.100000
B(  0-C ,  1-C ) :   1.3333 B(  0-C ,  5-C ) :   0.1052 B(  0-C ,  7-C ) :   1.3186
B(  0-C , 76-H ) :   0.9958 B(  1-C ,  2-F ) :   1.1404 B(  1-C ,  3-C ) :   1.2923
B(  3-C ,  4-F ) :   1.1315 B(  3-C ,  5-C ) :   1.3198 B(  5-C ,  6-C ) :   1.3225
B(  5-C , 77-H ) :   1.0195 B(  6-C ,  7-C ) :   1.3445 B(  6-C , 15-C ) :   0.9265
B(  7-C ,  8-C ) :   1.0158 B(  8-C ,  9-C ) :   1.6565 B(  8-C , 14-C ) :   1.0488
B(  9-C , 10-C ) :   1.1299 B(  9-C , 12-C ) :   1.1555 B( 10-C , 11-N ) :   2.9948
B( 12-C , 13-N ) :   3.0133 B( 14-C , 15-C ) :   0.9441 B( 14-C , 17-C ) :   1.6044
B( 15-C , 16-O ) :   2.2775 B( 17-C , 18-C ) :   1.1202 B( 17-C , 78-H ) :   0.9569
B( 18-C , 19-C ) :   1.4886 B( 18-C , 22-C ) :   1.0282 B( 19-C , 20-C ) :   1.1246
B( 19-C , 79-H ) :   1.0191 B( 20-C , 21-C ) :   1.0476 B( 20-C , 24-C ) :   1.4195
B( 21-C , 22-C ) :   1.6536 B( 21-C , 23-F ) :   1.1243 B( 22-C , 80-H ) :   1.0058
B( 24-C , 25-C ) :   1.1838 B( 24-C , 28-C ) :   0.9959 B( 25-C , 26-C ) :   1.4867
B( 25-C , 81-H ) :   1.0085 B( 26-C , 27-C ) :   0.9970 B( 26-C , 30-C ) :   1.1696
B( 27-C , 28-C ) :   1.6745 B( 27-C , 82-H ) :   1.0221 B( 28-C , 29-F ) :   1.1285
B( 30-C , 31-C ) :   1.5597 B( 30-C , 83-H ) :   0.9750 B( 31-C , 32-C ) :   1.2131
B( 31-C , 84-H ) :   0.9717 B( 32-C , 33-S ) :   1.1054 B( 32-C , 36-C ) :   1.4038
B( 33-S , 34-C ) :   1.1257 B( 34-C , 35-C ) :   1.4259 B( 34-C , 42-C ) :   1.1654
B( 35-C , 36-C ) :   1.3696 B( 35-C , 41-C ) :   1.0518 B( 36-C , 37-C ) :   1.0486
B( 37-C , 38-C ) :   1.0734 B( 37-C , 85-H ) :   0.9103 B( 37-C , 86-H ) :   0.9121
B( 38-C , 39-C ) :   1.0249 B( 38-C , 87-H ) :   0.9288 B( 38-C , 88-H ) :   0.9357
B( 39-C , 40-N ) :   1.1061 B( 39-C , 41-C ) :   1.0455 B( 39-C , 89-H ) :   0.9185
B( 40-N , 90-H ) :   0.9733 B( 40-N , 91-H ) :   0.9729 B( 41-C , 92-H ) :   0.9063
B( 41-C , 93-H ) :   0.9021 B( 42-C , 43-C ) :   1.5841 B( 42-C , 94-H ) :   0.9480
B( 43-C , 44-C ) :   1.1685 B( 43-C , 95-H ) :   0.9762 B( 44-C , 45-C ) :   1.4811
B( 44-C , 48-C ) :   1.0058 B( 45-C , 46-C ) :   1.1419 B( 45-C , 96-H ) :   1.0232
B( 46-C , 47-C ) :   1.0102 B( 46-C , 50-C ) :   1.4446 B( 47-C , 48-C ) :   1.6818
B( 47-C , 49-F ) :   1.1306 B( 48-C , 97-H ) :   1.0108 B( 50-C , 51-C ) :   1.1211
B( 50-C , 54-C ) :   1.0341 B( 51-C , 52-C ) :   1.4876 B( 51-C , 98-H ) :   1.0207
B( 52-C , 53-C ) :   1.0284 B( 52-C , 56-C ) :   1.1896 B( 53-C , 54-C ) :   1.6614
B( 53-C , 99-H ) :   1.0122 B( 54-C , 55-F ) :   1.1260 B( 56-C , 57-C ) :   1.5655
B( 56-C ,100-H ) :   0.9635 B( 57-C , 58-C ) :   1.1884 B( 57-C ,101-H ) :   0.9621
B( 58-C , 59-C ) :   1.6239 B( 58-C ,102-H ) :   0.9287 B( 59-C , 60-C ) :   0.9536
B( 59-C , 70-C ) :   1.0522 B( 60-C , 61-O ) :   2.2655 B( 60-C , 62-C ) :   0.9272
B( 62-C , 63-C ) :   1.3465 B( 62-C , 67-C ) :   1.3225 B( 63-C , 64-C ) :   1.3178
B( 63-C , 70-C ) :   1.0115 B( 64-C , 65-C ) :   1.3364 B( 64-C , 67-C ) :   0.1051
B( 64-C ,103-H ) :   0.9945 B( 65-C , 66-C ) :   1.2915 B( 65-C , 69-F ) :   1.1427
B( 66-C , 67-C ) :   1.3185 B( 66-C , 68-F ) :   1.1322 B( 67-C ,104-H ) :   1.0202
B( 70-C , 71-C ) :   1.6431 B( 71-C , 72-C ) :   1.1717 B( 71-C , 74-C ) :   1.1245
B( 72-C , 73-N ) :   2.9972 B( 74-C , 75-N ) :   2.9940

-----------------------------------------------------------------------------
         ABSORPTION SPECTRUM VIA TRANSITION ELECTRIC DIPOLE MOMENTS
-----------------------------------------------------------------------------
State   Energy  Wavelength   fosc         T2         TX        TY        TZ
        (cm-1)    (nm)                  (au**2)     (au)      (au)      (au)
-----------------------------------------------------------------------------
   0   10249.8    975.6   1.976936830  63.49726   6.07531  -4.90023  -1.60486
   1   13875.6    720.7   0.098119239   2.32797   1.37091  -0.15432  -0.65173
   2   16481.7    606.7   0.006433413   0.12850   0.34226   0.10245   0.02948
   3   16662.1    600.2   0.056255979   1.11151   0.57970  -0.36145  -0.80300
   4   18859.3    530.2   0.057272735   0.99977  -0.56316   0.77139  -0.29594
   5   20468.9    488.5   0.716150919  11.51822   2.53768  -2.14197  -0.70026
   6   21469.5    465.8   0.143273291   2.19694  -0.10314  -0.58437   1.35824
   7   22702.7    440.5   0.065787078   0.95398   0.30412   0.45061   0.81145
   8   24120.4    414.6   0.030683427   0.41879   0.49415   0.25093  -0.33412
   9   24890.5    401.8   0.244558911   3.23464  -1.34896   0.86129   0.82044
  10   25604.1    390.6   0.061689453   0.79319  -0.70927   0.51938  -0.14276
  11   26329.0    379.8   0.047899074   0.59892  -0.44093   0.56859   0.28497
  12   26406.6    378.7   0.029795219   0.37146   0.07646   0.16883   0.58061
  13   26593.9    376.0   0.024224280   0.29988   0.47044   0.17816   0.21638
  14   26938.3    371.2   0.020766925   0.25379  -0.20698   0.45926   0.00552
  15   27271.1    366.7   0.062102442   0.74969   0.59728  -0.58204  -0.23275
  16   27909.7    358.3   0.137246084   1.61890  -0.85376   0.85791   0.39241
  17   28100.7    355.9   0.275021624   3.22200  -1.17373   0.91555   1.00306
  18   28782.1    347.4   0.063283049   0.72384  -0.65225   0.51095   0.19321
  19   29103.2    343.6   0.116060130   1.31286   0.57890  -0.60163  -0.78471
  20   29365.1    340.5   0.034627303   0.38821  -0.05458   0.00225   0.62066
  21   29433.5    339.7   0.012894369   0.14422  -0.04532  -0.25096  -0.28140
  22   29765.5    336.0   0.019146314   0.21176   0.01336  -0.25850  -0.38047
  23   30411.7    328.8   0.145745206   1.57772  -0.77688   0.84520  -0.50972
  24   31023.2    322.3   0.018700458   0.19845   0.00593  -0.09192   0.43584
  25   31321.0    319.3   0.048835927   0.51331   0.37654  -0.23540  -0.56224
  26   32490.0    307.8   0.035328492   0.35797  -0.30221   0.51406   0.04884
  27   32676.2    306.0   0.035440744   0.35706  -0.37061   0.37798   0.27721
  28   32837.9    304.5   0.011425214   0.11454   0.05567   0.32063   0.09297
  29   33063.1    302.5   0.081662590   0.81312   0.72682  -0.53208   0.04167
  30   33231.2    300.9   0.025304072   0.25068  -0.29212   0.01478  -0.40636
  31   33395.1    299.4   0.008955655   0.08829  -0.27512   0.00936  -0.11184
  32   33598.1    297.6   0.061222851   0.59989   0.60494  -0.43393  -0.21364
  33   33744.7    296.3   0.007338251   0.07159   0.00929  -0.19453   0.18348
  34   34042.0    293.8   0.068073558   0.65832   0.27029   0.42680   0.63491
  35   34361.3    291.0   0.015160642   0.14525  -0.17821   0.33580   0.02706
  36   34506.8    289.8   0.113410521   1.08199   0.66193  -0.65443  -0.46429
  37   35058.7    285.2   0.006323394   0.05938   0.09783   0.15489   0.16068
  38   35538.5    281.4   0.276292224   2.55944  -0.83060   1.29713   0.43244
  39   35672.3    280.3   0.016569250   0.15291  -0.24813   0.29979  -0.03833
  40   35734.5    279.8   0.392615431   3.61705   1.71598  -0.80297   0.16647
  41   36228.7    276.0   0.006085473   0.05530   0.17923  -0.00454  -0.15216
  42   36549.2    273.6   0.093499234   0.84218   0.84438   0.35829  -0.02889
  43   36891.2    271.1   0.178637442   1.59414   0.04125   0.48705   1.16414
  44   37211.3    268.7   0.520592123   4.60573  -1.59670   1.43282  -0.05740
  45   37479.1    266.8   0.106680741   0.93707  -0.85435  -0.07489  -0.44894
  46   38019.8    263.0   0.033193694   0.28742   0.31506   0.43317   0.02278
  47   38121.2    262.3   0.022953397   0.19822  -0.23635  -0.11243  -0.36017
  48   38173.5    262.0   0.004993965   0.04307  -0.08612  -0.11691  -0.14826
  49   38428.5    260.2   0.055563510   0.47601   0.48222  -0.49202   0.03727
  50   38744.9    258.1   0.003095101   0.02630  -0.03602   0.10963  -0.11394
  51   38979.6    256.5   0.014189705   0.11984   0.22211  -0.26481  -0.01960
  52   39520.4    253.0   0.020751471   0.17286  -0.36526  -0.19583  -0.03315
  53   39693.4    251.9   0.026070491   0.21623   0.37563   0.06735   0.26569
  54   40083.8    249.5   0.017913974   0.14713   0.03153  -0.03797   0.38039

FINAL SINGLE POINT ENERGY     -3920.271538362304

DIPOLE MOMENT
-------------
                                X             Y             Z
Electronic contribution:    -10.31179      24.35140     -35.71068
Nuclear contribution   :      9.32539     -26.84310      36.50801
                        -----------------------------------------
Total Dipole Moment    :     -0.98640      -2.49171       0.79733
                        -----------------------------------------
Magnitude (a.u.)       :      2.79594
Magnitude (Debye)      :      7.10673

Rotational constants in cm-1:     0.002544     0.000126     0.000122
Rotational constants in MHz :    76.271979     3.768383     3.649210

                             ****ORCA TERMINATED NORMALLY****
TOTAL RUN TIME: 0 days 0 hours 16 minutes 32 seconds 514 msec
