                         Program Version 4.2.0 -  RELEASE  -
|  1> # ORCA input file
|  2> # SCF done       -199.597379383223          0.000942699518
|  3> ! CAM-B3LYP def2-SVP def2/J RIJCOSX Grid4 TightSCF
|  4> %maxcore 5000
|  5> %tddft
|  6>     Mode sTDDFT
|  7>     Ethresh 5.0
|  8>     maxcore 5000
|  9> end
| 10>
| 11> %pal
| 12>   nprocs 6
| 13>   end
| 14> * xyz 0 1
| 15>    C       -4.36460        -5.29307        -5.38925
| 16>    C       -5.17063        -4.23489        -5.78237
| 17>    F       -5.66520        -4.22344        -7.02492
| 18>    C       -5.47414        -3.18447        -4.91509
| 19>    F       -6.26226        -2.18768        -5.33523
| 20>    C       -4.96626        -3.16038        -3.62576
| 21>    C       -4.15525        -4.20785        -3.23582
| 22>    C       -3.85453        -5.27525        -4.10134
| 23>    C       -3.02034        -6.23884        -3.38318
| 24>    C       -2.86397        -7.56013        -3.71087
| 25>    C       -3.31762        -8.12621        -4.91976
| 26>    N       -3.65165        -8.61993        -5.90048
| 27>    C       -2.33281        -8.52517        -2.82696
| 28>    N       -1.99738        -9.36721        -2.12301
| 29>    C       -2.62935        -5.62146        -2.13664
| 30>    C       -3.46982        -4.41407        -1.93692
| 31>    O       -3.54078        -3.72640        -0.94605
| 32>    C       -1.63484        -5.93224        -1.25445
| 33>    C       -0.51072        -6.76084        -1.46945
| 34>    C        0.24702        -7.35705        -0.48110
| 35>    C        1.28260        -8.12362        -1.08847
| 36>    C        1.14114        -7.88915        -2.52186
| 37>    C        0.08250        -7.09791        -2.76517
| 38>    F        1.97765        -8.39055        -3.43787
| 39>    C        2.20042        -8.95221        -0.47657
| 40>    C        3.18449        -9.77390        -1.07551
| 41>    C        3.84750       -10.48843        -0.09113
| 42>    C        3.28265       -10.10057         1.20846
| 43>    C        2.32329        -9.19724         0.96845
| 44>    F        1.57316        -8.58149         1.88673
| 45>    C        4.87058       -11.42783        -0.31096
| 46>    C        5.45065       -12.19123         0.66324
| 47>    C        6.46801       -13.14061         0.45214
| 48>    N        6.93555       -13.91971         1.49319
| 49>    C        7.90221       -14.74572         1.02061
| 50>    C        8.78575       -15.75108         1.36801
| 51>    C        9.49037       -16.07879         0.19136
| 52>    N        9.03747       -15.28789        -0.84491
| 53>    C        8.06341       -14.46883        -0.37102
| 54>    C        7.16851       -13.47508        -0.72531
| 55>    C       10.50057       -17.05229         0.07564
| 56>    C       11.23955       -17.32111        -1.04263
| 57>    C       12.24267       -18.30516        -1.12036
| 58>    C       13.04635       -18.55447        -2.22096
| 59>    C       13.93484       -19.61504        -1.92254
| 60>    C       13.60853       -20.01105        -0.54563
| 61>    C       12.62259       -19.24499        -0.05939
| 62>    F       14.23783       -20.99300         0.10838
| 63>    C       14.91682       -20.16823        -2.72011
| 64>    C       15.79126       -21.24572        -2.41358
| 65>    C       16.63783       -21.45908        -3.48704
| 66>    C       16.30761       -20.48289        -4.52693
| 67>    C       15.28853       -19.73959        -4.06898
| 68>    F       14.68429       -18.73291        -4.71313
| 69>    C       17.64598       -22.43393        -3.64064
| 70>    C       17.96575       -23.38394        -2.71165
| 71>    C       18.99658       -24.33695        -2.82919
| 72>    C       19.68727       -24.79818        -3.91960
| 73>    C       20.99828       -25.45927        -3.68296
| 74>    O       21.44729       -25.82519        -2.62194
| 75>    C       21.64782       -25.52498        -5.01152
| 76>    C       20.75025       -25.06388        -5.98972
| 77>    C       21.14493       -24.99497        -7.31568
| 78>    C       22.43457       -25.39739        -7.63145
| 79>    C       23.31469       -25.86822        -6.65659
| 80>    C       22.92738       -25.93641        -5.32771
| 81>    F       24.54745       -26.25257        -7.00836
| 82>    F       22.84132       -25.32623        -8.90352
| 83>    C       19.47282       -24.74298        -5.34609
| 84>    C       18.27242       -24.65675        -6.00453
| 85>    C       17.02312       -24.58997        -5.35604
| 86>    N       15.98302       -24.55519        -4.87230
| 87>    C       18.13803       -24.69250        -7.40756
| 88>    N       17.97336       -24.69182        -8.54337
| 89>    H       -4.15607        -6.08290        -6.09262
| 90>    H       -5.20061        -2.34900        -2.95526
| 91>    H       -1.68699        -5.42558        -0.29589
| 92>    H        0.04666        -7.31105         0.57139
| 93>    H       -0.23700        -6.72305        -3.71795
| 94>    H        3.36841        -9.84621        -2.12936
| 95>    H        3.59291       -10.46613         2.16702
| 96>    H        5.19104       -11.55255        -1.33580
| 97>    H        5.10541       -12.08692         1.68303
| 98>    H        6.58519       -13.88131         2.43513
| 99>    H        8.93681       -16.20852         2.32485
|100>    H        9.37065       -15.33600        -1.79176
|101>    H        7.02247       -13.02693        -1.68653
|102>    H       10.69430       -17.61388         0.97730
|103>    H       11.07851       -16.74745        -1.94667
|104>    H       13.00794       -18.02846        -3.15470
|105>    H       12.18348       -19.30705         0.91615
|106>    H       15.78021       -21.79411        -1.49314
|107>    H       16.79664       -20.40733        -5.47859
|108>    H       18.22366       -22.37764        -4.55474
|109>    H       17.44422       -23.36767        -1.76530
|110>    H       19.37066       -24.73845        -1.89085
|111>    H       20.50324       -24.63625        -8.10384
|112>    H       23.60622       -26.29799        -4.57197
|113> *
|114>
|115>                          ****END OF INPUT****

CARTESIAN COORDINATES (ANGSTROEM)
---------------------------------
  C     -4.364600   -5.293070   -5.389250
  C     -5.170630   -4.234890   -5.782370
  F     -5.665200   -4.223440   -7.024920
  C     -5.474140   -3.184470   -4.915090
  F     -6.262260   -2.187680   -5.335230
  C     -4.966260   -3.160380   -3.625760
  C     -4.155250   -4.207850   -3.235820
  C     -3.854530   -5.275250   -4.101340
  C     -3.020340   -6.238840   -3.383180
  C     -2.863970   -7.560130   -3.710870
  C     -3.317620   -8.126210   -4.919760
  N     -3.651650   -8.619930   -5.900480
  C     -2.332810   -8.525170   -2.826960
  N     -1.997380   -9.367210   -2.123010
  C     -2.629350   -5.621460   -2.136640
  C     -3.469820   -4.414070   -1.936920
  O     -3.540780   -3.726400   -0.946050
  C     -1.634840   -5.932240   -1.254450
  C     -0.510720   -6.760840   -1.469450
  C      0.247020   -7.357050   -0.481100
  C      1.282600   -8.123620   -1.088470
  C      1.141140   -7.889150   -2.521860
  C      0.082500   -7.097910   -2.765170
  F      1.977650   -8.390550   -3.437870
  C      2.200420   -8.952210   -0.476570
  C      3.184490   -9.773900   -1.075510
  C      3.847500  -10.488430   -0.091130
  C      3.282650  -10.100570    1.208460
  C      2.323290   -9.197240    0.968450
  F      1.573160   -8.581490    1.886730
  C      4.870580  -11.427830   -0.310960
  C      5.450650  -12.191230    0.663240
  C      6.468010  -13.140610    0.452140
  N      6.935550  -13.919710    1.493190
  C      7.902210  -14.745720    1.020610
  C      8.785750  -15.751080    1.368010
  C      9.490370  -16.078790    0.191360
  N      9.037470  -15.287890   -0.844910
  C      8.063410  -14.468830   -0.371020
  C      7.168510  -13.475080   -0.725310
  C     10.500570  -17.052290    0.075640
  C     11.239550  -17.321110   -1.042630
  C     12.242670  -18.305160   -1.120360
  C     13.046350  -18.554470   -2.220960
  C     13.934840  -19.615040   -1.922540
  C     13.608530  -20.011050   -0.545630
  C     12.622590  -19.244990   -0.059390
  F     14.237830  -20.993000    0.108380
  C     14.916820  -20.168230   -2.720110
  C     15.791260  -21.245720   -2.413580
  C     16.637830  -21.459080   -3.487040
  C     16.307610  -20.482890   -4.526930
  C     15.288530  -19.739590   -4.068980
  F     14.684290  -18.732910   -4.713130
  C     17.645980  -22.433930   -3.640640
  C     17.965750  -23.383940   -2.711650
  C     18.996580  -24.336950   -2.829190
  C     19.687270  -24.798180   -3.919600
  C     20.998280  -25.459270   -3.682960
  O     21.447290  -25.825190   -2.621940
  C     21.647820  -25.524980   -5.011520
  C     20.750250  -25.063880   -5.989720
  C     21.144930  -24.994970   -7.315680
  C     22.434570  -25.397390   -7.631450
  C     23.314690  -25.868220   -6.656590
  C     22.927380  -25.936410   -5.327710
  F     24.547450  -26.252570   -7.008360
  F     22.841320  -25.326230   -8.903520
  C     19.472820  -24.742980   -5.346090
  C     18.272420  -24.656750   -6.004530
  C     17.023120  -24.589970   -5.356040
  N     15.983020  -24.555190   -4.872300
  C     18.138030  -24.692500   -7.407560
  N     17.973360  -24.691820   -8.543370
  H     -4.156070   -6.082900   -6.092620
  H     -5.200610   -2.349000   -2.955260
  H     -1.686990   -5.425580   -0.295890
  H      0.046660   -7.311050    0.571390
  H     -0.237000   -6.723050   -3.717950
  H      3.368410   -9.846210   -2.129360
  H      3.592910  -10.466130    2.167020
  H      5.191040  -11.552550   -1.335800
  H      5.105410  -12.086920    1.683030
  H      6.585190  -13.881310    2.435130
  H      8.936810  -16.208520    2.324850
  H      9.370650  -15.336000   -1.791760
  H      7.022470  -13.026930   -1.686530
  H     10.694300  -17.613880    0.977300
  H     11.078510  -16.747450   -1.946670
  H     13.007940  -18.028460   -3.154700
  H     12.183480  -19.307050    0.916150
  H     15.780210  -21.794110   -1.493140
  H     16.796640  -20.407330   -5.478590
  H     18.223660  -22.377640   -4.554740
  H     17.444220  -23.367670   -1.765300
  H     19.370660  -24.738450   -1.890850
  H     20.503240  -24.636250   -8.103840
  H     23.606220  -26.297990   -4.571970

 Total Charge           Charge          ....    0
 Multiplicity           Mult            ....    1
 Number of Electrons    NEL             ....  502
 Basis Dimension        Dim             .... 1156

ORBITAL ENERGIES
----------------

  NO   OCC          E(Eh)            E(eV)
   0   2.0000     -24.801662      -674.8875
   1   2.0000     -24.801449      -674.8817
   2   2.0000     -24.801217      -674.8754
   3   2.0000     -24.800330      -674.8513
   4   2.0000     -24.800089      -674.8447
   5   2.0000     -24.799956      -674.8411
   6   2.0000     -24.790867      -674.5938
   7   2.0000     -24.788926      -674.5410
   8   2.0000     -19.219327      -522.9845
   9   2.0000     -19.216905      -522.9186
  10   2.0000     -14.483121      -394.1058
  11   2.0000     -14.480443      -394.0329
  12   2.0000     -14.418498      -392.3473
  13   2.0000     -14.416842      -392.3022
  14   2.0000     -14.416597      -392.2955
  15   2.0000     -14.411980      -392.1699
  16   2.0000     -10.387327      -282.6535
  17   2.0000     -10.386470      -282.6302
  18   2.0000     -10.385823      -282.6126
  19   2.0000     -10.385094      -282.5928
  20   2.0000     -10.370856      -282.2053
  21   2.0000     -10.369219      -282.1608
  22   2.0000     -10.368080      -282.1298
  23   2.0000     -10.367343      -282.1098
  24   2.0000     -10.355876      -281.7977
  25   2.0000     -10.353396      -281.7302
  26   2.0000     -10.347256      -281.5631
  27   2.0000     -10.345105      -281.5046
  28   2.0000     -10.344520      -281.4887
  29   2.0000     -10.344301      -281.4827
  30   2.0000     -10.333151      -281.1793
  31   2.0000     -10.331790      -281.1423
  32   2.0000     -10.322417      -280.8872
  33   2.0000     -10.320913      -280.8463
  34   2.0000     -10.320476      -280.8344
  35   2.0000     -10.319563      -280.8096
  36   2.0000     -10.318029      -280.7678
  37   2.0000     -10.317621      -280.7567
  38   2.0000     -10.316879      -280.7365
  39   2.0000     -10.316831      -280.7352
  40   2.0000     -10.316486      -280.7259
  41   2.0000     -10.314968      -280.6846
  42   2.0000     -10.314599      -280.6745
  43   2.0000     -10.313916      -280.6559
  44   2.0000     -10.310827      -280.5719
  45   2.0000     -10.309732      -280.5421
  46   2.0000     -10.309400      -280.5330
  47   2.0000     -10.308523      -280.5092
  48   2.0000     -10.308291      -280.5029
  49   2.0000     -10.307932      -280.4931
  50   2.0000     -10.306309      -280.4489
  51   2.0000     -10.305791      -280.4348
  52   2.0000     -10.305124      -280.4167
  53   2.0000     -10.304607      -280.4026
  54   2.0000     -10.303780      -280.3801
  55   2.0000     -10.303427      -280.3705
  56   2.0000     -10.301501      -280.3181
  57   2.0000     -10.298251      -280.2297
  58   2.0000     -10.297945      -280.2213
  59   2.0000     -10.296986      -280.1952
  60   2.0000     -10.295904      -280.1658
  61   2.0000     -10.295322      -280.1500
  62   2.0000     -10.292152      -280.0637
  63   2.0000     -10.290436      -280.0170
  64   2.0000     -10.289552      -279.9929
  65   2.0000     -10.289297      -279.9860
  66   2.0000     -10.286026      -279.8970
  67   2.0000     -10.285328      -279.8780
  68   2.0000     -10.284037      -279.8429
  69   2.0000     -10.275794      -279.6186
  70   2.0000     -10.275634      -279.6142
  71   2.0000     -10.272748      -279.5357
  72   2.0000     -10.269938      -279.4592
  73   2.0000     -10.268727      -279.4263
  74   2.0000      -1.325123       -36.0584
  75   2.0000      -1.323946       -36.0264
  76   2.0000      -1.314810       -35.7778
  77   2.0000      -1.312893       -35.7256
  78   2.0000      -1.309889       -35.6439
  79   2.0000      -1.308734       -35.6125
  80   2.0000      -1.303327       -35.4653
  81   2.0000      -1.301108       -35.4049
  82   2.0000      -1.134625       -30.8747
  83   2.0000      -1.132574       -30.8189
  84   2.0000      -1.114827       -30.3360
  85   2.0000      -1.078173       -29.3386
  86   2.0000      -1.022560       -27.8253
  87   2.0000      -1.021503       -27.7965
  88   2.0000      -1.002858       -27.2892
  89   2.0000      -1.002549       -27.2808
  90   2.0000      -0.998332       -27.1660
  91   2.0000      -0.995804       -27.0972
  92   2.0000      -0.994664       -27.0662
  93   2.0000      -0.992940       -27.0193
  94   2.0000      -0.978407       -26.6238
  95   2.0000      -0.975956       -26.5571
  96   2.0000      -0.957602       -26.0577
  97   2.0000      -0.957281       -26.0489
  98   2.0000      -0.923531       -25.1306
  99   2.0000      -0.921650       -25.0794
 100   2.0000      -0.917007       -24.9530
 101   2.0000      -0.905604       -24.6427
 102   2.0000      -0.901208       -24.5231
 103   2.0000      -0.892898       -24.2970
 104   2.0000      -0.887658       -24.1544
 105   2.0000      -0.885357       -24.0918
 106   2.0000      -0.875360       -23.8197
 107   2.0000      -0.874274       -23.7902
 108   2.0000      -0.868174       -23.6242
 109   2.0000      -0.855580       -23.2815
 110   2.0000      -0.846284       -23.0286
 111   2.0000      -0.834173       -22.6990
 112   2.0000      -0.819446       -22.2983
 113   2.0000      -0.817738       -22.2518
 114   2.0000      -0.809158       -22.0183
 115   2.0000      -0.801530       -21.8107
 116   2.0000      -0.794165       -21.6103
 117   2.0000      -0.779462       -21.2102
 118   2.0000      -0.774997       -21.0887
 119   2.0000      -0.771654       -20.9978
 120   2.0000      -0.765014       -20.8171
 121   2.0000      -0.754663       -20.5354
 122   2.0000      -0.741113       -20.1667
 123   2.0000      -0.729599       -19.8534
 124   2.0000      -0.725985       -19.7550
 125   2.0000      -0.717348       -19.5200
 126   2.0000      -0.714199       -19.4343
 127   2.0000      -0.711039       -19.3483
 128   2.0000      -0.706527       -19.2256
 129   2.0000      -0.701131       -19.0787
 130   2.0000      -0.692785       -18.8517
 131   2.0000      -0.688372       -18.7316
 132   2.0000      -0.683426       -18.5970
 133   2.0000      -0.679873       -18.5003
 134   2.0000      -0.676457       -18.4073
 135   2.0000      -0.673468       -18.3260
 136   2.0000      -0.670102       -18.2344
 137   2.0000      -0.665071       -18.0975
 138   2.0000      -0.663935       -18.0666
 139   2.0000      -0.653941       -17.7946
 140   2.0000      -0.648298       -17.6411
 141   2.0000      -0.644308       -17.5325
 142   2.0000      -0.641840       -17.4654
 143   2.0000      -0.640774       -17.4364
 144   2.0000      -0.639584       -17.4040
 145   2.0000      -0.636650       -17.3241
 146   2.0000      -0.632118       -17.2008
 147   2.0000      -0.627367       -17.0715
 148   2.0000      -0.622246       -16.9322
 149   2.0000      -0.612640       -16.6708
 150   2.0000      -0.610543       -16.6137
 151   2.0000      -0.606754       -16.5106
 152   2.0000      -0.601586       -16.3700
 153   2.0000      -0.596855       -16.2412
 154   2.0000      -0.590063       -16.0564
 155   2.0000      -0.589494       -16.0409
 156   2.0000      -0.588705       -16.0195
 157   2.0000      -0.587081       -15.9753
 158   2.0000      -0.584346       -15.9009
 159   2.0000      -0.574358       -15.6291
 160   2.0000      -0.569985       -15.5101
 161   2.0000      -0.568370       -15.4661
 162   2.0000      -0.564023       -15.3478
 163   2.0000      -0.561674       -15.2839
 164   2.0000      -0.560038       -15.2394
 165   2.0000      -0.558867       -15.2075
 166   2.0000      -0.558338       -15.1931
 167   2.0000      -0.557965       -15.1830
 168   2.0000      -0.555578       -15.1180
 169   2.0000      -0.555197       -15.1077
 170   2.0000      -0.553607       -15.0644
 171   2.0000      -0.552419       -15.0321
 172   2.0000      -0.551848       -15.0165
 173   2.0000      -0.550013       -14.9666
 174   2.0000      -0.549698       -14.9580
 175   2.0000      -0.548906       -14.9365
 176   2.0000      -0.541452       -14.7337
 177   2.0000      -0.539555       -14.6820
 178   2.0000      -0.537154       -14.6167
 179   2.0000      -0.535436       -14.5700
 180   2.0000      -0.532842       -14.4994
 181   2.0000      -0.531370       -14.4593
 182   2.0000      -0.529132       -14.3984
 183   2.0000      -0.528120       -14.3709
 184   2.0000      -0.524635       -14.2760
 185   2.0000      -0.522605       -14.2208
 186   2.0000      -0.517812       -14.0904
 187   2.0000      -0.506991       -13.7959
 188   2.0000      -0.504963       -13.7407
 189   2.0000      -0.500936       -13.6312
 190   2.0000      -0.500595       -13.6219
 191   2.0000      -0.499370       -13.5886
 192   2.0000      -0.499059       -13.5801
 193   2.0000      -0.497047       -13.5253
 194   2.0000      -0.496076       -13.4989
 195   2.0000      -0.494592       -13.4585
 196   2.0000      -0.492990       -13.4149
 197   2.0000      -0.487173       -13.2567
 198   2.0000      -0.482038       -13.1169
 199   2.0000      -0.481418       -13.1001
 200   2.0000      -0.479674       -13.0526
 201   2.0000      -0.478507       -13.0208
 202   2.0000      -0.475099       -12.9281
 203   2.0000      -0.473020       -12.8715
 204   2.0000      -0.469702       -12.7812
 205   2.0000      -0.468564       -12.7503
 206   2.0000      -0.466375       -12.6907
 207   2.0000      -0.464744       -12.6463
 208   2.0000      -0.461281       -12.5521
 209   2.0000      -0.458209       -12.4685
 210   2.0000      -0.457789       -12.4571
 211   2.0000      -0.455699       -12.4002
 212   2.0000      -0.453333       -12.3358
 213   2.0000      -0.453084       -12.3290
 214   2.0000      -0.451653       -12.2901
 215   2.0000      -0.450987       -12.2720
 216   2.0000      -0.449696       -12.2368
 217   2.0000      -0.448281       -12.1984
 218   2.0000      -0.445710       -12.1284
 219   2.0000      -0.442788       -12.0489
 220   2.0000      -0.442215       -12.0333
 221   2.0000      -0.435666       -11.8551
 222   2.0000      -0.428518       -11.6606
 223   2.0000      -0.427780       -11.6405
 224   2.0000      -0.425157       -11.5691
 225   2.0000      -0.422300       -11.4914
 226   2.0000      -0.422185       -11.4882
 227   2.0000      -0.420115       -11.4319
 228   2.0000      -0.416941       -11.3455
 229   2.0000      -0.409414       -11.1407
 230   2.0000      -0.407405       -11.0860
 231   2.0000      -0.404804       -11.0153
 232   2.0000      -0.397378       -10.8132
 233   2.0000      -0.381207       -10.3732
 234   2.0000      -0.368500       -10.0274
 235   2.0000      -0.357091        -9.7169
 236   2.0000      -0.350170        -9.5286
 237   2.0000      -0.349299        -9.5049
 238   2.0000      -0.342459        -9.3188
 239   2.0000      -0.339785        -9.2460
 240   2.0000      -0.334475        -9.1015
 241   2.0000      -0.320252        -8.7145
 242   2.0000      -0.316735        -8.6188
 243   2.0000      -0.315286        -8.5794
 244   2.0000      -0.311800        -8.4845
 245   2.0000      -0.308887        -8.4052
 246   2.0000      -0.306300        -8.3348
 247   2.0000      -0.287762        -7.8304
 248   2.0000      -0.278581        -7.5806
 249   2.0000      -0.263756        -7.1772
 250   2.0000      -0.229833        -6.2541
 251   0.0000      -0.129526        -3.5246
 252   0.0000      -0.112872        -3.0714
 253   0.0000      -0.079448        -2.1619
 254   0.0000      -0.076212        -2.0738
 255   0.0000      -0.057118        -1.5542

MULLIKEN ATOMIC CHARGES
-----------------------
   0 C :   -0.092645
   1 C :    0.236730
   2 F :   -0.165147
   3 C :    0.234517
   4 F :   -0.169148
   5 C :   -0.104409
   6 C :    0.008162
   7 C :    0.030005
   8 C :    0.253014
   9 C :   -0.336125
  10 C :   -0.181543
  11 N :    0.161188
  12 C :   -0.192383
  13 N :    0.173719
  14 C :   -0.125672
  15 C :    0.138089
  16 O :   -0.135375
  17 C :    0.041227
  18 C :    0.047475
  19 C :   -0.029452
  20 C :    0.006521
  21 C :    0.255931
  22 C :   -0.070498
  23 F :   -0.176531
  24 C :    0.026138
  25 C :   -0.094034
  26 C :    0.126557
  27 C :   -0.079367
  28 C :    0.261003
  29 F :   -0.170277
  30 C :   -0.015531
  31 C :    0.016354
  32 C :    0.108893
  33 N :   -0.033505
  34 C :    0.131353
  35 C :   -0.160084
  36 C :    0.087897
  37 N :   -0.036724
  38 C :    0.125765
  39 C :   -0.156011
  40 C :    0.043434
  41 C :   -0.015864
  42 C :    0.110039
  43 C :   -0.096405
  44 C :    0.022725
  45 C :    0.262925
  46 C :   -0.078039
  47 F :   -0.171093
  48 C :   -0.008041
  49 C :   -0.054716
  50 C :    0.077722
  51 C :   -0.072235
  52 C :    0.254565
  53 F :   -0.180722
  54 C :    0.043210
  55 C :    0.021746
  56 C :    0.050133
  57 C :   -0.130460
  58 C :    0.129888
  59 O :   -0.140544
  60 C :    0.014530
  61 C :    0.020658
  62 C :   -0.090070
  63 C :    0.236234
  64 C :    0.230228
  65 C :   -0.100571
  66 F :   -0.169199
  67 F :   -0.166243
  68 C :    0.266091
  69 C :   -0.337363
  70 C :   -0.210126
  71 N :    0.181220
  72 C :   -0.181235
  73 N :    0.158628
  74 H :    0.017460
  75 H :    0.013322
  76 H :    0.022429
  77 H :   -0.002572
  78 H :   -0.005571
  79 H :   -0.012501
  80 H :   -0.019074
  81 H :   -0.013661
  82 H :   -0.024705
  83 H :    0.127750
  84 H :   -0.025589
  85 H :    0.131946
  86 H :   -0.022053
  87 H :   -0.011394
  88 H :   -0.038277
  89 H :   -0.017038
  90 H :   -0.016040
  91 H :   -0.010998
  92 H :   -0.018024
  93 H :    0.000611
  94 H :    0.000640
  95 H :    0.027557
  96 H :    0.016728
  97 H :    0.011928
Sum of atomic charges:   -0.0000000

LOEWDIN ATOMIC CHARGES
----------------------
   0 C :   -0.021269
   1 C :    0.074431
   2 F :   -0.043442
   3 C :    0.069176
   4 F :   -0.045999
   5 C :   -0.004967
   6 C :   -0.047067
   7 C :   -0.012361
   8 C :    0.063653
   9 C :   -0.129509
  10 C :   -0.020937
  11 N :   -0.046262
  12 C :   -0.019497
  13 N :   -0.041754
  14 C :   -0.094356
  15 C :    0.082786
  16 O :   -0.136640
  17 C :    0.078374
  18 C :   -0.033652
  19 C :    0.006236
  20 C :   -0.018557
  21 C :    0.082077
  22 C :   -0.059182
  23 F :   -0.052115
  24 C :    0.022966
  25 C :   -0.068105
  26 C :    0.016373
  27 C :   -0.059957
  28 C :    0.089853
  29 F :   -0.046085
  30 C :   -0.017908
  31 C :   -0.010977
  32 C :    0.005805
  33 N :    0.074321
  34 C :   -0.012571
  35 C :   -0.074487
  36 C :    0.005360
  37 N :    0.070893
  38 C :   -0.002225
  39 C :   -0.077260
  40 C :   -0.005292
  41 C :   -0.036957
  42 C :    0.015630
  43 C :   -0.072111
  44 C :    0.017087
  45 C :    0.089396
  46 C :   -0.059974
  47 F :   -0.047667
  48 C :   -0.016415
  49 C :   -0.018762
  50 C :   -0.021104
  51 C :   -0.055986
  52 C :    0.074505
  53 F :   -0.055752
  54 C :    0.049239
  55 C :   -0.032877
  56 C :    0.067159
  57 C :   -0.101144
  58 C :    0.082518
  59 O :   -0.140055
  60 C :   -0.046785
  61 C :   -0.012477
  62 C :   -0.021852
  63 C :    0.073640
  64 C :    0.068363
  65 C :   -0.005256
  66 F :   -0.046245
  67 F :   -0.044031
  68 C :    0.063571
  69 C :   -0.142182
  70 C :   -0.019148
  71 N :   -0.034316
  72 C :   -0.022980
  73 N :   -0.050126
  74 H :    0.051314
  75 H :    0.052494
  76 H :    0.050453
  77 H :    0.028907
  78 H :    0.029679
  79 H :    0.025122
  80 H :    0.027766
  81 H :    0.034476
  82 H :    0.029488
  83 H :    0.092960
  84 H :    0.029215
  85 H :    0.092059
  86 H :    0.028929
  87 H :    0.038331
  88 H :    0.024912
  89 H :    0.023174
  90 H :    0.028897
  91 H :    0.022958
  92 H :    0.030507
  93 H :    0.034363
  94 H :    0.036170
  95 H :    0.048010
  96 H :    0.050858
  97 H :    0.052178

  Mayer bond orders larger than 0.100000
B(  0-C ,  1-C ) :   1.3342 B(  0-C ,  5-C ) :   0.1055 B(  0-C ,  7-C ) :   1.3194
B(  0-C , 74-H ) :   0.9951 B(  1-C ,  2-F ) :   1.1419 B(  1-C ,  3-C ) :   1.2919
B(  3-C ,  4-F ) :   1.1306 B(  3-C ,  5-C ) :   1.3203 B(  5-C ,  6-C ) :   1.3235
B(  5-C , 75-H ) :   1.0192 B(  6-C ,  7-C ) :   1.3438 B(  6-C , 15-C ) :   0.9263
B(  7-C ,  8-C ) :   1.0146 B(  8-C ,  9-C ) :   1.6561 B(  8-C , 14-C ) :   1.0526
B(  9-C , 10-C ) :   1.1315 B(  9-C , 12-C ) :   1.1541 B( 10-C , 11-N ) :   2.9948
B( 12-C , 13-N ) :   3.0077 B( 14-C , 15-C ) :   0.9449 B( 14-C , 17-C ) :   1.6103
B( 15-C , 16-O ) :   2.2803 B( 17-C , 18-C ) :   1.1125 B( 17-C , 76-H ) :   0.9572
B( 18-C , 19-C ) :   1.4866 B( 18-C , 22-C ) :   1.0313 B( 19-C , 20-C ) :   1.1287
B( 19-C , 77-H ) :   1.0184 B( 20-C , 21-C ) :   1.0487 B( 20-C , 24-C ) :   1.4202
B( 21-C , 22-C ) :   1.6459 B( 21-C , 23-F ) :   1.1298 B( 22-C , 78-H ) :   1.0101
B( 24-C , 25-C ) :   1.1709 B( 24-C , 28-C ) :   1.0034 B( 25-C , 26-C ) :   1.4518
B( 25-C , 79-H ) :   1.0237 B( 26-C , 27-C ) :   1.0003 B( 26-C , 30-C ) :   1.1912
B( 27-C , 28-C ) :   1.6880 B( 27-C , 80-H ) :   1.0113 B( 28-C , 29-F ) :   1.1309
B( 30-C , 31-C ) :   1.5590 B( 30-C , 81-H ) :   0.9828 B( 31-C , 32-C ) :   1.1464
B( 31-C , 82-H ) :   0.9657 B( 32-C , 33-N ) :   1.1685 B( 32-C , 39-C ) :   1.3547
B( 33-N , 34-C ) :   1.1734 B( 33-N , 83-H ) :   0.9349 B( 34-C , 35-C ) :   1.2745
B( 34-C , 38-C ) :   1.2692 B( 35-C , 36-C ) :   1.3164 B( 35-C , 84-H ) :   1.0421
B( 36-C , 37-N ) :   1.1910 B( 36-C , 40-C ) :   1.1930 B( 37-N , 38-C ) :   1.1712
B( 37-N , 85-H ) :   0.9313 B( 38-C , 39-C ) :   1.2986 B( 39-C , 86-H ) :   1.0321
B( 40-C , 41-C ) :   1.5175 B( 40-C , 87-H ) :   0.9596 B( 41-C , 42-C ) :   1.2055
B( 41-C , 88-H ) :   0.9759 B( 42-C , 43-C ) :   1.4545 B( 42-C , 46-C ) :   1.0088
B( 43-C , 44-C ) :   1.1688 B( 43-C , 89-H ) :   1.0230 B( 44-C , 45-C ) :   1.0063
B( 44-C , 48-C ) :   1.4193 B( 45-C , 46-C ) :   1.6814 B( 45-C , 47-F ) :   1.1274
B( 46-C , 90-H ) :   1.0101 B( 48-C , 49-C ) :   1.1479 B( 48-C , 52-C ) :   1.0342
B( 49-C , 50-C ) :   1.5077 B( 49-C , 91-H ) :   1.0060 B( 50-C , 51-C ) :   1.0239
B( 50-C , 54-C ) :   1.1802 B( 51-C , 52-C ) :   1.6460 B( 51-C , 92-H ) :   1.0191
B( 52-C , 53-F ) :   1.1196 B( 54-C , 55-C ) :   1.5708 B( 54-C , 93-H ) :   0.9605
B( 55-C , 56-C ) :   1.2057 B( 55-C , 94-H ) :   0.9613 B( 56-C , 57-C ) :   1.5971
B( 56-C , 95-H ) :   0.9296 B( 57-C , 58-C ) :   0.9570 B( 57-C , 68-C ) :   1.0597
B( 58-C , 59-O ) :   2.2622 B( 58-C , 60-C ) :   0.9277 B( 60-C , 61-C ) :   1.3456
B( 60-C , 65-C ) :   1.3231 B( 61-C , 62-C ) :   1.3229 B( 61-C , 68-C ) :   1.0092
B( 62-C , 63-C ) :   1.3336 B( 62-C , 65-C ) :   0.1048 B( 62-C , 96-H ) :   0.9930
B( 63-C , 64-C ) :   1.2937 B( 63-C , 67-F ) :   1.1411 B( 64-C , 65-C ) :   1.3192
B( 64-C , 66-F ) :   1.1308 B( 65-C , 97-H ) :   1.0189 B( 68-C , 69-C ) :   1.6346
B( 69-C , 70-C ) :   1.1721 B( 69-C , 72-C ) :   1.1255 B( 70-C , 71-N ) :   2.9954
B( 72-C , 73-N ) :   2.9925

-----------------------------------------------------------------------------
         ABSORPTION SPECTRUM VIA TRANSITION ELECTRIC DIPOLE MOMENTS
-----------------------------------------------------------------------------
State   Energy  Wavelength   fosc         T2         TX        TY        TZ
        (cm-1)    (nm)                  (au**2)     (au)      (au)      (au)
-----------------------------------------------------------------------------
   0    9171.3   1090.4   2.348052466  84.28532  -6.99971   5.87614   0.87194
   1   13066.0    765.3   0.187189545   4.71645  -0.34313   0.15161  -2.13909
   2   15350.5    651.4   0.008007361   0.17173  -0.14744   0.20804   0.32667
   3   17058.8    586.2   0.029769788   0.57452   0.45582  -0.03373   0.60465
   4   18764.9    532.9   0.002322094   0.04074   0.01403   0.19565  -0.04758
   5   20085.9    497.9   0.599377546   9.82394  -2.27313   2.11116   0.44700
   6   20680.6    483.5   0.039258352   0.62495  -0.24785  -0.15610  -0.73427
   7   21883.9    457.0   0.084756366   1.27504   0.28524   0.66220   0.86900
   8   23740.3    421.2   0.145993140   2.02452  -0.44544   0.45608   1.27204
   9   24433.2    409.3   0.239726947   3.23007  -1.45259   1.05403   0.09519
  10   25075.3    398.8   0.010597942   0.13914  -0.22546   0.19917  -0.22054
  11   25676.7    389.5   0.021425954   0.27471   0.15869  -0.16738  -0.47065
  12   25917.2    385.8   0.152109205   1.93216  -0.91315   0.16886  -1.03431
  13   26640.1    375.4   0.029862375   0.36903   0.57354  -0.19986   0.01207
  14   26855.8    372.4   0.057014031   0.69891  -0.19328  -0.66051   0.47463
  15   26992.2    370.5   0.174544348   2.12884   0.96696  -0.92055   0.58858
  16   27630.9    361.9   0.237214172   2.82631  -1.27760   0.98858  -0.46557
  17   27836.3    359.2   0.176696160   2.08974   1.16635  -0.80783  -0.27710
  18   28343.8    352.8   0.035242529   0.40934   0.63555  -0.06263   0.03861
  19   29352.0    340.7   0.201125943   2.25583   1.17526  -0.92498   0.13779
  20   29526.9    338.7   0.006741707   0.07517   0.05205  -0.22799   0.14310
  21   29694.5    336.8   0.022310963   0.24735  -0.45776   0.06538   0.18311
  22   29949.2    333.9   0.004350795   0.04783  -0.11958  -0.15101  -0.10355
  23   30044.7    332.8   0.089129581   0.97663   0.76825  -0.47444  -0.40166
  24   30957.2    323.0   0.039318584   0.41813   0.05990   0.52852   0.36770
  25   31838.4    314.1   0.036906673   0.38162   0.55620  -0.24648  -0.10727
  26   32237.3    310.2   0.045285411   0.46246   0.16015  -0.60891   0.25699
  27   32608.5    306.7   0.126103543   1.27313   0.98334  -0.28065   0.47686
  28   32640.5    306.4   0.010237013   0.10325   0.06776   0.05732   0.30883
  29   32861.7    304.3   0.108540292   1.08737   0.56772  -0.87106  -0.07942
  30   32974.8    303.3   0.017960736   0.17932  -0.39894   0.12017  -0.07561
  31   33276.4    300.5   0.022135774   0.21900   0.30779  -0.01236   0.35229
  32   34033.6    293.8   0.011727829   0.11344  -0.16629   0.02425  -0.29190
  33   34135.2    293.0   0.057643379   0.55593   0.19236  -0.71765   0.06247
  34   34709.8    288.1   0.068077212   0.64569   0.64130  -0.44027   0.20147
  35   35180.6    284.2   0.231467697   2.16602   1.21596  -0.81231  -0.16613
  36   35212.7    284.0   0.005813021   0.05435  -0.14570   0.12535  -0.13194
  37   35692.1    280.2   0.025919819   0.23908   0.38476   0.11103  -0.28055
  38   35831.3    279.1   0.082111100   0.75442   0.75461  -0.42875   0.03400
  39   36004.7    277.7   0.333230566   3.04692  -0.83622   1.49831  -0.32052
  40   36130.3    276.8   0.091987775   0.83818   0.63465   0.63909   0.16420
  41   36862.9    271.3   0.008984721   0.08024  -0.24073   0.14656  -0.02848
  42   37352.7    267.7   0.302970441   2.67026   1.03384  -1.26540   0.01366
  43   37419.5    267.2   0.019573754   0.17221  -0.23039  -0.31843   0.13315
  44   37447.6    267.0   0.197449055   1.73583   1.26264  -0.36524   0.09042
  45   37642.9    265.7   0.058616118   0.51264   0.43394   0.44708   0.35278
  46   38302.7    261.1   0.054129321   0.46524   0.52103  -0.05236   0.43707
  47   38383.2    260.5   0.057256017   0.49108   0.48764  -0.50317  -0.01021
  48   38607.6    259.0   0.018106142   0.15439  -0.23144  -0.09844  -0.30189
  49   38773.4    257.9   0.023132119   0.19641  -0.36443  -0.07258  -0.24152
  50   39259.3    254.7   0.012056870   0.10110   0.07429  -0.20965  -0.22722
  51   39475.2    253.3   0.004159595   0.03469  -0.07052   0.14890   0.08687
  52   39537.7    252.9   0.019092506   0.15897  -0.02631   0.12821  -0.37662
  53   39722.1    251.7   0.019044792   0.15784   0.15105  -0.16994   0.32580
  54   39985.5    250.1   0.001524203   0.01255  -0.06016  -0.06179   0.07149
  55   40123.1    249.2   0.017684570   0.14510   0.21622  -0.31342  -0.01098

FINAL SINGLE POINT ENERGY     -3497.761814588297

DIPOLE MOMENT
-------------
                                X             Y             Z
Electronic contribution:    -11.39140      11.35548     -33.69275
Nuclear contribution   :     12.63800      -9.68971      37.11812
                        -----------------------------------------
Total Dipole Moment    :      1.24661       1.66577       3.42536
                        -----------------------------------------
Magnitude (a.u.)       :      4.00773
Magnitude (Debye)      :     10.18685

Rotational constants in cm-1:     0.002268     0.000110     0.000106
Rotational constants in MHz :    67.981887     3.308060     3.187745

                             ****ORCA TERMINATED NORMALLY****
TOTAL RUN TIME: 0 days 0 hours 10 minutes 34 seconds 788 msec
