                         Program Version 4.2.0 -  RELEASE  -
|  1> # ORCA input file
|  2> # SCF done       -210.555155607534          0.000302768891
|  3> ! CAM-B3LYP def2-SVP def2/J RIJCOSX Grid4 TightSCF
|  4> %maxcore 5000
|  5> %tddft
|  6>     Mode sTDDFT
|  7>     Ethresh 5.0
|  8>     maxcore 5000
|  9> end
| 10>
| 11> %pal
| 12>   nprocs 6
| 13>   end
| 14> * xyz 0 1
| 15>    C       -0.92028         0.75089        -3.47541
| 16>    S        0.24796         1.65176        -2.61613
| 17>    C       -0.39751         3.15833        -3.22757
| 18>    C       -1.49290         2.92181        -4.04286
| 19>    C       -1.77902         1.54505        -4.18107
| 20>    C       -2.91921         1.00981        -4.99436
| 21>    C       -3.48070         2.07082        -5.94461
| 22>    C       -2.59911         2.19580        -7.18229
| 23>    F       -1.29110         2.32843        -6.93185
| 24>    F       -2.71583         1.10674        -7.96418
| 25>    F       -2.94538         3.24497        -7.94719
| 26>    C       -3.65026         3.40506        -5.21403
| 27>    C       -2.31803         3.96931        -4.72037
| 28>    C        0.25705         4.34941        -2.81599
| 29>    C        0.11267         5.59905        -3.32889
| 30>    C        0.80623         6.73705        -2.84363
| 31>    C        1.66472         6.84957        -1.77012
| 32>    C        2.11587         8.19232        -1.67058
| 33>    C        1.46172         8.90204        -2.77625
| 34>    C        0.68609         8.05797        -3.47041
| 35>    F        1.63436        10.20792        -3.02243
| 36>    C        2.97765         8.73825        -0.74284
| 37>    C        3.44143        10.07837        -0.64516
| 38>    C        4.28673        10.19093         0.44287
| 39>    C        4.38073         8.87650         1.08285
| 40>    C        3.61173         8.03584         0.37421
| 41>    F        3.42560         6.73312         0.63013
| 42>    C        4.94430        11.36867         0.85400
| 43>    C        5.75553        11.46139         1.94714
| 44>    C        6.40774        12.66096         2.31285
| 45>    O        6.24204        13.75177         1.54526
| 46>    C        6.95976        14.77636         2.05919
| 47>    C        7.62289        14.33640         3.22375
| 48>    C        7.26577        12.97781         3.38353
| 49>    C        7.69418        12.03927         4.45538
| 50>    F        7.18890        10.80700         4.33340
| 51>    F        9.03354        11.87053         4.50283
| 52>    F        7.33346        12.44974         5.69065
| 53>    O        8.39507        15.18707         3.90896
| 54>    C        9.06845        14.80874         5.09520
| 55>    C        6.94064        16.01882         1.39509
| 56>    C        7.64711        17.12032         1.77939
| 57>    C        7.64827        18.35867         1.10654
| 58>    C        8.40522        19.45836         1.47022
| 59>    C        8.16966        20.51680         0.55608
| 60>    C        7.19353        19.98287        -0.39716
| 61>    C        6.88018        18.71497        -0.08905
| 62>    F        6.70438        20.68783        -1.42744
| 63>    C        8.74099        21.77328         0.53492
| 64>    C        8.52492        22.82916        -0.38777
| 65>    C        9.33471        23.89714        -0.05410
| 66>    C       10.10496        23.52748         1.13677
| 67>    C        9.74376        22.28221         1.47645
| 68>    F       10.21531        21.57608         2.51394
| 69>    C        9.48364        25.15560        -0.68691
| 70>    C        8.75589        25.55488        -1.76511
| 71>    C        8.83561        26.77166        -2.48576
| 72>    S        7.86499        26.87670        -3.93261
| 73>    C        8.44847        28.46668        -4.28582
| 74>    C        9.34985        28.88692        -3.32263
| 75>    C        9.55697        27.94684        -2.29960
| 76>    C       10.45581        28.21217        -1.12994
| 77>    C       10.86028        29.68723        -1.02571
| 78>    C        9.75606        30.48610        -0.34137
| 79>    F        8.52734        30.27856        -0.82977
| 80>    F        9.68830        30.18104         0.96782
| 81>    F        9.97084        31.81080        -0.40601
| 82>    C       11.22059        30.25691        -2.39809
| 83>    C       10.02966        30.22198        -3.35195
| 84>    C        8.00067        29.19355        -5.43887
| 85>    C        7.11758        28.73600        -6.32502
| 86>    H       -0.91751        -0.31973        -3.41989
| 87>    H       -3.71968         0.69133        -4.32017
| 88>    H       -2.59640         0.12958        -5.55566
| 89>    H       -4.45339         1.74117        -6.32693
| 90>    H       -4.31014         3.23002        -4.36219
| 91>    H       -4.13157         4.13106        -5.87130
| 92>    H       -2.51469         4.79052        -4.02732
| 93>    H       -1.75548         4.37706        -5.56597
| 94>    H        0.97396         4.21130        -2.01757
| 95>    H       -0.53700         5.77057        -4.17265
| 96>    H        1.95651         6.06400        -1.10282
| 97>    H        0.08342         8.27824        -4.33017
| 98>    H        3.17406        10.87291        -1.31388
| 99>    H        4.96147         8.63942         1.95182
|100>    H        4.78292        12.25079         0.24908
|101>    H        5.91782        10.59664         2.56534
|102>    H        9.59749        15.70604         5.41264
|103>    H        9.79284        14.01328         4.91292
|104>    H        8.36966        14.51054         5.87854
|105>    H        6.31528        16.04818         0.51456
|106>    H        8.27009        17.05476         2.65873
|107>    H        9.07292        19.50293         2.30784
|108>    H        6.19538        18.07670        -0.61090
|109>    H        7.84435        22.77920        -1.21376
|110>    H       10.81637        24.16056         1.63094
|111>    H       10.23858        25.79896        -0.26336
|112>    H        8.02481        24.85928        -2.15580
|113>    H       11.36476        27.61120        -1.23068
|114>    H        9.95392        27.91115        -0.20659
|115>    H       11.72431        29.77797        -0.35749
|116>    H       12.03207        29.64986        -2.80413
|117>    H       11.58145        31.28149        -2.29506
|118>    H       10.37743        30.44073        -4.36370
|119>    H        9.30844        30.99906        -3.08174
|120>    H        8.42479        30.18122        -5.55913
|121>    H        6.67488        27.75881        -6.22366
|122>    H        6.81091        29.32401        -7.17130
|123> *
|124>
|125>                          ****END OF INPUT****

CARTESIAN COORDINATES (ANGSTROEM)
---------------------------------
  C     -0.920280    0.750890   -3.475410
  S      0.247960    1.651760   -2.616130
  C     -0.397510    3.158330   -3.227570
  C     -1.492900    2.921810   -4.042860
  C     -1.779020    1.545050   -4.181070
  C     -2.919210    1.009810   -4.994360
  C     -3.480700    2.070820   -5.944610
  C     -2.599110    2.195800   -7.182290
  F     -1.291100    2.328430   -6.931850
  F     -2.715830    1.106740   -7.964180
  F     -2.945380    3.244970   -7.947190
  C     -3.650260    3.405060   -5.214030
  C     -2.318030    3.969310   -4.720370
  C      0.257050    4.349410   -2.815990
  C      0.112670    5.599050   -3.328890
  C      0.806230    6.737050   -2.843630
  C      1.664720    6.849570   -1.770120
  C      2.115870    8.192320   -1.670580
  C      1.461720    8.902040   -2.776250
  C      0.686090    8.057970   -3.470410
  F      1.634360   10.207920   -3.022430
  C      2.977650    8.738250   -0.742840
  C      3.441430   10.078370   -0.645160
  C      4.286730   10.190930    0.442870
  C      4.380730    8.876500    1.082850
  C      3.611730    8.035840    0.374210
  F      3.425600    6.733120    0.630130
  C      4.944300   11.368670    0.854000
  C      5.755530   11.461390    1.947140
  C      6.407740   12.660960    2.312850
  O      6.242040   13.751770    1.545260
  C      6.959760   14.776360    2.059190
  C      7.622890   14.336400    3.223750
  C      7.265770   12.977810    3.383530
  C      7.694180   12.039270    4.455380
  F      7.188900   10.807000    4.333400
  F      9.033540   11.870530    4.502830
  F      7.333460   12.449740    5.690650
  O      8.395070   15.187070    3.908960
  C      9.068450   14.808740    5.095200
  C      6.940640   16.018820    1.395090
  C      7.647110   17.120320    1.779390
  C      7.648270   18.358670    1.106540
  C      8.405220   19.458360    1.470220
  C      8.169660   20.516800    0.556080
  C      7.193530   19.982870   -0.397160
  C      6.880180   18.714970   -0.089050
  F      6.704380   20.687830   -1.427440
  C      8.740990   21.773280    0.534920
  C      8.524920   22.829160   -0.387770
  C      9.334710   23.897140   -0.054100
  C     10.104960   23.527480    1.136770
  C      9.743760   22.282210    1.476450
  F     10.215310   21.576080    2.513940
  C      9.483640   25.155600   -0.686910
  C      8.755890   25.554880   -1.765110
  C      8.835610   26.771660   -2.485760
  S      7.864990   26.876700   -3.932610
  C      8.448470   28.466680   -4.285820
  C      9.349850   28.886920   -3.322630
  C      9.556970   27.946840   -2.299600
  C     10.455810   28.212170   -1.129940
  C     10.860280   29.687230   -1.025710
  C      9.756060   30.486100   -0.341370
  F      8.527340   30.278560   -0.829770
  F      9.688300   30.181040    0.967820
  F      9.970840   31.810800   -0.406010
  C     11.220590   30.256910   -2.398090
  C     10.029660   30.221980   -3.351950
  C      8.000670   29.193550   -5.438870
  C      7.117580   28.736000   -6.325020
  H     -0.917510   -0.319730   -3.419890
  H     -3.719680    0.691330   -4.320170
  H     -2.596400    0.129580   -5.555660
  H     -4.453390    1.741170   -6.326930
  H     -4.310140    3.230020   -4.362190
  H     -4.131570    4.131060   -5.871300
  H     -2.514690    4.790520   -4.027320
  H     -1.755480    4.377060   -5.565970
  H      0.973960    4.211300   -2.017570
  H     -0.537000    5.770570   -4.172650
  H      1.956510    6.064000   -1.102820
  H      0.083420    8.278240   -4.330170
  H      3.174060   10.872910   -1.313880
  H      4.961470    8.639420    1.951820
  H      4.782920   12.250790    0.249080
  H      5.917820   10.596640    2.565340
  H      9.597490   15.706040    5.412640
  H      9.792840   14.013280    4.912920
  H      8.369660   14.510540    5.878540
  H      6.315280   16.048180    0.514560
  H      8.270090   17.054760    2.658730
  H      9.072920   19.502930    2.307840
  H      6.195380   18.076700   -0.610900
  H      7.844350   22.779200   -1.213760
  H     10.816370   24.160560    1.630940
  H     10.238580   25.798960   -0.263360
  H      8.024810   24.859280   -2.155800
  H     11.364760   27.611200   -1.230680
  H      9.953920   27.911150   -0.206590
  H     11.724310   29.777970   -0.357490
  H     12.032070   29.649860   -2.804130
  H     11.581450   31.281490   -2.295060
  H     10.377430   30.440730   -4.363700
  H      9.308440   30.999060   -3.081740
  H      8.424790   30.181220   -5.559130
  H      6.674880   27.758810   -6.223660
  H      6.810910   29.324010   -7.171300

 Total Charge           Charge          ....    0
 Multiplicity           Mult            ....    1
 Number of Electrons    NEL             ....  526
 Basis Dimension        Dim             .... 1187

ORBITAL ENERGIES
----------------

  NO   OCC          E(Eh)            E(eV)
   0   2.0000     -88.952118     -2420.5102
   1   2.0000     -88.945079     -2420.3186
   2   2.0000     -24.809870      -675.1109
   3   2.0000     -24.801760      -674.8902
   4   2.0000     -24.801454      -674.8819
   5   2.0000     -24.798831      -674.8105
   6   2.0000     -24.796184      -674.7385
   7   2.0000     -24.796184      -674.7385
   8   2.0000     -24.794023      -674.6797
   9   2.0000     -24.792538      -674.6392
  10   2.0000     -24.790290      -674.5781
  11   2.0000     -24.783068      -674.3816
  12   2.0000     -24.782239      -674.3590
  13   2.0000     -24.777704      -674.2356
  14   2.0000     -24.776898      -674.2137
  15   2.0000     -19.300545      -525.1945
  16   2.0000     -19.265604      -524.2437
  17   2.0000     -10.528977      -286.5080
  18   2.0000     -10.507469      -285.9228
  19   2.0000     -10.505101      -285.8583
  20   2.0000     -10.354758      -281.7673
  21   2.0000     -10.353785      -281.7408
  22   2.0000     -10.348193      -281.5887
  23   2.0000     -10.347613      -281.5729
  24   2.0000     -10.342937      -281.4456
  25   2.0000     -10.340847      -281.3888
  26   2.0000     -10.332377      -281.1583
  27   2.0000     -10.326614      -281.0014
  28   2.0000     -10.302599      -280.3480
  29   2.0000     -10.300480      -280.2903
  30   2.0000     -10.298209      -280.2285
  31   2.0000     -10.297449      -280.2078
  32   2.0000     -10.296737      -280.1885
  33   2.0000     -10.295065      -280.1430
  34   2.0000     -10.294722      -280.1336
  35   2.0000     -10.291901      -280.0569
  36   2.0000     -10.290567      -280.0206
  37   2.0000     -10.288939      -279.9763
  38   2.0000     -10.288903      -279.9753
  39   2.0000     -10.288331      -279.9597
  40   2.0000     -10.286742      -279.9165
  41   2.0000     -10.285408      -279.8802
  42   2.0000     -10.285285      -279.8768
  43   2.0000     -10.283585      -279.8306
  44   2.0000     -10.283249      -279.8214
  45   2.0000     -10.282704      -279.8066
  46   2.0000     -10.282452      -279.7997
  47   2.0000     -10.281714      -279.7797
  48   2.0000     -10.281254      -279.7671
  49   2.0000     -10.279374      -279.7160
  50   2.0000     -10.279222      -279.7118
  51   2.0000     -10.278104      -279.6814
  52   2.0000     -10.277726      -279.6711
  53   2.0000     -10.277624      -279.6684
  54   2.0000     -10.277480      -279.6644
  55   2.0000     -10.275292      -279.6049
  56   2.0000     -10.275146      -279.6009
  57   2.0000     -10.274916      -279.5947
  58   2.0000     -10.274546      -279.5846
  59   2.0000     -10.273644      -279.5601
  60   2.0000     -10.271622      -279.5050
  61   2.0000     -10.269768      -279.4546
  62   2.0000     -10.265948      -279.3506
  63   2.0000     -10.265824      -279.3473
  64   2.0000     -10.264048      -279.2989
  65   2.0000     -10.260820      -279.2111
  66   2.0000     -10.259628      -279.1787
  67   2.0000     -10.258744      -279.1546
  68   2.0000     -10.251351      -278.9534
  69   2.0000     -10.248608      -278.8788
  70   2.0000     -10.246201      -278.8133
  71   2.0000      -8.048124      -219.0006
  72   2.0000      -8.040971      -218.8059
  73   2.0000      -6.017302      -163.7391
  74   2.0000      -6.013137      -163.6258
  75   2.0000      -6.010479      -163.5535
  76   2.0000      -6.010074      -163.5424
  77   2.0000      -6.006225      -163.4377
  78   2.0000      -6.003123      -163.3533
  79   2.0000      -1.395441       -37.9719
  80   2.0000      -1.386206       -37.7206
  81   2.0000      -1.383785       -37.6547
  82   2.0000      -1.298640       -35.3378
  83   2.0000      -1.294846       -35.2346
  84   2.0000      -1.294001       -35.2116
  85   2.0000      -1.291928       -35.1551
  86   2.0000      -1.289684       -35.0941
  87   2.0000      -1.289357       -35.0852
  88   2.0000      -1.288547       -35.0631
  89   2.0000      -1.287244       -35.0277
  90   2.0000      -1.285481       -34.9797
  91   2.0000      -1.283147       -34.9162
  92   2.0000      -1.222965       -33.2786
  93   2.0000      -1.167452       -31.7680
  94   2.0000      -0.988743       -26.9051
  95   2.0000      -0.986920       -26.8555
  96   2.0000      -0.980536       -26.6817
  97   2.0000      -0.973606       -26.4932
  98   2.0000      -0.962511       -26.1913
  99   2.0000      -0.955601       -26.0032
 100   2.0000      -0.937161       -25.5014
 101   2.0000      -0.935239       -25.4491
 102   2.0000      -0.928425       -25.2637
 103   2.0000      -0.919168       -25.0118
 104   2.0000      -0.900939       -24.5158
 105   2.0000      -0.895888       -24.3784
 106   2.0000      -0.887515       -24.1505
 107   2.0000      -0.868545       -23.6343
 108   2.0000      -0.863568       -23.4989
 109   2.0000      -0.857659       -23.3381
 110   2.0000      -0.853469       -23.2241
 111   2.0000      -0.844492       -22.9798
 112   2.0000      -0.835519       -22.7356
 113   2.0000      -0.833855       -22.6903
 114   2.0000      -0.829056       -22.5597
 115   2.0000      -0.816555       -22.2196
 116   2.0000      -0.807299       -21.9677
 117   2.0000      -0.800733       -21.7891
 118   2.0000      -0.798275       -21.7222
 119   2.0000      -0.792950       -21.5773
 120   2.0000      -0.785877       -21.3848
 121   2.0000      -0.780623       -21.2418
 122   2.0000      -0.777275       -21.1507
 123   2.0000      -0.772357       -21.0169
 124   2.0000      -0.760617       -20.6974
 125   2.0000      -0.750913       -20.4334
 126   2.0000      -0.741940       -20.1892
 127   2.0000      -0.728573       -19.8255
 128   2.0000      -0.725481       -19.7413
 129   2.0000      -0.723588       -19.6898
 130   2.0000      -0.718961       -19.5639
 131   2.0000      -0.709831       -19.3155
 132   2.0000      -0.706627       -19.2283
 133   2.0000      -0.699081       -19.0230
 134   2.0000      -0.693691       -18.8763
 135   2.0000      -0.689155       -18.7529
 136   2.0000      -0.680965       -18.5300
 137   2.0000      -0.677252       -18.4290
 138   2.0000      -0.671665       -18.2769
 139   2.0000      -0.670521       -18.2458
 140   2.0000      -0.668352       -18.1868
 141   2.0000      -0.667669       -18.1682
 142   2.0000      -0.665367       -18.1056
 143   2.0000      -0.665047       -18.0969
 144   2.0000      -0.661336       -17.9959
 145   2.0000      -0.655528       -17.8378
 146   2.0000      -0.654234       -17.8026
 147   2.0000      -0.647143       -17.6096
 148   2.0000      -0.646147       -17.5826
 149   2.0000      -0.638491       -17.3742
 150   2.0000      -0.632999       -17.2248
 151   2.0000      -0.631322       -17.1791
 152   2.0000      -0.624991       -17.0069
 153   2.0000      -0.622802       -16.9473
 154   2.0000      -0.618661       -16.8346
 155   2.0000      -0.612442       -16.6654
 156   2.0000      -0.610452       -16.6113
 157   2.0000      -0.608324       -16.5533
 158   2.0000      -0.597085       -16.2475
 159   2.0000      -0.590354       -16.0643
 160   2.0000      -0.586075       -15.9479
 161   2.0000      -0.582699       -15.8560
 162   2.0000      -0.581594       -15.8260
 163   2.0000      -0.580474       -15.7955
 164   2.0000      -0.578951       -15.7541
 165   2.0000      -0.570635       -15.5278
 166   2.0000      -0.559932       -15.2365
 167   2.0000      -0.556520       -15.1437
 168   2.0000      -0.554392       -15.0858
 169   2.0000      -0.553203       -15.0534
 170   2.0000      -0.549784       -14.9604
 171   2.0000      -0.547784       -14.9060
 172   2.0000      -0.547679       -14.9031
 173   2.0000      -0.547421       -14.8961
 174   2.0000      -0.547250       -14.8914
 175   2.0000      -0.546920       -14.8825
 176   2.0000      -0.546213       -14.8632
 177   2.0000      -0.545270       -14.8375
 178   2.0000      -0.545134       -14.8339
 179   2.0000      -0.543690       -14.7946
 180   2.0000      -0.543093       -14.7783
 181   2.0000      -0.540864       -14.7177
 182   2.0000      -0.538749       -14.6601
 183   2.0000      -0.537870       -14.6362
 184   2.0000      -0.535672       -14.5764
 185   2.0000      -0.530123       -14.4254
 186   2.0000      -0.529770       -14.4158
 187   2.0000      -0.528819       -14.3899
 188   2.0000      -0.526716       -14.3327
 189   2.0000      -0.524504       -14.2725
 190   2.0000      -0.521929       -14.2024
 191   2.0000      -0.521528       -14.1915
 192   2.0000      -0.515937       -14.0394
 193   2.0000      -0.514384       -13.9971
 194   2.0000      -0.513829       -13.9820
 195   2.0000      -0.509449       -13.8628
 196   2.0000      -0.508311       -13.8319
 197   2.0000      -0.506519       -13.7831
 198   2.0000      -0.501810       -13.6549
 199   2.0000      -0.499064       -13.5802
 200   2.0000      -0.496909       -13.5216
 201   2.0000      -0.492276       -13.3955
 202   2.0000      -0.490938       -13.3591
 203   2.0000      -0.490712       -13.3529
 204   2.0000      -0.489886       -13.3305
 205   2.0000      -0.487688       -13.2707
 206   2.0000      -0.487089       -13.2544
 207   2.0000      -0.486124       -13.2281
 208   2.0000      -0.483484       -13.1563
 209   2.0000      -0.480832       -13.0841
 210   2.0000      -0.480031       -13.0623
 211   2.0000      -0.478812       -13.0291
 212   2.0000      -0.478135       -13.0107
 213   2.0000      -0.472822       -12.8661
 214   2.0000      -0.471358       -12.8263
 215   2.0000      -0.469113       -12.7652
 216   2.0000      -0.469014       -12.7625
 217   2.0000      -0.467127       -12.7112
 218   2.0000      -0.466753       -12.7010
 219   2.0000      -0.461908       -12.5691
 220   2.0000      -0.460606       -12.5337
 221   2.0000      -0.460336       -12.5264
 222   2.0000      -0.454558       -12.3691
 223   2.0000      -0.450989       -12.2720
 224   2.0000      -0.450389       -12.2557
 225   2.0000      -0.449003       -12.2180
 226   2.0000      -0.445393       -12.1198
 227   2.0000      -0.442915       -12.0523
 228   2.0000      -0.439831       -11.9684
 229   2.0000      -0.438722       -11.9382
 230   2.0000      -0.436473       -11.8770
 231   2.0000      -0.435988       -11.8638
 232   2.0000      -0.433918       -11.8075
 233   2.0000      -0.432290       -11.7632
 234   2.0000      -0.431476       -11.7411
 235   2.0000      -0.423016       -11.5109
 236   2.0000      -0.421348       -11.4655
 237   2.0000      -0.415472       -11.3056
 238   2.0000      -0.410045       -11.1579
 239   2.0000      -0.407861       -11.0985
 240   2.0000      -0.406640       -11.0652
 241   2.0000      -0.406371       -11.0579
 242   2.0000      -0.404434       -11.0052
 243   2.0000      -0.404163       -10.9978
 244   2.0000      -0.401514       -10.9257
 245   2.0000      -0.399007       -10.8575
 246   2.0000      -0.394972       -10.7477
 247   2.0000      -0.392967       -10.6932
 248   2.0000      -0.382128       -10.3982
 249   2.0000      -0.369052       -10.0424
 250   2.0000      -0.348484        -9.4827
 251   2.0000      -0.344911        -9.3855
 252   2.0000      -0.317919        -8.6510
 253   2.0000      -0.308546        -8.3960
 254   2.0000      -0.306913        -8.3515
 255   2.0000      -0.305153        -8.3036
 256   2.0000      -0.295207        -8.0330
 257   2.0000      -0.291247        -7.9252
 258   2.0000      -0.281309        -7.6548
 259   2.0000      -0.272550        -7.4165
 260   2.0000      -0.250719        -6.8224
 261   2.0000      -0.237336        -6.4583
 262   2.0000      -0.213789        -5.8175
 263   0.0000      -0.104481        -2.8431
 264   0.0000      -0.087674        -2.3857
 265   0.0000      -0.029037        -0.7901
 266   0.0000      -0.018301        -0.4980
 267   0.0000      -0.005047        -0.1373

MULLIKEN ATOMIC CHARGES
-----------------------
   0 C :   -0.123677
   1 S :    0.123818
   2 C :   -0.154581
   3 C :   -0.025136
   4 C :   -0.075427
   5 C :    0.161955
   6 C :   -0.173399
   7 C :    0.479673
   8 F :   -0.157203
   9 F :   -0.171351
  10 F :   -0.167505
  11 C :    0.064244
  12 C :    0.076145
  13 C :    0.070520
  14 C :   -0.025959
  15 C :    0.109150
  16 C :   -0.101504
  17 C :    0.014672
  18 C :    0.257089
  19 C :   -0.083283
  20 F :   -0.179731
  21 C :    0.005320
  22 C :   -0.080768
  23 C :    0.108913
  24 C :   -0.081192
  25 C :    0.255270
  26 F :   -0.179431
  27 C :    0.013470
  28 C :   -0.061320
  29 C :    0.138435
  30 O :   -0.189262
  31 C :    0.146488
  32 C :    0.133546
  33 C :   -0.156473
  34 C :    0.509683
  35 F :   -0.144685
  36 F :   -0.165475
  37 F :   -0.165816
  38 O :   -0.298551
  39 C :    0.182678
  40 C :   -0.029295
  41 C :   -0.019535
  42 C :    0.127148
  43 C :   -0.100635
  44 C :    0.015794
  45 C :    0.256120
  46 C :   -0.086853
  47 F :   -0.179791
  48 C :    0.011170
  49 C :   -0.104160
  50 C :    0.114194
  51 C :   -0.092103
  52 C :    0.257071
  53 F :   -0.181848
  54 C :   -0.030040
  55 C :    0.069722
  56 C :   -0.122927
  57 S :    0.111997
  58 C :   -0.117478
  59 C :   -0.055089
  60 C :   -0.079865
  61 C :    0.120267
  62 C :   -0.150132
  63 C :    0.476880
  64 F :   -0.157438
  65 F :   -0.171174
  66 F :   -0.167210
  67 C :    0.058852
  68 C :    0.093863
  69 C :   -0.004608
  70 C :   -0.020262
  71 H :    0.014079
  72 H :    0.025534
  73 H :    0.024228
  74 H :    0.030423
  75 H :    0.015542
  76 H :    0.019475
  77 H :    0.025579
  78 H :    0.045011
  79 H :   -0.011734
  80 H :   -0.031470
  81 H :   -0.019087
  82 H :   -0.020459
  83 H :   -0.016780
  84 H :   -0.018303
  85 H :   -0.004568
  86 H :    0.005623
  87 H :    0.038335
  88 H :    0.037352
  89 H :    0.036148
  90 H :   -0.011453
  91 H :   -0.004985
  92 H :   -0.021359
  93 H :   -0.021610
  94 H :   -0.020616
  95 H :   -0.025096
  96 H :   -0.037193
  97 H :   -0.015184
  98 H :    0.034397
  99 H :    0.043443
 100 H :    0.029357
 101 H :    0.014664
 102 H :    0.018069
 103 H :    0.018181
 104 H :    0.033751
 105 H :   -0.008508
 106 H :    0.023738
 107 H :    0.023502
Sum of atomic charges:   -0.0000000

LOEWDIN ATOMIC CHARGES
----------------------
   0 C :   -0.187734
   1 S :    0.443603
   2 C :   -0.178451
   3 C :   -0.048498
   4 C :   -0.070071
   5 C :   -0.015385
   6 C :   -0.067042
   7 C :    0.162767
   8 F :   -0.051546
   9 F :   -0.068884
  10 F :   -0.065461
  11 C :   -0.019153
  12 C :   -0.033533
  13 C :   -0.004769
  14 C :   -0.039431
  15 C :    0.005434
  16 C :   -0.073864
  17 C :    0.006583
  18 C :    0.080221
  19 C :   -0.059691
  20 F :   -0.054925
  21 C :   -0.009998
  22 C :   -0.047197
  23 C :   -0.010749
  24 C :   -0.061203
  25 C :    0.081557
  26 F :   -0.055777
  27 C :    0.007357
  28 C :   -0.049424
  29 C :    0.059835
  30 O :    0.031060
  31 C :    0.002191
  32 C :    0.037246
  33 C :   -0.161719
  34 C :    0.175479
  35 F :   -0.044362
  36 F :   -0.065729
  37 F :   -0.065764
  38 O :   -0.077875
  39 C :    0.076231
  40 C :   -0.029654
  41 C :   -0.015257
  42 C :   -0.002555
  43 C :   -0.062417
  44 C :   -0.004930
  45 C :    0.082490
  46 C :   -0.062903
  47 F :   -0.056608
  48 C :   -0.003228
  49 C :   -0.070831
  50 C :   -0.002155
  51 C :   -0.064441
  52 C :    0.078884
  53 F :   -0.057099
  54 C :   -0.037889
  55 C :   -0.013288
  56 C :   -0.170451
  57 S :    0.440577
  58 C :   -0.174450
  59 C :   -0.057922
  60 C :   -0.054218
  61 C :   -0.020140
  62 C :   -0.065130
  63 C :    0.162934
  64 F :   -0.051646
  65 F :   -0.068790
  66 F :   -0.065021
  67 C :   -0.019323
  68 C :   -0.031353
  69 C :   -0.040317
  70 C :   -0.044813
  71 H :    0.022340
  72 H :    0.039363
  73 H :    0.036152
  74 H :    0.043955
  75 H :    0.030528
  76 H :    0.029870
  77 H :    0.036472
  78 H :    0.032225
  79 H :    0.031115
  80 H :    0.027260
  81 H :    0.018627
  82 H :    0.028581
  83 H :    0.023372
  84 H :    0.028725
  85 H :    0.034799
  86 H :    0.031740
  87 H :    0.030955
  88 H :    0.017870
  89 H :    0.017894
  90 H :    0.035746
  91 H :    0.032248
  92 H :    0.021031
  93 H :    0.026882
  94 H :    0.018088
  95 H :    0.026535
  96 H :    0.024654
  97 H :    0.030942
  98 H :    0.038790
  99 H :    0.037020
 100 H :    0.044060
 101 H :    0.030175
 102 H :    0.029195
 103 H :    0.033639
 104 H :    0.032751
 105 H :    0.032444
 106 H :    0.018170
 107 H :    0.026401

  Mayer bond orders larger than 0.100000
B(  0-C ,  1-S ) :   1.1693 B(  0-C ,  4-C ) :   1.5511 B(  0-C , 71-H ) :   0.9718
B(  1-S ,  2-C ) :   1.1329 B(  2-C ,  3-C ) :   1.4932 B(  2-C , 13-C ) :   1.1375
B(  3-C ,  4-C ) :   1.3133 B(  3-C , 12-C ) :   1.0610 B(  4-C ,  5-C ) :   1.0134
B(  5-C ,  6-C ) :   1.0433 B(  5-C , 72-H ) :   0.9143 B(  5-C , 73-H ) :   0.9231
B(  6-C ,  7-C ) :   0.9824 B(  6-C , 11-C ) :   1.0395 B(  6-C , 74-H ) :   0.9038
B(  7-C ,  8-F ) :   1.1387 B(  7-C ,  9-F ) :   1.1405 B(  7-C , 10-F ) :   1.1434
B( 11-C , 12-C ) :   1.0784 B( 11-C , 75-H ) :   0.9409 B( 11-C , 76-H ) :   0.9324
B( 12-C , 77-H ) :   0.9087 B( 12-C , 78-H ) :   0.8980 B( 13-C , 14-C ) :   1.6430
B( 13-C , 79-H ) :   0.9524 B( 14-C , 15-C ) :   1.1293 B( 14-C , 80-H ) :   0.9723
B( 15-C , 16-C ) :   1.5278 B( 15-C , 19-C ) :   1.0074 B( 16-C , 17-C ) :   1.1540
B( 16-C , 81-H ) :   1.0078 B( 17-C , 18-C ) :   1.0108 B( 17-C , 21-C ) :   1.4384
B( 18-C , 19-C ) :   1.6601 B( 18-C , 20-F ) :   1.1206 B( 19-C , 82-H ) :   1.0208
B( 21-C , 22-C ) :   1.1297 B( 21-C , 25-C ) :   1.0283 B( 22-C , 23-C ) :   1.4920
B( 22-C , 83-H ) :   1.0229 B( 23-C , 24-C ) :   1.0238 B( 23-C , 27-C ) :   1.1319
B( 24-C , 25-C ) :   1.6622 B( 24-C , 84-H ) :   1.0123 B( 25-C , 26-F ) :   1.1190
B( 27-C , 28-C ) :   1.5772 B( 27-C , 85-H ) :   0.9906 B( 28-C , 29-C ) :   1.1879
B( 28-C , 86-H ) :   0.9586 B( 29-C , 30-O ) :   1.1863 B( 29-C , 31-C ) :   0.1091
B( 29-C , 33-C ) :   1.3600 B( 30-O , 31-C ) :   1.1070 B( 31-C , 32-C ) :   1.3741
B( 31-C , 40-C ) :   1.1729 B( 32-C , 33-C ) :   1.2551 B( 32-C , 38-O ) :   1.2061
B( 33-C , 34-C ) :   0.9499 B( 34-C , 35-F ) :   1.1519 B( 34-C , 36-F ) :   1.1523
B( 34-C , 37-F ) :   1.1515 B( 38-O , 39-C ) :   0.9188 B( 39-C , 87-H ) :   0.9764
B( 39-C , 88-H ) :   0.9648 B( 39-C , 89-H ) :   0.9653 B( 40-C , 41-C ) :   1.5635
B( 40-C , 90-H ) :   0.9593 B( 41-C , 42-C ) :   1.1562 B( 41-C , 91-H ) :   0.9794
B( 42-C , 43-C ) :   1.4788 B( 42-C , 46-C ) :   1.0146 B( 43-C , 44-C ) :   1.1397
B( 43-C , 92-H ) :   1.0251 B( 44-C , 45-C ) :   1.0203 B( 44-C , 48-C ) :   1.4266
B( 45-C , 46-C ) :   1.6664 B( 45-C , 47-F ) :   1.1192 B( 46-C , 93-H ) :   1.0136
B( 48-C , 49-C ) :   1.1573 B( 48-C , 52-C ) :   1.0161 B( 49-C , 50-C ) :   1.5198
B( 49-C , 94-H ) :   1.0092 B( 50-C , 51-C ) :   1.0116 B( 50-C , 54-C ) :   1.1335
B( 51-C , 52-C ) :   1.6533 B( 51-C , 95-H ) :   1.0206 B( 52-C , 53-F ) :   1.1177
B( 54-C , 55-C ) :   1.6266 B( 54-C , 96-H ) :   0.9691 B( 55-C , 56-C ) :   1.1536
B( 55-C , 97-H ) :   0.9490 B( 56-C , 57-S ) :   1.1194 B( 56-C , 60-C ) :   1.4831
B( 57-S , 58-C ) :   1.1186 B( 58-C , 59-C ) :   1.4999 B( 58-C , 69-C ) :   1.1266
B( 59-C , 60-C ) :   1.3240 B( 59-C , 68-C ) :   1.0454 B( 60-C , 61-C ) :   1.0539
B( 61-C , 62-C ) :   1.0240 B( 61-C , 98-H ) :   0.8997 B( 61-C , 99-H ) :   0.9072
B( 62-C , 63-C ) :   0.9835 B( 62-C , 67-C ) :   1.0434 B( 62-C ,100-H ) :   0.9010
B( 63-C , 64-F ) :   1.1391 B( 63-C , 65-F ) :   1.1372 B( 63-C , 66-F ) :   1.1442
B( 67-C , 68-C ) :   1.0885 B( 67-C ,101-H ) :   0.9427 B( 67-C ,102-H ) :   0.9321
B( 68-C ,103-H ) :   0.9119 B( 68-C ,104-H ) :   0.9059 B( 69-C , 70-C ) :   1.9159
B( 69-C ,105-H ) :   0.9581 B( 70-C ,106-H ) :   0.9562 B( 70-C ,107-H ) :   0.9485

-----------------------------------------------------------------------------
         ABSORPTION SPECTRUM VIA TRANSITION ELECTRIC DIPOLE MOMENTS
-----------------------------------------------------------------------------
State   Energy  Wavelength   fosc         T2         TX        TY        TZ
        (cm-1)    (nm)                  (au**2)     (au)      (au)      (au)
-----------------------------------------------------------------------------
   0   10874.7    919.6   1.820423436  55.10997  -2.89270  -6.82696  -0.36723
   1   14029.5    712.8   0.342491892   8.03683   1.31513  -0.36802   2.48431
   2   15717.9    636.2   0.005745454   0.12034   0.13438   0.30836   0.08482
   3   16186.2    617.8   0.008347073   0.16977  -0.06891   0.28882  -0.28567
   4   19619.6    509.7   0.014308494   0.24009   0.14377   0.46842  -0.00121
   5   21584.2    463.3   0.564422094   8.60881   0.81204   2.79746  -0.35159
   6   23540.3    424.8   0.280598435   3.92417   0.96295  -0.09396   1.72860
   7   23998.2    416.7   0.273652813   3.75403   0.50436   1.83460  -0.36594
   8   24947.3    400.8   0.267137677   3.52523  -1.00965  -1.21200  -1.01827
   9   26538.8    376.8   0.028795854   0.35721  -0.18546  -0.56777   0.02135
  10   27827.4    359.4   0.087456263   1.03465  -0.56592  -0.70312  -0.46906
  11   28886.3    346.2   0.463579910   5.28334  -0.50047   1.47304  -1.69204
  12   29628.0    337.5   0.039957819   0.44399  -0.27575  -0.60580   0.03094
  13   30700.4    325.7   0.108640463   1.16499   0.54883   0.87355   0.31732
  14   31309.1    319.4   0.023761503   0.24985  -0.23391   0.38414  -0.21811
  15   31756.1    314.9   0.014460031   0.14991   0.12666  -0.23682   0.27889
  16   32518.6    307.5   0.182652016   1.84913   0.65297   1.13974   0.35178
  17   33094.3    302.2   0.108922444   1.08353   0.57202   0.71379   0.49681
  18   33445.6    299.0   0.162218030   1.59675   0.60969   1.06056   0.31659
  19   34301.3    291.5   0.041458001   0.39790   0.37665  -0.16282   0.47909
  20   34476.6    290.1   0.138659592   1.32404   0.02627   1.10975  -0.30300
  21   35424.8    282.3   0.185852989   1.72718   0.58410  -0.36894   1.11798
  22   36195.1    276.3   0.029977073   0.27266  -0.32408  -0.08975  -0.39946
  23   36550.9    273.6   0.165725612   1.49268  -0.51938   0.51211  -0.98014
  24   37267.3    268.3   0.011665088   0.10305   0.21266   0.18894   0.14874
  25   37945.0    263.5   0.012821886   0.11124  -0.09029  -0.32103   0.00524
  26   38471.4    259.9   0.106286412   0.90953  -0.49377  -0.66200  -0.47694
  27   38835.4    257.5   0.000736989   0.00625  -0.06302  -0.04399  -0.01847
  28   39049.8    256.1   0.038074280   0.32099  -0.25440   0.28787  -0.41641
  29   39486.8    253.2   0.026902216   0.22429   0.25930  -0.08059   0.38802
  30   40025.2    249.8   0.028901595   0.23772  -0.11270   0.28086  -0.38227

FINAL SINGLE POINT ENERGY     -4320.270517161447

DIPOLE MOMENT
-------------
                                X             Y             Z
Electronic contribution:      1.34798     -32.83114      23.10943
Nuclear contribution   :     -1.72775      32.09030     -23.42856
                        -----------------------------------------
Total Dipole Moment    :     -0.37977      -0.74085      -0.31914
                        -----------------------------------------
Magnitude (a.u.)       :      0.89159
Magnitude (Debye)      :      2.26623

Rotational constants in cm-1:     0.001187     0.000142     0.000127
Rotational constants in MHz :    35.590800     4.247345     3.820298

                             ****ORCA TERMINATED NORMALLY****
TOTAL RUN TIME: 0 days 0 hours 9 minutes 47 seconds 804 msec
