                         Program Version 4.2.0 -  RELEASE  -
|  1> # ORCA input file
|  2> # SCF done       -214.921139146443          0.000720802827
|  3> ! CAM-B3LYP def2-SVP def2/J RIJCOSX Grid4 TightSCF
|  4> %maxcore 5000
|  5> %tddft
|  6>     Mode sTDDFT
|  7>     Ethresh 5.0
|  8>     maxcore 5000
|  9> end
| 10>
| 11> %pal
| 12>   nprocs 6
| 13>   end
| 14> * xyz 0 1
| 15>    C       -5.88344         3.82511         2.30515
| 16>    C       -5.03524         4.24668         3.31840
| 17>    C       -4.07972         3.39502         3.85424
| 18>    C       -3.93926         2.09705         3.38624
| 19>    C       -4.78075         1.66496         2.37470
| 20>    C       -5.76114         2.52771         1.83264
| 21>    C       -6.50790         1.81093         0.80615
| 22>    C       -7.46775         2.34391        -0.01135
| 23>    C       -7.87387         3.69558         0.02173
| 24>    N       -8.25107         4.77900        -0.00633
| 25>    C       -8.16241         1.64572        -1.02237
| 26>    N       -8.76484         1.14843        -1.86349
| 27>    C       -6.04509         0.42845         0.84008
| 28>    C       -4.84655         0.39706         1.66599
| 29>    C       -3.84464        -0.53402         1.58390
| 30>    C       -3.79894        -1.56343         0.61838
| 31>    N       -3.65954        -2.35756        -0.19861
| 32>    C       -2.67866        -0.50065         2.37676
| 33>    N       -1.72415        -0.53062         3.01279
| 34>    C       -6.68446        -0.64182         0.27398
| 35>    C       -6.52700        -2.00267         0.62213
| 36>    C       -6.83657        -3.07234        -0.19295
| 37>    C       -6.53200        -4.28332         0.49299
| 38>    C       -6.08980        -3.86822         1.82373
| 39>    C       -6.06853        -2.52864         1.91340
| 40>    F       -5.77585        -4.72691         2.79742
| 41>    C       -6.58669        -5.57202         0.00976
| 42>    C       -6.21514        -6.77440         0.66833
| 43>    C       -6.36613        -7.83341        -0.20849
| 44>    C       -6.86978        -7.30432        -1.48233
| 45>    C       -7.00274        -5.97895        -1.34047
| 46>    F       -7.44644        -5.12071        -2.26080
| 47>    C       -6.08726        -9.20066        -0.00758
| 48>    C       -5.70327        -9.75183         1.18248
| 49>    C       -5.39965       -11.12505         1.30977
| 50>    O       -5.39466       -11.89068         0.20492
| 51>    C       -5.06029       -13.15658         0.53646
| 52>    C       -4.84602       -13.22774         1.93397
| 53>    C       -5.06269       -11.92117         2.42283
| 54>    C       -4.98101       -11.44424         3.83276
| 55>    F       -5.28405       -10.15202         3.98068
| 56>    F       -5.82096       -12.10841         4.65310
| 57>    F       -3.75059       -11.59235         4.36404
| 58>    O       -4.50783       -14.38956         2.49014
| 59>    C       -4.20932       -14.51227         3.87092
| 60>    C       -4.94697       -14.11343        -0.48607
| 61>    C       -4.63322       -15.43174        -0.30718
| 62>    C       -4.46207       -16.35622        -1.35397
| 63>    C       -4.14576       -17.69603        -1.19866
| 64>    C       -3.99389       -18.29316        -2.47512
| 65>    C       -4.25682       -17.21336        -3.43609
| 66>    C       -4.54158       -16.07306        -2.79239
| 67>    F       -4.22200       -17.38501        -4.76163
| 68>    C       -3.65170       -19.59338        -2.78196
| 69>    C       -3.41301       -20.16210        -4.06279
| 70>    C       -3.06437       -21.49155        -3.91042
| 71>    C       -3.09503       -21.81241        -2.48137
| 72>    C       -3.43071       -20.68706        -1.83242
| 73>    F       -3.57039       -20.54516        -0.50985
| 74>    C       -2.67890       -22.35376        -4.95682
| 75>    C       -2.39736       -23.68149        -4.81938
| 76>    C       -2.00107       -24.54021        -5.87175
| 77>    C       -1.31567       -24.21405        -7.01163
| 78>    C       -1.30252       -25.01607        -8.23056
| 79>    C       -1.68827       -26.32232        -8.37214
| 80>    C       -2.13794       -27.16732        -7.33519
| 81>    N       -2.50920       -27.91853        -6.55004
| 82>    C       -1.64973       -27.03021        -9.59297
| 83>    N       -1.64433       -27.66693       -10.54782
| 84>    C       -0.80527       -24.15483        -9.29593
| 85>    C       -0.38147       -22.92959        -8.73329
| 86>    C        0.11458       -21.91641        -9.53712
| 87>    C        0.19301       -22.13472       -10.90423
| 88>    C       -0.21025       -23.34168       -11.45773
| 89>    C       -0.71325       -24.36138       -10.66363
| 90>    C       -0.54725       -23.00478        -7.28981
| 91>    C        0.12871       -22.23950        -6.37750
| 92>    C        0.94086       -21.13956        -6.72403
| 93>    N        1.59976       -20.22647        -6.94576
| 94>    C        0.17493       -22.49779        -4.99135
| 95>    N        0.30516       -22.68001        -3.86578
| 96>    H       -6.62116         4.50041         1.90443
| 97>    H       -5.12453         5.25380         3.69575
| 98>    H       -3.43566         3.74459         4.64645
| 99>    H       -3.19705         1.44208         3.81310
|100>    H       -7.43361        -0.44650        -0.48188
|101>    H       -7.17800        -3.00361        -1.20718
|102>    H       -5.83352        -1.94573         2.78276
|103>    H       -5.85388        -6.82899         1.67571
|104>    H       -7.08896        -7.89639        -2.34921
|105>    H       -6.19238        -9.85124        -0.86554
|106>    H       -5.62895        -9.13183         2.05863
|107>    H       -3.93402       -15.55713         4.00417
|108>    H       -5.07778       -14.28940         4.49236
|109>    H       -3.36746       -13.88037         4.15765
|110>    H       -5.12242       -13.72675        -1.47965
|111>    H       -4.49042       -15.80273         0.69663
|112>    H       -4.01670       -18.20180        -0.26213
|113>    H       -4.77568       -15.12667        -3.23696
|114>    H       -3.47574       -19.63376        -4.99416
|115>    H       -2.86369       -22.76379        -2.04679
|116>    H       -2.63009       -21.90459        -5.94233
|117>    H       -2.58448       -24.15614        -3.86666
|118>    H       -2.32901       -25.56678        -5.77084
|119>    H        0.42358       -20.97215        -9.11915
|120>    H        0.57260       -21.35298       -11.54409
|121>    H       -0.13659       -23.49126       -12.52397
|122>    H       -1.02737       -25.28871       -11.11316
|123> *
|124>
|125>                          ****END OF INPUT****

CARTESIAN COORDINATES (ANGSTROEM)
---------------------------------
  C     -5.883440    3.825110    2.305150
  C     -5.035240    4.246680    3.318400
  C     -4.079720    3.395020    3.854240
  C     -3.939260    2.097050    3.386240
  C     -4.780750    1.664960    2.374700
  C     -5.761140    2.527710    1.832640
  C     -6.507900    1.810930    0.806150
  C     -7.467750    2.343910   -0.011350
  C     -7.873870    3.695580    0.021730
  N     -8.251070    4.779000   -0.006330
  C     -8.162410    1.645720   -1.022370
  N     -8.764840    1.148430   -1.863490
  C     -6.045090    0.428450    0.840080
  C     -4.846550    0.397060    1.665990
  C     -3.844640   -0.534020    1.583900
  C     -3.798940   -1.563430    0.618380
  N     -3.659540   -2.357560   -0.198610
  C     -2.678660   -0.500650    2.376760
  N     -1.724150   -0.530620    3.012790
  C     -6.684460   -0.641820    0.273980
  C     -6.527000   -2.002670    0.622130
  C     -6.836570   -3.072340   -0.192950
  C     -6.532000   -4.283320    0.492990
  C     -6.089800   -3.868220    1.823730
  C     -6.068530   -2.528640    1.913400
  F     -5.775850   -4.726910    2.797420
  C     -6.586690   -5.572020    0.009760
  C     -6.215140   -6.774400    0.668330
  C     -6.366130   -7.833410   -0.208490
  C     -6.869780   -7.304320   -1.482330
  C     -7.002740   -5.978950   -1.340470
  F     -7.446440   -5.120710   -2.260800
  C     -6.087260   -9.200660   -0.007580
  C     -5.703270   -9.751830    1.182480
  C     -5.399650  -11.125050    1.309770
  O     -5.394660  -11.890680    0.204920
  C     -5.060290  -13.156580    0.536460
  C     -4.846020  -13.227740    1.933970
  C     -5.062690  -11.921170    2.422830
  C     -4.981010  -11.444240    3.832760
  F     -5.284050  -10.152020    3.980680
  F     -5.820960  -12.108410    4.653100
  F     -3.750590  -11.592350    4.364040
  O     -4.507830  -14.389560    2.490140
  C     -4.209320  -14.512270    3.870920
  C     -4.946970  -14.113430   -0.486070
  C     -4.633220  -15.431740   -0.307180
  C     -4.462070  -16.356220   -1.353970
  C     -4.145760  -17.696030   -1.198660
  C     -3.993890  -18.293160   -2.475120
  C     -4.256820  -17.213360   -3.436090
  C     -4.541580  -16.073060   -2.792390
  F     -4.222000  -17.385010   -4.761630
  C     -3.651700  -19.593380   -2.781960
  C     -3.413010  -20.162100   -4.062790
  C     -3.064370  -21.491550   -3.910420
  C     -3.095030  -21.812410   -2.481370
  C     -3.430710  -20.687060   -1.832420
  F     -3.570390  -20.545160   -0.509850
  C     -2.678900  -22.353760   -4.956820
  C     -2.397360  -23.681490   -4.819380
  C     -2.001070  -24.540210   -5.871750
  C     -1.315670  -24.214050   -7.011630
  C     -1.302520  -25.016070   -8.230560
  C     -1.688270  -26.322320   -8.372140
  C     -2.137940  -27.167320   -7.335190
  N     -2.509200  -27.918530   -6.550040
  C     -1.649730  -27.030210   -9.592970
  N     -1.644330  -27.666930  -10.547820
  C     -0.805270  -24.154830   -9.295930
  C     -0.381470  -22.929590   -8.733290
  C      0.114580  -21.916410   -9.537120
  C      0.193010  -22.134720  -10.904230
  C     -0.210250  -23.341680  -11.457730
  C     -0.713250  -24.361380  -10.663630
  C     -0.547250  -23.004780   -7.289810
  C      0.128710  -22.239500   -6.377500
  C      0.940860  -21.139560   -6.724030
  N      1.599760  -20.226470   -6.945760
  C      0.174930  -22.497790   -4.991350
  N      0.305160  -22.680010   -3.865780
  H     -6.621160    4.500410    1.904430
  H     -5.124530    5.253800    3.695750
  H     -3.435660    3.744590    4.646450
  H     -3.197050    1.442080    3.813100
  H     -7.433610   -0.446500   -0.481880
  H     -7.178000   -3.003610   -1.207180
  H     -5.833520   -1.945730    2.782760
  H     -5.853880   -6.828990    1.675710
  H     -7.088960   -7.896390   -2.349210
  H     -6.192380   -9.851240   -0.865540
  H     -5.628950   -9.131830    2.058630
  H     -3.934020  -15.557130    4.004170
  H     -5.077780  -14.289400    4.492360
  H     -3.367460  -13.880370    4.157650
  H     -5.122420  -13.726750   -1.479650
  H     -4.490420  -15.802730    0.696630
  H     -4.016700  -18.201800   -0.262130
  H     -4.775680  -15.126670   -3.236960
  H     -3.475740  -19.633760   -4.994160
  H     -2.863690  -22.763790   -2.046790
  H     -2.630090  -21.904590   -5.942330
  H     -2.584480  -24.156140   -3.866660
  H     -2.329010  -25.566780   -5.770840
  H      0.423580  -20.972150   -9.119150
  H      0.572600  -21.352980  -11.544090
  H     -0.136590  -23.491260  -12.523970
  H     -1.027370  -25.288710  -11.113160

 Total Charge           Charge          ....    0
 Multiplicity           Mult            ....    1
 Number of Electrons    NEL             ....  546
 Basis Dimension        Dim             .... 1269

ORBITAL ENERGIES
----------------

  NO   OCC          E(Eh)            E(eV)
   0   2.0000     -24.827527      -675.5914
   1   2.0000     -24.819709      -675.3786
   2   2.0000     -24.819526      -675.3736
   3   2.0000     -24.804446      -674.9633
   4   2.0000     -24.802805      -674.9186
   5   2.0000     -24.802045      -674.8980
   6   2.0000     -24.793900      -674.6763
   7   2.0000     -19.325368      -525.8700
   8   2.0000     -19.288471      -524.8660
   9   2.0000     -14.427183      -392.5836
  10   2.0000     -14.426201      -392.5569
  11   2.0000     -14.424685      -392.5156
  12   2.0000     -14.422482      -392.4557
  13   2.0000     -14.420680      -392.4067
  14   2.0000     -14.420563      -392.4035
  15   2.0000     -14.419764      -392.3817
  16   2.0000     -14.419509      -392.3748
  17   2.0000     -10.547849      -287.0216
  18   2.0000     -10.379809      -282.4490
  19   2.0000     -10.379286      -282.4347
  20   2.0000     -10.371888      -282.2334
  21   2.0000     -10.369114      -282.1579
  22   2.0000     -10.368939      -282.1532
  23   2.0000     -10.360201      -281.9154
  24   2.0000     -10.358734      -281.8755
  25   2.0000     -10.357259      -281.8353
  26   2.0000     -10.356444      -281.8132
  27   2.0000     -10.353051      -281.7209
  28   2.0000     -10.350517      -281.6519
  29   2.0000     -10.350467      -281.6505
  30   2.0000     -10.350172      -281.6425
  31   2.0000     -10.348519      -281.5975
  32   2.0000     -10.347632      -281.5734
  33   2.0000     -10.344651      -281.4923
  34   2.0000     -10.328925      -281.0643
  35   2.0000     -10.328507      -281.0530
  36   2.0000     -10.327840      -281.0348
  37   2.0000     -10.327159      -281.0163
  38   2.0000     -10.326967      -281.0111
  39   2.0000     -10.326168      -280.9893
  40   2.0000     -10.324572      -280.9459
  41   2.0000     -10.324220      -280.9363
  42   2.0000     -10.323350      -280.9126
  43   2.0000     -10.323198      -280.9085
  44   2.0000     -10.323171      -280.9078
  45   2.0000     -10.322438      -280.8878
  46   2.0000     -10.321155      -280.8529
  47   2.0000     -10.319690      -280.8130
  48   2.0000     -10.318766      -280.7879
  49   2.0000     -10.318434      -280.7789
  50   2.0000     -10.317217      -280.7457
  51   2.0000     -10.316898      -280.7371
  52   2.0000     -10.313727      -280.6508
  53   2.0000     -10.313581      -280.6468
  54   2.0000     -10.313419      -280.6424
  55   2.0000     -10.310838      -280.5722
  56   2.0000     -10.310261      -280.5565
  57   2.0000     -10.309833      -280.5448
  58   2.0000     -10.309627      -280.5392
  59   2.0000     -10.309031      -280.5230
  60   2.0000     -10.306905      -280.4651
  61   2.0000     -10.304910      -280.4109
  62   2.0000     -10.304819      -280.4084
  63   2.0000     -10.304071      -280.3880
  64   2.0000     -10.303870      -280.3825
  65   2.0000     -10.302779      -280.3529
  66   2.0000     -10.301928      -280.3297
  67   2.0000     -10.301548      -280.3194
  68   2.0000     -10.300774      -280.2983
  69   2.0000     -10.299928      -280.2753
  70   2.0000     -10.298469      -280.2356
  71   2.0000     -10.297591      -280.2117
  72   2.0000     -10.296917      -280.1934
  73   2.0000     -10.295683      -280.1598
  74   2.0000     -10.288714      -279.9701
  75   2.0000     -10.288349      -279.9602
  76   2.0000     -10.285965      -279.8953
  77   2.0000     -10.284598      -279.8581
  78   2.0000     -10.280072      -279.7350
  79   2.0000     -10.278443      -279.6907
  80   2.0000     -10.273095      -279.5451
  81   2.0000      -1.413945       -38.4754
  82   2.0000      -1.318091       -35.8671
  83   2.0000      -1.317269       -35.8447
  84   2.0000      -1.316042       -35.8113
  85   2.0000      -1.314874       -35.7796
  86   2.0000      -1.310497       -35.6604
  87   2.0000      -1.306672       -35.5564
  88   2.0000      -1.248316       -33.9684
  89   2.0000      -1.191137       -32.4125
  90   2.0000      -1.041065       -28.3288
  91   2.0000      -1.036287       -28.1988
  92   2.0000      -1.022572       -27.8256
  93   2.0000      -1.018110       -27.7042
  94   2.0000      -1.011552       -27.5257
  95   2.0000      -1.007703       -27.4210
  96   2.0000      -1.007577       -27.4176
  97   2.0000      -1.003942       -27.3186
  98   2.0000      -1.000616       -27.2282
  99   2.0000      -0.999640       -27.2016
 100   2.0000      -0.999236       -27.1906
 101   2.0000      -0.998053       -27.1584
 102   2.0000      -0.987409       -26.8688
 103   2.0000      -0.980970       -26.6935
 104   2.0000      -0.962454       -26.1897
 105   2.0000      -0.961137       -26.1539
 106   2.0000      -0.952410       -25.9164
 107   2.0000      -0.944835       -25.7103
 108   2.0000      -0.943847       -25.6834
 109   2.0000      -0.940469       -25.5915
 110   2.0000      -0.925072       -25.1725
 111   2.0000      -0.914621       -24.8881
 112   2.0000      -0.904517       -24.6132
 113   2.0000      -0.896966       -24.4077
 114   2.0000      -0.894774       -24.3480
 115   2.0000      -0.881756       -23.9938
 116   2.0000      -0.870867       -23.6975
 117   2.0000      -0.870243       -23.6805
 118   2.0000      -0.866966       -23.5913
 119   2.0000      -0.860084       -23.4041
 120   2.0000      -0.847897       -23.0724
 121   2.0000      -0.838269       -22.8105
 122   2.0000      -0.829728       -22.5780
 123   2.0000      -0.821075       -22.3426
 124   2.0000      -0.818445       -22.2710
 125   2.0000      -0.813087       -22.1252
 126   2.0000      -0.808265       -21.9940
 127   2.0000      -0.799788       -21.7633
 128   2.0000      -0.795738       -21.6531
 129   2.0000      -0.792048       -21.5527
 130   2.0000      -0.783336       -21.3157
 131   2.0000      -0.772506       -21.0210
 132   2.0000      -0.757476       -20.6120
 133   2.0000      -0.743124       -20.2214
 134   2.0000      -0.737370       -20.0649
 135   2.0000      -0.725028       -19.7290
 136   2.0000      -0.721786       -19.6408
 137   2.0000      -0.720184       -19.5972
 138   2.0000      -0.715134       -19.4598
 139   2.0000      -0.713920       -19.4268
 140   2.0000      -0.710442       -19.3321
 141   2.0000      -0.709630       -19.3100
 142   2.0000      -0.706664       -19.2293
 143   2.0000      -0.695477       -18.9249
 144   2.0000      -0.685863       -18.6633
 145   2.0000      -0.684099       -18.6153
 146   2.0000      -0.681887       -18.5551
 147   2.0000      -0.678578       -18.4650
 148   2.0000      -0.675422       -18.3792
 149   2.0000      -0.673699       -18.3323
 150   2.0000      -0.671050       -18.2602
 151   2.0000      -0.670315       -18.2402
 152   2.0000      -0.666637       -18.1401
 153   2.0000      -0.663237       -18.0476
 154   2.0000      -0.660662       -17.9775
 155   2.0000      -0.656557       -17.8658
 156   2.0000      -0.647167       -17.6103
 157   2.0000      -0.645422       -17.5628
 158   2.0000      -0.640645       -17.4328
 159   2.0000      -0.634808       -17.2740
 160   2.0000      -0.629859       -17.1393
 161   2.0000      -0.624169       -16.9845
 162   2.0000      -0.621106       -16.9011
 163   2.0000      -0.613986       -16.7074
 164   2.0000      -0.604587       -16.4517
 165   2.0000      -0.603150       -16.4125
 166   2.0000      -0.593632       -16.1535
 167   2.0000      -0.592104       -16.1120
 168   2.0000      -0.590776       -16.0758
 169   2.0000      -0.586906       -15.9705
 170   2.0000      -0.584527       -15.9058
 171   2.0000      -0.579575       -15.7710
 172   2.0000      -0.576351       -15.6833
 173   2.0000      -0.575463       -15.6591
 174   2.0000      -0.571894       -15.5620
 175   2.0000      -0.570782       -15.5318
 176   2.0000      -0.570752       -15.5310
 177   2.0000      -0.567933       -15.4542
 178   2.0000      -0.566608       -15.4182
 179   2.0000      -0.566517       -15.4157
 180   2.0000      -0.562053       -15.2942
 181   2.0000      -0.560366       -15.2483
 182   2.0000      -0.560030       -15.2392
 183   2.0000      -0.557965       -15.1830
 184   2.0000      -0.556512       -15.1434
 185   2.0000      -0.551483       -15.0066
 186   2.0000      -0.550336       -14.9754
 187   2.0000      -0.546862       -14.8809
 188   2.0000      -0.545566       -14.8456
 189   2.0000      -0.543820       -14.7981
 190   2.0000      -0.543553       -14.7908
 191   2.0000      -0.541092       -14.7239
 192   2.0000      -0.539766       -14.6878
 193   2.0000      -0.537662       -14.6305
 194   2.0000      -0.532657       -14.4943
 195   2.0000      -0.530484       -14.4352
 196   2.0000      -0.527757       -14.3610
 197   2.0000      -0.527237       -14.3469
 198   2.0000      -0.520031       -14.1508
 199   2.0000      -0.515874       -14.0377
 200   2.0000      -0.515196       -14.0192
 201   2.0000      -0.512266       -13.9395
 202   2.0000      -0.509323       -13.8594
 203   2.0000      -0.508951       -13.8493
 204   2.0000      -0.508430       -13.8351
 205   2.0000      -0.505717       -13.7613
 206   2.0000      -0.502224       -13.6662
 207   2.0000      -0.495425       -13.4812
 208   2.0000      -0.493356       -13.4249
 209   2.0000      -0.491826       -13.3833
 210   2.0000      -0.488370       -13.2892
 211   2.0000      -0.487990       -13.2789
 212   2.0000      -0.485538       -13.2122
 213   2.0000      -0.485297       -13.2056
 214   2.0000      -0.482821       -13.1382
 215   2.0000      -0.481797       -13.1104
 216   2.0000      -0.477667       -12.9980
 217   2.0000      -0.476162       -12.9570
 218   2.0000      -0.472815       -12.8660
 219   2.0000      -0.471768       -12.8375
 220   2.0000      -0.470456       -12.8018
 221   2.0000      -0.466135       -12.6842
 222   2.0000      -0.463805       -12.6208
 223   2.0000      -0.462259       -12.5787
 224   2.0000      -0.461511       -12.5583
 225   2.0000      -0.460373       -12.5274
 226   2.0000      -0.458378       -12.4731
 227   2.0000      -0.457792       -12.4572
 228   2.0000      -0.456808       -12.4304
 229   2.0000      -0.456064       -12.4101
 230   2.0000      -0.453699       -12.3458
 231   2.0000      -0.453314       -12.3353
 232   2.0000      -0.452215       -12.3054
 233   2.0000      -0.452142       -12.3034
 234   2.0000      -0.449729       -12.2378
 235   2.0000      -0.448364       -12.2006
 236   2.0000      -0.446351       -12.1458
 237   2.0000      -0.444894       -12.1062
 238   2.0000      -0.442798       -12.0492
 239   2.0000      -0.436560       -11.8794
 240   2.0000      -0.435928       -11.8622
 241   2.0000      -0.433746       -11.8028
 242   2.0000      -0.432881       -11.7793
 243   2.0000      -0.432299       -11.7635
 244   2.0000      -0.431639       -11.7455
 245   2.0000      -0.430254       -11.7078
 246   2.0000      -0.429429       -11.6853
 247   2.0000      -0.428742       -11.6667
 248   2.0000      -0.426421       -11.6035
 249   2.0000      -0.423927       -11.5356
 250   2.0000      -0.419343       -11.4109
 251   2.0000      -0.416933       -11.3453
 252   2.0000      -0.415270       -11.3001
 253   2.0000      -0.414492       -11.2789
 254   2.0000      -0.411904       -11.2085
 255   2.0000      -0.398278       -10.8377
 256   2.0000      -0.389609       -10.6018
 257   2.0000      -0.386089       -10.5060
 258   2.0000      -0.383126       -10.4254
 259   2.0000      -0.373980       -10.1765
 260   2.0000      -0.360705        -9.8153
 261   2.0000      -0.349500        -9.5104
 262   2.0000      -0.338329        -9.2064
 263   2.0000      -0.334959        -9.1147
 264   2.0000      -0.332156        -9.0384
 265   2.0000      -0.323973        -8.8158
 266   2.0000      -0.315040        -8.5727
 267   2.0000      -0.313472        -8.5300
 268   2.0000      -0.306275        -8.3342
 269   2.0000      -0.297396        -8.0926
 270   2.0000      -0.286498        -7.7960
 271   2.0000      -0.273802        -7.4505
 272   2.0000      -0.243086        -6.6147
 273   0.0000      -0.138392        -3.7658
 274   0.0000      -0.120076        -3.2674
 275   0.0000      -0.092054        -2.5049
 276   0.0000      -0.088110        -2.3976
 277   0.0000      -0.085045        -2.3142

MULLIKEN ATOMIC CHARGES
-----------------------
   0 C :   -0.033268
   1 C :    0.047978
   2 C :    0.049112
   3 C :   -0.035829
   4 C :    0.009188
   5 C :    0.012128
   6 C :    0.301550
   7 C :   -0.338626
   8 C :   -0.191155
   9 N :    0.164397
  10 C :   -0.179555
  11 N :    0.159357
  12 C :   -0.060807
  13 C :    0.226028
  14 C :   -0.350644
  15 C :   -0.176036
  16 N :    0.182426
  17 C :   -0.186909
  18 N :    0.168995
  19 C :    0.038318
  20 C :    0.015205
  21 C :   -0.011037
  22 C :    0.010531
  23 C :    0.263543
  24 C :   -0.067523
  25 F :   -0.169278
  26 C :    0.014946
  27 C :   -0.078465
  28 C :    0.107493
  29 C :   -0.072297
  30 C :    0.266330
  31 F :   -0.167101
  32 C :    0.006843
  33 C :   -0.030622
  34 C :    0.133670
  35 O :   -0.184319
  36 C :    0.149909
  37 C :    0.141868
  38 C :   -0.153205
  39 C :    0.515483
  40 F :   -0.141334
  41 F :   -0.161343
  42 F :   -0.160577
  43 O :   -0.293322
  44 C :    0.176714
  45 C :   -0.024440
  46 C :   -0.016625
  47 C :    0.124330
  48 C :   -0.090788
  49 C :    0.022902
  50 C :    0.260191
  51 C :   -0.074641
  52 F :   -0.173031
  53 C :    0.001633
  54 C :   -0.063821
  55 C :    0.082074
  56 C :   -0.056150
  57 C :    0.255812
  58 F :   -0.175990
  59 C :    0.036280
  60 C :   -0.018051
  61 C :    0.050602
  62 C :   -0.065226
  63 C :    0.301459
  64 C :   -0.347621
  65 C :   -0.180259
  66 N :    0.157361
  67 C :   -0.187509
  68 N :    0.157802
  69 C :    0.014454
  70 C :    0.000710
  71 C :   -0.031492
  72 C :    0.048356
  73 C :    0.044993
  74 C :   -0.033195
  75 C :    0.218779
  76 C :   -0.330162
  77 C :   -0.186298
  78 N :    0.161611
  79 C :   -0.188998
  80 N :    0.181283
  81 H :    0.006203
  82 H :    0.004824
  83 H :    0.005770
  84 H :    0.006516
  85 H :    0.023020
  86 H :    0.008023
  87 H :    0.000597
  88 H :   -0.008712
  89 H :   -0.010416
  90 H :   -0.000740
  91 H :    0.019212
  92 H :    0.045083
  93 H :    0.043134
  94 H :    0.041640
  95 H :   -0.003115
  96 H :    0.002942
  97 H :   -0.012911
  98 H :   -0.015776
  99 H :   -0.008021
 100 H :   -0.010032
 101 H :    0.007616
 102 H :    0.012475
 103 H :    0.025559
 104 H :    0.005595
 105 H :    0.005253
 106 H :    0.005473
 107 H :    0.005697
Sum of atomic charges:   -0.0000000

LOEWDIN ATOMIC CHARGES
----------------------
   0 C :    0.005873
   1 C :    0.001938
   2 C :    0.005720
   3 C :    0.000668
   4 C :   -0.010629
   5 C :   -0.014386
   6 C :    0.076864
   7 C :   -0.126816
   8 C :   -0.018912
   9 N :   -0.042456
  10 C :   -0.021230
  11 N :   -0.040041
  12 C :   -0.050174
  13 C :    0.063022
  14 C :   -0.120866
  15 C :   -0.019921
  16 N :   -0.040036
  17 C :   -0.019288
  18 N :   -0.040928
  19 C :    0.065192
  20 C :   -0.028829
  21 C :    0.018252
  22 C :   -0.007682
  23 C :    0.085095
  24 C :   -0.057754
  25 F :   -0.046558
  26 C :    0.024795
  27 C :   -0.056047
  28 C :    0.009562
  29 C :   -0.051026
  30 C :    0.083766
  31 F :   -0.043170
  32 C :   -0.002385
  33 C :   -0.014906
  34 C :    0.059768
  35 O :    0.034876
  36 C :    0.007087
  37 C :    0.044283
  38 C :   -0.152510
  39 C :    0.173631
  40 F :   -0.040222
  41 F :   -0.061035
  42 F :   -0.060646
  43 O :   -0.071975
  44 C :    0.079033
  45 C :   -0.017635
  46 C :   -0.012225
  47 C :    0.012220
  48 C :   -0.060697
  49 C :    0.015674
  50 C :    0.086138
  51 C :   -0.056690
  52 F :   -0.048603
  53 C :   -0.014939
  54 C :   -0.018443
  55 C :   -0.016219
  56 C :   -0.050019
  57 C :    0.080175
  58 F :   -0.051448
  59 C :    0.038775
  60 C :   -0.032489
  61 C :    0.059775
  62 C :   -0.056560
  63 C :    0.077498
  64 C :   -0.132565
  65 C :   -0.021958
  66 N :   -0.043453
  67 C :   -0.018722
  68 N :   -0.046962
  69 C :   -0.013308
  70 C :   -0.010999
  71 C :    0.001144
  72 C :    0.004267
  73 C :    0.001672
  74 C :    0.005056
  75 C :    0.064059
  76 C :   -0.130594
  77 C :   -0.020537
  78 N :   -0.047213
  79 C :   -0.017311
  80 N :   -0.038676
  81 H :    0.041792
  82 H :    0.038126
  83 H :    0.038222
  84 H :    0.041121
  85 H :    0.051645
  86 H :    0.033740
  87 H :    0.032116
  88 H :    0.023814
  89 H :    0.033386
  90 H :    0.033930
  91 H :    0.038656
  92 H :    0.033731
  93 H :    0.020318
  94 H :    0.020641
  95 H :    0.038946
  96 H :    0.035217
  97 H :    0.025096
  98 H :    0.029633
  99 H :    0.026235
 100 H :    0.033026
 101 H :    0.036444
 102 H :    0.039733
 103 H :    0.049074
 104 H :    0.040784
 105 H :    0.037877
 106 H :    0.037958
 107 H :    0.041559

  Mayer bond orders larger than 0.100000
B(  0-C ,  1-C ) :   1.3698 B(  0-C ,  5-C ) :   1.3797 B(  0-C , 81-H ) :   0.9843
B(  1-C ,  2-C ) :   1.3772 B(  1-C , 82-H ) :   0.9860 B(  2-C ,  3-C ) :   1.3627
B(  2-C , 83-H ) :   0.9874 B(  3-C ,  4-C ) :   1.3817 B(  3-C , 84-H ) :   0.9881
B(  4-C ,  5-C ) :   1.3119 B(  4-C , 13-C ) :   1.0112 B(  5-C ,  6-C ) :   0.9997
B(  6-C ,  7-C ) :   1.6423 B(  6-C , 12-C ) :   1.0505 B(  7-C ,  8-C ) :   1.1460
B(  7-C , 10-C ) :   1.1367 B(  8-C ,  9-N ) :   2.9773 B( 10-C , 11-N ) :   2.9681
B( 12-C , 13-C ) :   1.0302 B( 12-C , 19-C ) :   1.5741 B( 13-C , 14-C ) :   1.6432
B( 14-C , 15-C ) :   1.1484 B( 14-C , 17-C ) :   1.1508 B( 15-C , 16-N ) :   3.0012
B( 17-C , 18-N ) :   2.9923 B( 19-C , 20-C ) :   1.1400 B( 19-C , 85-H ) :   0.9419
B( 20-C , 21-C ) :   1.4937 B( 20-C , 24-C ) :   1.0238 B( 21-C , 22-C ) :   1.1188
B( 21-C , 86-H ) :   1.0174 B( 22-C , 23-C ) :   1.0379 B( 22-C , 26-C ) :   1.4369
B( 23-C , 24-C ) :   1.6415 B( 23-C , 25-F ) :   1.1353 B( 24-C , 87-H ) :   1.0129
B( 26-C , 27-C ) :   1.1588 B( 26-C , 30-C ) :   1.0022 B( 27-C , 28-C ) :   1.5131
B( 27-C , 88-H ) :   1.0069 B( 28-C , 29-C ) :   1.0030 B( 28-C , 32-C ) :   1.1260
B( 29-C , 30-C ) :   1.6715 B( 29-C , 89-H ) :   1.0215 B( 30-C , 31-F ) :   1.1326
B( 32-C , 33-C ) :   1.5830 B( 32-C , 90-H ) :   0.9856 B( 33-C , 34-C ) :   1.1994
B( 33-C , 91-H ) :   0.9604 B( 34-C , 35-O ) :   1.1833 B( 34-C , 36-C ) :   0.1082
B( 34-C , 38-C ) :   1.3516 B( 35-O , 36-C ) :   1.1124 B( 36-C , 37-C ) :   1.3506
B( 36-C , 45-C ) :   1.1861 B( 37-C , 38-C ) :   1.2693 B( 37-C , 43-O ) :   1.2231
B( 38-C , 39-C ) :   0.9430 B( 39-C , 40-F ) :   1.1546 B( 39-C , 41-F ) :   1.1567
B( 39-C , 42-F ) :   1.1571 B( 43-O , 44-C ) :   0.9088 B( 44-C , 92-H ) :   0.9764
B( 44-C , 93-H ) :   0.9653 B( 44-C , 94-H ) :   0.9657 B( 45-C , 46-C ) :   1.5456
B( 45-C , 95-H ) :   0.9573 B( 46-C , 47-C ) :   1.1707 B( 46-C , 96-H ) :   0.9813
B( 47-C , 48-C ) :   1.4657 B( 47-C , 51-C ) :   1.0041 B( 48-C , 49-C ) :   1.1529
B( 48-C , 97-H ) :   1.0254 B( 49-C , 50-C ) :   1.0099 B( 49-C , 53-C ) :   1.4329
B( 50-C , 51-C ) :   1.6808 B( 50-C , 52-F ) :   1.1277 B( 51-C , 98-H ) :   1.0121
B( 53-C , 54-C ) :   1.1274 B( 53-C , 57-C ) :   1.0381 B( 54-C , 55-C ) :   1.4723
B( 54-C , 99-H ) :   1.0217 B( 55-C , 56-C ) :   1.0360 B( 55-C , 59-C ) :   1.1844
B( 56-C , 57-C ) :   1.6556 B( 56-C ,100-H ) :   1.0114 B( 57-C , 58-F ) :   1.1258
B( 59-C , 60-C ) :   1.5837 B( 59-C ,101-H ) :   0.9702 B( 60-C , 61-C ) :   1.1840
B( 60-C ,102-H ) :   0.9542 B( 61-C , 62-C ) :   1.5999 B( 61-C ,103-H ) :   0.9213
B( 62-C , 63-C ) :   1.0587 B( 62-C , 75-C ) :   1.0224 B( 63-C , 64-C ) :   1.6355
B( 63-C , 69-C ) :   0.9959 B( 64-C , 65-C ) :   1.1369 B( 64-C , 67-C ) :   1.1469
B( 65-C , 66-N ) :   2.9695 B( 67-C , 68-N ) :   2.9757 B( 69-C , 70-C ) :   1.3123
B( 69-C , 74-C ) :   1.3811 B( 70-C , 71-C ) :   1.3829 B( 70-C , 75-C ) :   1.0054
B( 71-C , 72-C ) :   1.3680 B( 71-C ,104-H ) :   0.9861 B( 72-C , 73-C ) :   1.3746
B( 72-C ,105-H ) :   0.9861 B( 73-C , 74-C ) :   1.3725 B( 73-C ,106-H ) :   0.9868
B( 74-C ,107-H ) :   0.9829 B( 75-C , 76-C ) :   1.6545 B( 76-C , 77-C ) :   1.1408
B( 76-C , 79-C ) :   1.1520 B( 77-C , 78-N ) :   2.9929 B( 79-C , 80-N ) :   3.0033

-----------------------------------------------------------------------------
         ABSORPTION SPECTRUM VIA TRANSITION ELECTRIC DIPOLE MOMENTS
-----------------------------------------------------------------------------
State   Energy  Wavelength   fosc         T2         TX        TY        TZ
        (cm-1)    (nm)                  (au**2)     (au)      (au)      (au)
-----------------------------------------------------------------------------
   0    9733.1   1027.4   1.910324334  64.61443   1.40214  -7.60852  -2.18147
   1   13374.8    747.7   0.170271252   4.19113  -0.97973   0.41212   1.74969
   2   16269.5    614.6   0.030676429   0.62073  -0.63188   0.29867   0.36367
   3   16769.0    596.3   0.069307019   1.36065   0.12272   1.09585   0.38039
   4   17758.7    563.1   0.068690404   1.27339  -0.08216  -1.07800   0.32336
   5   20141.4    496.5   0.278409204   4.55061   1.05634  -1.52199  -1.05750
   6   20741.1    482.1   0.493830915   7.83830  -0.13657  -2.73900  -0.56350
   7   21882.2    457.0   0.082923128   1.24755   0.05468   0.19854  -1.09779
   8   22002.1    454.5   0.077298835   1.15660   1.07218   0.08360   0.00724
   9   22561.2    443.2   0.045284978   0.66080  -0.03606  -0.81121  -0.03777
  10   23122.9    432.5   0.004906454   0.06986   0.07292  -0.20430   0.15099
  11   24031.2    416.1   0.039000729   0.53428  -0.00675   0.67936  -0.26965
  12   24279.8    411.9   0.053740972   0.72868  -0.21339   0.82651   0.00384
  13   25856.8    386.7   0.049876613   0.63504   0.65921   0.42950   0.12655
  14   26099.4    383.2   0.003151937   0.03976   0.08147  -0.18190   0.00556
  15   26288.9    380.4   0.098738146   1.23648  -0.41826   0.32846   0.97655
  16   26734.4    374.0   0.188922138   2.32642  -0.09673  -1.51938  -0.09245
  17   27364.3    365.4   0.427714136   5.14571  -0.27898   2.04921   0.93199
  18   27835.0    359.3   0.021394613   0.25304  -0.10630  -0.43225   0.23430
  19   27924.9    358.1   0.039421124   0.46474  -0.14360  -0.46835  -0.47410
  20   29116.5    343.4   0.061897584   0.69986  -0.23965   0.80003   0.04880
  21   29720.4    336.5   0.104165761   1.15384   0.21429   0.90142   0.54346
  22   29778.4    335.8   0.011565253   0.12786  -0.17496  -0.29019  -0.11419
  23   30102.1    332.2   0.004031382   0.04409  -0.01274  -0.00804  -0.20943
  24   30371.7    329.3   0.007413608   0.08036  -0.11142  -0.16352  -0.20299
  25   30983.2    322.8   0.082624935   0.87793  -0.14672  -0.78529  -0.48961
  26   31139.4    321.1   0.291020006   3.07672  -1.10266   1.18663  -0.67288
  27   31776.4    314.7   0.148050139   1.53384  -0.51980   1.10658   0.19778
  28   31836.1    314.1   0.481601489   4.98016  -1.13560  -1.65679  -0.97242
  29   32104.3    311.5   0.125917553   1.29122   1.02898  -0.23510   0.42088
  30   32298.9    309.6   0.120305069   1.22623   0.86025  -0.51273   0.47256
  31   33052.6    302.5   0.074837962   0.74540   0.47151  -0.67561   0.25813
  32   33371.3    299.7   0.030865204   0.30449   0.22693  -0.50084  -0.04631
  33   33766.4    296.2   0.013162880   0.12833  -0.31926  -0.02520   0.16053
  34   34139.5    292.9   0.080910393   0.78023  -0.77051  -0.16045  -0.40099
  35   34258.5    291.9   0.038346251   0.36849  -0.14253  -0.33162   0.48807
  36   34527.0    289.6   0.105655805   1.00742   0.04331   0.80717  -0.59499
  37   34550.7    289.4   0.095740390   0.91225   0.17831   0.81907  -0.45779
  38   34868.1    286.8   0.186525364   1.76110  -0.13248  -0.41569  -1.25330
  39   35178.1    284.3   0.242349894   2.26802  -0.06437   0.97594   1.14517
  40   35769.2    279.6   0.193782544   1.78353  -0.12161  -1.22781  -0.51111
  41   35947.4    278.2   0.011434675   0.10472   0.11009   0.30430  -0.00196
  42   36031.2    277.5   0.020010637   0.18283  -0.12790  -0.27480  -0.30159
  43   36457.4    274.3   0.088791546   0.80179  -0.32169  -0.66615  -0.50453
  44   36823.5    271.6   0.030956714   0.27676  -0.19272   0.07098  -0.48434
  45   37132.2    269.3   0.051282893   0.45467   0.21042   0.56931  -0.29374
  46   37657.8    265.5   0.056768099   0.49628  -0.06506  -0.42150   0.56070
  47   37838.6    264.3   0.092599738   0.80566  -0.34103  -0.12809  -0.82034
  48   37929.0    263.7   0.178589741   1.55011  -0.18414   0.25406  -1.20484
  49   38510.7    259.7   0.145727824   1.24577  -0.20422  -0.99076   0.47165
  50   38764.7    258.0   0.015117800   0.12839  -0.05077   0.01926   0.35417
  51   39028.9    256.2   0.092674065   0.78171  -0.11680  -0.17685  -0.85837
  52   39088.0    255.8   0.049451363   0.41650   0.12396   0.58694   0.23798
  53   39219.5    255.0   0.062341231   0.52330  -0.32950   0.53387   0.36016
  54   39382.4    253.9   0.013409436   0.11209   0.17329   0.03049   0.28484
  55   39865.9    250.8   0.116172472   0.95935   0.40386  -0.13319  -0.88233
  56   40322.9    248.0   0.081561041   0.66590   0.37205  -0.56440   0.45709

FINAL SINGLE POINT ENERGY     -3737.434293547896

DIPOLE MOMENT
-------------
                                X             Y             Z
Electronic contribution:     -9.87301      15.39255      18.98885
Nuclear contribution   :      8.64218     -13.93411     -17.05803
                        -----------------------------------------
Total Dipole Moment    :     -1.23083       1.45844       1.93082
                        -----------------------------------------
Magnitude (a.u.)       :      2.71479
Magnitude (Debye)      :      6.90044

Rotational constants in cm-1:     0.001605     0.000137     0.000131
Rotational constants in MHz :    48.119160     4.104868     3.925574

                             ****ORCA TERMINATED NORMALLY****
TOTAL RUN TIME: 0 days 0 hours 27 minutes 20 seconds 636 msec
