                         Program Version 4.2.0 -  RELEASE  -
|  1> # ORCA input file
|  2> # SCF done       -215.029204220019          0.000868912653
|  3> ! CAM-B3LYP def2-SVP def2/J RIJCOSX Grid4 TightSCF
|  4> %maxcore 5000
|  5> %tddft
|  6>     Mode sTDDFT
|  7>     Ethresh 5.0
|  8>     maxcore 5000
|  9> end
| 10>
| 11> %pal
| 12>   nprocs 6
| 13>   end
| 14> * xyz 0 1
| 15>    C       -1.99619         2.16727         2.51563
| 16>    C       -2.35106         2.42182         1.19930
| 17>    C       -3.16945         1.54922         0.49551
| 18>    C       -3.66537         0.39937         1.09133
| 19>    C       -3.32052         0.13637         2.40677
| 20>    C       -2.47773         1.01742         3.12205
| 21>    C       -2.26194         0.48036         4.45878
| 22>    C       -1.63199         1.12068         5.49125
| 23>    C       -1.08500         2.41912         5.39781
| 24>    N       -0.62137         3.46864         5.39219
| 25>    C       -1.48019         0.61439         6.80022
| 26>    N       -1.32539         0.27549         7.88613
| 27>    C       -2.85128        -0.85624         4.47445
| 28>    C       -3.69729        -0.95806         3.28800
| 29>    C       -4.80436        -1.74685         3.14104
| 30>    C       -5.29854        -2.63096         4.12406
| 31>    N       -5.78817        -3.33126         4.89002
| 32>    C       -5.65076        -1.70623         2.01180
| 33>    N       -6.37090        -1.71965         1.11892
| 34>    C       -2.54269        -1.82347         5.38947
| 35>    C       -2.73007        -3.22126         5.28156
| 36>    C       -2.85347        -3.99789         4.14705
| 37>    C       -2.97018        -5.36288         4.53141
| 38>    C       -2.88353        -5.36193         5.99348
| 39>    C       -2.72019        -4.11000         6.44674
| 40>    F       -2.94924        -6.47555         6.72756
| 41>    C       -3.17173        -6.45294         3.71305
| 42>    C       -3.34525        -7.81164         4.07701
| 43>    C       -3.54239        -8.57041         2.93150
| 44>    C       -3.49109        -7.66743         1.77396
| 45>    C       -3.27742        -6.43213         2.24679
| 46>    F       -3.16681        -5.31472         1.52218
| 47>    C       -3.76038        -9.95722         2.90553
| 48>    C       -3.93082       -10.68519         1.75726
| 49>    C       -4.15719       -12.07490         1.68692
| 50>    C       -4.28952       -12.69514         0.40955
| 51>    C       -4.55643       -14.09738         0.25033
| 52>    N       -4.54319       -14.62844        -0.97927
| 53>    C       -4.37642       -13.85747        -2.02464
| 54>    C       -4.23279       -12.44229        -1.86849
| 55>    N       -4.16396       -11.91292        -0.67175
| 56>    C       -4.12818       -11.59833        -3.00314
| 57>    N       -4.04635       -10.93739        -3.93471
| 58>    C       -4.31765       -14.44078        -3.31643
| 59>    N       -4.26607       -14.86961        -4.37688
| 60>    C       -4.77546       -14.95891         1.36639
| 61>    C       -4.59020       -14.35316         2.63613
| 62>    C       -4.28807       -12.94815         2.79506
| 63>    N       -4.18313       -12.61113         4.08007
| 64>    S       -4.43521       -13.90508         4.99385
| 65>    N       -4.69519       -14.96057         3.81911
| 66>    C       -5.15018       -16.31738         1.21402
| 67>    C       -5.63814       -16.93394         0.07171
| 68>    C       -5.87755       -18.30677         0.34758
| 69>    C       -5.50362       -18.48719         1.75408
| 70>    C       -5.09110       -17.32464         2.27986
| 71>    F       -5.58722       -19.65948         2.39007
| 72>    C       -6.36047       -19.27001        -0.51014
| 73>    C       -6.56332       -20.65452        -0.25811
| 74>    C       -7.04592       -21.25680        -1.40500
| 75>    C       -7.17882       -20.22928        -2.44334
| 76>    C       -6.76865       -19.07100        -1.90706
| 77>    F       -6.74152       -17.88196        -2.51161
| 78>    C       -7.31415       -22.63381        -1.54844
| 79>    C       -7.83888       -23.21568        -2.66460
| 80>    C       -8.12552       -24.59491        -2.81147
| 81>    C       -7.51664       -25.65895        -2.20507
| 82>    C       -8.11089       -26.98730        -2.07508
| 83>    C       -9.16114       -27.50124        -2.78596
| 84>    C       -9.84993       -26.84540        -3.82930
| 85>    N      -10.45372       -26.38357        -4.68968
| 86>    C       -9.67950       -28.80162        -2.59966
| 87>    N      -10.15050       -29.84330        -2.50123
| 88>    C       -7.36703       -27.67878        -1.03044
| 89>    C       -6.25751       -26.88619        -0.65792
| 90>    C       -5.39177       -27.30561         0.33882
| 91>    C       -5.63582       -28.52210         0.95798
| 92>    C       -6.71868       -29.30696         0.58689
| 93>    C       -7.59406       -28.89610        -0.40718
| 94>    C       -6.24260       -25.69427        -1.49184
| 95>    C       -5.14253       -24.92285        -1.75113
| 96>    C       -3.90421       -25.07706        -1.09251
| 97>    N       -2.88132       -25.14738        -0.57741
| 98>    C       -5.07711       -23.93875        -2.76040
| 99>    N       -4.94164       -23.16194        -3.59373
|100>    H       -1.35272         2.85196         3.04304
|101>    H       -1.97833         3.31149         0.71539
|102>    H       -3.42308         1.76475        -0.53101
|103>    H       -4.29153        -0.27671         0.53220
|104>    H       -2.03044        -1.50962         6.29022
|105>    H       -2.82266        -3.65243         3.13223
|106>    H       -2.63337        -3.78241         7.46394
|107>    H       -3.33055        -8.18870         5.08086
|108>    H       -3.61064        -7.95089         0.74742
|109>    H       -3.79188       -10.46883         3.85756
|110>    H       -3.88964       -10.18907         0.79806
|111>    H       -5.82251       -16.46080        -0.87063
|112>    H       -4.75948       -17.13592         3.28017
|113>    H       -6.35728       -21.14795         0.67188
|114>    H       -7.52075       -20.38915        -3.44577
|115>    H       -7.10165       -23.24785        -0.68087
|116>    H       -8.16674       -22.58023        -3.47493
|117>    H       -8.97133       -24.81384        -3.45080
|118>    H       -4.55244       -26.70056         0.64100
|119>    H       -4.97356       -28.86000         1.74012
|120>    H       -6.88772       -30.25138         1.08091
|121>    H       -8.43307       -29.51604        -0.67647
|122> *
|123>
|124>                          ****END OF INPUT****

CARTESIAN COORDINATES (ANGSTROEM)
---------------------------------
  C     -1.996190    2.167270    2.515630
  C     -2.351060    2.421820    1.199300
  C     -3.169450    1.549220    0.495510
  C     -3.665370    0.399370    1.091330
  C     -3.320520    0.136370    2.406770
  C     -2.477730    1.017420    3.122050
  C     -2.261940    0.480360    4.458780
  C     -1.631990    1.120680    5.491250
  C     -1.085000    2.419120    5.397810
  N     -0.621370    3.468640    5.392190
  C     -1.480190    0.614390    6.800220
  N     -1.325390    0.275490    7.886130
  C     -2.851280   -0.856240    4.474450
  C     -3.697290   -0.958060    3.288000
  C     -4.804360   -1.746850    3.141040
  C     -5.298540   -2.630960    4.124060
  N     -5.788170   -3.331260    4.890020
  C     -5.650760   -1.706230    2.011800
  N     -6.370900   -1.719650    1.118920
  C     -2.542690   -1.823470    5.389470
  C     -2.730070   -3.221260    5.281560
  C     -2.853470   -3.997890    4.147050
  C     -2.970180   -5.362880    4.531410
  C     -2.883530   -5.361930    5.993480
  C     -2.720190   -4.110000    6.446740
  F     -2.949240   -6.475550    6.727560
  C     -3.171730   -6.452940    3.713050
  C     -3.345250   -7.811640    4.077010
  C     -3.542390   -8.570410    2.931500
  C     -3.491090   -7.667430    1.773960
  C     -3.277420   -6.432130    2.246790
  F     -3.166810   -5.314720    1.522180
  C     -3.760380   -9.957220    2.905530
  C     -3.930820  -10.685190    1.757260
  C     -4.157190  -12.074900    1.686920
  C     -4.289520  -12.695140    0.409550
  C     -4.556430  -14.097380    0.250330
  N     -4.543190  -14.628440   -0.979270
  C     -4.376420  -13.857470   -2.024640
  C     -4.232790  -12.442290   -1.868490
  N     -4.163960  -11.912920   -0.671750
  C     -4.128180  -11.598330   -3.003140
  N     -4.046350  -10.937390   -3.934710
  C     -4.317650  -14.440780   -3.316430
  N     -4.266070  -14.869610   -4.376880
  C     -4.775460  -14.958910    1.366390
  C     -4.590200  -14.353160    2.636130
  C     -4.288070  -12.948150    2.795060
  N     -4.183130  -12.611130    4.080070
  S     -4.435210  -13.905080    4.993850
  N     -4.695190  -14.960570    3.819110
  C     -5.150180  -16.317380    1.214020
  C     -5.638140  -16.933940    0.071710
  C     -5.877550  -18.306770    0.347580
  C     -5.503620  -18.487190    1.754080
  C     -5.091100  -17.324640    2.279860
  F     -5.587220  -19.659480    2.390070
  C     -6.360470  -19.270010   -0.510140
  C     -6.563320  -20.654520   -0.258110
  C     -7.045920  -21.256800   -1.405000
  C     -7.178820  -20.229280   -2.443340
  C     -6.768650  -19.071000   -1.907060
  F     -6.741520  -17.881960   -2.511610
  C     -7.314150  -22.633810   -1.548440
  C     -7.838880  -23.215680   -2.664600
  C     -8.125520  -24.594910   -2.811470
  C     -7.516640  -25.658950   -2.205070
  C     -8.110890  -26.987300   -2.075080
  C     -9.161140  -27.501240   -2.785960
  C     -9.849930  -26.845400   -3.829300
  N    -10.453720  -26.383570   -4.689680
  C     -9.679500  -28.801620   -2.599660
  N    -10.150500  -29.843300   -2.501230
  C     -7.367030  -27.678780   -1.030440
  C     -6.257510  -26.886190   -0.657920
  C     -5.391770  -27.305610    0.338820
  C     -5.635820  -28.522100    0.957980
  C     -6.718680  -29.306960    0.586890
  C     -7.594060  -28.896100   -0.407180
  C     -6.242600  -25.694270   -1.491840
  C     -5.142530  -24.922850   -1.751130
  C     -3.904210  -25.077060   -1.092510
  N     -2.881320  -25.147380   -0.577410
  C     -5.077110  -23.938750   -2.760400
  N     -4.941640  -23.161940   -3.593730
  H     -1.352720    2.851960    3.043040
  H     -1.978330    3.311490    0.715390
  H     -3.423080    1.764750   -0.531010
  H     -4.291530   -0.276710    0.532200
  H     -2.030440   -1.509620    6.290220
  H     -2.822660   -3.652430    3.132230
  H     -2.633370   -3.782410    7.463940
  H     -3.330550   -8.188700    5.080860
  H     -3.610640   -7.950890    0.747420
  H     -3.791880  -10.468830    3.857560
  H     -3.889640  -10.189070    0.798060
  H     -5.822510  -16.460800   -0.870630
  H     -4.759480  -17.135920    3.280170
  H     -6.357280  -21.147950    0.671880
  H     -7.520750  -20.389150   -3.445770
  H     -7.101650  -23.247850   -0.680870
  H     -8.166740  -22.580230   -3.474930
  H     -8.971330  -24.813840   -3.450800
  H     -4.552440  -26.700560    0.641000
  H     -4.973560  -28.860000    1.740120
  H     -6.887720  -30.251380    1.080910
  H     -8.433070  -29.516040   -0.676470

 Total Charge           Charge          ....    0
 Multiplicity           Mult            ....    1
 Number of Electrons    NEL             ....  568
 Basis Dimension        Dim             .... 1304

ORBITAL ENERGIES
----------------

  NO   OCC          E(Eh)            E(eV)
   0   2.0000     -89.063312     -2423.5359
   1   2.0000     -24.808609      -675.0766
   2   2.0000     -24.803236      -674.9304
   3   2.0000     -24.802932      -674.9221
   4   2.0000     -24.801001      -674.8695
   5   2.0000     -14.476105      -393.9148
   6   2.0000     -14.472939      -393.8287
   7   2.0000     -14.471288      -393.7838
   8   2.0000     -14.470791      -393.7702
   9   2.0000     -14.439891      -392.9294
  10   2.0000     -14.438654      -392.8958
  11   2.0000     -14.429514      -392.6470
  12   2.0000     -14.428344      -392.6152
  13   2.0000     -14.428189      -392.6110
  14   2.0000     -14.427356      -392.5883
  15   2.0000     -14.426790      -392.5729
  16   2.0000     -14.426236      -392.5578
  17   2.0000     -14.425574      -392.5398
  18   2.0000     -14.425243      -392.5308
  19   2.0000     -10.394694      -282.8540
  20   2.0000     -10.394272      -282.8425
  21   2.0000     -10.375770      -282.3391
  22   2.0000     -10.371877      -282.2331
  23   2.0000     -10.367807      -282.1224
  24   2.0000     -10.367653      -282.1182
  25   2.0000     -10.364577      -282.0345
  26   2.0000     -10.364253      -282.0257
  27   2.0000     -10.362207      -281.9700
  28   2.0000     -10.360524      -281.9242
  29   2.0000     -10.359585      -281.8986
  30   2.0000     -10.359033      -281.8836
  31   2.0000     -10.358112      -281.8586
  32   2.0000     -10.357260      -281.8354
  33   2.0000     -10.356286      -281.8089
  34   2.0000     -10.355785      -281.7952
  35   2.0000     -10.354624      -281.7636
  36   2.0000     -10.353296      -281.7275
  37   2.0000     -10.335472      -281.2425
  38   2.0000     -10.332924      -281.1732
  39   2.0000     -10.332451      -281.1603
  40   2.0000     -10.331746      -281.1411
  41   2.0000     -10.331301      -281.1290
  42   2.0000     -10.331223      -281.1269
  43   2.0000     -10.330388      -281.1042
  44   2.0000     -10.330032      -281.0945
  45   2.0000     -10.329718      -281.0859
  46   2.0000     -10.329454      -281.0787
  47   2.0000     -10.329379      -281.0767
  48   2.0000     -10.329048      -281.0677
  49   2.0000     -10.328397      -281.0500
  50   2.0000     -10.328199      -281.0446
  51   2.0000     -10.328059      -281.0408
  52   2.0000     -10.327525      -281.0262
  53   2.0000     -10.326832      -281.0074
  54   2.0000     -10.326786      -281.0061
  55   2.0000     -10.324125      -280.9337
  56   2.0000     -10.322567      -280.8913
  57   2.0000     -10.320970      -280.8479
  58   2.0000     -10.320641      -280.8389
  59   2.0000     -10.318775      -280.7882
  60   2.0000     -10.318457      -280.7795
  61   2.0000     -10.318170      -280.7717
  62   2.0000     -10.314370      -280.6683
  63   2.0000     -10.312438      -280.6157
  64   2.0000     -10.311931      -280.6019
  65   2.0000     -10.310713      -280.5688
  66   2.0000     -10.309688      -280.5409
  67   2.0000     -10.308546      -280.5098
  68   2.0000     -10.308067      -280.4968
  69   2.0000     -10.307237      -280.4742
  70   2.0000     -10.306805      -280.4624
  71   2.0000     -10.306372      -280.4506
  72   2.0000     -10.306280      -280.4481
  73   2.0000     -10.306137      -280.4442
  74   2.0000     -10.305015      -280.4137
  75   2.0000     -10.304150      -280.3902
  76   2.0000     -10.303317      -280.3675
  77   2.0000     -10.295875      -280.1650
  78   2.0000     -10.293299      -280.0949
  79   2.0000     -10.292648      -280.0772
  80   2.0000     -10.289794      -279.9995
  81   2.0000     -10.288133      -279.9543
  82   2.0000     -10.287740      -279.9436
  83   2.0000     -10.286893      -279.9206
  84   2.0000     -10.284469      -279.8546
  85   2.0000      -8.154514      -221.8956
  86   2.0000      -6.125609      -166.6863
  87   2.0000      -6.117670      -166.4703
  88   2.0000      -6.117416      -166.4634
  89   2.0000      -1.321784       -35.9676
  90   2.0000      -1.317096       -35.8400
  91   2.0000      -1.316083       -35.8124
  92   2.0000      -1.314405       -35.7668
  93   2.0000      -1.160565       -31.5806
  94   2.0000      -1.135127       -30.8884
  95   2.0000      -1.060555       -28.8592
  96   2.0000      -1.044165       -28.4132
  97   2.0000      -1.042450       -28.3665
  98   2.0000      -1.025377       -27.9019
  99   2.0000      -1.024378       -27.8747
 100   2.0000      -1.023762       -27.8580
 101   2.0000      -1.017155       -27.6782
 102   2.0000      -1.014872       -27.6161
 103   2.0000      -1.013107       -27.5680
 104   2.0000      -1.012400       -27.5488
 105   2.0000      -1.009511       -27.4702
 106   2.0000      -1.007946       -27.4276
 107   2.0000      -1.006212       -27.3804
 108   2.0000      -1.005868       -27.3711
 109   2.0000      -1.004755       -27.3408
 110   2.0000      -1.003293       -27.3010
 111   2.0000      -0.996314       -27.1111
 112   2.0000      -0.989257       -26.9190
 113   2.0000      -0.981703       -26.7135
 114   2.0000      -0.968467       -26.3533
 115   2.0000      -0.963683       -26.2231
 116   2.0000      -0.948334       -25.8055
 117   2.0000      -0.946321       -25.7507
 118   2.0000      -0.934479       -25.4285
 119   2.0000      -0.928278       -25.2597
 120   2.0000      -0.921973       -25.0881
 121   2.0000      -0.908152       -24.7121
 122   2.0000      -0.902598       -24.5609
 123   2.0000      -0.899060       -24.4647
 124   2.0000      -0.892125       -24.2760
 125   2.0000      -0.882411       -24.0116
 126   2.0000      -0.873783       -23.7768
 127   2.0000      -0.871772       -23.7221
 128   2.0000      -0.864498       -23.5242
 129   2.0000      -0.856741       -23.3131
 130   2.0000      -0.849684       -23.1211
 131   2.0000      -0.828831       -22.5536
 132   2.0000      -0.826731       -22.4965
 133   2.0000      -0.824853       -22.4454
 134   2.0000      -0.819996       -22.3132
 135   2.0000      -0.813212       -22.1286
 136   2.0000      -0.806989       -21.9593
 137   2.0000      -0.799467       -21.7546
 138   2.0000      -0.797464       -21.7001
 139   2.0000      -0.791107       -21.5271
 140   2.0000      -0.776188       -21.1212
 141   2.0000      -0.762258       -20.7421
 142   2.0000      -0.754083       -20.5196
 143   2.0000      -0.740342       -20.1457
 144   2.0000      -0.733130       -19.9495
 145   2.0000      -0.723631       -19.6910
 146   2.0000      -0.722861       -19.6701
 147   2.0000      -0.721636       -19.6367
 148   2.0000      -0.720042       -19.5933
 149   2.0000      -0.719391       -19.5756
 150   2.0000      -0.713861       -19.4251
 151   2.0000      -0.705379       -19.1943
 152   2.0000      -0.701181       -19.0801
 153   2.0000      -0.688516       -18.7355
 154   2.0000      -0.686460       -18.6795
 155   2.0000      -0.684661       -18.6306
 156   2.0000      -0.678398       -18.4601
 157   2.0000      -0.674715       -18.3599
 158   2.0000      -0.674106       -18.3434
 159   2.0000      -0.673856       -18.3365
 160   2.0000      -0.672566       -18.3015
 161   2.0000      -0.671467       -18.2715
 162   2.0000      -0.668376       -18.1874
 163   2.0000      -0.659097       -17.9350
 164   2.0000      -0.654790       -17.8177
 165   2.0000      -0.649438       -17.6721
 166   2.0000      -0.644042       -17.5253
 167   2.0000      -0.641513       -17.4565
 168   2.0000      -0.640184       -17.4203
 169   2.0000      -0.636212       -17.3122
 170   2.0000      -0.629192       -17.1212
 171   2.0000      -0.624724       -16.9996
 172   2.0000      -0.611294       -16.6342
 173   2.0000      -0.600722       -16.3465
 174   2.0000      -0.596798       -16.2397
 175   2.0000      -0.594539       -16.1782
 176   2.0000      -0.594153       -16.1677
 177   2.0000      -0.592510       -16.1230
 178   2.0000      -0.589996       -16.0546
 179   2.0000      -0.581625       -15.8268
 180   2.0000      -0.577738       -15.7211
 181   2.0000      -0.575232       -15.6529
 182   2.0000      -0.574689       -15.6381
 183   2.0000      -0.573205       -15.5977
 184   2.0000      -0.570124       -15.5139
 185   2.0000      -0.567763       -15.4496
 186   2.0000      -0.567492       -15.4422
 187   2.0000      -0.567300       -15.4370
 188   2.0000      -0.564672       -15.3655
 189   2.0000      -0.562399       -15.3037
 190   2.0000      -0.557944       -15.1824
 191   2.0000      -0.556548       -15.1444
 192   2.0000      -0.552650       -15.0384
 193   2.0000      -0.551754       -15.0140
 194   2.0000      -0.551193       -14.9987
 195   2.0000      -0.549323       -14.9478
 196   2.0000      -0.545168       -14.8348
 197   2.0000      -0.543355       -14.7854
 198   2.0000      -0.542212       -14.7543
 199   2.0000      -0.540032       -14.6950
 200   2.0000      -0.536957       -14.6113
 201   2.0000      -0.530240       -14.4286
 202   2.0000      -0.524367       -14.2687
 203   2.0000      -0.517509       -14.0821
 204   2.0000      -0.516609       -14.0576
 205   2.0000      -0.515753       -14.0343
 206   2.0000      -0.515083       -14.0161
 207   2.0000      -0.513457       -13.9719
 208   2.0000      -0.509969       -13.8770
 209   2.0000      -0.502807       -13.6821
 210   2.0000      -0.501404       -13.6439
 211   2.0000      -0.499905       -13.6031
 212   2.0000      -0.499414       -13.5897
 213   2.0000      -0.496078       -13.4990
 214   2.0000      -0.495020       -13.4702
 215   2.0000      -0.490960       -13.3597
 216   2.0000      -0.489106       -13.3093
 217   2.0000      -0.486879       -13.2487
 218   2.0000      -0.486046       -13.2260
 219   2.0000      -0.485587       -13.2135
 220   2.0000      -0.484358       -13.1800
 221   2.0000      -0.478779       -13.0282
 222   2.0000      -0.475824       -12.9478
 223   2.0000      -0.475143       -12.9293
 224   2.0000      -0.473785       -12.8923
 225   2.0000      -0.470218       -12.7953
 226   2.0000      -0.466578       -12.6962
 227   2.0000      -0.465842       -12.6762
 228   2.0000      -0.464997       -12.6532
 229   2.0000      -0.464354       -12.6357
 230   2.0000      -0.463174       -12.6036
 231   2.0000      -0.462528       -12.5860
 232   2.0000      -0.461827       -12.5670
 233   2.0000      -0.460776       -12.5384
 234   2.0000      -0.459531       -12.5045
 235   2.0000      -0.458648       -12.4804
 236   2.0000      -0.457934       -12.4610
 237   2.0000      -0.457145       -12.4395
 238   2.0000      -0.454407       -12.3650
 239   2.0000      -0.453304       -12.3350
 240   2.0000      -0.453050       -12.3281
 241   2.0000      -0.452859       -12.3229
 242   2.0000      -0.451510       -12.2862
 243   2.0000      -0.448610       -12.2073
 244   2.0000      -0.447708       -12.1828
 245   2.0000      -0.443299       -12.0628
 246   2.0000      -0.441237       -12.0067
 247   2.0000      -0.439039       -11.9469
 248   2.0000      -0.437666       -11.9095
 249   2.0000      -0.437185       -11.8964
 250   2.0000      -0.436160       -11.8685
 251   2.0000      -0.435585       -11.8529
 252   2.0000      -0.434408       -11.8208
 253   2.0000      -0.433600       -11.7989
 254   2.0000      -0.432625       -11.7723
 255   2.0000      -0.430260       -11.7080
 256   2.0000      -0.427591       -11.6353
 257   2.0000      -0.425121       -11.5681
 258   2.0000      -0.423831       -11.5330
 259   2.0000      -0.421999       -11.4832
 260   2.0000      -0.419732       -11.4215
 261   2.0000      -0.418851       -11.3975
 262   2.0000      -0.417205       -11.3527
 263   2.0000      -0.416854       -11.3432
 264   2.0000      -0.397648       -10.8206
 265   2.0000      -0.394934       -10.7467
 266   2.0000      -0.394108       -10.7242
 267   2.0000      -0.392092       -10.6694
 268   2.0000      -0.390767       -10.6333
 269   2.0000      -0.371254       -10.1023
 270   2.0000      -0.370468       -10.0809
 271   2.0000      -0.363514        -9.8917
 272   2.0000      -0.360420        -9.8075
 273   2.0000      -0.342356        -9.3160
 274   2.0000      -0.341503        -9.2928
 275   2.0000      -0.339780        -9.2459
 276   2.0000      -0.330550        -8.9947
 277   2.0000      -0.322730        -8.7819
 278   2.0000      -0.317091        -8.6285
 279   2.0000      -0.315353        -8.5812
 280   2.0000      -0.304158        -8.2766
 281   2.0000      -0.290114        -7.8944
 282   2.0000      -0.283430        -7.7125
 283   2.0000      -0.255529        -6.9533
 284   0.0000      -0.156583        -4.2608
 285   0.0000      -0.126930        -3.4539
 286   0.0000      -0.115417        -3.1407
 287   0.0000      -0.094910        -2.5826
 288   0.0000      -0.092272        -2.5109

MULLIKEN ATOMIC CHARGES
-----------------------
   0 C :   -0.034946
   1 C :    0.048528
   2 C :    0.049348
   3 C :   -0.032788
   4 C :    0.003112
   5 C :    0.017862
   6 C :    0.291943
   7 C :   -0.343213
   8 C :   -0.189615
   9 N :    0.165665
  10 C :   -0.177844
  11 N :    0.159854
  12 C :   -0.044403
  13 C :    0.219449
  14 C :   -0.321192
  15 C :   -0.198917
  16 N :    0.190145
  17 C :   -0.188377
  18 N :    0.172997
  19 C :    0.040151
  20 C :    0.038738
  21 C :   -0.047614
  22 C :   -0.005628
  23 C :    0.271272
  24 C :   -0.060319
  25 F :   -0.172016
  26 C :    0.029959
  27 C :   -0.074067
  28 C :    0.119850
  29 C :   -0.070182
  30 C :    0.263778
  31 F :   -0.169425
  32 C :    0.019830
  33 C :   -0.085517
  34 C :    0.123458
  35 C :   -0.045438
  36 C :   -0.071354
  37 N :    0.044873
  38 C :   -0.120894
  39 C :   -0.131887
  40 N :    0.048102
  41 C :   -0.210807
  42 N :    0.246260
  43 C :   -0.209862
  44 N :    0.245267
  45 C :    0.195966
  46 C :    0.001184
  47 C :    0.004752
  48 N :   -0.286509
  49 S :    0.566875
  50 N :   -0.288808
  51 C :   -0.057062
  52 C :   -0.057562
  53 C :    0.033153
  54 C :    0.263724
  55 C :   -0.062388
  56 F :   -0.173954
  57 C :   -0.000576
  58 C :   -0.063857
  59 C :    0.088700
  60 C :   -0.052445
  61 C :    0.262307
  62 F :   -0.164305
  63 C :    0.034885
  64 C :   -0.009929
  65 C :    0.045886
  66 C :   -0.058275
  67 C :    0.292656
  68 C :   -0.335687
  69 C :   -0.182295
  70 N :    0.162356
  71 C :   -0.191412
  72 N :    0.165377
  73 C :    0.015792
  74 C :    0.003567
  75 C :   -0.030671
  76 C :    0.046587
  77 C :    0.049013
  78 C :   -0.032978
  79 C :    0.220595
  80 C :   -0.332107
  81 C :   -0.186054
  82 N :    0.169391
  83 C :   -0.189001
  84 N :    0.187455
  85 H :    0.008435
  86 H :    0.006201
  87 H :    0.007421
  88 H :    0.010172
  89 H :    0.015816
  90 H :    0.010638
  91 H :   -0.000666
  92 H :   -0.003236
  93 H :   -0.000420
  94 H :    0.008530
  95 H :    0.001279
  96 H :    0.002848
  97 H :   -0.002855
  98 H :   -0.004079
  99 H :   -0.002528
 100 H :    0.010137
 101 H :    0.017483
 102 H :    0.028558
 103 H :    0.006758
 104 H :    0.007136
 105 H :    0.006080
 106 H :    0.007807
Sum of atomic charges:   -0.0000000

LOEWDIN ATOMIC CHARGES
----------------------
   0 C :    0.005840
   1 C :    0.003685
   2 C :    0.006646
   3 C :    0.002829
   4 C :   -0.010128
   5 C :   -0.013341
   6 C :    0.077149
   7 C :   -0.128515
   8 C :   -0.019214
   9 N :   -0.042110
  10 C :   -0.021949
  11 N :   -0.040971
  12 C :   -0.039670
  13 C :    0.065200
  14 C :   -0.121470
  15 C :   -0.018397
  16 N :   -0.032213
  17 C :   -0.020397
  18 N :   -0.039707
  19 C :    0.059466
  20 C :   -0.022189
  21 C :   -0.005212
  22 C :   -0.001124
  23 C :    0.080190
  24 C :   -0.042361
  25 F :   -0.047685
  26 C :    0.021212
  27 C :   -0.037163
  28 C :    0.011916
  29 C :   -0.048247
  30 C :    0.084722
  31 F :   -0.046063
  32 C :    0.012696
  33 C :   -0.002607
  34 C :   -0.018899
  35 C :   -0.000817
  36 C :   -0.000366
  37 N :    0.013590
  38 C :   -0.022776
  39 C :   -0.023923
  40 N :    0.003113
  41 C :   -0.037826
  42 N :    0.001915
  43 C :   -0.038313
  44 N :    0.004809
  45 C :   -0.013134
  46 C :   -0.035029
  47 C :   -0.037126
  48 N :   -0.275269
  49 S :    0.689710
  50 N :   -0.271093
  51 C :   -0.000270
  52 C :   -0.012269
  53 C :    0.006414
  54 C :    0.072022
  55 C :   -0.046746
  56 F :   -0.050399
  57 C :    0.009643
  58 C :   -0.024754
  59 C :   -0.000231
  60 C :   -0.044738
  61 C :    0.083731
  62 F :   -0.041474
  63 C :    0.032708
  64 C :   -0.019887
  65 C :    0.055654
  66 C :   -0.046831
  67 C :    0.076660
  68 C :   -0.127348
  69 C :   -0.022692
  70 N :   -0.038516
  71 C :   -0.019138
  72 N :   -0.041501
  73 C :   -0.013204
  74 C :   -0.011314
  75 C :    0.002045
  76 C :    0.006032
  77 C :    0.003968
  78 C :    0.006056
  79 C :    0.063329
  80 C :   -0.126580
  81 C :   -0.020835
  82 N :   -0.041422
  83 C :   -0.018674
  84 N :   -0.033014
  85 H :    0.042136
  86 H :    0.038582
  87 H :    0.038831
  88 H :    0.041938
  89 H :    0.049550
  90 H :    0.025528
  91 H :    0.037590
  92 H :    0.029038
  93 H :    0.035908
  94 H :    0.034182
  95 H :    0.033293
  96 H :    0.023408
  97 H :    0.029987
  98 H :    0.028309
  99 H :    0.035788
 100 H :    0.037242
 101 H :    0.041579
 102 H :    0.050571
 103 H :    0.041223
 104 H :    0.038680
 105 H :    0.038651
 106 H :    0.042175

  Mayer bond orders larger than 0.100000
B(  0-C ,  1-C ) :   1.3725 B(  0-C ,  5-C ) :   1.3791 B(  0-C , 85-H ) :   0.9847
B(  1-C ,  2-C ) :   1.3744 B(  1-C , 86-H ) :   0.9865 B(  2-C ,  3-C ) :   1.3678
B(  2-C , 87-H ) :   0.9866 B(  3-C ,  4-C ) :   1.3809 B(  3-C , 88-H ) :   0.9873
B(  4-C ,  5-C ) :   1.3091 B(  4-C , 13-C ) :   1.0082 B(  5-C ,  6-C ) :   0.9996
B(  6-C ,  7-C ) :   1.6434 B(  6-C , 12-C ) :   1.0475 B(  7-C ,  8-C ) :   1.1480
B(  7-C , 10-C ) :   1.1358 B(  8-C ,  9-N ) :   2.9794 B( 10-C , 11-N ) :   2.9743
B( 12-C , 13-C ) :   1.0101 B( 12-C , 19-C ) :   1.6190 B( 13-C , 14-C ) :   1.6707
B( 14-C , 15-C ) :   1.1576 B( 14-C , 17-C ) :   1.1383 B( 15-C , 16-N ) :   3.0062
B( 17-C , 18-N ) :   2.9992 B( 19-C , 20-C ) :   1.1332 B( 19-C , 89-H ) :   0.9280
B( 20-C , 21-C ) :   1.5000 B( 20-C , 24-C ) :   1.0243 B( 21-C , 22-C ) :   1.1412
B( 21-C , 90-H ) :   1.0057 B( 22-C , 23-C ) :   1.0300 B( 22-C , 26-C ) :   1.4435
B( 23-C , 24-C ) :   1.6490 B( 23-C , 25-F ) :   1.1304 B( 24-C , 91-H ) :   1.0208
B( 26-C , 27-C ) :   1.1379 B( 26-C , 30-C ) :   1.0080 B( 27-C , 28-C ) :   1.4663
B( 27-C , 92-H ) :   1.0250 B( 28-C , 29-C ) :   1.0020 B( 28-C , 32-C ) :   1.1575
B( 29-C , 30-C ) :   1.6799 B( 29-C , 93-H ) :   1.0153 B( 30-C , 31-F ) :   1.1268
B( 32-C , 33-C ) :   1.4917 B( 32-C , 94-H ) :   0.9708 B( 33-C , 34-C ) :   1.2357
B( 33-C , 95-H ) :   0.9577 B( 34-C , 35-C ) :   1.2065 B( 34-C , 45-C ) :   0.1306
B( 34-C , 47-C ) :   1.1631 B( 35-C , 36-C ) :   1.1177 B( 35-C , 40-N ) :   1.4472
B( 36-C , 37-N ) :   1.4520 B( 36-C , 45-C ) :   1.2341 B( 37-N , 38-C ) :   1.7239
B( 38-C , 39-C ) :   1.2096 B( 38-C , 43-C ) :   1.1462 B( 39-C , 40-N ) :   1.7348
B( 39-C , 41-C ) :   1.1495 B( 41-C , 42-N ) :   3.0535 B( 43-C , 44-N ) :   3.0464
B( 45-C , 46-C ) :   1.1987 B( 45-C , 51-C ) :   1.1311 B( 46-C , 47-C ) :   1.1031
B( 46-C , 50-N ) :   1.5093 B( 47-C , 48-N ) :   1.5079 B( 48-N , 49-S ) :   1.2785
B( 48-N , 50-N ) :   0.1489 B( 49-S , 50-N ) :   1.2911 B( 51-C , 52-C ) :   1.5037
B( 51-C , 55-C ) :   1.0264 B( 52-C , 53-C ) :   1.1093 B( 52-C , 96-H ) :   1.0058
B( 53-C , 54-C ) :   1.0137 B( 53-C , 57-C ) :   1.4486 B( 54-C , 55-C ) :   1.6401
B( 54-C , 56-F ) :   1.1283 B( 55-C , 97-H ) :   1.0103 B( 57-C , 58-C ) :   1.1191
B( 57-C , 61-C ) :   1.0199 B( 58-C , 59-C ) :   1.4904 B( 58-C , 98-H ) :   1.0214
B( 59-C , 60-C ) :   1.0241 B( 59-C , 63-C ) :   1.1768 B( 60-C , 61-C ) :   1.6708
B( 60-C , 99-H ) :   1.0107 B( 61-C , 62-F ) :   1.1336 B( 63-C , 64-C ) :   1.6006
B( 63-C ,100-H ) :   0.9697 B( 64-C , 65-C ) :   1.1694 B( 64-C ,101-H ) :   0.9534
B( 65-C , 66-C ) :   1.6244 B( 65-C ,102-H ) :   0.9211 B( 66-C , 67-C ) :   1.0479
B( 66-C , 79-C ) :   1.0145 B( 67-C , 68-C ) :   1.6468 B( 67-C , 73-C ) :   1.0000
B( 68-C , 69-C ) :   1.1341 B( 68-C , 71-C ) :   1.1450 B( 69-C , 70-N ) :   2.9743
B( 71-C , 72-N ) :   2.9793 B( 73-C , 74-C ) :   1.3121 B( 73-C , 78-C ) :   1.3774
B( 74-C , 75-C ) :   1.3805 B( 74-C , 79-C ) :   1.0064 B( 75-C , 76-C ) :   1.3666
B( 75-C ,103-H ) :   0.9882 B( 76-C , 77-C ) :   1.3747 B( 76-C ,104-H ) :   0.9874
B( 77-C , 78-C ) :   1.3724 B( 77-C ,105-H ) :   0.9864 B( 78-C ,106-H ) :   0.9845
B( 79-C , 80-C ) :   1.6644 B( 80-C , 81-C ) :   1.1407 B( 80-C , 83-C ) :   1.1514
B( 81-C , 82-N ) :   2.9950 B( 83-C , 84-N ) :   3.0055

-----------------------------------------------------------------------------
         ABSORPTION SPECTRUM VIA TRANSITION ELECTRIC DIPOLE MOMENTS
-----------------------------------------------------------------------------
State   Energy  Wavelength   fosc         T2         TX        TY        TZ
        (cm-1)    (nm)                  (au**2)     (au)      (au)      (au)
-----------------------------------------------------------------------------
   0    8102.5   1234.2   1.251496769  50.84963   1.36604   6.67965   2.08947
   1   13419.2    745.2   0.021365860   0.52417  -0.32352   0.59861   0.24732
   2   14210.5    703.7   0.070470768   1.63258   0.13444   1.16755   0.50134
   3   14653.3    682.4   0.082809550   1.86047   0.04999   1.33140   0.29214
   4   14947.5    669.0   0.108147094   2.38189   0.22491   1.42492   0.54856
   5   16319.0    612.8   0.029854834   0.60228   0.15202   0.64732   0.40018
   6   19140.7    522.4   0.649813880  11.17651   0.51517   3.18176   0.88744
   7   20650.0    484.3   0.085844799   1.36858  -0.32218   1.10538   0.20716
   8   20771.0    481.4   0.074481500   1.18050   0.20022  -1.01575  -0.32963
   9   21796.4    458.8   0.057771108   0.87257  -0.44008  -0.37374  -0.73431
  10   22144.9    451.6   0.022661650   0.33689   0.56297  -0.12752   0.06082
  11   22483.5    444.8   0.183245982   2.68315   1.11037   1.05967   0.57213
  12   22933.8    436.0   0.040718185   0.58451  -0.37999  -0.52786  -0.40184
  13   23593.5    423.8   0.018819544   0.26260   0.32415  -0.15983  -0.36329
  14   24246.1    412.4   0.164663603   2.23579   0.31180   1.43548   0.27922
  15   24366.0    410.4   0.009463425   0.12786  -0.17555  -0.07354   0.30271
  16   24913.4    401.4   0.025881707   0.34201  -0.02834   0.47375  -0.34170
  17   25373.8    394.1   0.023332338   0.30272   0.20003   0.40490   0.31428
  18   25654.0    389.8   0.105578214   1.35486   0.09711   1.14983  -0.15273
  19   26064.2    383.7   0.189309814   2.39113  -0.27000  -1.51881  -0.10699
  20   26172.1    382.1   0.011828426   0.14879   0.05035   0.29546  -0.24281
  21   26642.9    375.3   0.009482693   0.11717   0.19444   0.27733   0.04955
  22   27067.0    369.5   0.220862609   2.68632   0.12394   1.59115   0.37311
  23   27166.8    368.1   0.038098621   0.46169   0.21700   0.50999   0.39307
  24   27697.8    361.0   0.003532731   0.04199   0.02782   0.10773   0.17207
  25   27810.0    359.6   0.014315391   0.16946   0.11752  -0.37357  -0.12688
  26   28072.0    356.2   0.005442450   0.06383  -0.00502  -0.19298   0.16297
  27   28527.5    350.5   0.057241377   0.66057  -0.34306  -0.73603  -0.03391
  28   28638.2    349.2   0.023091967   0.26545  -0.22959  -0.14744  -0.43704
  29   29082.8    343.8   0.046410238   0.52536  -0.40506  -0.53377  -0.27635
  30   29195.6    342.5   0.047803485   0.53904  -0.19526   0.51539   0.48506
  31   29417.9    339.9   0.017246923   0.19301  -0.16185  -0.37618  -0.15907
  32   30166.7    331.5   0.028983994   0.31630  -0.27946  -0.34092   0.34926
  33   30427.6    328.6   0.069483614   0.75178  -0.11176  -0.62232   0.59330
  34   30519.2    327.7   0.037653688   0.40617  -0.04431   0.38173  -0.50842
  35   30895.8    323.7   0.545770067   5.81549  -0.01571  -0.15709  -2.40636
  36   31420.6    318.3   0.075122798   0.78710  -0.21357  -0.48366   0.71243
  37   31686.1    315.6   0.738097328   7.66868   2.20564   1.50448   0.73509
  38   31872.7    313.7   0.538565915   5.56283  -1.46049  -1.44226  -1.16175
  39   32473.6    307.9   0.058710709   0.59520  -0.46710  -0.03167  -0.61320
  40   33280.5    300.5   0.019287895   0.19080  -0.04955   0.42319   0.09617
  41   33433.3    299.1   0.044269013   0.43591   0.42997   0.01895   0.50067
  42   33622.1    297.4   0.025092290   0.24569  -0.29539  -0.24170   0.31625
  43   33836.5    295.5   0.084581108   0.82293  -0.01628  -0.33129   0.84434
  44   34392.3    290.8   0.061216923   0.58598  -0.23063  -0.72978  -0.01452
  45   34542.4    289.5   0.011070727   0.10551  -0.19292  -0.25001  -0.07608
  46   34978.3    285.9   0.101930973   0.95936  -0.13559  -0.95961   0.14190
  47   35066.8    285.2   0.046556085   0.43707   0.35708   0.45991  -0.31313
  48   35116.7    284.8   0.029754619   0.27894  -0.14686  -0.41663   0.28947
  49   35212.3    284.0   0.073050603   0.68298  -0.50196  -0.59316  -0.28138
  50   35356.1    282.8   0.058848210   0.54795   0.47452   0.56216   0.08223
  51   35451.5    282.1   0.041054098   0.38124   0.11642  -0.48040  -0.37000
  52   35551.1    281.3   0.093882986   0.86938  -0.23449   0.64601  -0.63013
  53   35646.2    280.5   0.111223025   1.02720  -0.08671   0.13433  -1.00082
  54   35742.9    279.8   0.034023512   0.31338   0.24113  -0.16851   0.47627
  55   35980.9    277.9   0.090845161   0.83120   0.42360   0.75375  -0.28918
  56   36071.8    277.2   0.020060518   0.18308  -0.21695  -0.31041   0.19916
  57   36328.2    275.3   0.018118314   0.16419   0.02399   0.38062  -0.13691
  58   36392.4    274.8   0.116159273   1.05080   0.09596   0.81519  -0.61405
  59   36679.3    272.6   0.029407711   0.26395  -0.09579  -0.45092   0.22681
  60   36770.5    272.0   0.062551400   0.56003  -0.02063   0.26932  -0.69791
  61   37252.0    268.4   0.086070383   0.76064   0.01769   0.66741  -0.56115
  62   37631.1    265.7   0.076150117   0.66619   0.27939  -0.42297   0.63971
  63   37783.8    264.7   0.002700038   0.02353   0.06667  -0.01286   0.13753
  64   37858.9    264.1   0.026303676   0.22873  -0.10740   0.13581  -0.44581
  65   38079.1    262.6   0.012183290   0.10533   0.29664   0.00490   0.13157
  66   38112.0    262.4   0.073432683   0.63431  -0.17303   0.07729  -0.77356
  67   38243.0    261.5   0.063716548   0.54850   0.12545  -0.40606   0.60653
  68   38361.9    260.7   0.034719220   0.29795   0.03848  -0.14148  -0.52579
  69   38399.1    260.4   0.024361193   0.20886   0.01575   0.26407  -0.37266
  70   38461.4    260.0   0.052674671   0.45087   0.63296   0.06214   0.21533
  71   38682.4    258.5   0.214517628   1.82568  -0.79923  -0.79794  -0.74176
  72   38791.9    257.8   0.034774863   0.29512   0.07904  -0.29901   0.44662
  73   38961.4    256.7   0.052171286   0.44083  -0.37641   0.41324  -0.35830
  74   39203.3    255.1   0.065999432   0.55423   0.18095   0.08982  -0.71654
  75   39322.2    254.3   0.016556488   0.13861   0.03846   0.23106   0.28939
  76   39678.4    252.0   0.031325831   0.25991  -0.24975   0.12173  -0.42745
  77   39954.8    250.3   0.313975098   2.58703  -0.00404   0.42799  -1.55043
  78   40087.8    249.5   0.296068833   2.43140  -1.09591  -0.95288  -0.56780

FINAL SINGLE POINT ENERGY     -4087.170575033209

DIPOLE MOMENT
-------------
                                X             Y             Z
Electronic contribution:      2.04537      10.37749       5.23708
Nuclear contribution   :     -1.50644     -11.47264      -2.74375
                        -----------------------------------------
Total Dipole Moment    :      0.53893      -1.09515       2.49333
                        -----------------------------------------
Magnitude (a.u.)       :      2.77606
Magnitude (Debye)      :      7.05618

Rotational constants in cm-1:     0.002378     0.000140     0.000136
Rotational constants in MHz :    71.287560     4.209142     4.074351

                             ****ORCA TERMINATED NORMALLY****
TOTAL RUN TIME: 0 days 0 hours 13 minutes 19 seconds 620 msec
