                         Program Version 4.2.0 -  RELEASE  -
|  1> # ORCA input file
|  2> # SCF done       -209.479869432465          0.000855171523
|  3> ! CAM-B3LYP def2-SVP def2/J RIJCOSX Grid4 TightSCF
|  4> %maxcore 5000
|  5> %tddft
|  6>     Mode sTDDFT
|  7>     Ethresh 5.0
|  8>     maxcore 5000
|  9> end
| 10>
| 11> %pal
| 12>   nprocs 6
| 13>   end
| 14> * xyz 0 1
| 15>    C        1.97404        -0.43301        -3.60422
| 16>    O        1.08601        -1.09663        -4.09529
| 17>    C        2.73799         0.63331        -4.27755
| 18>    C        3.67646         1.17943        -3.38427
| 19>    C        4.50709         2.20339        -3.81192
| 20>    C        4.38459         2.66096        -5.11895
| 21>    C        3.44731         2.10989        -5.99788
| 22>    C        2.61267         1.08396        -5.57570
| 23>   Br        3.30310         2.75089        -7.76820
| 24>   Br        5.51879         4.05658        -5.69793
| 25>    C        3.56372         0.49518        -2.09781
| 26>    C        4.30234         0.78355        -0.98451
| 27>    C        5.28977         1.79411        -0.93473
| 28>    N        6.10138         2.59811        -0.83213
| 29>    C        4.20148         0.14579         0.27302
| 30>    N        4.19476        -0.30622         1.32752
| 31>    C        2.52139        -0.51583        -2.23260
| 32>    C        2.13576        -1.39846        -1.26914
| 33>    C        1.13538        -2.39792        -1.30863
| 34>    S        0.02348        -2.80869        -2.60396
| 35>    C       -0.59615        -4.02317        -1.51586
| 36>    N        0.02598        -4.03738        -0.35073
| 37>    N        0.95662        -3.15658        -0.24409
| 38>    C       -1.65255        -4.90099        -1.87164
| 39>    C       -2.10124        -5.86634        -1.02901
| 40>    C       -3.13935        -6.76423        -1.38231
| 41>    N       -3.60373        -7.76060        -0.55929
| 42>    C       -3.19843        -8.01167         0.80361
| 43>    C       -3.82486        -7.01353         1.77371
| 44>    C       -4.61546        -8.52152        -1.17134
| 45>    O       -5.18991        -9.44167        -0.62900
| 46>    C       -4.75428        -7.93510        -2.48978
| 47>    C       -3.84860        -6.85210        -2.58190
| 48>    C       -4.00510        -6.25292        -3.89159
| 49>    O       -3.46216        -5.30622        -4.42340
| 50>    N       -5.00607        -7.02332        -4.50749
| 51>    C       -5.44432        -6.74633        -5.85476
| 52>    C       -4.77001        -7.66668        -6.86918
| 53>    C       -5.44720        -8.03695        -3.69444
| 54>    C       -6.42477        -8.99133        -4.08521
| 55>    C       -6.75612       -10.04062        -3.30058
| 56>    C       -7.73318       -11.03983        -3.63379
| 57>    C       -7.52127       -12.40336        -3.32751
| 58>    C       -6.20600       -12.88115        -2.85057
| 59>    O       -5.20103       -12.25475        -2.70973
| 60>    S       -6.29241       -14.65187        -2.57899
| 61>    C       -7.94583       -14.76673        -3.24951
| 62>    O       -8.46881       -15.82271        -3.45120
| 63>    C       -8.46600       -13.40594        -3.53438
| 64>    C       -9.74657       -13.12352        -4.06408
| 65>    C       -9.92262       -11.77935        -4.43758
| 66>    C       -8.97366       -10.78179        -4.24279
| 67>    C       -9.58104        -9.50758        -4.70582
| 68>    O       -9.14628        -8.39823        -4.72975
| 69>    O      -10.84236        -9.80152        -5.16084
| 70>    C      -11.11935       -11.13800        -5.03970
| 71>    O      -12.15522       -11.61121        -5.38950
| 72>    C      -10.84612       -14.03490        -4.24553
| 73>    C      -11.14504       -15.10351        -3.47579
| 74>    C      -12.30535       -15.88682        -3.71806
| 75>    C      -12.78097       -16.90429        -2.95549
| 76>    C      -13.78458       -17.84620        -3.53570
| 77>    O      -14.44974       -17.67517        -4.52632
| 78>    C      -13.73171       -19.03930        -2.66528
| 79>    C      -12.87070       -18.79362        -1.57860
| 80>    C      -12.38919       -17.41451        -1.65384
| 81>    C      -11.86537       -16.70649        -0.60800
| 82>    C      -11.63324       -15.31297        -0.60736
| 83>    N      -11.46083       -14.18165        -0.52373
| 84>    C      -11.58355       -17.27495         0.65515
| 85>    N      -11.32701       -17.69282         1.69187
| 86>    C      -12.62870       -19.79587        -0.65387
| 87>    C      -13.26102       -21.02279        -0.82081
| 88>    C      -14.13021       -21.25136        -1.89167
| 89>    C      -14.36768       -20.25304        -2.82756
| 90>   Br      -14.98668       -22.92305        -2.08463
| 91>   Br      -12.92292       -22.39467         0.43224
| 92>    H        5.24307         2.65455        -3.16680
| 93>    H        1.88433         0.64818        -6.24198
| 94>    H        2.63901        -1.37773        -0.31007
| 95>    H       -2.08874        -4.77308        -2.85288
| 96>    H       -1.63684        -5.95871        -0.05813
| 97>    H       -2.10774        -7.98687         0.87050
| 98>    H       -3.54471        -9.02160         1.03974
| 99>    H       -3.52040        -5.99619         1.53885
|100>    H       -3.51389        -7.24528         2.78829
|101>    H       -4.90924        -7.07316         1.72098
|102>    H       -5.16179        -5.70991        -6.05900
|103>    H       -6.53268        -6.83276        -5.90576
|104>    H       -3.69190        -7.52983        -6.83588
|105>    H       -5.11884        -7.42823        -7.86992
|106>    H       -4.99213        -8.71085        -6.65943
|107>    H       -6.86928        -8.87447        -5.06117
|108>    H       -6.23035       -10.18465        -2.36378
|109>    H      -11.55370       -13.74250        -5.01102
|110>    H      -10.50279       -15.39396        -2.66170
|111>    H      -12.83858       -15.71010        -4.64645
|112>    H      -11.95918       -19.65772         0.17982
|113>    H      -15.03110       -20.42017        -3.66195
|114> *
|115>
|116>                          ****END OF INPUT****

CARTESIAN COORDINATES (ANGSTROEM)
---------------------------------
  C      1.974040   -0.433010   -3.604220
  O      1.086010   -1.096630   -4.095290
  C      2.737990    0.633310   -4.277550
  C      3.676460    1.179430   -3.384270
  C      4.507090    2.203390   -3.811920
  C      4.384590    2.660960   -5.118950
  C      3.447310    2.109890   -5.997880
  C      2.612670    1.083960   -5.575700
  Br     3.303100    2.750890   -7.768200
  Br     5.518790    4.056580   -5.697930
  C      3.563720    0.495180   -2.097810
  C      4.302340    0.783550   -0.984510
  C      5.289770    1.794110   -0.934730
  N      6.101380    2.598110   -0.832130
  C      4.201480    0.145790    0.273020
  N      4.194760   -0.306220    1.327520
  C      2.521390   -0.515830   -2.232600
  C      2.135760   -1.398460   -1.269140
  C      1.135380   -2.397920   -1.308630
  S      0.023480   -2.808690   -2.603960
  C     -0.596150   -4.023170   -1.515860
  N      0.025980   -4.037380   -0.350730
  N      0.956620   -3.156580   -0.244090
  C     -1.652550   -4.900990   -1.871640
  C     -2.101240   -5.866340   -1.029010
  C     -3.139350   -6.764230   -1.382310
  N     -3.603730   -7.760600   -0.559290
  C     -3.198430   -8.011670    0.803610
  C     -3.824860   -7.013530    1.773710
  C     -4.615460   -8.521520   -1.171340
  O     -5.189910   -9.441670   -0.629000
  C     -4.754280   -7.935100   -2.489780
  C     -3.848600   -6.852100   -2.581900
  C     -4.005100   -6.252920   -3.891590
  O     -3.462160   -5.306220   -4.423400
  N     -5.006070   -7.023320   -4.507490
  C     -5.444320   -6.746330   -5.854760
  C     -4.770010   -7.666680   -6.869180
  C     -5.447200   -8.036950   -3.694440
  C     -6.424770   -8.991330   -4.085210
  C     -6.756120  -10.040620   -3.300580
  C     -7.733180  -11.039830   -3.633790
  C     -7.521270  -12.403360   -3.327510
  C     -6.206000  -12.881150   -2.850570
  O     -5.201030  -12.254750   -2.709730
  S     -6.292410  -14.651870   -2.578990
  C     -7.945830  -14.766730   -3.249510
  O     -8.468810  -15.822710   -3.451200
  C     -8.466000  -13.405940   -3.534380
  C     -9.746570  -13.123520   -4.064080
  C     -9.922620  -11.779350   -4.437580
  C     -8.973660  -10.781790   -4.242790
  C     -9.581040   -9.507580   -4.705820
  O     -9.146280   -8.398230   -4.729750
  O    -10.842360   -9.801520   -5.160840
  C    -11.119350  -11.138000   -5.039700
  O    -12.155220  -11.611210   -5.389500
  C    -10.846120  -14.034900   -4.245530
  C    -11.145040  -15.103510   -3.475790
  C    -12.305350  -15.886820   -3.718060
  C    -12.780970  -16.904290   -2.955490
  C    -13.784580  -17.846200   -3.535700
  O    -14.449740  -17.675170   -4.526320
  C    -13.731710  -19.039300   -2.665280
  C    -12.870700  -18.793620   -1.578600
  C    -12.389190  -17.414510   -1.653840
  C    -11.865370  -16.706490   -0.608000
  C    -11.633240  -15.312970   -0.607360
  N    -11.460830  -14.181650   -0.523730
  C    -11.583550  -17.274950    0.655150
  N    -11.327010  -17.692820    1.691870
  C    -12.628700  -19.795870   -0.653870
  C    -13.261020  -21.022790   -0.820810
  C    -14.130210  -21.251360   -1.891670
  C    -14.367680  -20.253040   -2.827560
  Br   -14.986680  -22.923050   -2.084630
  Br   -12.922920  -22.394670    0.432240
  H      5.243070    2.654550   -3.166800
  H      1.884330    0.648180   -6.241980
  H      2.639010   -1.377730   -0.310070
  H     -2.088740   -4.773080   -2.852880
  H     -1.636840   -5.958710   -0.058130
  H     -2.107740   -7.986870    0.870500
  H     -3.544710   -9.021600    1.039740
  H     -3.520400   -5.996190    1.538850
  H     -3.513890   -7.245280    2.788290
  H     -4.909240   -7.073160    1.720980
  H     -5.161790   -5.709910   -6.059000
  H     -6.532680   -6.832760   -5.905760
  H     -3.691900   -7.529830   -6.835880
  H     -5.118840   -7.428230   -7.869920
  H     -4.992130   -8.710850   -6.659430
  H     -6.869280   -8.874470   -5.061170
  H     -6.230350  -10.184650   -2.363780
  H    -11.553700  -13.742500   -5.011020
  H    -10.502790  -15.393960   -2.661700
  H    -12.838580  -15.710100   -4.646450
  H    -11.959180  -19.657720    0.179820
  H    -15.031100  -20.420170   -3.661950

 Total Charge           Charge          ....    0
 Multiplicity           Mult            ....    1
 Number of Electrons    NEL             ....  646
 Basis Dimension        Dim             .... 1268

ORBITAL ENERGIES
----------------

  NO   OCC          E(Eh)            E(eV)
   0   2.0000    -482.884761    -13139.9624
   1   2.0000    -482.883186    -13139.9195
   2   2.0000    -482.883058    -13139.9160
   3   2.0000    -482.882139    -13139.8910
   4   2.0000     -88.987322     -2421.4681
   5   2.0000     -88.964645     -2420.8511
   6   2.0000     -62.562381     -1702.4089
   7   2.0000     -62.560824     -1702.3666
   8   2.0000     -62.560677     -1702.3626
   9   2.0000     -62.559763     -1702.3377
  10   2.0000     -56.396338     -1534.6224
  11   2.0000     -56.394778     -1534.5799
  12   2.0000     -56.394650     -1534.5764
  13   2.0000     -56.393731     -1534.5514
  14   2.0000     -56.393678     -1534.5500
  15   2.0000     -56.393569     -1534.5470
  16   2.0000     -56.392115     -1534.5075
  17   2.0000     -56.392020     -1534.5049
  18   2.0000     -56.391965     -1534.5034
  19   2.0000     -56.391861     -1534.5005
  20   2.0000     -56.391051     -1534.4785
  21   2.0000     -56.390952     -1534.4758
  22   2.0000     -19.309045      -525.4258
  23   2.0000     -19.257971      -524.0360
  24   2.0000     -19.256979      -524.0090
  25   2.0000     -19.256415      -523.9937
  26   2.0000     -19.256081      -523.9846
  27   2.0000     -19.243804      -523.6505
  28   2.0000     -19.232733      -523.3493
  29   2.0000     -19.203194      -522.5455
  30   2.0000     -19.201974      -522.5123
  31   2.0000     -14.463914      -393.5831
  32   2.0000     -14.462994      -393.5581
  33   2.0000     -14.458189      -393.4273
  34   2.0000     -14.448449      -393.1623
  35   2.0000     -14.431006      -392.6876
  36   2.0000     -14.430339      -392.6695
  37   2.0000     -14.430172      -392.6649
  38   2.0000     -14.429324      -392.6419
  39   2.0000     -10.451332      -284.3952
  40   2.0000     -10.450351      -284.3685
  41   2.0000     -10.422572      -283.6126
  42   2.0000     -10.417850      -283.4841
  43   2.0000     -10.391900      -282.7780
  44   2.0000     -10.385118      -282.5934
  45   2.0000     -10.384386      -282.5735
  46   2.0000     -10.383294      -282.5438
  47   2.0000     -10.364198      -282.0242
  48   2.0000     -10.363347      -282.0010
  49   2.0000     -10.362921      -281.9894
  50   2.0000     -10.362764      -281.9852
  51   2.0000     -10.361989      -281.9641
  52   2.0000     -10.361297      -281.9452
  53   2.0000     -10.359886      -281.9068
  54   2.0000     -10.359041      -281.8838
  55   2.0000     -10.353719      -281.7390
  56   2.0000     -10.353675      -281.7378
  57   2.0000     -10.351882      -281.6890
  58   2.0000     -10.350312      -281.6463
  59   2.0000     -10.349248      -281.6173
  60   2.0000     -10.348601      -281.5998
  61   2.0000     -10.348503      -281.5971
  62   2.0000     -10.345525      -281.5161
  63   2.0000     -10.344785      -281.4959
  64   2.0000     -10.343974      -281.4738
  65   2.0000     -10.338385      -281.3217
  66   2.0000     -10.333036      -281.1762
  67   2.0000     -10.331671      -281.1391
  68   2.0000     -10.330955      -281.1196
  69   2.0000     -10.330888      -281.1178
  70   2.0000     -10.329136      -281.0701
  71   2.0000     -10.328277      -281.0467
  72   2.0000     -10.327925      -281.0371
  73   2.0000     -10.322013      -280.8762
  74   2.0000     -10.321879      -280.8726
  75   2.0000     -10.320789      -280.8430
  76   2.0000     -10.320154      -280.8257
  77   2.0000     -10.320041      -280.8226
  78   2.0000     -10.317218      -280.7458
  79   2.0000     -10.316352      -280.7222
  80   2.0000     -10.315593      -280.7015
  81   2.0000     -10.314692      -280.6770
  82   2.0000     -10.313492      -280.6444
  83   2.0000     -10.313284      -280.6387
  84   2.0000     -10.311956      -280.6026
  85   2.0000     -10.309277      -280.5297
  86   2.0000     -10.306828      -280.4631
  87   2.0000     -10.304731      -280.4060
  88   2.0000     -10.304625      -280.4031
  89   2.0000     -10.273974      -279.5691
  90   2.0000     -10.273567      -279.5580
  91   2.0000     -10.271553      -279.5032
  92   2.0000     -10.266929      -279.3773
  93   2.0000      -8.791720      -239.2349
  94   2.0000      -8.790170      -239.1927
  95   2.0000      -8.790009      -239.1883
  96   2.0000      -8.789091      -239.1633
  97   2.0000      -8.081499      -219.9088
  98   2.0000      -8.063975      -219.4319
  99   2.0000      -6.627893      -180.3541
 100   2.0000      -6.626340      -180.3119
 101   2.0000      -6.626230      -180.3089
 102   2.0000      -6.625287      -180.2832
 103   2.0000      -6.613840      -179.9717
 104   2.0000      -6.613015      -179.9493
 105   2.0000      -6.612278      -179.9292
 106   2.0000      -6.612104      -179.9245
 107   2.0000      -6.611484      -179.9076
 108   2.0000      -6.611280      -179.9021
 109   2.0000      -6.611186      -179.8995
 110   2.0000      -6.610392      -179.8779
 111   2.0000      -6.050262      -164.6360
 112   2.0000      -6.046364      -164.5299
 113   2.0000      -6.044223      -164.4717
 114   2.0000      -6.032834      -164.1618
 115   2.0000      -6.029576      -164.0731
 116   2.0000      -6.024984      -163.9482
 117   2.0000      -2.743767       -74.6617
 118   2.0000      -2.742218       -74.6196
 119   2.0000      -2.742073       -74.6156
 120   2.0000      -2.741192       -74.5916
 121   2.0000      -2.740035       -74.5601
 122   2.0000      -2.739396       -74.5428
 123   2.0000      -2.738500       -74.5184
 124   2.0000      -2.738333       -74.5138
 125   2.0000      -2.737822       -74.4999
 126   2.0000      -2.737727       -74.4973
 127   2.0000      -2.737405       -74.4886
 128   2.0000      -2.736752       -74.4708
 129   2.0000      -2.728211       -74.2384
 130   2.0000      -2.728198       -74.2380
 131   2.0000      -2.726670       -74.1965
 132   2.0000      -2.726654       -74.1960
 133   2.0000      -2.726464       -74.1909
 134   2.0000      -2.726448       -74.1904
 135   2.0000      -2.725561       -74.1663
 136   2.0000      -2.725544       -74.1658
 137   2.0000      -1.260134       -34.2900
 138   2.0000      -1.185090       -32.2479
 139   2.0000      -1.183825       -32.2135
 140   2.0000      -1.179172       -32.0869
 141   2.0000      -1.160881       -31.5892
 142   2.0000      -1.157347       -31.4930
 143   2.0000      -1.148987       -31.2655
 144   2.0000      -1.146928       -31.2095
 145   2.0000      -1.145037       -31.1581
 146   2.0000      -1.138428       -30.9782
 147   2.0000      -1.075367       -29.2622
 148   2.0000      -1.066718       -29.0269
 149   2.0000      -1.036972       -28.2174
 150   2.0000      -1.036572       -28.2066
 151   2.0000      -1.033460       -28.1219
 152   2.0000      -1.020019       -27.7561
 153   2.0000      -1.019468       -27.7411
 154   2.0000      -1.008920       -27.4541
 155   2.0000      -1.007700       -27.4209
 156   2.0000      -0.989746       -26.9323
 157   2.0000      -0.987960       -26.8838
 158   2.0000      -0.969171       -26.3725
 159   2.0000      -0.958832       -26.0911
 160   2.0000      -0.958520       -26.0827
 161   2.0000      -0.942539       -25.6478
 162   2.0000      -0.937772       -25.5181
 163   2.0000      -0.933588       -25.4042
 164   2.0000      -0.930918       -25.3316
 165   2.0000      -0.929298       -25.2875
 166   2.0000      -0.921152       -25.0658
 167   2.0000      -0.919699       -25.0263
 168   2.0000      -0.909055       -24.7366
 169   2.0000      -0.903681       -24.5904
 170   2.0000      -0.897168       -24.4132
 171   2.0000      -0.890904       -24.2427
 172   2.0000      -0.885444       -24.0941
 173   2.0000      -0.876742       -23.8574
 174   2.0000      -0.863330       -23.4924
 175   2.0000      -0.861696       -23.4479
 176   2.0000      -0.857452       -23.3325
 177   2.0000      -0.848878       -23.0991
 178   2.0000      -0.828154       -22.5352
 179   2.0000      -0.821388       -22.3511
 180   2.0000      -0.815762       -22.1980
 181   2.0000      -0.809658       -22.0319
 182   2.0000      -0.793587       -21.5946
 183   2.0000      -0.789250       -21.4766
 184   2.0000      -0.783998       -21.3337
 185   2.0000      -0.779462       -21.2102
 186   2.0000      -0.776197       -21.1214
 187   2.0000      -0.770231       -20.9590
 188   2.0000      -0.768077       -20.9004
 189   2.0000      -0.742630       -20.2080
 190   2.0000      -0.736910       -20.0523
 191   2.0000      -0.730891       -19.8886
 192   2.0000      -0.721382       -19.6298
 193   2.0000      -0.716929       -19.5086
 194   2.0000      -0.715545       -19.4710
 195   2.0000      -0.710770       -19.3410
 196   2.0000      -0.707151       -19.2426
 197   2.0000      -0.700397       -19.0588
 198   2.0000      -0.696434       -18.9509
 199   2.0000      -0.686822       -18.6894
 200   2.0000      -0.683214       -18.5912
 201   2.0000      -0.679323       -18.4853
 202   2.0000      -0.659614       -17.9490
 203   2.0000      -0.653228       -17.7752
 204   2.0000      -0.649096       -17.6628
 205   2.0000      -0.646091       -17.5810
 206   2.0000      -0.643461       -17.5095
 207   2.0000      -0.638020       -17.3614
 208   2.0000      -0.637313       -17.3422
 209   2.0000      -0.632826       -17.2201
 210   2.0000      -0.632443       -17.2096
 211   2.0000      -0.625527       -17.0214
 212   2.0000      -0.623833       -16.9754
 213   2.0000      -0.618376       -16.8269
 214   2.0000      -0.603464       -16.4211
 215   2.0000      -0.602518       -16.3954
 216   2.0000      -0.598477       -16.2854
 217   2.0000      -0.595965       -16.2170
 218   2.0000      -0.585727       -15.9384
 219   2.0000      -0.584526       -15.9058
 220   2.0000      -0.584085       -15.8938
 221   2.0000      -0.579980       -15.7821
 222   2.0000      -0.575216       -15.6524
 223   2.0000      -0.570747       -15.5308
 224   2.0000      -0.569065       -15.4850
 225   2.0000      -0.567849       -15.4520
 226   2.0000      -0.564935       -15.3727
 227   2.0000      -0.563733       -15.3400
 228   2.0000      -0.563263       -15.3272
 229   2.0000      -0.558166       -15.1885
 230   2.0000      -0.556358       -15.1393
 231   2.0000      -0.554167       -15.0796
 232   2.0000      -0.553380       -15.0582
 233   2.0000      -0.553151       -15.0520
 234   2.0000      -0.550017       -14.9667
 235   2.0000      -0.548366       -14.9218
 236   2.0000      -0.545925       -14.8554
 237   2.0000      -0.545209       -14.8359
 238   2.0000      -0.539354       -14.6766
 239   2.0000      -0.537816       -14.6347
 240   2.0000      -0.536333       -14.5944
 241   2.0000      -0.533570       -14.5192
 242   2.0000      -0.532260       -14.4835
 243   2.0000      -0.529715       -14.4143
 244   2.0000      -0.524319       -14.2674
 245   2.0000      -0.521685       -14.1958
 246   2.0000      -0.519486       -14.1359
 247   2.0000      -0.516990       -14.0680
 248   2.0000      -0.515526       -14.0282
 249   2.0000      -0.513836       -13.9822
 250   2.0000      -0.513650       -13.9771
 251   2.0000      -0.512743       -13.9524
 252   2.0000      -0.510721       -13.8974
 253   2.0000      -0.507051       -13.7976
 254   2.0000      -0.505031       -13.7426
 255   2.0000      -0.499107       -13.5814
 256   2.0000      -0.498825       -13.5737
 257   2.0000      -0.497603       -13.5405
 258   2.0000      -0.496230       -13.5031
 259   2.0000      -0.489642       -13.3238
 260   2.0000      -0.485204       -13.2031
 261   2.0000      -0.479251       -13.0411
 262   2.0000      -0.475788       -12.9469
 263   2.0000      -0.474789       -12.9197
 264   2.0000      -0.474180       -12.9031
 265   2.0000      -0.472931       -12.8691
 266   2.0000      -0.471619       -12.8334
 267   2.0000      -0.470362       -12.7992
 268   2.0000      -0.468271       -12.7423
 269   2.0000      -0.464972       -12.6525
 270   2.0000      -0.462696       -12.5906
 271   2.0000      -0.461113       -12.5475
 272   2.0000      -0.460363       -12.5271
 273   2.0000      -0.458409       -12.4739
 274   2.0000      -0.455387       -12.3917
 275   2.0000      -0.455148       -12.3852
 276   2.0000      -0.453659       -12.3447
 277   2.0000      -0.452771       -12.3205
 278   2.0000      -0.446216       -12.1422
 279   2.0000      -0.443902       -12.0792
 280   2.0000      -0.441793       -12.0218
 281   2.0000      -0.440235       -11.9794
 282   2.0000      -0.439300       -11.9540
 283   2.0000      -0.438230       -11.9248
 284   2.0000      -0.434481       -11.8228
 285   2.0000      -0.433091       -11.7850
 286   2.0000      -0.431539       -11.7428
 287   2.0000      -0.430721       -11.7205
 288   2.0000      -0.423737       -11.5305
 289   2.0000      -0.421669       -11.4742
 290   2.0000      -0.421382       -11.4664
 291   2.0000      -0.411481       -11.1970
 292   2.0000      -0.408963       -11.1285
 293   2.0000      -0.407969       -11.1014
 294   2.0000      -0.405985       -11.0474
 295   2.0000      -0.404873       -11.0172
 296   2.0000      -0.397399       -10.8138
 297   2.0000      -0.396820       -10.7980
 298   2.0000      -0.396411       -10.7869
 299   2.0000      -0.391747       -10.6600
 300   2.0000      -0.387675       -10.5492
 301   2.0000      -0.386112       -10.5066
 302   2.0000      -0.382029       -10.3955
 303   2.0000      -0.375267       -10.2115
 304   2.0000      -0.363602        -9.8941
 305   2.0000      -0.362859        -9.8739
 306   2.0000      -0.360573        -9.8117
 307   2.0000      -0.358815        -9.7639
 308   2.0000      -0.357087        -9.7168
 309   2.0000      -0.356638        -9.7046
 310   2.0000      -0.354157        -9.6371
 311   2.0000      -0.351722        -9.5708
 312   2.0000      -0.348341        -9.4788
 313   2.0000      -0.343199        -9.3389
 314   2.0000      -0.342429        -9.3180
 315   2.0000      -0.341060        -9.2807
 316   2.0000      -0.330237        -8.9862
 317   2.0000      -0.325742        -8.8639
 318   2.0000      -0.322708        -8.7813
 319   2.0000      -0.320949        -8.7335
 320   2.0000      -0.311204        -8.4683
 321   2.0000      -0.308469        -8.3939
 322   2.0000      -0.249944        -6.8013
 323   0.0000      -0.123215        -3.3528
 324   0.0000      -0.112862        -3.0711
 325   0.0000      -0.108509        -2.9527
 326   0.0000      -0.091721        -2.4959
 327   0.0000      -0.082350        -2.2409

MULLIKEN ATOMIC CHARGES
-----------------------
   0 C :    0.176634
   1 O :   -0.157183
   2 C :   -0.017333
   3 C :    0.037069
   4 C :   -0.006910
   5 C :   -0.026250
   6 C :   -0.015823
   7 C :   -0.016735
   8 Br:    0.022420
   9 Br:    0.030018
  10 C :    0.314099
  11 C :   -0.332481
  12 C :   -0.188612
  13 N :    0.168053
  14 C :   -0.198267
  15 N :    0.179802
  16 C :   -0.087866
  17 C :    0.021983
  18 C :   -0.107250
  19 S :    0.203046
  20 C :   -0.084727
  21 N :   -0.052167
  22 N :   -0.028074
  23 C :    0.066307
  24 C :   -0.018650
  25 C :    0.145611
  26 N :   -0.257047
  27 C :    0.095423
  28 C :    0.000434
  29 C :    0.178442
  30 O :   -0.199121
  31 C :   -0.062682
  32 C :   -0.066332
  33 C :    0.170878
  34 O :   -0.203946
  35 N :   -0.255508
  36 C :    0.092433
  37 C :    0.001040
  38 C :    0.107592
  39 C :    0.039562
  40 C :   -0.042636
  41 C :    0.040497
  42 C :    0.034016
  43 C :    0.039058
  44 O :   -0.109175
  45 S :    0.041565
  46 C :    0.035855
  47 O :   -0.129188
  48 C :    0.036248
  49 C :    0.064071
  50 C :   -0.066071
  51 C :   -0.082642
  52 C :    0.237923
  53 O :   -0.099275
  54 O :   -0.221097
  55 C :    0.242886
  56 O :   -0.099955
  57 C :   -0.053564
  58 C :    0.073636
  59 C :    0.003596
  60 C :   -0.089726
  61 C :    0.143981
  62 O :   -0.123093
  63 C :   -0.005284
  64 C :    0.026450
  65 C :    0.276235
  66 C :   -0.313682
  67 C :   -0.213599
  68 N :    0.174096
  69 C :   -0.185438
  70 N :    0.168012
  71 C :   -0.010570
  72 C :   -0.022162
  73 C :   -0.014672
  74 C :   -0.019533
  75 Br:    0.020756
  76 Br:    0.027505
  77 H :    0.009359
  78 H :    0.009799
  79 H :    0.034756
  80 H :    0.012782
  81 H :    0.007742
  82 H :    0.031502
  83 H :    0.046302
  84 H :    0.021174
  85 H :    0.028527
  86 H :    0.030417
  87 H :    0.044559
  88 H :    0.039764
  89 H :    0.031887
  90 H :    0.026193
  91 H :    0.013634
  92 H :   -0.015268
  93 H :    0.056095
  94 H :    0.033856
  95 H :    0.033206
  96 H :    0.026212
  97 H :    0.013674
  98 H :    0.010923
Sum of atomic charges:   -0.0000000

LOEWDIN ATOMIC CHARGES
----------------------
   0 C :    0.085996
   1 O :   -0.146757
   2 C :   -0.044344
   3 C :   -0.010440
   4 C :   -0.005789
   5 C :   -0.116192
   6 C :   -0.121995
   7 C :    0.009388
   8 Br:    0.143933
   9 Br:    0.147889
  10 C :    0.070658
  11 C :   -0.118770
  12 C :   -0.018495
  13 N :   -0.035819
  14 C :   -0.025893
  15 N :   -0.025240
  16 C :   -0.089060
  17 C :    0.057515
  18 C :   -0.177285
  19 S :    0.492072
  20 C :   -0.153581
  21 N :   -0.079406
  22 N :   -0.041297
  23 C :   -0.010183
  24 C :   -0.003177
  25 C :    0.075248
  26 N :    0.003564
  27 C :    0.037428
  28 C :   -0.059909
  29 C :    0.084444
  30 O :   -0.186730
  31 C :   -0.110235
  32 C :   -0.113207
  33 C :    0.081590
  34 O :   -0.193924
  35 N :    0.004955
  36 C :    0.037133
  37 C :   -0.061082
  38 C :    0.075698
  39 C :   -0.005290
  40 C :    0.010209
  41 C :    0.031566
  42 C :   -0.044147
  43 C :   -0.043506
  44 O :   -0.090571
  45 S :    0.321077
  46 C :   -0.044276
  47 O :   -0.110993
  48 C :   -0.041739
  49 C :    0.024748
  50 C :   -0.037778
  51 C :   -0.045568
  52 C :    0.110202
  53 O :   -0.094531
  54 O :   -0.048072
  55 C :    0.109319
  56 O :   -0.092543
  57 C :    0.007379
  58 C :    0.015738
  59 C :    0.068979
  60 C :   -0.074104
  61 C :    0.084370
  62 O :   -0.124100
  63 C :   -0.043946
  64 C :   -0.008986
  65 C :    0.069980
  66 C :   -0.122868
  67 C :   -0.023477
  68 N :   -0.041436
  69 C :   -0.020656
  70 N :   -0.034367
  71 C :   -0.007295
  72 C :   -0.116785
  73 C :   -0.122046
  74 C :    0.009086
  75 Br:    0.143078
  76 Br:    0.147095
  77 H :    0.045374
  78 H :    0.047737
  79 H :    0.060052
  80 H :    0.038032
  81 H :    0.039386
  82 H :    0.026714
  83 H :    0.038798
  84 H :    0.024326
  85 H :    0.033265
  86 H :    0.032221
  87 H :    0.038689
  88 H :    0.029198
  89 H :    0.032888
  90 H :    0.031865
  91 H :    0.021010
  92 H :    0.028900
  93 H :    0.043563
  94 H :    0.041985
  95 H :    0.030554
  96 H :    0.049533
  97 H :    0.045481
  98 H :    0.047987

  Mayer bond orders larger than 0.100000
B(  0-C ,  1-O ) :   2.1638 B(  0-C ,  2-C ) :   0.9613 B(  0-C , 16-C ) :   0.9518
B(  2-C ,  3-C ) :   1.3278 B(  2-C ,  7-C ) :   1.3641 B(  3-C ,  4-C ) :   1.3601
B(  3-C , 10-C ) :   0.9928 B(  4-C ,  5-C ) :   1.3726 B(  4-C , 77-H ) :   0.9792
B(  5-C ,  6-C ) :   1.4155 B(  5-C ,  9-Br) :   1.0641 B(  6-C ,  7-C ) :   1.3537
B(  6-C ,  8-Br) :   1.0387 B(  7-C , 78-H ) :   1.0088 B( 10-C , 11-C ) :   1.6645
B( 10-C , 16-C ) :   1.0607 B( 11-C , 12-C ) :   1.1395 B( 11-C , 14-C ) :   1.1375
B( 12-C , 13-N ) :   2.9723 B( 14-C , 15-N ) :   2.9727 B( 16-C , 17-C ) :   1.5773
B( 17-C , 18-C ) :   1.1650 B( 17-C , 79-H ) :   0.9415 B( 18-C , 19-S ) :   1.0941
B( 18-C , 22-N ) :   1.5826 B( 19-S , 20-C ) :   1.1232 B( 19-S , 22-N ) :   0.1014
B( 20-C , 21-N ) :   1.5615 B( 20-C , 23-C ) :   1.1317 B( 21-N , 22-N ) :   1.3048
B( 23-C , 24-C ) :   1.6397 B( 23-C , 80-H ) :   0.9251 B( 24-C , 25-C ) :   1.1319
B( 24-C , 81-H ) :   0.9727 B( 25-C , 26-N ) :   1.1663 B( 25-C , 32-C ) :   1.3365
B( 26-N , 27-C ) :   0.9404 B( 26-N , 29-C ) :   1.0581 B( 27-C , 28-C ) :   1.1192
B( 27-C , 82-H ) :   0.9501 B( 27-C , 83-H ) :   0.9293 B( 28-C , 84-H ) :   0.9691
B( 28-C , 85-H ) :   0.9684 B( 28-C , 86-H ) :   0.9641 B( 29-C , 30-O ) :   2.0403
B( 29-C , 31-C ) :   0.9753 B( 30-O , 93-H ) :   0.1057 B( 31-C , 32-C ) :   1.2657
B( 31-C , 38-C ) :   1.3455 B( 32-C , 33-C ) :   0.9810 B( 33-C , 34-O ) :   2.0310
B( 33-C , 35-N ) :   1.0623 B( 34-O , 80-H ) :   0.1114 B( 35-N , 36-C ) :   0.9413
B( 35-N , 38-C ) :   1.1650 B( 36-C , 37-C ) :   1.1174 B( 36-C , 87-H ) :   0.9291
B( 36-C , 88-H ) :   0.9503 B( 37-C , 89-H ) :   0.9639 B( 37-C , 90-H ) :   0.9686
B( 37-C , 91-H ) :   0.9691 B( 38-C , 39-C ) :   1.1727 B( 39-C , 40-C ) :   1.6661
B( 39-C , 92-H ) :   0.9461 B( 40-C , 41-C ) :   1.0954 B( 40-C , 93-H ) :   0.9088
B( 41-C , 42-C ) :   1.3471 B( 41-C , 51-C ) :   1.3296 B( 42-C , 43-C ) :   0.8461
B( 42-C , 48-C ) :   1.3468 B( 43-C , 44-O ) :   2.1768 B( 43-C , 45-S ) :   1.0232
B( 44-O , 45-S ) :   0.1048 B( 45-S , 46-C ) :   1.0435 B( 45-S , 47-O ) :   0.1072
B( 46-C , 47-O ) :   2.1646 B( 46-C , 48-C ) :   0.8309 B( 48-C , 49-C ) :   1.3280
B( 49-C , 50-C ) :   1.3415 B( 49-C , 57-C ) :   1.0747 B( 50-C , 51-C ) :   1.3605
B( 50-C , 55-C ) :   0.9110 B( 51-C , 52-C ) :   0.9016 B( 52-C , 53-O ) :   2.2435
B( 52-C , 54-O ) :   1.0568 B( 54-O , 55-C ) :   1.0629 B( 55-C , 56-O ) :   2.2235
B( 57-C , 58-C ) :   1.6955 B( 57-C , 94-H ) :   0.9571 B( 58-C , 59-C ) :   1.1190
B( 58-C , 95-H ) :   0.9401 B( 59-C , 60-C ) :   1.6516 B( 59-C , 96-H ) :   0.9600
B( 60-C , 61-C ) :   0.9312 B( 60-C , 65-C ) :   1.0199 B( 61-C , 62-O ) :   2.2823
B( 61-C , 63-C ) :   0.9232 B( 63-C , 64-C ) :   1.3260 B( 63-C , 74-C ) :   1.3718
B( 64-C , 65-C ) :   1.0071 B( 64-C , 71-C ) :   1.3653 B( 65-C , 66-C ) :   1.6721
B( 66-C , 67-C ) :   1.1562 B( 66-C , 69-C ) :   1.1264 B( 67-C , 68-N ) :   3.0084
B( 69-C , 70-N ) :   2.9918 B( 71-C , 72-C ) :   1.3727 B( 71-C , 97-H ) :   0.9819
B( 72-C , 73-C ) :   1.4155 B( 72-C , 76-Br) :   1.0567 B( 73-C , 74-C ) :   1.3588
B( 73-C , 75-Br) :   1.0370 B( 74-C , 98-H ) :   1.0079

-----------------------------------------------------------------------------
         ABSORPTION SPECTRUM VIA TRANSITION ELECTRIC DIPOLE MOMENTS
-----------------------------------------------------------------------------
State   Energy  Wavelength   fosc         T2         TX        TY        TZ
        (cm-1)    (nm)                  (au**2)     (au)      (au)      (au)
-----------------------------------------------------------------------------
   0   13277.9    753.1   1.059986184  26.28121   3.61589   3.50235   0.96958
   1   14910.1    670.7   0.013548194   0.29914  -0.01579   0.54668   0.00561
   2   18058.7    553.8   0.007432308   0.13549   0.33949   0.02044   0.14079
   3   21973.3    455.1   0.172167635   2.57947   0.42629   0.99168  -1.18925
   4   23157.7    431.8   0.000707770   0.01006   0.06775  -0.06374  -0.03754
   5   23926.7    417.9   0.145273906   1.99885   1.14571   0.71294  -0.42181
   6   24632.9    406.0   0.023677658   0.31644  -0.37158  -0.13813  -0.39912
   7   25412.9    393.5   0.005510090   0.07138  -0.22251  -0.13933   0.04954
   8   25697.0    389.2   0.686980041   8.80112  -1.36216  -2.34418   1.20435
   9   26133.2    382.7   0.721796528   9.09282   1.94204   2.27738  -0.36720
  10   26595.8    376.0   0.045104137   0.55831  -0.21917   0.18260  -0.69061
  11   27469.3    364.0   0.004102845   0.04917   0.16561   0.14741   0.00391
  12   27734.5    360.6   0.146212565   1.73556  -0.37259  -1.22065   0.32673
  13   27983.4    357.4   0.038860802   0.45718   0.04861  -0.67292   0.04466
  14   28537.1    350.4   0.144846447   1.67099   0.82692   0.96976   0.21621
  15   28857.9    346.5   0.169258635   1.93091   0.24418   0.74542  -1.14701
  16   29553.4    338.4   0.004480896   0.04992   0.02066  -0.22228   0.00896
  17   30139.1    331.8   0.001314010   0.01435  -0.05375   0.07674   0.07467
  18   30386.8    329.1   0.123387519   1.33679  -0.57987  -0.82318  -0.56826
  19   30798.4    324.7   0.007458775   0.07973   0.01218   0.18592   0.21216
  20   31361.4    318.9   0.044834421   0.47064   0.44299   0.40767  -0.32895
  21   31576.2    316.7   0.037177440   0.38761   0.17668  -0.11405   0.58599
  22   31822.5    314.2   0.063123127   0.65303   0.46050   0.66196   0.05265
  23   32158.0    311.0   0.001761574   0.01803  -0.04046  -0.05066   0.11760
  24   32211.9    310.4   0.002969317   0.03035  -0.05608   0.12123   0.11182
  25   32534.6    307.4   0.033067211   0.33460  -0.31484  -0.46752  -0.12999
  26   32783.1    305.0   0.061497649   0.61757  -0.42725  -0.63009  -0.19495
  27   32844.0    304.5   0.002137509   0.02143  -0.01731   0.08874  -0.11511
  28   33014.3    302.9   0.027607470   0.27530   0.29607   0.27966  -0.33080
  29   33110.0    302.0   0.017991849   0.17889  -0.25119  -0.19600  -0.27818
  30   33211.8    301.1   0.080702830   0.79997  -0.38626  -0.80499   0.05251
  31   33453.0    298.9   0.085350145   0.83993   0.41468   0.47044  -0.66832
  32   33556.7    298.0   0.235705031   2.31241   0.08580   0.78236  -1.30114
  33   33666.0    297.0   0.084872059   0.82994   0.34037   0.80259  -0.26447
  34   33767.5    296.1   0.137799319   1.34346   0.43979   0.90062  -0.58217
  35   34196.2    292.4   0.037040118   0.35659  -0.19398  -0.08153  -0.55885
  36   34342.1    291.2   0.018335230   0.17577  -0.09402  -0.35800   0.19688
  37   34551.0    289.4   0.070009820   0.66707   0.15681   0.53500  -0.59688
  38   34580.1    289.2   0.015407874   0.14669  -0.08256  -0.29742   0.22674
  39   34735.1    287.9   0.280981084   2.66308   0.84088   0.51026   1.30216
  40   34970.1    286.0   0.302023412   2.84328   1.02399   0.31932   1.30106
  41   35422.7    282.3   0.230948049   2.14639  -0.38654  -1.23496  -0.68691
  42   35680.7    280.3   0.216684440   1.99927  -0.74924  -0.98259  -0.68733
  43   36088.3    277.1   0.087765821   0.80063   0.75482   0.14134   0.45925
  44   36567.5    273.5   0.017188288   0.15474   0.23916   0.28930   0.11770
  45   36889.8    271.1   0.004405898   0.03932  -0.08522  -0.15655  -0.08688
  46   37018.7    270.1   0.033949269   0.30191   0.20352   0.50131  -0.09583
  47   37214.3    268.7   0.011939744   0.10562  -0.10335   0.04108  -0.30538
  48   37265.6    268.3   0.002431729   0.02148   0.04137  -0.04704   0.13251
  49   37376.7    267.5   0.001698999   0.01496  -0.06930  -0.04274  -0.09130
  50   37498.6    266.7   0.008257077   0.07249  -0.01343  -0.23558   0.12967
  51   37603.7    265.9   0.052248211   0.45742   0.27565  -0.18639   0.58881
  52   37859.5    264.1   0.003042091   0.02645   0.03498   0.09778  -0.12517
  53   37993.7    263.2   0.040692083   0.35259  -0.31829  -0.22841  -0.44622
  54   38523.0    259.6   0.000242111   0.00207   0.04128  -0.01360  -0.01341
  55   38771.1    257.9   0.076947652   0.65337  -0.02614   0.61843  -0.51984
  56   38878.8    257.2   0.068869478   0.58316  -0.58217  -0.15117  -0.47052
  57   39221.0    255.0   0.014521564   0.12189   0.17492   0.29713  -0.05485
  58   39271.3    254.6   0.025202008   0.21127  -0.36055  -0.28487  -0.01109
  59   39449.1    253.5   0.192991882   1.61056   0.77124   0.92935  -0.38994
  60   39640.2    252.3   0.138599481   1.15107  -0.29112   0.72593  -0.73440
  61   39912.2    250.5   0.032719717   0.26989  -0.20740  -0.46131   0.11859
  62   40015.9    249.9   0.037434342   0.30797  -0.21832  -0.50830   0.04407
  63   40152.7    249.0   0.019886747   0.16305   0.31419   0.24769   0.05465
  64   40161.7    249.0   0.002554393   0.02094  -0.14039  -0.02827   0.02071

FINAL SINGLE POINT ENERGY    -14274.018918999484

DIPOLE MOMENT
-------------
                                X             Y             Z
Electronic contribution:     11.91259     -34.53813     -37.56179
Nuclear contribution   :    -12.51912      33.44514      34.78027
                        -----------------------------------------
Total Dipole Moment    :     -0.60653      -1.09300      -2.78152
                        -----------------------------------------
Magnitude (a.u.)       :      3.04949
Magnitude (Debye)      :      7.75118

Rotational constants in cm-1:     0.001976     0.000104     0.000101
Rotational constants in MHz :    59.250473     3.122036     3.017049

                             ****ORCA TERMINATED NORMALLY****
TOTAL RUN TIME: 0 days 0 hours 10 minutes 8 seconds 195 msec
