                         Program Version 4.2.0 -  RELEASE  -
|  1> # ORCA input file
|  2> # SCF done       -192.436180086837          0.000678008553
|  3> ! CAM-B3LYP def2-SVP def2/J RIJCOSX Grid4 TightSCF
|  4> %maxcore 5000
|  5> %tddft
|  6>     Mode sTDDFT
|  7>     Ethresh 5.0
|  8>     maxcore 5000
|  9> end
| 10>
| 11> %pal
| 12>   nprocs 6
| 13>   end
| 14> * xyz 0 1
| 15>    C        1.17150        -1.92809         2.86715
| 16>    O        0.23393        -2.66186         3.10175
| 17>    C        1.99994        -1.23160         3.86882
| 18>    C        2.97946        -0.46096         3.21828
| 19>    C        3.87649         0.27787         3.97344
| 20>    C        3.77717         0.23449         5.35947
| 21>    C        2.79758        -0.53388         5.99471
| 22>    C        1.89687        -1.27724         5.24397
| 23>   Br        2.68689        -0.57431         7.87977
| 24>   Br        5.00326         1.24038         6.38662
| 25>    C        2.82726        -0.61987         1.77325
| 26>    C        3.58822         0.00954         0.82772
| 27>    C        4.64303         0.89992         1.13165
| 28>    N        5.50894         1.62954         1.31500
| 29>    C        3.44791        -0.11044        -0.57359
| 30>    N        3.41115        -0.13673        -1.72003
| 31>    C        1.72425        -1.54611         1.55141
| 32>    C        1.29956        -2.00425         0.33904
| 33>    C        0.26341        -2.91273         0.03039
| 34>    S       -0.86007        -3.72365         1.11164
| 35>    C       -1.50342        -4.47840        -0.32859
| 36>    N       -0.88420        -4.09453        -1.42795
| 37>    N        0.06255        -3.24979        -1.22803
| 38>    C       -2.56301        -5.42134        -0.27933
| 39>    C       -2.97849        -6.08804        -1.38643
| 40>    C       -3.96591        -7.09825        -1.50722
| 41>    N       -4.90982        -7.52445        -0.60104
| 42>    C       -5.21423        -7.00014         0.70902
| 43>    C       -4.39488        -7.68636         1.80031
| 44>    C       -5.65930        -8.61624        -1.09635
| 45>    O       -6.55028        -9.15426        -0.47627
| 46>    C       -5.11662        -8.84895        -2.41525
| 47>    C       -4.10486        -7.89655        -2.64529
| 48>    C       -3.56379        -8.13929        -3.96683
| 49>    O       -2.71015        -7.58110        -4.61593
| 50>    N       -4.29489        -9.25634        -4.44404
| 51>    C       -4.02041        -9.76822        -5.76507
| 52>    C       -2.95764       -10.86511        -5.73952
| 53>    C       -5.20839        -9.69965        -3.51956
| 54>    C       -6.09136       -10.80523        -3.54982
| 55>    C       -6.14766       -11.84896        -4.41920
| 56>    C       -7.04607       -12.93020        -4.26801
| 57>    S       -6.94615       -14.31496        -5.33432
| 58>    C       -8.22766       -15.17499        -4.52492
| 59>    C       -8.70619       -14.38757        -3.49222
| 60>    C       -8.05573       -13.14705        -3.34409
| 61>    S       -8.75984       -12.27053        -2.01816
| 62>    C       -9.90244       -13.61830        -1.75323
| 63>    S      -11.05644       -13.64954        -0.62323
| 64>    O       -9.70410       -14.62125        -2.61753
| 65>    C       -8.61069       -16.48214        -4.92607
| 66>    C       -9.48501       -17.23646        -4.22898
| 67>    C       -9.85597       -18.59200        -4.54186
| 68>    C      -10.10542       -19.12931        -5.82187
| 69>    C      -10.18777       -18.32083        -7.05791
| 70>    O      -10.09163       -17.13707        -7.18540
| 71>    S      -10.53573       -19.39871        -8.44983
| 72>    C      -10.65463       -20.85936        -7.41830
| 73>    O      -10.90659       -21.93934        -7.85993
| 74>    C      -10.40698       -20.48086        -6.01020
| 75>    C      -10.51801       -21.40897        -4.95784
| 76>    C      -10.31003       -20.86074        -3.68553
| 77>    C       -9.99659       -19.51964        -3.49731
| 78>    C       -9.76554       -19.31251        -2.04821
| 79>    O       -9.45847       -18.32719        -1.45269
| 80>    O       -9.94680       -20.52663        -1.43549
| 81>    C      -10.26131       -21.50851        -2.34587
| 82>    O      -10.42057       -22.64198        -2.02259
| 83>    C      -10.81381       -22.81465        -5.19010
| 84>    C      -11.69256       -23.51969        -4.48941
| 85>    H        4.64677         0.88216         3.52301
| 86>    H        1.13561        -1.87563         5.72001
| 87>    H        1.80828        -1.66420        -0.55475
| 88>    H       -2.97627        -5.59664         0.70029
| 89>    H       -2.46093        -5.87477        -2.31385
| 90>    H       -6.27446        -7.21060         0.88155
| 91>    H       -5.06799        -5.91835         0.70808
| 92>    H       -4.65227        -8.74178         1.83816
| 93>    H       -4.61857        -7.24022         2.76539
| 94>    H       -3.32723        -7.60098         1.60964
| 95>    H       -3.64014        -8.92200        -6.34567
| 96>    H       -4.95137       -10.11416        -6.21890
| 97>    H       -2.01478       -10.44961        -5.39359
| 98>    H       -2.81435       -11.26404        -6.73984
| 99>    H       -3.24047       -11.67623        -5.07196
|100>    H       -6.76600       -10.80957        -2.70222
|101>    H       -5.47199       -11.93432        -5.25488
|102>    H       -8.11876       -16.86214        -5.80926
|103>    H       -9.87386       -16.86062        -3.29287
|104>    H      -10.30174       -23.26285        -6.03024
|105>    H      -12.27176       -23.09238        -3.68933
|106>    H      -11.87544       -24.55519        -4.71503
|107> *
|108>
|109>                          ****END OF INPUT****

CARTESIAN COORDINATES (ANGSTROEM)
---------------------------------
  C      1.171500   -1.928090    2.867150
  O      0.233930   -2.661860    3.101750
  C      1.999940   -1.231600    3.868820
  C      2.979460   -0.460960    3.218280
  C      3.876490    0.277870    3.973440
  C      3.777170    0.234490    5.359470
  C      2.797580   -0.533880    5.994710
  C      1.896870   -1.277240    5.243970
  Br     2.686890   -0.574310    7.879770
  Br     5.003260    1.240380    6.386620
  C      2.827260   -0.619870    1.773250
  C      3.588220    0.009540    0.827720
  C      4.643030    0.899920    1.131650
  N      5.508940    1.629540    1.315000
  C      3.447910   -0.110440   -0.573590
  N      3.411150   -0.136730   -1.720030
  C      1.724250   -1.546110    1.551410
  C      1.299560   -2.004250    0.339040
  C      0.263410   -2.912730    0.030390
  S     -0.860070   -3.723650    1.111640
  C     -1.503420   -4.478400   -0.328590
  N     -0.884200   -4.094530   -1.427950
  N      0.062550   -3.249790   -1.228030
  C     -2.563010   -5.421340   -0.279330
  C     -2.978490   -6.088040   -1.386430
  C     -3.965910   -7.098250   -1.507220
  N     -4.909820   -7.524450   -0.601040
  C     -5.214230   -7.000140    0.709020
  C     -4.394880   -7.686360    1.800310
  C     -5.659300   -8.616240   -1.096350
  O     -6.550280   -9.154260   -0.476270
  C     -5.116620   -8.848950   -2.415250
  C     -4.104860   -7.896550   -2.645290
  C     -3.563790   -8.139290   -3.966830
  O     -2.710150   -7.581100   -4.615930
  N     -4.294890   -9.256340   -4.444040
  C     -4.020410   -9.768220   -5.765070
  C     -2.957640  -10.865110   -5.739520
  C     -5.208390   -9.699650   -3.519560
  C     -6.091360  -10.805230   -3.549820
  C     -6.147660  -11.848960   -4.419200
  C     -7.046070  -12.930200   -4.268010
  S     -6.946150  -14.314960   -5.334320
  C     -8.227660  -15.174990   -4.524920
  C     -8.706190  -14.387570   -3.492220
  C     -8.055730  -13.147050   -3.344090
  S     -8.759840  -12.270530   -2.018160
  C     -9.902440  -13.618300   -1.753230
  S    -11.056440  -13.649540   -0.623230
  O     -9.704100  -14.621250   -2.617530
  C     -8.610690  -16.482140   -4.926070
  C     -9.485010  -17.236460   -4.228980
  C     -9.855970  -18.592000   -4.541860
  C    -10.105420  -19.129310   -5.821870
  C    -10.187770  -18.320830   -7.057910
  O    -10.091630  -17.137070   -7.185400
  S    -10.535730  -19.398710   -8.449830
  C    -10.654630  -20.859360   -7.418300
  O    -10.906590  -21.939340   -7.859930
  C    -10.406980  -20.480860   -6.010200
  C    -10.518010  -21.408970   -4.957840
  C    -10.310030  -20.860740   -3.685530
  C     -9.996590  -19.519640   -3.497310
  C     -9.765540  -19.312510   -2.048210
  O     -9.458470  -18.327190   -1.452690
  O     -9.946800  -20.526630   -1.435490
  C    -10.261310  -21.508510   -2.345870
  O    -10.420570  -22.641980   -2.022590
  C    -10.813810  -22.814650   -5.190100
  C    -11.692560  -23.519690   -4.489410
  H      4.646770    0.882160    3.523010
  H      1.135610   -1.875630    5.720010
  H      1.808280   -1.664200   -0.554750
  H     -2.976270   -5.596640    0.700290
  H     -2.460930   -5.874770   -2.313850
  H     -6.274460   -7.210600    0.881550
  H     -5.067990   -5.918350    0.708080
  H     -4.652270   -8.741780    1.838160
  H     -4.618570   -7.240220    2.765390
  H     -3.327230   -7.600980    1.609640
  H     -3.640140   -8.922000   -6.345670
  H     -4.951370  -10.114160   -6.218900
  H     -2.014780  -10.449610   -5.393590
  H     -2.814350  -11.264040   -6.739840
  H     -3.240470  -11.676230   -5.071960
  H     -6.766000  -10.809570   -2.702220
  H     -5.471990  -11.934320   -5.254880
  H     -8.118760  -16.862140   -5.809260
  H     -9.873860  -16.860620   -3.292870
  H    -10.301740  -23.262850   -6.030240
  H    -12.271760  -23.092380   -3.689330
  H    -11.875440  -24.555190   -4.715030

 Total Charge           Charge          ....    0
 Multiplicity           Mult            ....    1
 Number of Electrons    NEL             ....  574
 Basis Dimension        Dim             .... 1146

ORBITAL ENERGIES
----------------

  NO   OCC          E(Eh)            E(eV)
   0   2.0000    -482.884737    -13139.9617
   1   2.0000    -482.882832    -13139.9099
   2   2.0000     -88.987932     -2421.4847
   3   2.0000     -88.986928     -2421.4574
   4   2.0000     -88.985959     -2421.4310
   5   2.0000     -88.960387     -2420.7352
   6   2.0000     -88.900800     -2419.1138
   7   2.0000     -62.562316     -1702.4072
   8   2.0000     -62.560422     -1702.3556
   9   2.0000     -56.396276     -1534.6207
  10   2.0000     -56.394393     -1534.5694
  11   2.0000     -56.393615     -1534.5483
  12   2.0000     -56.393509     -1534.5454
  13   2.0000     -56.391713     -1534.4965
  14   2.0000     -56.391608     -1534.4937
  15   2.0000     -19.325036      -525.8610
  16   2.0000     -19.298482      -525.1384
  17   2.0000     -19.252742      -523.8937
  18   2.0000     -19.252111      -523.8766
  19   2.0000     -19.246268      -523.7176
  20   2.0000     -19.245193      -523.6883
  21   2.0000     -19.243295      -523.6367
  22   2.0000     -19.201358      -522.4955
  23   2.0000     -19.195690      -522.3413
  24   2.0000     -14.463342      -393.5675
  25   2.0000     -14.460036      -393.4776
  26   2.0000     -14.457087      -393.3973
  27   2.0000     -14.445450      -393.0807
  28   2.0000     -14.428762      -392.6266
  29   2.0000     -14.428310      -392.6143
  30   2.0000     -10.440466      -284.0995
  31   2.0000     -10.439337      -284.0688
  32   2.0000     -10.417770      -283.4819
  33   2.0000     -10.416639      -283.4512
  34   2.0000     -10.414853      -283.4026
  35   2.0000     -10.391473      -282.7664
  36   2.0000     -10.384230      -282.5693
  37   2.0000     -10.379408      -282.4380
  38   2.0000     -10.372855      -282.2597
  39   2.0000     -10.362888      -281.9885
  40   2.0000     -10.362449      -281.9766
  41   2.0000     -10.361490      -281.9505
  42   2.0000     -10.357937      -281.8538
  43   2.0000     -10.353559      -281.7347
  44   2.0000     -10.352236      -281.6987
  45   2.0000     -10.349114      -281.6137
  46   2.0000     -10.347093      -281.5587
  47   2.0000     -10.344733      -281.4945
  48   2.0000     -10.342174      -281.4249
  49   2.0000     -10.339767      -281.3594
  50   2.0000     -10.338853      -281.3345
  51   2.0000     -10.337568      -281.2995
  52   2.0000     -10.336913      -281.2817
  53   2.0000     -10.336627      -281.2739
  54   2.0000     -10.336327      -281.2657
  55   2.0000     -10.336284      -281.2646
  56   2.0000     -10.333888      -281.1994
  57   2.0000     -10.330008      -281.0938
  58   2.0000     -10.329483      -281.0795
  59   2.0000     -10.328414      -281.0504
  60   2.0000     -10.321712      -280.8681
  61   2.0000     -10.321644      -280.8662
  62   2.0000     -10.320442      -280.8335
  63   2.0000     -10.320219      -280.8274
  64   2.0000     -10.317441      -280.7518
  65   2.0000     -10.315668      -280.7036
  66   2.0000     -10.314251      -280.6650
  67   2.0000     -10.314132      -280.6618
  68   2.0000     -10.308977      -280.5215
  69   2.0000     -10.308528      -280.5093
  70   2.0000     -10.307802      -280.4895
  71   2.0000     -10.299008      -280.2502
  72   2.0000     -10.290430      -280.0168
  73   2.0000     -10.286039      -279.8974
  74   2.0000     -10.273957      -279.5686
  75   2.0000     -10.271764      -279.5089
  76   2.0000     -10.269894      -279.4580
  77   2.0000     -10.268709      -279.4258
  78   2.0000      -8.791624      -239.2323
  79   2.0000      -8.789737      -239.1809
  80   2.0000      -8.083225      -219.9557
  81   2.0000      -8.082074      -219.9244
  82   2.0000      -8.080182      -219.8729
  83   2.0000      -8.059762      -219.3173
  84   2.0000      -7.998369      -217.6467
  85   2.0000      -6.627773      -180.3509
  86   2.0000      -6.625914      -180.3003
  87   2.0000      -6.613750      -179.9693
  88   2.0000      -6.612944      -179.9473
  89   2.0000      -6.611846      -179.9175
  90   2.0000      -6.611028      -179.8952
  91   2.0000      -6.052617      -164.7001
  92   2.0000      -6.052091      -164.6858
  93   2.0000      -6.048986      -164.6013
  94   2.0000      -6.048731      -164.5943
  95   2.0000      -6.047786      -164.5686
  96   2.0000      -6.045139      -164.4966
  97   2.0000      -6.044857      -164.4889
  98   2.0000      -6.042822      -164.4335
  99   2.0000      -6.042594      -164.4273
 100   2.0000      -6.028578      -164.0459
 101   2.0000      -6.025344      -163.9580
 102   2.0000      -6.020836      -163.8353
 103   2.0000      -5.967831      -162.3929
 104   2.0000      -5.965212      -162.3217
 105   2.0000      -5.958344      -162.1348
 106   2.0000      -2.743667       -74.6590
 107   2.0000      -2.741848       -74.6095
 108   2.0000      -2.739908       -74.5567
 109   2.0000      -2.739290       -74.5399
 110   2.0000      -2.738029       -74.5056
 111   2.0000      -2.737384       -74.4880
 112   2.0000      -2.728131       -74.2362
 113   2.0000      -2.728103       -74.2355
 114   2.0000      -2.726198       -74.1836
 115   2.0000      -2.726184       -74.1832
 116   2.0000      -1.248609       -33.9764
 117   2.0000      -1.248533       -33.9743
 118   2.0000      -1.178781       -32.0763
 119   2.0000      -1.174741       -31.9663
 120   2.0000      -1.174270       -31.9535
 121   2.0000      -1.159994       -31.5650
 122   2.0000      -1.156364       -31.4663
 123   2.0000      -1.142444       -31.0875
 124   2.0000      -1.136241       -30.9187
 125   2.0000      -1.134240       -30.8642
 126   2.0000      -1.071742       -29.1636
 127   2.0000      -1.061711       -28.8906
 128   2.0000      -1.036137       -28.1947
 129   2.0000      -1.025899       -27.9161
 130   2.0000      -1.022445       -27.8222
 131   2.0000      -1.019173       -27.7331
 132   2.0000      -1.006513       -27.3886
 133   2.0000      -0.989114       -26.9152
 134   2.0000      -0.962292       -26.1853
 135   2.0000      -0.958045       -26.0697
 136   2.0000      -0.957754       -26.0618
 137   2.0000      -0.941222       -25.6119
 138   2.0000      -0.941183       -25.6109
 139   2.0000      -0.938101       -25.5270
 140   2.0000      -0.930135       -25.3103
 141   2.0000      -0.927819       -25.2472
 142   2.0000      -0.920706       -25.0537
 143   2.0000      -0.906673       -24.6718
 144   2.0000      -0.902644       -24.5622
 145   2.0000      -0.899323       -24.4718
 146   2.0000      -0.894226       -24.3331
 147   2.0000      -0.884554       -24.0699
 148   2.0000      -0.878559       -23.9068
 149   2.0000      -0.862859       -23.4796
 150   2.0000      -0.861880       -23.4530
 151   2.0000      -0.856524       -23.3072
 152   2.0000      -0.840682       -22.8761
 153   2.0000      -0.828830       -22.5536
 154   2.0000      -0.816829       -22.2270
 155   2.0000      -0.810340       -22.0505
 156   2.0000      -0.807681       -21.9781
 157   2.0000      -0.798789       -21.7362
 158   2.0000      -0.790274       -21.5044
 159   2.0000      -0.779790       -21.2192
 160   2.0000      -0.778074       -21.1725
 161   2.0000      -0.769475       -20.9385
 162   2.0000      -0.768145       -20.9023
 163   2.0000      -0.746233       -20.3060
 164   2.0000      -0.741234       -20.1700
 165   2.0000      -0.733863       -19.9694
 166   2.0000      -0.724654       -19.7188
 167   2.0000      -0.718469       -19.5505
 168   2.0000      -0.714199       -19.4344
 169   2.0000      -0.708969       -19.2920
 170   2.0000      -0.706160       -19.2156
 171   2.0000      -0.703126       -19.1330
 172   2.0000      -0.691265       -18.8103
 173   2.0000      -0.685654       -18.6576
 174   2.0000      -0.683645       -18.6029
 175   2.0000      -0.680578       -18.5195
 176   2.0000      -0.662498       -18.0275
 177   2.0000      -0.653086       -17.7714
 178   2.0000      -0.647884       -17.6298
 179   2.0000      -0.642474       -17.4826
 180   2.0000      -0.638869       -17.3845
 181   2.0000      -0.636089       -17.3089
 182   2.0000      -0.632036       -17.1986
 183   2.0000      -0.629079       -17.1181
 184   2.0000      -0.625858       -17.0305
 185   2.0000      -0.611200       -16.6316
 186   2.0000      -0.609434       -16.5835
 187   2.0000      -0.607334       -16.5264
 188   2.0000      -0.599027       -16.3004
 189   2.0000      -0.595697       -16.2098
 190   2.0000      -0.592362       -16.1190
 191   2.0000      -0.589363       -16.0374
 192   2.0000      -0.587212       -15.9788
 193   2.0000      -0.584284       -15.8992
 194   2.0000      -0.579071       -15.7573
 195   2.0000      -0.576633       -15.6910
 196   2.0000      -0.575367       -15.6565
 197   2.0000      -0.566875       -15.4255
 198   2.0000      -0.564985       -15.3740
 199   2.0000      -0.563079       -15.3222
 200   2.0000      -0.559795       -15.2328
 201   2.0000      -0.557862       -15.1802
 202   2.0000      -0.556982       -15.1563
 203   2.0000      -0.555291       -15.1102
 204   2.0000      -0.552666       -15.0388
 205   2.0000      -0.551753       -15.0140
 206   2.0000      -0.549590       -14.9551
 207   2.0000      -0.548023       -14.9125
 208   2.0000      -0.547518       -14.8987
 209   2.0000      -0.541503       -14.7350
 210   2.0000      -0.539414       -14.6782
 211   2.0000      -0.534367       -14.5409
 212   2.0000      -0.528805       -14.3895
 213   2.0000      -0.523564       -14.2469
 214   2.0000      -0.520013       -14.1503
 215   2.0000      -0.519411       -14.1339
 216   2.0000      -0.517957       -14.0943
 217   2.0000      -0.514893       -14.0109
 218   2.0000      -0.513432       -13.9712
 219   2.0000      -0.512882       -13.9562
 220   2.0000      -0.511856       -13.9283
 221   2.0000      -0.510540       -13.8925
 222   2.0000      -0.504977       -13.7411
 223   2.0000      -0.504691       -13.7333
 224   2.0000      -0.502789       -13.6816
 225   2.0000      -0.501424       -13.6444
 226   2.0000      -0.498186       -13.5563
 227   2.0000      -0.494891       -13.4667
 228   2.0000      -0.491899       -13.3852
 229   2.0000      -0.488443       -13.2912
 230   2.0000      -0.484002       -13.1704
 231   2.0000      -0.483137       -13.1468
 232   2.0000      -0.479053       -13.0357
 233   2.0000      -0.475758       -12.9460
 234   2.0000      -0.472489       -12.8571
 235   2.0000      -0.469945       -12.7879
 236   2.0000      -0.469476       -12.7751
 237   2.0000      -0.464263       -12.6332
 238   2.0000      -0.462727       -12.5914
 239   2.0000      -0.461359       -12.5542
 240   2.0000      -0.460406       -12.5283
 241   2.0000      -0.459147       -12.4940
 242   2.0000      -0.455703       -12.4003
 243   2.0000      -0.454266       -12.3612
 244   2.0000      -0.454153       -12.3581
 245   2.0000      -0.451616       -12.2891
 246   2.0000      -0.446145       -12.1402
 247   2.0000      -0.443133       -12.0583
 248   2.0000      -0.442338       -12.0366
 249   2.0000      -0.438988       -11.9455
 250   2.0000      -0.438265       -11.9258
 251   2.0000      -0.437888       -11.9155
 252   2.0000      -0.433987       -11.8094
 253   2.0000      -0.429357       -11.6834
 254   2.0000      -0.422269       -11.4905
 255   2.0000      -0.420830       -11.4514
 256   2.0000      -0.420476       -11.4417
 257   2.0000      -0.416691       -11.3387
 258   2.0000      -0.408577       -11.1179
 259   2.0000      -0.403233       -10.9725
 260   2.0000      -0.402128       -10.9424
 261   2.0000      -0.398219       -10.8361
 262   2.0000      -0.397233       -10.8093
 263   2.0000      -0.395481       -10.7616
 264   2.0000      -0.384331       -10.4582
 265   2.0000      -0.383584       -10.4378
 266   2.0000      -0.381301       -10.3757
 267   2.0000      -0.377500       -10.2723
 268   2.0000      -0.375912       -10.2291
 269   2.0000      -0.362236        -9.8570
 270   2.0000      -0.361158        -9.8276
 271   2.0000      -0.358640        -9.7591
 272   2.0000      -0.356630        -9.7044
 273   2.0000      -0.355823        -9.6824
 274   2.0000      -0.354298        -9.6409
 275   2.0000      -0.353799        -9.6274
 276   2.0000      -0.342609        -9.3229
 277   2.0000      -0.339122        -9.2280
 278   2.0000      -0.331364        -9.0169
 279   2.0000      -0.327365        -8.9081
 280   2.0000      -0.324764        -8.8373
 281   2.0000      -0.322284        -8.7698
 282   2.0000      -0.309326        -8.4172
 283   2.0000      -0.305611        -8.3161
 284   2.0000      -0.295559        -8.0426
 285   2.0000      -0.287999        -7.8369
 286   2.0000      -0.243275        -6.6199
 287   0.0000      -0.119339        -3.2474
 288   0.0000      -0.103661        -2.8207
 289   0.0000      -0.097628        -2.6566
 290   0.0000      -0.082132        -2.2349
 291   0.0000      -0.072180        -1.9641

MULLIKEN ATOMIC CHARGES
-----------------------
   0 C :    0.170646
   1 O :   -0.161377
   2 C :   -0.018998
   3 C :    0.035265
   4 C :   -0.006685
   5 C :   -0.026128
   6 C :   -0.014800
   7 C :   -0.015843
   8 Br:    0.021081
   9 Br:    0.029373
  10 C :    0.313906
  11 C :   -0.331894
  12 C :   -0.187388
  13 N :    0.164119
  14 C :   -0.197585
  15 N :    0.180046
  16 C :   -0.083705
  17 C :    0.025934
  18 C :   -0.109449
  19 S :    0.175046
  20 C :   -0.083272
  21 N :   -0.043479
  22 N :   -0.022184
  23 C :    0.046623
  24 C :   -0.012328
  25 C :    0.120339
  26 N :   -0.275568
  27 C :    0.103261
  28 C :    0.000710
  29 C :    0.152676
  30 O :   -0.196272
  31 C :   -0.053676
  32 C :   -0.029101
  33 C :    0.153018
  34 O :   -0.173841
  35 N :   -0.275490
  36 C :    0.100922
  37 C :    0.004138
  38 C :    0.128113
  39 C :   -0.047121
  40 C :    0.085301
  41 C :   -0.211686
  42 S :    0.169518
  43 C :   -0.194553
  44 C :    0.216828
  45 C :   -0.008987
  46 S :    0.180708
  47 C :    0.059384
  48 S :   -0.106967
  49 O :   -0.149654
  50 C :    0.135310
  51 C :   -0.067463
  52 C :    0.042895
  53 C :    0.014717
  54 C :    0.029231
  55 O :   -0.121102
  56 S :    0.024114
  57 C :    0.035747
  58 O :   -0.120809
  59 C :    0.040729
  60 C :    0.001262
  61 C :   -0.080804
  62 C :   -0.065063
  63 C :    0.236315
  64 O :   -0.098479
  65 O :   -0.228691
  66 C :    0.228856
  67 O :   -0.088793
  68 C :   -0.047782
  69 C :    0.035815
  70 H :    0.010630
  71 H :    0.008135
  72 H :    0.035419
  73 H :   -0.013912
  74 H :    0.043161
  75 H :    0.042281
  76 H :    0.025095
  77 H :    0.035013
  78 H :    0.023139
  79 H :    0.018805
  80 H :    0.044390
  81 H :    0.023438
  82 H :    0.035681
  83 H :    0.023682
  84 H :    0.016533
  85 H :    0.008847
  86 H :   -0.020857
  87 H :   -0.014484
  88 H :    0.045767
  89 H :    0.032454
  90 H :    0.031651
  91 H :    0.040200
Sum of atomic charges:   -0.0000000

LOEWDIN ATOMIC CHARGES
----------------------
   0 C :    0.085830
   1 O :   -0.151062
   2 C :   -0.044500
   3 C :   -0.010174
   4 C :   -0.005771
   5 C :   -0.116254
   6 C :   -0.122156
   7 C :    0.008553
   8 Br:    0.142855
   9 Br:    0.147552
  10 C :    0.070577
  11 C :   -0.119390
  12 C :   -0.018202
  13 N :   -0.036798
  14 C :   -0.026322
  15 N :   -0.024724
  16 C :   -0.091741
  17 C :    0.059046
  18 C :   -0.178041
  19 S :    0.469169
  20 C :   -0.147759
  21 N :   -0.074806
  22 N :   -0.036108
  23 C :   -0.053627
  24 C :    0.019576
  25 C :    0.063461
  26 N :   -0.005241
  27 C :    0.035732
  28 C :   -0.063347
  29 C :    0.077883
  30 O :   -0.197105
  31 C :   -0.118621
  32 C :   -0.101930
  33 C :    0.084936
  34 O :   -0.175190
  35 N :   -0.007224
  36 C :    0.035610
  37 C :   -0.063030
  38 C :    0.080667
  39 C :   -0.035143
  40 C :   -0.018742
  41 C :   -0.188166
  42 S :    0.461251
  43 C :   -0.188013
  44 C :    0.003364
  45 C :   -0.204176
  46 S :    0.418863
  47 C :   -0.236564
  48 S :    0.024270
  49 O :   -0.000504
  50 C :    0.004588
  51 C :   -0.029034
  52 C :    0.028209
  53 C :   -0.056786
  54 C :   -0.046446
  55 O :   -0.109944
  56 S :    0.308847
  57 C :   -0.045212
  58 O :   -0.104018
  59 C :   -0.051057
  60 C :    0.030227
  61 C :   -0.043444
  62 C :   -0.043499
  63 C :    0.105485
  64 O :   -0.092304
  65 O :   -0.054145
  66 C :    0.106831
  67 O :   -0.086624
  68 C :   -0.039648
  69 C :    0.015252
  70 H :    0.045550
  71 H :    0.046955
  72 H :    0.060600
  73 H :    0.030683
  74 H :    0.057176
  75 H :    0.038165
  76 H :    0.023340
  77 H :    0.035143
  78 H :    0.030932
  79 H :    0.020374
  80 H :    0.039155
  81 H :    0.022545
  82 H :    0.035758
  83 H :    0.031096
  84 H :    0.019813
  85 H :    0.035354
  86 H :    0.032257
  87 H :    0.030749
  88 H :    0.039597
  89 H :    0.038890
  90 H :    0.025443
  91 H :    0.034384

  Mayer bond orders larger than 0.100000
B(  0-C ,  1-O ) :   2.1615 B(  0-C ,  2-C ) :   0.9612 B(  0-C , 16-C ) :   0.9557
B(  2-C ,  3-C ) :   1.3278 B(  2-C ,  7-C ) :   1.3672 B(  3-C ,  4-C ) :   1.3651
B(  3-C , 10-C ) :   0.9940 B(  4-C ,  5-C ) :   1.3735 B(  4-C , 70-H ) :   0.9774
B(  5-C ,  6-C ) :   1.4156 B(  5-C ,  9-Br) :   1.0628 B(  6-C ,  7-C ) :   1.3565
B(  6-C ,  8-Br) :   1.0361 B(  7-C , 71-H ) :   1.0076 B( 10-C , 11-C ) :   1.6605
B( 10-C , 16-C ) :   1.0635 B( 11-C , 12-C ) :   1.1413 B( 11-C , 14-C ) :   1.1372
B( 12-C , 13-N ) :   2.9689 B( 14-C , 15-N ) :   2.9727 B( 16-C , 17-C ) :   1.5631
B( 17-C , 18-C ) :   1.1734 B( 17-C , 72-H ) :   0.9422 B( 18-C , 19-S ) :   1.0849
B( 18-C , 22-N ) :   1.5882 B( 19-S , 20-C ) :   1.1138 B( 19-S , 22-N ) :   0.1034
B( 20-C , 21-N ) :   1.5700 B( 20-C , 23-C ) :   1.1369 B( 21-N , 22-N ) :   1.3020
B( 23-C , 24-C ) :   1.6134 B( 23-C , 73-H ) :   0.9490 B( 24-C , 25-C ) :   1.1584
B( 24-C , 74-H ) :   0.9534 B( 25-C , 26-N ) :   1.1651 B( 25-C , 32-C ) :   1.3465
B( 26-N , 27-C ) :   0.9421 B( 26-N , 29-C ) :   1.0403 B( 27-C , 28-C ) :   1.1165
B( 27-C , 75-H ) :   0.9275 B( 27-C , 76-H ) :   0.9511 B( 28-C , 77-H ) :   0.9605
B( 28-C , 78-H ) :   0.9688 B( 28-C , 79-H ) :   0.9664 B( 29-C , 30-O ) :   2.1153
B( 29-C , 31-C ) :   0.9853 B( 31-C , 32-C ) :   1.2485 B( 31-C , 38-C ) :   1.3191
B( 32-C , 33-C ) :   0.9671 B( 33-C , 34-O ) :   2.1486 B( 33-C , 35-N ) :   1.0215
B( 35-N , 36-C ) :   0.9422 B( 35-N , 38-C ) :   1.1773 B( 36-C , 37-C ) :   1.1173
B( 36-C , 80-H ) :   0.9274 B( 36-C , 81-H ) :   0.9514 B( 37-C , 82-H ) :   0.9605
B( 37-C , 83-H ) :   0.9684 B( 37-C , 84-H ) :   0.9664 B( 38-C , 39-C ) :   1.2209
B( 39-C , 40-C ) :   1.5623 B( 39-C , 85-H ) :   0.9399 B( 40-C , 41-C ) :   1.1663
B( 40-C , 86-H ) :   0.9616 B( 41-C , 42-S ) :   1.1182 B( 41-C , 45-C ) :   1.4992
B( 42-S , 43-C ) :   1.0990 B( 43-C , 44-C ) :   1.4853 B( 43-C , 50-C ) :   1.1573
B( 44-C , 45-C ) :   1.2741 B( 44-C , 49-O ) :   1.0934 B( 45-C , 46-S ) :   1.0181
B( 46-S , 47-C ) :   1.0438 B( 46-S , 48-S ) :   0.1176 B( 47-C , 48-S ) :   1.7968
B( 47-C , 49-O ) :   1.0683 B( 50-C , 51-C ) :   1.7068 B( 50-C , 87-H ) :   0.9454
B( 51-C , 52-C ) :   1.1043 B( 51-C , 88-H ) :   0.9331 B( 52-C , 53-C ) :   1.3505
B( 52-C , 62-C ) :   1.3391 B( 53-C , 54-C ) :   0.8427 B( 53-C , 59-C ) :   1.3107
B( 54-C , 55-O ) :   2.1864 B( 54-C , 56-S ) :   1.0286 B( 55-O , 56-S ) :   0.1065
B( 56-S , 57-C ) :   1.0319 B( 56-S , 58-O ) :   0.1060 B( 57-C , 58-O ) :   2.1726
B( 57-C , 59-C ) :   0.8453 B( 59-C , 60-C ) :   1.3815 B( 60-C , 61-C ) :   1.3486
B( 60-C , 68-C ) :   1.0731 B( 61-C , 62-C ) :   1.3526 B( 61-C , 66-C ) :   0.8955
B( 62-C , 63-C ) :   0.9105 B( 63-C , 64-O ) :   2.2358 B( 63-C , 65-O ) :   1.0614
B( 65-O , 66-C ) :   1.0484 B( 66-C , 67-O ) :   2.2710 B( 68-C , 69-C ) :   1.9585
B( 68-C , 89-H ) :   0.9389 B( 69-C , 90-H ) :   0.9628 B( 69-C , 91-H ) :   0.9503

-----------------------------------------------------------------------------
         ABSORPTION SPECTRUM VIA TRANSITION ELECTRIC DIPOLE MOMENTS
-----------------------------------------------------------------------------
State   Energy  Wavelength   fosc         T2         TX        TY        TZ
        (cm-1)    (nm)                  (au**2)     (au)      (au)      (au)
-----------------------------------------------------------------------------
   0   13227.4    756.0   1.583768167  39.41791   3.15161   4.78065   2.57499
   1   18627.6    536.8   0.026234218   0.46365  -0.04265  -0.43520  -0.52195
   2   19473.6    513.5   0.056611855   0.95705  -0.19621   0.95725  -0.04723
   3   22746.3    439.6   0.002084764   0.03017  -0.01457  -0.17110  -0.02621
   4   23567.2    424.3   0.149495772   2.08832  -0.52943  -1.30660  -0.31752
   5   23742.9    421.2   0.467381860   6.48057  -1.18491  -2.23585   0.27841
   6   24468.2    408.7   0.138447802   1.86277   0.60762   1.01794  -0.67629
   7   24686.3    405.1   0.085451845   1.13957  -0.27702  -0.90776  -0.48868
   8   24962.7    400.6   0.109581094   1.44517   0.92923  -0.07227  -0.75926
   9   25769.3    388.1   0.002105436   0.02690  -0.13847  -0.05305  -0.07007
  10   26040.4    384.0   0.696340264   8.80338   2.12801   1.89008   0.83819
  11   26830.3    372.7   0.000464280   0.00570   0.02496   0.05377  -0.04672
  12   27651.1    361.6   0.001179758   0.01405   0.02595   0.10667   0.04467
  13   27806.4    359.6   0.000837753   0.00992   0.07429   0.02993   0.05919
  14   28786.0    347.4   0.153051541   1.75038  -0.26983  -0.26965  -1.26683
  15   28841.6    346.7   0.014112333   0.16109   0.03692   0.11884   0.38158
  16   29225.3    342.2   0.013456402   0.15158   0.02678  -0.38629  -0.04057
  17   29675.3    337.0   0.000918642   0.01019  -0.08416  -0.01378   0.05403
  18   30160.5    331.6   0.027890922   0.30444   0.08889  -0.08978   0.53710
  19   30714.5    325.6   0.000233552   0.00250   0.01017  -0.04672   0.01474
  20   30854.8    324.1   0.025917062   0.27653   0.06974  -0.48571  -0.18908
  21   31302.0    319.5   0.026620642   0.27998   0.05621   0.10060   0.51643
  22   31464.8    317.8   0.093310052   0.97629  -0.07941  -0.09500  -0.98028
  23   31566.4    316.8   0.025992534   0.27108  -0.13258   0.17582   0.47179
  24   31858.7    313.9   0.045479055   0.46996  -0.51762  -0.43526  -0.11213
  25   32170.3    310.8   0.000292320   0.00299  -0.01203  -0.04887   0.02142
  26   32349.9    309.1   0.008967869   0.09126   0.11205   0.09183   0.26509
  27   32490.4    307.8   0.056777678   0.57531   0.34433   0.40725   0.53934
  28   32700.5    305.8   0.017483111   0.17601  -0.09006  -0.39326  -0.11511
  29   33072.9    302.4   0.021992389   0.21892  -0.18888  -0.07306  -0.42178
  30   33569.6    297.9   0.026852598   0.26334   0.16470  -0.17614   0.45298
  31   33726.4    296.5   0.007209505   0.07037  -0.00760   0.26394  -0.02558
  32   33838.7    295.5   0.258346534   2.51341  -0.12583  -0.06445   1.57906
  33   34058.8    293.6   0.004510712   0.04360   0.19850   0.04050  -0.05057
  34   34208.5    292.3   0.399762244   3.84718  -1.04056  -0.84825   1.43000
  35   34603.8    289.0   0.002433362   0.02315  -0.02710   0.00787  -0.14951
  36   35009.5    285.6   0.038147188   0.35872   0.20760   0.50523  -0.24569
  37   35453.6    282.1   0.003595511   0.03339  -0.07832  -0.04871   0.15773
  38   35469.0    281.9   0.023340825   0.21664   0.28425   0.04675  -0.36559
  39   36020.2    277.6   0.025558379   0.23359  -0.13425  -0.29280  -0.36033
  40   37198.6    268.8   0.000011792   0.00010   0.00858  -0.00542  -0.00113
  41   37283.9    268.2   0.011981389   0.10579  -0.00567   0.26027   0.19500
  42   37512.2    266.6   0.435805737   3.82469   1.44440   1.19886  -0.54874
  43   37746.3    264.9   0.000697726   0.00609   0.00667   0.05421  -0.05570
  44   37970.5    263.4   0.011903221   0.10320  -0.10774  -0.20326  -0.22424
  45   38165.1    262.0   0.019427932   0.16759  -0.39747  -0.03677   0.09086
  46   38229.1    261.6   0.000300524   0.00259  -0.03712  -0.02873   0.01962
  47   38404.2    260.4   0.028951977   0.24818   0.35140   0.22530  -0.27193
  48   38474.6    259.9   0.000577841   0.00494  -0.00549  -0.03918   0.05813
  49   38836.7    257.5   0.094180433   0.79835   0.31771   0.78224  -0.29243
  50   38995.2    256.4   0.018826667   0.15894   0.15127   0.36073  -0.07701
  51   39607.6    252.5   0.018280072   0.15194  -0.06547  -0.28370  -0.25917
  52   39749.3    251.6   0.238673148   1.97674   0.51899   0.48346   1.21394
  53   39854.7    250.9   0.023859760   0.19709  -0.11452   0.35981   0.23347
  54   39974.0    250.2   0.006996394   0.05762   0.22763   0.01234  -0.07519
  55   40003.2    250.0   0.009377741   0.07718  -0.15769   0.10514   0.20311

FINAL SINGLE POINT ENERGY     -9982.599766550140

DIPOLE MOMENT
-------------
                                X             Y             Z
Electronic contribution:    159.37021     202.09331     174.69560
Nuclear contribution   :   -160.08892    -203.69729    -174.32266
                        -----------------------------------------
Total Dipole Moment    :     -0.71871      -1.60398       0.37293
                        -----------------------------------------
Magnitude (a.u.)       :      1.79677
Magnitude (Debye)      :      4.56702

Rotational constants in cm-1:     0.001962     0.000136     0.000131
Rotational constants in MHz :    58.825343     4.084566     3.926310

                             ****ORCA TERMINATED NORMALLY****
TOTAL RUN TIME: 0 days 0 hours 9 minutes 6 seconds 866 msec
