                         Program Version 4.2.0 -  RELEASE  -
|  1> # ORCA input file
|  2> # SCF done       -214.485688166464          0.000581348528
|  3> ! CAM-B3LYP def2-SVP def2/J RIJCOSX Grid4 TightSCF
|  4> %maxcore 5000
|  5> %tddft
|  6>     Mode sTDDFT
|  7>     Ethresh 5.0
|  8>     maxcore 5000
|  9> end
| 10>
| 11> %pal
| 12>   nprocs 6
| 13>   end
| 14> * xyz 0 1
| 15>    C       -1.67217         0.17942         8.67181
| 16>    C       -2.35207        -1.04096         8.50992
| 17>    C       -1.80060        -2.19830         9.03603
| 18>    C       -0.59492        -2.15917         9.74135
| 19>    C        0.07271        -0.92489         9.89920
| 20>    C       -0.47805         0.23579         9.34399
| 21>    N        1.24665        -0.89298        10.58822
| 22>    C        1.88392        -1.97096        11.18262
| 23>    O        2.92674        -1.81263        11.77497
| 24>    C        1.17060        -3.24316        11.00431
| 25>    C       -0.00199        -3.31696        10.32073
| 26>    C        1.74435        -4.40200        11.57433
| 27>    N        2.18743        -5.35922        12.02135
| 28>    C       -3.62468        -1.09393         7.80964
| 29>    C       -4.77038        -0.38491         8.07337
| 30>    N       -5.00063         0.55941         9.09630
| 31>    O       -6.12315         1.02438         9.17661
| 32>    O       -4.08423         0.84759         9.84643
| 33>    C       -5.83154        -0.83153         7.18882
| 34>    C       -5.35723        -1.83624         6.42309
| 35>    C       -3.96331        -2.04602         6.74088
| 36>    C       -3.07853        -2.87024         6.08555
| 37>    C       -1.65793        -2.69780         5.98148
| 38>    C       -1.18550        -3.56307         5.05012
| 39>    C       -2.26946        -4.36821         4.55037
| 40>    N       -2.00616        -5.41596         3.64968
| 41>    O       -2.93689        -5.98311         3.09660
| 42>    O       -0.83738        -5.70399         3.46467
| 43>    C       -3.45079        -3.98933         5.18741
| 44>    C       -4.73580        -4.56930         5.26729
| 45>    C       -5.37580        -5.34146         4.33901
| 46>    C       -6.67369        -5.84147         4.57072
| 47>    N       -7.37082        -6.59561         3.66140
| 48>    C       -6.88553        -7.07016         2.38472
| 49>    C       -5.87807        -8.20601         2.53547
| 50>    C       -8.65424        -6.92669         4.12154
| 51>    O       -9.44375        -7.60652         3.50079
| 52>    C       -8.74300        -6.29113         5.42465
| 53>    C       -7.51164        -5.65482         5.68253
| 54>    C       -7.59668        -5.04058         6.99235
| 55>    O       -6.79334        -4.40534         7.64696
| 56>    N       -8.89545        -5.34458         7.43666
| 57>    C       -9.37798        -4.88092         8.71645
| 58>    C      -10.21113        -3.60962         8.57684
| 59>    C       -9.59473        -6.07229         6.51169
| 60>    C      -10.94610        -6.48126         6.68040
| 61>    C      -11.61373        -7.11914         5.69556
| 62>    C      -12.97519        -7.58578         5.74984
| 63>    C      -13.81260        -7.47109         4.62116
| 64>    C      -13.42562        -6.67551         3.43662
| 65>    O      -12.46495        -5.98017         3.30300
| 66>    S      -14.70360        -6.83154         2.18944
| 67>    C      -15.75794        -7.81472         3.25335
| 68>    O      -16.82752        -8.21449         2.89765
| 69>    C      -15.08730        -8.02169         4.55632
| 70>    C      -15.66076        -8.74678         5.62702
| 71>    C      -14.85218        -8.79842         6.77725
| 72>    C      -13.57541        -8.23794         6.83837
| 73>    C      -13.04325        -8.50591         8.19825
| 74>    O      -11.98896        -8.24113         8.68815
| 75>    O      -14.02664        -9.15340         8.89685
| 76>    C      -15.14755        -9.34686         8.12524
| 77>    O      -16.13099        -9.85287         8.56765
| 78>    C      -16.97052        -9.33023         5.50160
| 79>    C      -17.36626       -10.49515         6.04260
| 80>    C      -18.67475       -11.08549         5.86426
| 81>    C      -19.06463       -12.12442         6.73310
| 82>    C      -20.29788       -12.71637         6.63405
| 83>    C      -21.19472       -12.30396         5.64187
| 84>    C      -20.81780       -11.27736         4.74731
| 85>    C      -19.56127       -10.68265         4.87395
| 86>    C      -21.75254       -10.89387         3.74192
| 87>    C      -22.97055       -11.48846         3.64544
| 88>    C      -23.38524       -12.55722         4.56478
| 89>    O      -24.44394       -13.14181         4.55156
| 90>    N      -22.42260       -12.87653         5.51070
| 91>    C      -23.88790       -11.09275         2.64550
| 92>    N      -24.61246       -10.75069         1.82676
| 93>    H       -2.08873         1.07760         8.24536
| 94>    H       -2.31716        -3.14049         8.93022
| 95>    H        0.04032         1.17581         9.45727
| 96>    H        1.71369        -0.00040        10.70704
| 97>    H       -0.50385        -4.26821        10.20859
| 98>    H       -6.81391        -0.40017         7.18704
| 99>    H       -5.88300        -2.33121         5.63163
|100>    H       -1.09461        -1.93418         6.47925
|101>    H       -0.17425        -3.66532         4.70383
|102>    H       -5.26573        -4.34929         6.18566
|103>    H       -4.90779        -5.55942         3.39313
|104>    H       -6.44430        -6.23785         1.83029
|105>    H       -7.76855        -7.42532         1.84638
|106>    H       -4.96226        -7.86123         3.00823
|107>    H       -5.62885        -8.59782         1.55371
|108>    H       -6.30457        -9.00947         3.13135
|109>    H       -8.49053        -4.67076         9.31950
|110>    H       -9.95144        -5.67789         9.19595
|111>    H       -9.61042        -2.81708         8.13725
|112>    H      -10.54866        -3.28389         9.55643
|113>    H      -11.07992        -3.77806         7.94420
|114>    H      -11.43195        -6.23350         7.61083
|115>    H      -11.11433        -7.27916         4.74629
|116>    H      -17.64432        -8.79239         4.85134
|117>    H      -16.68473       -11.06667         6.65531
|118>    H      -18.37910       -12.44135         7.50432
|119>    H      -20.58592       -13.50419         7.31410
|120>    H      -19.28421        -9.91889         4.16412
|121>    H      -21.47607       -10.11131         3.04873
|122>    H      -22.68505       -13.61427         6.15556
|123> *
|124>
|125>                          ****END OF INPUT****

CARTESIAN COORDINATES (ANGSTROEM)
---------------------------------
  C     -1.672170    0.179420    8.671810
  C     -2.352070   -1.040960    8.509920
  C     -1.800600   -2.198300    9.036030
  C     -0.594920   -2.159170    9.741350
  C      0.072710   -0.924890    9.899200
  C     -0.478050    0.235790    9.343990
  N      1.246650   -0.892980   10.588220
  C      1.883920   -1.970960   11.182620
  O      2.926740   -1.812630   11.774970
  C      1.170600   -3.243160   11.004310
  C     -0.001990   -3.316960   10.320730
  C      1.744350   -4.402000   11.574330
  N      2.187430   -5.359220   12.021350
  C     -3.624680   -1.093930    7.809640
  C     -4.770380   -0.384910    8.073370
  N     -5.000630    0.559410    9.096300
  O     -6.123150    1.024380    9.176610
  O     -4.084230    0.847590    9.846430
  C     -5.831540   -0.831530    7.188820
  C     -5.357230   -1.836240    6.423090
  C     -3.963310   -2.046020    6.740880
  C     -3.078530   -2.870240    6.085550
  C     -1.657930   -2.697800    5.981480
  C     -1.185500   -3.563070    5.050120
  C     -2.269460   -4.368210    4.550370
  N     -2.006160   -5.415960    3.649680
  O     -2.936890   -5.983110    3.096600
  O     -0.837380   -5.703990    3.464670
  C     -3.450790   -3.989330    5.187410
  C     -4.735800   -4.569300    5.267290
  C     -5.375800   -5.341460    4.339010
  C     -6.673690   -5.841470    4.570720
  N     -7.370820   -6.595610    3.661400
  C     -6.885530   -7.070160    2.384720
  C     -5.878070   -8.206010    2.535470
  C     -8.654240   -6.926690    4.121540
  O     -9.443750   -7.606520    3.500790
  C     -8.743000   -6.291130    5.424650
  C     -7.511640   -5.654820    5.682530
  C     -7.596680   -5.040580    6.992350
  O     -6.793340   -4.405340    7.646960
  N     -8.895450   -5.344580    7.436660
  C     -9.377980   -4.880920    8.716450
  C    -10.211130   -3.609620    8.576840
  C     -9.594730   -6.072290    6.511690
  C    -10.946100   -6.481260    6.680400
  C    -11.613730   -7.119140    5.695560
  C    -12.975190   -7.585780    5.749840
  C    -13.812600   -7.471090    4.621160
  C    -13.425620   -6.675510    3.436620
  O    -12.464950   -5.980170    3.303000
  S    -14.703600   -6.831540    2.189440
  C    -15.757940   -7.814720    3.253350
  O    -16.827520   -8.214490    2.897650
  C    -15.087300   -8.021690    4.556320
  C    -15.660760   -8.746780    5.627020
  C    -14.852180   -8.798420    6.777250
  C    -13.575410   -8.237940    6.838370
  C    -13.043250   -8.505910    8.198250
  O    -11.988960   -8.241130    8.688150
  O    -14.026640   -9.153400    8.896850
  C    -15.147550   -9.346860    8.125240
  O    -16.130990   -9.852870    8.567650
  C    -16.970520   -9.330230    5.501600
  C    -17.366260  -10.495150    6.042600
  C    -18.674750  -11.085490    5.864260
  C    -19.064630  -12.124420    6.733100
  C    -20.297880  -12.716370    6.634050
  C    -21.194720  -12.303960    5.641870
  C    -20.817800  -11.277360    4.747310
  C    -19.561270  -10.682650    4.873950
  C    -21.752540  -10.893870    3.741920
  C    -22.970550  -11.488460    3.645440
  C    -23.385240  -12.557220    4.564780
  O    -24.443940  -13.141810    4.551560
  N    -22.422600  -12.876530    5.510700
  C    -23.887900  -11.092750    2.645500
  N    -24.612460  -10.750690    1.826760
  H     -2.088730    1.077600    8.245360
  H     -2.317160   -3.140490    8.930220
  H      0.040320    1.175810    9.457270
  H      1.713690   -0.000400   10.707040
  H     -0.503850   -4.268210   10.208590
  H     -6.813910   -0.400170    7.187040
  H     -5.883000   -2.331210    5.631630
  H     -1.094610   -1.934180    6.479250
  H     -0.174250   -3.665320    4.703830
  H     -5.265730   -4.349290    6.185660
  H     -4.907790   -5.559420    3.393130
  H     -6.444300   -6.237850    1.830290
  H     -7.768550   -7.425320    1.846380
  H     -4.962260   -7.861230    3.008230
  H     -5.628850   -8.597820    1.553710
  H     -6.304570   -9.009470    3.131350
  H     -8.490530   -4.670760    9.319500
  H     -9.951440   -5.677890    9.195950
  H     -9.610420   -2.817080    8.137250
  H    -10.548660   -3.283890    9.556430
  H    -11.079920   -3.778060    7.944200
  H    -11.431950   -6.233500    7.610830
  H    -11.114330   -7.279160    4.746290
  H    -17.644320   -8.792390    4.851340
  H    -16.684730  -11.066670    6.655310
  H    -18.379100  -12.441350    7.504320
  H    -20.585920  -13.504190    7.314100
  H    -19.284210   -9.918890    4.164120
  H    -21.476070  -10.111310    3.048730
  H    -22.685050  -13.614270    6.155560

 Total Charge           Charge          ....    0
 Multiplicity           Mult            ....    1
 Number of Electrons    NEL             ....  542
 Basis Dimension        Dim             .... 1246

ORBITAL ENERGIES
----------------

  NO   OCC          E(Eh)            E(eV)
   0   2.0000     -88.967881     -2420.9391
   1   2.0000     -19.311272      -525.4864
   2   2.0000     -19.262040      -524.1467
   3   2.0000     -19.259635      -524.0813
   4   2.0000     -19.258688      -524.0555
   5   2.0000     -19.257693      -524.0285
   6   2.0000     -19.248856      -523.7880
   7   2.0000     -19.247687      -523.7562
   8   2.0000     -19.247225      -523.7436
   9   2.0000     -19.245480      -523.6961
  10   2.0000     -19.214731      -522.8594
  11   2.0000     -19.206484      -522.6350
  12   2.0000     -19.198451      -522.4164
  13   2.0000     -19.195154      -522.3267
  14   2.0000     -14.657019      -398.8378
  15   2.0000     -14.655420      -398.7943
  16   2.0000     -14.481686      -394.0667
  17   2.0000     -14.479291      -394.0015
  18   2.0000     -14.473370      -393.8404
  19   2.0000     -14.468291      -393.7022
  20   2.0000     -14.405400      -391.9908
  21   2.0000     -14.402527      -391.9127
  22   2.0000     -10.453614      -284.4573
  23   2.0000     -10.452634      -284.4306
  24   2.0000     -10.424533      -283.6660
  25   2.0000     -10.420926      -283.5678
  26   2.0000     -10.399122      -282.9745
  27   2.0000     -10.396178      -282.8944
  28   2.0000     -10.395240      -282.8689
  29   2.0000     -10.389796      -282.7207
  30   2.0000     -10.358375      -281.8657
  31   2.0000     -10.358336      -281.8647
  32   2.0000     -10.356066      -281.8029
  33   2.0000     -10.354982      -281.7734
  34   2.0000     -10.354723      -281.7663
  35   2.0000     -10.351941      -281.6906
  36   2.0000     -10.348767      -281.6043
  37   2.0000     -10.346495      -281.5425
  38   2.0000     -10.345653      -281.5195
  39   2.0000     -10.344984      -281.5013
  40   2.0000     -10.341778      -281.4141
  41   2.0000     -10.338564      -281.3266
  42   2.0000     -10.337357      -281.2938
  43   2.0000     -10.335285      -281.2374
  44   2.0000     -10.333182      -281.1802
  45   2.0000     -10.331357      -281.1305
  46   2.0000     -10.328886      -281.0633
  47   2.0000     -10.328117      -281.0424
  48   2.0000     -10.327304      -281.0202
  49   2.0000     -10.324730      -280.9502
  50   2.0000     -10.322217      -280.8818
  51   2.0000     -10.315509      -280.6993
  52   2.0000     -10.312764      -280.6246
  53   2.0000     -10.312548      -280.6187
  54   2.0000     -10.310980      -280.5760
  55   2.0000     -10.310299      -280.5575
  56   2.0000     -10.309961      -280.5483
  57   2.0000     -10.309788      -280.5436
  58   2.0000     -10.309327      -280.5311
  59   2.0000     -10.309068      -280.5240
  60   2.0000     -10.308843      -280.5179
  61   2.0000     -10.308432      -280.5067
  62   2.0000     -10.308214      -280.5008
  63   2.0000     -10.307756      -280.4883
  64   2.0000     -10.307037      -280.4687
  65   2.0000     -10.305581      -280.4291
  66   2.0000     -10.305012      -280.4136
  67   2.0000     -10.304181      -280.3910
  68   2.0000     -10.302862      -280.3551
  69   2.0000     -10.300784      -280.2986
  70   2.0000     -10.300774      -280.2983
  71   2.0000     -10.299478      -280.2631
  72   2.0000     -10.295142      -280.1451
  73   2.0000     -10.291791      -280.0539
  74   2.0000     -10.284121      -279.8452
  75   2.0000     -10.280375      -279.7432
  76   2.0000     -10.276888      -279.6483
  77   2.0000     -10.265655      -279.3427
  78   2.0000      -8.067081      -219.5164
  79   2.0000      -6.035945      -164.2464
  80   2.0000      -6.032657      -164.1570
  81   2.0000      -6.028140      -164.0340
  82   2.0000      -1.327430       -36.1212
  83   2.0000      -1.326463       -36.0949
  84   2.0000      -1.262483       -34.3539
  85   2.0000      -1.187046       -32.3012
  86   2.0000      -1.186448       -32.2849
  87   2.0000      -1.181772       -32.1577
  88   2.0000      -1.153792       -31.3963
  89   2.0000      -1.148558       -31.2538
  90   2.0000      -1.147169       -31.2161
  91   2.0000      -1.145076       -31.1591
  92   2.0000      -1.144129       -31.1333
  93   2.0000      -1.143950       -31.1285
  94   2.0000      -1.143778       -31.1238
  95   2.0000      -1.083536       -29.4845
  96   2.0000      -1.073521       -29.2120
  97   2.0000      -1.069172       -29.0937
  98   2.0000      -1.066580       -29.0231
  99   2.0000      -1.034779       -28.1578
 100   2.0000      -1.026827       -27.9414
 101   2.0000      -1.006366       -27.3846
 102   2.0000      -0.991791       -26.9880
 103   2.0000      -0.988980       -26.9115
 104   2.0000      -0.982280       -26.7292
 105   2.0000      -0.974720       -26.5235
 106   2.0000      -0.970526       -26.4094
 107   2.0000      -0.955714       -26.0063
 108   2.0000      -0.944312       -25.6960
 109   2.0000      -0.941322       -25.6147
 110   2.0000      -0.938182       -25.5292
 111   2.0000      -0.925851       -25.1937
 112   2.0000      -0.920463       -25.0471
 113   2.0000      -0.919097       -25.0099
 114   2.0000      -0.896620       -24.3983
 115   2.0000      -0.895494       -24.3676
 116   2.0000      -0.890902       -24.2427
 117   2.0000      -0.883712       -24.0470
 118   2.0000      -0.882650       -24.0181
 119   2.0000      -0.871570       -23.7166
 120   2.0000      -0.869056       -23.6482
 121   2.0000      -0.857142       -23.3240
 122   2.0000      -0.847620       -23.0649
 123   2.0000      -0.832964       -22.6661
 124   2.0000      -0.830457       -22.5979
 125   2.0000      -0.818258       -22.2659
 126   2.0000      -0.814625       -22.1671
 127   2.0000      -0.801352       -21.8059
 128   2.0000      -0.788988       -21.4695
 129   2.0000      -0.778765       -21.1913
 130   2.0000      -0.775932       -21.1142
 131   2.0000      -0.774471       -21.0744
 132   2.0000      -0.772582       -21.0230
 133   2.0000      -0.772288       -21.0150
 134   2.0000      -0.759724       -20.6732
 135   2.0000      -0.758801       -20.6480
 136   2.0000      -0.756832       -20.5945
 137   2.0000      -0.737797       -20.0765
 138   2.0000      -0.737225       -20.0609
 139   2.0000      -0.734608       -19.9897
 140   2.0000      -0.721583       -19.6353
 141   2.0000      -0.716747       -19.5037
 142   2.0000      -0.715274       -19.4636
 143   2.0000      -0.695993       -18.9389
 144   2.0000      -0.685298       -18.6479
 145   2.0000      -0.680599       -18.5200
 146   2.0000      -0.679819       -18.4988
 147   2.0000      -0.672592       -18.3022
 148   2.0000      -0.665450       -18.1078
 149   2.0000      -0.664009       -18.0686
 150   2.0000      -0.662026       -18.0146
 151   2.0000      -0.659586       -17.9483
 152   2.0000      -0.655374       -17.8336
 153   2.0000      -0.647553       -17.6208
 154   2.0000      -0.646912       -17.6034
 155   2.0000      -0.644550       -17.5391
 156   2.0000      -0.639272       -17.3955
 157   2.0000      -0.637559       -17.3488
 158   2.0000      -0.635746       -17.2995
 159   2.0000      -0.635260       -17.2863
 160   2.0000      -0.628980       -17.1154
 161   2.0000      -0.626752       -17.0548
 162   2.0000      -0.620984       -16.8978
 163   2.0000      -0.611067       -16.6280
 164   2.0000      -0.610321       -16.6077
 165   2.0000      -0.607713       -16.5367
 166   2.0000      -0.602944       -16.4069
 167   2.0000      -0.601371       -16.3641
 168   2.0000      -0.598635       -16.2897
 169   2.0000      -0.593421       -16.1478
 170   2.0000      -0.592835       -16.1319
 171   2.0000      -0.592112       -16.1122
 172   2.0000      -0.586550       -15.9608
 173   2.0000      -0.585399       -15.9295
 174   2.0000      -0.581272       -15.8172
 175   2.0000      -0.580037       -15.7836
 176   2.0000      -0.574470       -15.6321
 177   2.0000      -0.569821       -15.5056
 178   2.0000      -0.568765       -15.4769
 179   2.0000      -0.564098       -15.3499
 180   2.0000      -0.562648       -15.3104
 181   2.0000      -0.560874       -15.2622
 182   2.0000      -0.558383       -15.1944
 183   2.0000      -0.557999       -15.1839
 184   2.0000      -0.555662       -15.1203
 185   2.0000      -0.554877       -15.0990
 186   2.0000      -0.550543       -14.9810
 187   2.0000      -0.546221       -14.8634
 188   2.0000      -0.545504       -14.8439
 189   2.0000      -0.544230       -14.8093
 190   2.0000      -0.542759       -14.7692
 191   2.0000      -0.540576       -14.7098
 192   2.0000      -0.539472       -14.6798
 193   2.0000      -0.538420       -14.6512
 194   2.0000      -0.536198       -14.5907
 195   2.0000      -0.527790       -14.3619
 196   2.0000      -0.526785       -14.3345
 197   2.0000      -0.524988       -14.2856
 198   2.0000      -0.523301       -14.2397
 199   2.0000      -0.522561       -14.2196
 200   2.0000      -0.521747       -14.1974
 201   2.0000      -0.519522       -14.1369
 202   2.0000      -0.516386       -14.0516
 203   2.0000      -0.515754       -14.0344
 204   2.0000      -0.511411       -13.9162
 205   2.0000      -0.504026       -13.7152
 206   2.0000      -0.501981       -13.6596
 207   2.0000      -0.501520       -13.6471
 208   2.0000      -0.499870       -13.6022
 209   2.0000      -0.496253       -13.5037
 210   2.0000      -0.495798       -13.4914
 211   2.0000      -0.492535       -13.4025
 212   2.0000      -0.490120       -13.3368
 213   2.0000      -0.487441       -13.2639
 214   2.0000      -0.487019       -13.2525
 215   2.0000      -0.481700       -13.1077
 216   2.0000      -0.479972       -13.0607
 217   2.0000      -0.477165       -12.9843
 218   2.0000      -0.475427       -12.9370
 219   2.0000      -0.472718       -12.8633
 220   2.0000      -0.469016       -12.7626
 221   2.0000      -0.466791       -12.7020
 222   2.0000      -0.465634       -12.6705
 223   2.0000      -0.462688       -12.5904
 224   2.0000      -0.461513       -12.5584
 225   2.0000      -0.457325       -12.4445
 226   2.0000      -0.455742       -12.4014
 227   2.0000      -0.453741       -12.3469
 228   2.0000      -0.453365       -12.3367
 229   2.0000      -0.450828       -12.2677
 230   2.0000      -0.446139       -12.1401
 231   2.0000      -0.440409       -11.9841
 232   2.0000      -0.437434       -11.9032
 233   2.0000      -0.433911       -11.8073
 234   2.0000      -0.432035       -11.7563
 235   2.0000      -0.431427       -11.7397
 236   2.0000      -0.431256       -11.7351
 237   2.0000      -0.414033       -11.2664
 238   2.0000      -0.412154       -11.2153
 239   2.0000      -0.411534       -11.1984
 240   2.0000      -0.411090       -11.1863
 241   2.0000      -0.408795       -11.1239
 242   2.0000      -0.402118       -10.9422
 243   2.0000      -0.400831       -10.9072
 244   2.0000      -0.397307       -10.8113
 245   2.0000      -0.395956       -10.7745
 246   2.0000      -0.393437       -10.7060
 247   2.0000      -0.391770       -10.6606
 248   2.0000      -0.389733       -10.6052
 249   2.0000      -0.386021       -10.5042
 250   2.0000      -0.383051       -10.4234
 251   2.0000      -0.381597       -10.3838
 252   2.0000      -0.376268       -10.2388
 253   2.0000      -0.373724       -10.1696
 254   2.0000      -0.369924       -10.0661
 255   2.0000      -0.366972        -9.9858
 256   2.0000      -0.362933        -9.8759
 257   2.0000      -0.354617        -9.6496
 258   2.0000      -0.354519        -9.6470
 259   2.0000      -0.351492        -9.5646
 260   2.0000      -0.350750        -9.5444
 261   2.0000      -0.348940        -9.4952
 262   2.0000      -0.343443        -9.3456
 263   2.0000      -0.336790        -9.1645
 264   2.0000      -0.333251        -9.0682
 265   2.0000      -0.326644        -8.8884
 266   2.0000      -0.324103        -8.8193
 267   2.0000      -0.312332        -8.4990
 268   2.0000      -0.292011        -7.9460
 269   2.0000      -0.290357        -7.9010
 270   2.0000      -0.252879        -6.8812
 271   0.0000      -0.143837        -3.9140
 272   0.0000      -0.112418        -3.0591
 273   0.0000      -0.102868        -2.7992
 274   0.0000      -0.076436        -2.0799
 275   0.0000      -0.060748        -1.6530

MULLIKEN ATOMIC CHARGES
-----------------------
   0 C :    0.096375
   1 C :   -0.037649
   2 C :   -0.047530
   3 C :    0.020369
   4 C :    0.108613
   5 C :   -0.038832
   6 N :   -0.031496
   7 C :    0.130164
   8 O :   -0.162520
   9 C :   -0.229800
  10 C :    0.094338
  11 C :   -0.138229
  12 N :    0.127757
  13 C :    0.049067
  14 C :    0.074531
  15 N :    0.265824
  16 O :   -0.240348
  17 O :   -0.244380
  18 C :    0.015099
  19 C :    0.030742
  20 C :    0.041873
  21 C :   -0.002594
  22 C :    0.018337
  23 C :    0.020353
  24 C :    0.073091
  25 N :    0.275447
  26 O :   -0.258867
  27 O :   -0.240567
  28 C :    0.083665
  29 C :   -0.103542
  30 C :    0.007765
  31 C :    0.129275
  32 N :   -0.251595
  33 C :    0.095120
  34 C :    0.002649
  35 C :    0.178913
  36 O :   -0.203022
  37 C :   -0.066206
  38 C :   -0.060049
  39 C :    0.165024
  40 O :   -0.201930
  41 N :   -0.248795
  42 C :    0.091111
  43 C :    0.005246
  44 C :    0.108838
  45 C :    0.036144
  46 C :   -0.045563
  47 C :    0.035773
  48 C :    0.027305
  49 C :    0.040875
  50 O :   -0.111879
  51 S :    0.038179
  52 C :    0.037950
  53 O :   -0.133922
  54 C :    0.035110
  55 C :    0.045496
  56 C :   -0.073823
  57 C :   -0.066339
  58 C :    0.228756
  59 O :   -0.100992
  60 O :   -0.219311
  61 C :    0.220962
  62 O :   -0.098075
  63 C :   -0.049787
  64 C :    0.061990
  65 C :    0.079784
  66 C :    0.006864
  67 C :   -0.017769
  68 C :    0.095329
  69 C :    0.037867
  70 C :   -0.071709
  71 C :    0.092578
  72 C :   -0.229544
  73 C :    0.132699
  74 O :   -0.160539
  75 N :   -0.031236
  76 C :   -0.136826
  77 N :    0.126537
  78 H :   -0.011330
  79 H :   -0.009006
  80 H :   -0.024839
  81 H :    0.137053
  82 H :    0.010664
  83 H :   -0.000297
  84 H :   -0.002286
  85 H :    0.006113
  86 H :    0.008981
  87 H :    0.040852
  88 H :    0.008600
  89 H :    0.030523
  90 H :    0.044858
  91 H :    0.029830
  92 H :    0.027269
  93 H :    0.022226
  94 H :    0.045311
  95 H :    0.042649
  96 H :    0.027398
  97 H :    0.030065
  98 H :    0.015238
  99 H :   -0.013782
 100 H :    0.057373
 101 H :    0.026907
 102 H :   -0.003678
 103 H :   -0.000243
 104 H :   -0.024439
 105 H :   -0.007826
 106 H :    0.014709
 107 H :    0.136586
Sum of atomic charges:   -0.0000000

LOEWDIN ATOMIC CHARGES
----------------------
   0 C :    0.035231
   1 C :   -0.052206
   2 C :    0.022946
   3 C :   -0.067157
   4 C :    0.059773
   5 C :   -0.047779
   6 N :    0.049697
   7 C :    0.072168
   8 O :   -0.187009
   9 C :   -0.112437
  10 C :    0.069256
  11 C :   -0.025118
  12 N :   -0.041652
  13 C :    0.017084
  14 C :   -0.037111
  15 N :    0.283503
  16 O :   -0.205505
  17 O :   -0.205897
  18 C :    0.010276
  19 C :   -0.027921
  20 C :    0.041156
  21 C :    0.043001
  22 C :   -0.039602
  23 C :    0.017320
  24 C :   -0.044491
  25 N :    0.286385
  26 O :   -0.218123
  27 O :   -0.205557
  28 C :    0.009812
  29 C :    0.003476
  30 C :   -0.004746
  31 C :    0.069691
  32 N :    0.006464
  33 C :    0.037985
  34 C :   -0.059789
  35 C :    0.083340
  36 O :   -0.189167
  37 C :   -0.113626
  38 C :   -0.107937
  39 C :    0.081572
  40 O :   -0.188566
  41 N :    0.008225
  42 C :    0.037969
  43 C :   -0.059824
  44 C :    0.082741
  45 C :   -0.013905
  46 C :    0.019448
  47 C :    0.019415
  48 C :   -0.042420
  49 C :   -0.044267
  50 O :   -0.093213
  51 S :    0.318172
  52 C :   -0.042018
  53 O :   -0.115400
  54 C :   -0.053631
  55 C :    0.036384
  56 C :   -0.050621
  57 C :   -0.040900
  58 C :    0.106882
  59 O :   -0.097828
  60 O :   -0.050104
  61 C :    0.107167
  62 O :   -0.094878
  63 C :   -0.047043
  64 C :    0.037068
  65 C :   -0.048466
  66 C :    0.022790
  67 C :   -0.047525
  68 C :    0.058056
  69 C :   -0.061127
  70 C :    0.026303
  71 C :    0.069523
  72 C :   -0.110745
  73 C :    0.072661
  74 O :   -0.185147
  75 N :    0.048906
  76 C :   -0.024787
  77 N :   -0.040047
  78 H :    0.035087
  79 H :    0.036120
  80 H :    0.034283
  81 H :    0.101241
  82 H :    0.048374
  83 H :    0.036720
  84 H :    0.031291
  85 H :    0.033385
  86 H :    0.039620
  87 H :    0.040180
  88 H :    0.031225
  89 H :    0.026656
  90 H :    0.037798
  91 H :    0.026162
  92 H :    0.033946
  93 H :    0.029501
  94 H :    0.038873
  95 H :    0.030720
  96 H :    0.031333
  97 H :    0.033695
  98 H :    0.021920
  99 H :    0.029361
 100 H :    0.043116
 101 H :    0.032608
 102 H :    0.029364
 103 H :    0.039038
 104 H :    0.033769
 105 H :    0.037615
 106 H :    0.049425
 107 H :    0.101019

  Mayer bond orders larger than 0.100000
B(  0-C ,  1-C ) :   1.3076 B(  0-C ,  5-C ) :   1.4384 B(  0-C , 78-H ) :   0.9838
B(  1-C ,  2-C ) :   1.4033 B(  1-C , 13-C ) :   0.9679 B(  2-C ,  3-C ) :   1.2718
B(  2-C , 79-H ) :   1.0040 B(  3-C ,  4-C ) :   1.2973 B(  3-C , 10-C ) :   1.1304
B(  4-C ,  5-C ) :   1.2776 B(  4-C ,  6-N ) :   1.2086 B(  5-C , 80-H ) :   0.9946
B(  6-N ,  7-C ) :   1.0816 B(  6-N , 81-H ) :   0.9015 B(  7-C ,  8-O ) :   2.2472
B(  7-C ,  9-C ) :   0.9507 B(  9-C , 10-C ) :   1.6433 B(  9-C , 11-C ) :   1.1085
B( 10-C , 82-H ) :   0.9868 B( 11-C , 12-N ) :   3.0457 B( 13-C , 14-C ) :   1.6391
B( 13-C , 20-C ) :   1.0653 B( 14-C , 15-N ) :   0.9326 B( 14-C , 18-C ) :   1.1016
B( 15-N , 16-O ) :   1.5363 B( 15-N , 17-O ) :   1.5143 B( 16-O , 17-O ) :   0.2659
B( 18-C , 19-C ) :   1.6175 B( 18-C , 83-H ) :   1.0112 B( 19-C , 20-C ) :   1.0999
B( 19-C , 84-H ) :   1.0012 B( 20-C , 21-C ) :   1.5230 B( 21-C , 22-C ) :   1.1260
B( 21-C , 28-C ) :   1.0122 B( 22-C , 23-C ) :   1.5754 B( 22-C , 85-H ) :   1.0006
B( 23-C , 24-C ) :   1.1318 B( 23-C , 86-H ) :   1.0082 B( 24-C , 25-N ) :   0.9586
B( 24-C , 28-C ) :   1.4832 B( 25-N , 26-O ) :   1.4647 B( 25-N , 27-O ) :   1.5424
B( 26-O , 27-O ) :   0.2515 B( 28-C , 29-C ) :   1.1547 B( 29-C , 30-C ) :   1.5574
B( 29-C , 87-H ) :   0.9305 B( 30-C , 31-C ) :   1.1652 B( 30-C , 88-H ) :   0.9551
B( 31-C , 32-N ) :   1.1697 B( 31-C , 38-C ) :   1.2967 B( 32-N , 33-C ) :   0.9349
B( 32-N , 35-C ) :   1.0651 B( 33-C , 34-C ) :   1.1230 B( 33-C , 89-H ) :   0.9486
B( 33-C , 90-H ) :   0.9285 B( 34-C , 91-H ) :   0.9651 B( 34-C , 92-H ) :   0.9664
B( 34-C , 93-H ) :   0.9625 B( 35-C , 36-O ) :   2.0295 B( 35-C , 37-C ) :   0.9771
B( 36-O ,100-H ) :   0.1145 B( 37-C , 38-C ) :   1.2840 B( 37-C , 44-C ) :   1.3228
B( 38-C , 39-C ) :   0.9820 B( 39-C , 40-O ) :   2.0125 B( 39-C , 41-N ) :   1.0639
B( 40-O , 87-H ) :   0.1134 B( 41-N , 42-C ) :   0.9367 B( 41-N , 44-C ) :   1.1756
B( 42-C , 43-C ) :   1.1211 B( 42-C , 94-H ) :   0.9291 B( 42-C , 95-H ) :   0.9499
B( 43-C , 96-H ) :   0.9639 B( 43-C , 97-H ) :   0.9678 B( 43-C , 98-H ) :   0.9683
B( 44-C , 45-C ) :   1.1727 B( 45-C , 46-C ) :   1.6734 B( 45-C , 99-H ) :   0.9494
B( 46-C , 47-C ) :   1.0794 B( 46-C ,100-H ) :   0.9069 B( 47-C , 48-C ) :   1.3582
B( 47-C , 57-C ) :   1.3335 B( 48-C , 49-C ) :   0.8488 B( 48-C , 54-C ) :   1.3287
B( 49-C , 50-O ) :   2.1750 B( 49-C , 51-S ) :   1.0254 B( 50-O , 51-S ) :   0.1066
B( 51-S , 52-C ) :   1.0430 B( 51-S , 53-O ) :   0.1056 B( 52-C , 53-O ) :   2.1486
B( 52-C , 54-C ) :   0.8501 B( 54-C , 55-C ) :   1.3426 B( 55-C , 56-C ) :   1.3167
B( 55-C , 63-C ) :   1.1174 B( 56-C , 57-C ) :   1.3620 B( 56-C , 61-C ) :   0.9032
B( 57-C , 58-C ) :   0.8999 B( 58-C , 59-O ) :   2.2432 B( 58-C , 60-O ) :   1.0661
B( 60-O , 61-C ) :   1.0515 B( 61-C , 62-O ) :   2.2551 B( 63-C , 64-C ) :   1.7312
B( 63-C ,101-H ) :   0.9325 B( 64-C , 65-C ) :   1.0814 B( 64-C ,102-H ) :   0.9689
B( 65-C , 66-C ) :   1.2813 B( 65-C , 70-C ) :   1.3648 B( 66-C , 67-C ) :   1.4244
B( 66-C ,103-H ) :   0.9954 B( 67-C , 68-C ) :   1.2915 B( 67-C ,104-H ) :   0.9946
B( 68-C , 69-C ) :   1.2850 B( 68-C , 75-N ) :   1.2092 B( 69-C , 70-C ) :   1.2901
B( 69-C , 71-C ) :   1.1255 B( 70-C ,105-H ) :   1.0004 B( 71-C , 72-C ) :   1.6460
B( 71-C ,106-H ) :   0.9872 B( 72-C , 73-C ) :   0.9493 B( 72-C , 76-C ) :   1.1113
B( 73-C , 74-O ) :   2.2484 B( 73-C , 75-N ) :   1.0790 B( 75-N ,107-H ) :   0.9018
B( 76-C , 77-N ) :   3.0429

-----------------------------------------------------------------------------
         ABSORPTION SPECTRUM VIA TRANSITION ELECTRIC DIPOLE MOMENTS
-----------------------------------------------------------------------------
State   Energy  Wavelength   fosc         T2         TX        TY        TZ
        (cm-1)    (nm)                  (au**2)     (au)      (au)      (au)
-----------------------------------------------------------------------------
   0    7705.3   1297.8   0.276467508  11.81218  -3.05213  -1.57805  -0.08013
   1   14404.8    694.2   0.025434884   0.58130   0.22669   0.01888   0.72771
   2   15439.2    647.7   0.013779330   0.29382  -0.40732   0.12050  -0.33673
   3   16780.1    595.9   0.410052265   8.04489   2.59562   0.44475  -1.05349
   4   18209.2    549.2   0.015348815   0.27750  -0.29711  -0.35957  -0.24480
   5   21093.5    474.1   0.034775834   0.54276  -0.68110  -0.17416  -0.22031
   6   21746.9    459.8   0.028323700   0.42877  -0.05857   0.23443  -0.60859
   7   22863.3    437.4   0.011268545   0.16226  -0.00113  -0.09382  -0.39173
   8   23639.8    423.0   0.084213781   1.17278  -0.95617  -0.47905   0.17038
   9   23691.7    422.1   0.333282125   4.63118  -1.88877  -0.89625  -0.51035
  10   24041.5    415.9   0.018232713   0.24967   0.11276   0.48580   0.03087
  11   24694.3    405.0   0.018283428   0.24375  -0.35257   0.27936   0.20346
  12   26381.2    379.1   0.091624927   1.14339  -0.28151   0.73071   0.72815
  13   27466.1    364.1   0.035221150   0.42217   0.61751  -0.15846   0.12544
  14   27528.4    363.3   0.051585247   0.61691   0.28588   0.60123   0.41678
  15   27604.4    362.3   0.530292126   6.32429   2.18562   1.19653   0.34010
  16   28179.6    354.9   0.031135750   0.36375   0.24900   0.18973   0.51551
  17   28368.3    352.5   0.168959641   1.96076  -0.14972  -0.83080  -1.11719
  18   28664.6    348.9   0.066927309   0.76866  -0.32423  -0.63370  -0.51182
  19   28794.6    347.3   0.005631544   0.06439   0.11125   0.22787  -0.00924
  20   29906.9    334.4   0.286852685   3.15765  -1.59552  -0.77010  -0.13759
  21   30197.5    331.2   0.037003577   0.40341   0.40677  -0.48226   0.07332
  22   30433.7    328.6   0.064923360   0.70230   0.08178   0.75941  -0.34482
  23   30587.4    326.9   0.075867620   0.81656   0.56423  -0.18139   0.68213
  24   30774.3    324.9   0.050472464   0.53994  -0.70653  -0.19905  -0.03363
  25   31047.6    322.1   0.267440039   2.83579  -1.44600   0.68188   0.52906
  26   31143.4    321.1   0.042274250   0.44687  -0.16351   0.11775   0.63740
  27   31546.4    317.0   0.026669180   0.27831  -0.07507  -0.12261   0.50759
  28   31753.0    314.9   0.007918378   0.08210  -0.09893  -0.23536   0.13006
  29   31873.1    313.7   0.142171786   1.46847   0.42444  -0.36326   1.07534
  30   32344.5    309.2   0.010141456   0.10322   0.10311   0.24401  -0.18179
  31   32501.8    307.7   0.011170688   0.11315   0.02162   0.23475   0.23994
  32   32531.2    307.4   0.016216941   0.16411  -0.30347   0.14879   0.22334
  33   32736.9    305.5   0.301336770   3.03033   0.99035  -1.33883  -0.50700
  34   32896.1    304.0   0.045413001   0.45448  -0.62447  -0.17222   0.18670
  35   32950.7    303.5   0.016013748   0.15999   0.17668  -0.33534  -0.12777
  36   33013.6    302.9   0.013663154   0.13625   0.06434  -0.36179  -0.03490
  37   33207.7    301.1   0.000217615   0.00216   0.01490   0.02050   0.03892
  38   33231.6    300.9   0.000218195   0.00216   0.00301   0.03449  -0.03103
  39   33642.0    297.2   0.015224440   0.14898  -0.32969  -0.00844   0.20053
  40   33737.0    296.4   0.000791619   0.00772   0.07499  -0.00492  -0.04557
  41   33998.6    294.1   0.004598887   0.04453   0.06552   0.17010  -0.10633
  42   34455.0    290.2   0.113288041   1.08245  -0.89310   0.47105   0.25085
  43   34640.0    288.7   0.000945683   0.00899   0.06511  -0.00490   0.06873
  44   34712.6    288.1   0.035153274   0.33339   0.39549  -0.21346   0.36251
  45   34769.0    287.6   0.008049578   0.07622   0.11594   0.00350  -0.25053
  46   35047.4    285.3   0.003303317   0.03103   0.11310   0.12660  -0.04699
  47   35120.6    284.7   0.049945669   0.46818  -0.68206   0.05384  -0.00856
  48   35196.1    284.1   0.014647505   0.13701  -0.32371   0.07361  -0.16371
  49   35374.0    282.7   0.002749393   0.02559  -0.00833   0.05795  -0.14886
  50   35892.9    278.6   0.084367600   0.77383  -0.60233  -0.45104  -0.45561
  51   36451.6    274.3   0.040613307   0.36680  -0.44678  -0.37729  -0.15760
  52   36640.1    272.9   0.079749340   0.71655   0.76401   0.05103   0.36087
  53   37050.6    269.9   0.048679350   0.43254   0.30543   0.35260  -0.46361
  54   37192.3    268.9   0.025506889   0.22578  -0.26863   0.21970  -0.32457
  55   37261.6    268.4   0.028329036   0.25029  -0.18273   0.22584   0.40730
  56   37857.2    264.2   0.059361936   0.51622   0.50000  -0.47116  -0.21030
  57   37860.5    264.1   0.093585154   0.81376  -0.63892   0.54393   0.33118
  58   38088.6    262.5   0.016773757   0.14498   0.20467  -0.28037  -0.15647
  59   38232.3    261.6   0.000937685   0.00807  -0.01428  -0.01228  -0.08786
  60   38615.9    259.0   0.016164947   0.13781  -0.10309   0.01477  -0.35632
  61   38666.0    258.6   0.000834837   0.00711   0.02477  -0.06039  -0.05337
  62   38947.1    256.8   0.002084318   0.01762  -0.05274   0.09251  -0.07923
  63   39012.6    256.3   0.005607628   0.04732  -0.04174  -0.21333  -0.00829
  64   39287.4    254.5   0.169393523   1.41945  -0.93099   0.65217   0.35690
  65   39396.2    253.8   0.002370753   0.01981   0.02759   0.13572   0.02509
  66   39789.5    251.3   0.006421534   0.05313   0.03468  -0.22058   0.05721
  67   39969.7    250.2   0.024405700   0.20102   0.30292   0.33032  -0.01209
  68   40062.1    249.6   0.027838602   0.22876   0.07727   0.29429   0.36903

FINAL SINGLE POINT ENERGY     -3961.495347983554

DIPOLE MOMENT
-------------
                                X             Y             Z
Electronic contribution:    -20.47341      -5.49436       0.34736
Nuclear contribution   :     19.85484       6.46589      -0.90569
                        -----------------------------------------
Total Dipole Moment    :     -0.61857       0.97153      -0.55833
                        -----------------------------------------
Magnitude (a.u.)       :      1.27994
Magnitude (Debye)      :      3.25335

Rotational constants in cm-1:     0.002004     0.000218     0.000212
Rotational constants in MHz :    60.092853     6.523503     6.346512

                             ****ORCA TERMINATED NORMALLY****
TOTAL RUN TIME: 0 days 0 hours 12 minutes 39 seconds 385 msec
