                         Program Version 4.2.0 -  RELEASE  -
|  1> # ORCA input file
|  2> # SCF done       -196.110523485691          0.000527330487
|  3> ! CAM-B3LYP def2-SVP def2/J RIJCOSX Grid4 TightSCF
|  4> %maxcore 5000
|  5> %tddft
|  6>     Mode sTDDFT
|  7>     Ethresh 5.0
|  8>     maxcore 5000
|  9> end
| 10>
| 11> %pal
| 12>   nprocs 6
| 13>   end
| 14> * xyz 0 1
| 15>    C        1.76507         1.30814        -2.01313
| 16>    C        1.56721         2.48404        -2.68826
| 17>    C        1.69677         2.61797        -4.08661
| 18>    N        1.79321         2.77669        -5.21850
| 19>    C        1.31174         3.70503        -2.03624
| 20>    N        1.11110         4.70225        -1.50372
| 21>    C        2.29077         0.07796        -2.59445
| 22>    C        2.83037        -0.72491        -1.54597
| 23>    C        3.43193        -1.92430        -1.80028
| 24>    C        3.50654        -2.38858        -3.13279
| 25>    C        2.94660        -1.60137        -4.18102
| 26>    C        2.33974        -0.35741        -3.89052
| 27>    C        3.01502        -2.08393        -5.50345
| 28>    C        3.61158        -3.28404        -5.78054
| 29>    C        4.16599        -4.05645        -4.74900
| 30>    C        4.11484        -3.61830        -3.45343
| 31>    C        2.59845        -0.06092        -0.25370
| 32>    O        2.95332        -0.40691         0.84834
| 33>    C        1.75025         1.12995        -0.57755
| 34>    C        1.05000         1.72628         0.42377
| 35>    C       -0.08246         2.56246         0.31808
| 36>    S       -0.67897         3.46602         1.70049
| 37>    C       -2.06252         4.13244         0.85126
| 38>    C       -2.03537         3.63646        -0.43609
| 39>    C       -0.95686         2.78446        -0.72428
| 40>    O       -1.11559         2.32612        -1.99021
| 41>    C       -2.27065         2.88351        -2.45410
| 42>    S       -2.86647         2.59194        -3.91928
| 43>    O       -2.84436         3.66574        -1.51987
| 44>    C       -2.98954         5.07818         1.35805
| 45>    N       -3.32924         5.27364         2.67329
| 46>    C       -2.88010         4.51251         3.81376
| 47>    C       -3.50944         3.12358         3.85666
| 48>    C       -4.31268         6.27359         2.80846
| 49>    O       -4.78889         6.60166         3.87697
| 50>    C       -4.54399         6.73589         1.46028
| 51>    C       -3.71878         5.98039         0.59155
| 52>    C       -3.86235         6.51644        -0.74979
| 53>    O       -3.31542         6.25847        -1.79543
| 54>    N       -4.81871         7.54431        -0.60118
| 55>    C       -5.28695         8.29302        -1.74341
| 56>    C       -6.65287         7.80539        -2.21856
| 57>    C       -5.22402         7.69088         0.70053
| 58>    C       -6.14733         8.67333         1.13161
| 59>    C       -6.53978         8.79230         2.42895
| 60>    C       -7.44642         9.78887         2.85452
| 61>    S       -7.97731         9.92872         4.51612
| 62>    C       -9.02772        11.30537         4.21320
| 63>    C       -8.91650        11.62820         2.87387
| 64>    C       -8.06139        10.79706         2.13575
| 65>    O       -8.03008        11.25994         0.85740
| 66>    C       -8.82498        12.35998         0.83446
| 67>    S       -9.07767        13.25733        -0.47911
| 68>    O       -9.35563        12.60893         2.04996
| 69>    C       -9.74980        11.91630         5.26458
| 70>    C      -10.89069        12.64510         5.10689
| 71>    C      -11.55369        13.45894         6.11056
| 72>    C      -11.07648        13.76249         7.35892
| 73>    C      -11.75599        14.57798         8.28884
| 74>    N      -12.25825        15.22527         9.09261
| 75>    C       -9.84623        13.31980         7.88860
| 76>    N       -8.85490        13.00821         8.37737
| 77>    C      -12.79098        13.96116         5.52627
| 78>    C      -12.90691        13.46184         4.19672
| 79>    C      -11.75837        12.59579         3.89568
| 80>    O      -11.60767        11.89209         2.92047
| 81>    C      -13.96539        13.77932         3.39506
| 82>    C      -14.97370        14.63455         3.89278
| 83>    C      -14.87045        15.13195         5.22444
| 84>    C      -13.76559        14.78056         6.03306
| 85>    C      -15.88579        15.97902         5.71352
| 86>    C      -16.95049        16.32237         4.92540
| 87>    C      -17.04936        15.83471         3.61362
| 88>    C      -16.08202        15.00877         3.10809
| 89>    H        3.84362        -2.51380        -0.99455
| 90>    H        1.91412         0.21556        -4.69953
| 91>    H        2.58937        -1.48435        -6.29444
| 92>    H        3.65981        -3.64465        -6.79702
| 93>    H        4.63301        -5.00068        -4.98565
| 94>    H        4.53925        -4.20914        -2.65494
| 95>    H        1.35093         1.46064         1.43170
| 96>    H       -3.19076         5.08577         4.69186
| 97>    H       -1.78905         4.44278         3.80087
| 98>    H       -4.59284         3.20576         3.89761
| 99>    H       -3.16681         2.59516         4.74118
|100>    H       -3.23556         2.54376         2.97847
|101>    H       -4.54562         8.13360        -2.53132
|102>    H       -5.31716         9.35789        -1.49776
|103>    H       -6.59570         6.75732        -2.50205
|104>    H       -6.96607         8.38241        -3.08386
|105>    H       -7.40133         7.91425        -1.43665
|106>    H       -6.54535         9.35403         0.39298
|107>    H       -6.15624         8.11982         3.18443
|108>    H       -9.34145        11.76030         6.25430
|109>    H      -14.02783        13.38877         2.39026
|110>    H      -13.71972        15.17010         7.03758
|111>    H      -15.80443        16.35324         6.72346
|112>    H      -17.72243        16.97266         5.30857
|113>    H      -17.89590        16.11656         3.00566
|114>    H      -16.15278        14.63034         2.09895
|115> *
|116>
|117>                          ****END OF INPUT****

CARTESIAN COORDINATES (ANGSTROEM)
---------------------------------
  C      1.765070    1.308140   -2.013130
  C      1.567210    2.484040   -2.688260
  C      1.696770    2.617970   -4.086610
  N      1.793210    2.776690   -5.218500
  C      1.311740    3.705030   -2.036240
  N      1.111100    4.702250   -1.503720
  C      2.290770    0.077960   -2.594450
  C      2.830370   -0.724910   -1.545970
  C      3.431930   -1.924300   -1.800280
  C      3.506540   -2.388580   -3.132790
  C      2.946600   -1.601370   -4.181020
  C      2.339740   -0.357410   -3.890520
  C      3.015020   -2.083930   -5.503450
  C      3.611580   -3.284040   -5.780540
  C      4.165990   -4.056450   -4.749000
  C      4.114840   -3.618300   -3.453430
  C      2.598450   -0.060920   -0.253700
  O      2.953320   -0.406910    0.848340
  C      1.750250    1.129950   -0.577550
  C      1.050000    1.726280    0.423770
  C     -0.082460    2.562460    0.318080
  S     -0.678970    3.466020    1.700490
  C     -2.062520    4.132440    0.851260
  C     -2.035370    3.636460   -0.436090
  C     -0.956860    2.784460   -0.724280
  O     -1.115590    2.326120   -1.990210
  C     -2.270650    2.883510   -2.454100
  S     -2.866470    2.591940   -3.919280
  O     -2.844360    3.665740   -1.519870
  C     -2.989540    5.078180    1.358050
  N     -3.329240    5.273640    2.673290
  C     -2.880100    4.512510    3.813760
  C     -3.509440    3.123580    3.856660
  C     -4.312680    6.273590    2.808460
  O     -4.788890    6.601660    3.876970
  C     -4.543990    6.735890    1.460280
  C     -3.718780    5.980390    0.591550
  C     -3.862350    6.516440   -0.749790
  O     -3.315420    6.258470   -1.795430
  N     -4.818710    7.544310   -0.601180
  C     -5.286950    8.293020   -1.743410
  C     -6.652870    7.805390   -2.218560
  C     -5.224020    7.690880    0.700530
  C     -6.147330    8.673330    1.131610
  C     -6.539780    8.792300    2.428950
  C     -7.446420    9.788870    2.854520
  S     -7.977310    9.928720    4.516120
  C     -9.027720   11.305370    4.213200
  C     -8.916500   11.628200    2.873870
  C     -8.061390   10.797060    2.135750
  O     -8.030080   11.259940    0.857400
  C     -8.824980   12.359980    0.834460
  S     -9.077670   13.257330   -0.479110
  O     -9.355630   12.608930    2.049960
  C     -9.749800   11.916300    5.264580
  C    -10.890690   12.645100    5.106890
  C    -11.553690   13.458940    6.110560
  C    -11.076480   13.762490    7.358920
  C    -11.755990   14.577980    8.288840
  N    -12.258250   15.225270    9.092610
  C     -9.846230   13.319800    7.888600
  N     -8.854900   13.008210    8.377370
  C    -12.790980   13.961160    5.526270
  C    -12.906910   13.461840    4.196720
  C    -11.758370   12.595790    3.895680
  O    -11.607670   11.892090    2.920470
  C    -13.965390   13.779320    3.395060
  C    -14.973700   14.634550    3.892780
  C    -14.870450   15.131950    5.224440
  C    -13.765590   14.780560    6.033060
  C    -15.885790   15.979020    5.713520
  C    -16.950490   16.322370    4.925400
  C    -17.049360   15.834710    3.613620
  C    -16.082020   15.008770    3.108090
  H      3.843620   -2.513800   -0.994550
  H      1.914120    0.215560   -4.699530
  H      2.589370   -1.484350   -6.294440
  H      3.659810   -3.644650   -6.797020
  H      4.633010   -5.000680   -4.985650
  H      4.539250   -4.209140   -2.654940
  H      1.350930    1.460640    1.431700
  H     -3.190760    5.085770    4.691860
  H     -1.789050    4.442780    3.800870
  H     -4.592840    3.205760    3.897610
  H     -3.166810    2.595160    4.741180
  H     -3.235560    2.543760    2.978470
  H     -4.545620    8.133600   -2.531320
  H     -5.317160    9.357890   -1.497760
  H     -6.595700    6.757320   -2.502050
  H     -6.966070    8.382410   -3.083860
  H     -7.401330    7.914250   -1.436650
  H     -6.545350    9.354030    0.392980
  H     -6.156240    8.119820    3.184430
  H     -9.341450   11.760300    6.254300
  H    -14.027830   13.388770    2.390260
  H    -13.719720   15.170100    7.037580
  H    -15.804430   16.353240    6.723460
  H    -17.722430   16.972660    5.308570
  H    -17.895900   16.116560    3.005660
  H    -16.152780   14.630340    2.098950

 Total Charge           Charge          ....    0
 Multiplicity           Mult            ....    1
 Number of Electrons    NEL             ....  532
 Basis Dimension        Dim             .... 1182

ORBITAL ENERGIES
----------------

  NO   OCC          E(Eh)            E(eV)
   0   2.0000     -88.992954     -2421.6214
   1   2.0000     -88.991537     -2421.5828
   2   2.0000     -88.900392     -2419.1026
   3   2.0000     -88.897007     -2419.0106
   4   2.0000     -19.332905      -526.0751
   5   2.0000     -19.330538      -526.0107
   6   2.0000     -19.330469      -526.0088
   7   2.0000     -19.324391      -525.8434
   8   2.0000     -19.221840      -523.0529
   9   2.0000     -19.219181      -522.9805
  10   2.0000     -19.200768      -522.4795
  11   2.0000     -19.198192      -522.4094
  12   2.0000     -14.466176      -393.6447
  13   2.0000     -14.461732      -393.5237
  14   2.0000     -14.422121      -392.4459
  15   2.0000     -14.419577      -392.3767
  16   2.0000     -14.418787      -392.3551
  17   2.0000     -14.414740      -392.2450
  18   2.0000     -10.452811      -284.4355
  19   2.0000     -10.447874      -284.3011
  20   2.0000     -10.384216      -282.5689
  21   2.0000     -10.382709      -282.5279
  22   2.0000     -10.378928      -282.4250
  23   2.0000     -10.376291      -282.3532
  24   2.0000     -10.373188      -282.2688
  25   2.0000     -10.373078      -282.2658
  26   2.0000     -10.372070      -282.2384
  27   2.0000     -10.370108      -282.1850
  28   2.0000     -10.357056      -281.8298
  29   2.0000     -10.353767      -281.7403
  30   2.0000     -10.350026      -281.6385
  31   2.0000     -10.348600      -281.5997
  32   2.0000     -10.347639      -281.5736
  33   2.0000     -10.346605      -281.5454
  34   2.0000     -10.345820      -281.5241
  35   2.0000     -10.343838      -281.4701
  36   2.0000     -10.343726      -281.4671
  37   2.0000     -10.340764      -281.3865
  38   2.0000     -10.334623      -281.2194
  39   2.0000     -10.330510      -281.1075
  40   2.0000     -10.324402      -280.9413
  41   2.0000     -10.322020      -280.8764
  42   2.0000     -10.319207      -280.7999
  43   2.0000     -10.317309      -280.7483
  44   2.0000     -10.316625      -280.7296
  45   2.0000     -10.316244      -280.7193
  46   2.0000     -10.311780      -280.5978
  47   2.0000     -10.310898      -280.5738
  48   2.0000     -10.308427      -280.5066
  49   2.0000     -10.307550      -280.4827
  50   2.0000     -10.306956      -280.4665
  51   2.0000     -10.303887      -280.3830
  52   2.0000     -10.300880      -280.3012
  53   2.0000     -10.300680      -280.2957
  54   2.0000     -10.300398      -280.2881
  55   2.0000     -10.299743      -280.2703
  56   2.0000     -10.298672      -280.2411
  57   2.0000     -10.298042      -280.2240
  58   2.0000     -10.297638      -280.2130
  59   2.0000     -10.296097      -280.1710
  60   2.0000     -10.292361      -280.0694
  61   2.0000     -10.290723      -280.0248
  62   2.0000     -10.289315      -279.9865
  63   2.0000     -10.288694      -279.9696
  64   2.0000     -10.288523      -279.9649
  65   2.0000     -10.288077      -279.9528
  66   2.0000     -10.286616      -279.9130
  67   2.0000     -10.286092      -279.8988
  68   2.0000     -10.285780      -279.8903
  69   2.0000     -10.284993      -279.8689
  70   2.0000     -10.278052      -279.6800
  71   2.0000     -10.272442      -279.5273
  72   2.0000     -10.270199      -279.4663
  73   2.0000     -10.265900      -279.3493
  74   2.0000      -8.087208      -220.0641
  75   2.0000      -8.086441      -220.0432
  76   2.0000      -7.998439      -217.6486
  77   2.0000      -7.994943      -217.5535
  78   2.0000      -6.056981      -164.8188
  79   2.0000      -6.056024      -164.7928
  80   2.0000      -6.052823      -164.7057
  81   2.0000      -6.051970      -164.6825
  82   2.0000      -6.048418      -164.5858
  83   2.0000      -6.047817      -164.5695
  84   2.0000      -5.968296      -162.4056
  85   2.0000      -5.964807      -162.3107
  86   2.0000      -5.964716      -162.3082
  87   2.0000      -5.961485      -162.2203
  88   2.0000      -5.958330      -162.1344
  89   2.0000      -5.954775      -162.0377
  90   2.0000      -1.301705       -35.4212
  91   2.0000      -1.298183       -35.3254
  92   2.0000      -1.192670       -32.4542
  93   2.0000      -1.189415       -32.3656
  94   2.0000      -1.143999       -31.1298
  95   2.0000      -1.136930       -30.9374
  96   2.0000      -1.136766       -30.9330
  97   2.0000      -1.134622       -30.8746
  98   2.0000      -1.076101       -29.2822
  99   2.0000      -1.067105       -29.0374
 100   2.0000      -1.026673       -27.9372
 101   2.0000      -1.025668       -27.9098
 102   2.0000      -1.022455       -27.8224
 103   2.0000      -1.016490       -27.6601
 104   2.0000      -1.003071       -27.2949
 105   2.0000      -0.999989       -27.2111
 106   2.0000      -0.998912       -27.1818
 107   2.0000      -0.994414       -27.0594
 108   2.0000      -0.975772       -26.5521
 109   2.0000      -0.972720       -26.4691
 110   2.0000      -0.942598       -25.6494
 111   2.0000      -0.937697       -25.5160
 112   2.0000      -0.930028       -25.3073
 113   2.0000      -0.927264       -25.2321
 114   2.0000      -0.918448       -24.9922
 115   2.0000      -0.917218       -24.9588
 116   2.0000      -0.911616       -24.8063
 117   2.0000      -0.906703       -24.6726
 118   2.0000      -0.892562       -24.2878
 119   2.0000      -0.886961       -24.1354
 120   2.0000      -0.883798       -24.0494
 121   2.0000      -0.881567       -23.9886
 122   2.0000      -0.878954       -23.9176
 123   2.0000      -0.860187       -23.4069
 124   2.0000      -0.850860       -23.1531
 125   2.0000      -0.831614       -22.6294
 126   2.0000      -0.830287       -22.5933
 127   2.0000      -0.828797       -22.5527
 128   2.0000      -0.828526       -22.5453
 129   2.0000      -0.827895       -22.5282
 130   2.0000      -0.817373       -22.2418
 131   2.0000      -0.808283       -21.9945
 132   2.0000      -0.792628       -21.5685
 133   2.0000      -0.787308       -21.4238
 134   2.0000      -0.768021       -20.8989
 135   2.0000      -0.766432       -20.8557
 136   2.0000      -0.762274       -20.7425
 137   2.0000      -0.751660       -20.4537
 138   2.0000      -0.746015       -20.3001
 139   2.0000      -0.743716       -20.2375
 140   2.0000      -0.738564       -20.0974
 141   2.0000      -0.725454       -19.7406
 142   2.0000      -0.718987       -19.5646
 143   2.0000      -0.712572       -19.3901
 144   2.0000      -0.709809       -19.3149
 145   2.0000      -0.708006       -19.2658
 146   2.0000      -0.705363       -19.1939
 147   2.0000      -0.701727       -19.0950
 148   2.0000      -0.700736       -19.0680
 149   2.0000      -0.697510       -18.9802
 150   2.0000      -0.685640       -18.6572
 151   2.0000      -0.680626       -18.5208
 152   2.0000      -0.677329       -18.4311
 153   2.0000      -0.674856       -18.3638
 154   2.0000      -0.659801       -17.9541
 155   2.0000      -0.650339       -17.6966
 156   2.0000      -0.647994       -17.6328
 157   2.0000      -0.635188       -17.2843
 158   2.0000      -0.633779       -17.2460
 159   2.0000      -0.630290       -17.1511
 160   2.0000      -0.630033       -17.1441
 161   2.0000      -0.625303       -17.0154
 162   2.0000      -0.618698       -16.8356
 163   2.0000      -0.610346       -16.6083
 164   2.0000      -0.608080       -16.5467
 165   2.0000      -0.607665       -16.5354
 166   2.0000      -0.602774       -16.4023
 167   2.0000      -0.600993       -16.3538
 168   2.0000      -0.590637       -16.0720
 169   2.0000      -0.585763       -15.9394
 170   2.0000      -0.575840       -15.6694
 171   2.0000      -0.572010       -15.5652
 172   2.0000      -0.562996       -15.3199
 173   2.0000      -0.559800       -15.2329
 174   2.0000      -0.557905       -15.1814
 175   2.0000      -0.557380       -15.1671
 176   2.0000      -0.549860       -14.9625
 177   2.0000      -0.547314       -14.8932
 178   2.0000      -0.546676       -14.8758
 179   2.0000      -0.545096       -14.8328
 180   2.0000      -0.542528       -14.7629
 181   2.0000      -0.540926       -14.7193
 182   2.0000      -0.539022       -14.6675
 183   2.0000      -0.535456       -14.5705
 184   2.0000      -0.531922       -14.4743
 185   2.0000      -0.528198       -14.3730
 186   2.0000      -0.526062       -14.3149
 187   2.0000      -0.523434       -14.2434
 188   2.0000      -0.522300       -14.2125
 189   2.0000      -0.522028       -14.2051
 190   2.0000      -0.520133       -14.1535
 191   2.0000      -0.518881       -14.1195
 192   2.0000      -0.516764       -14.0619
 193   2.0000      -0.513829       -13.9820
 194   2.0000      -0.513454       -13.9718
 195   2.0000      -0.513138       -13.9632
 196   2.0000      -0.511137       -13.9087
 197   2.0000      -0.509851       -13.8737
 198   2.0000      -0.507003       -13.7963
 199   2.0000      -0.505022       -13.7424
 200   2.0000      -0.501415       -13.6442
 201   2.0000      -0.500582       -13.6215
 202   2.0000      -0.499790       -13.6000
 203   2.0000      -0.499025       -13.5792
 204   2.0000      -0.492541       -13.4027
 205   2.0000      -0.491140       -13.3646
 206   2.0000      -0.489871       -13.3301
 207   2.0000      -0.486548       -13.2396
 208   2.0000      -0.485452       -13.2098
 209   2.0000      -0.484044       -13.1715
 210   2.0000      -0.483066       -13.1449
 211   2.0000      -0.479585       -13.0502
 212   2.0000      -0.474536       -12.9128
 213   2.0000      -0.471613       -12.8332
 214   2.0000      -0.468450       -12.7472
 215   2.0000      -0.465915       -12.6782
 216   2.0000      -0.464624       -12.6431
 217   2.0000      -0.462465       -12.5843
 218   2.0000      -0.454790       -12.3755
 219   2.0000      -0.453999       -12.3540
 220   2.0000      -0.453564       -12.3421
 221   2.0000      -0.452653       -12.3173
 222   2.0000      -0.450611       -12.2617
 223   2.0000      -0.448960       -12.2168
 224   2.0000      -0.448153       -12.1949
 225   2.0000      -0.445271       -12.1164
 226   2.0000      -0.443531       -12.0691
 227   2.0000      -0.439968       -11.9721
 228   2.0000      -0.439587       -11.9618
 229   2.0000      -0.437804       -11.9133
 230   2.0000      -0.435632       -11.8541
 231   2.0000      -0.433386       -11.7930
 232   2.0000      -0.431898       -11.7525
 233   2.0000      -0.431545       -11.7429
 234   2.0000      -0.430917       -11.7258
 235   2.0000      -0.427594       -11.6354
 236   2.0000      -0.425586       -11.5808
 237   2.0000      -0.424596       -11.5539
 238   2.0000      -0.419173       -11.4063
 239   2.0000      -0.416289       -11.3278
 240   2.0000      -0.411983       -11.2106
 241   2.0000      -0.410794       -11.1783
 242   2.0000      -0.402758       -10.9596
 243   2.0000      -0.393186       -10.6991
 244   2.0000      -0.381231       -10.3738
 245   2.0000      -0.380476       -10.3533
 246   2.0000      -0.376627       -10.2485
 247   2.0000      -0.374234       -10.1834
 248   2.0000      -0.362946        -9.8763
 249   2.0000      -0.356573        -9.7029
 250   2.0000      -0.351098        -9.5539
 251   2.0000      -0.344571        -9.3762
 252   2.0000      -0.341127        -9.2825
 253   2.0000      -0.340163        -9.2563
 254   2.0000      -0.326809        -8.8929
 255   2.0000      -0.320875        -8.7315
 256   2.0000      -0.318641        -8.6707
 257   2.0000      -0.311818        -8.4850
 258   2.0000      -0.311194        -8.4680
 259   2.0000      -0.307504        -8.3676
 260   2.0000      -0.307174        -8.3586
 261   2.0000      -0.304079        -8.2744
 262   2.0000      -0.302443        -8.2299
 263   2.0000      -0.294239        -8.0066
 264   2.0000      -0.292793        -7.9673
 265   2.0000      -0.247629        -6.7383
 266   0.0000      -0.119621        -3.2551
 267   0.0000      -0.098745        -2.6870
 268   0.0000      -0.074438        -2.0256
 269   0.0000      -0.061548        -1.6748
 270   0.0000      -0.055803        -1.5185

MULLIKEN ATOMIC CHARGES
-----------------------
   0 C :    0.262917
   1 C :   -0.296757
   2 C :   -0.174180
   3 N :    0.163224
   4 C :   -0.213981
   5 N :    0.165937
   6 C :    0.036720
   7 C :    0.010997
   8 C :   -0.078893
   9 C :    0.092990
  10 C :    0.093167
  11 C :   -0.077033
  12 C :   -0.014898
  13 C :    0.034953
  14 C :    0.036930
  15 C :   -0.014559
  16 C :    0.135808
  17 O :   -0.137588
  18 C :   -0.126334
  19 C :    0.105979
  20 C :   -0.174317
  21 S :    0.172013
  22 C :   -0.222396
  23 C :    0.199735
  24 C :    0.172210
  25 O :   -0.183430
  26 C :    0.245128
  27 S :   -0.126682
  28 O :   -0.135190
  29 C :    0.152093
  30 N :   -0.256356
  31 C :    0.086036
  32 C :    0.003693
  33 C :    0.162863
  34 O :   -0.208582
  35 C :   -0.079601
  36 C :   -0.059125
  37 C :    0.135950
  38 O :   -0.161924
  39 N :   -0.261319
  40 C :    0.090106
  41 C :    0.003141
  42 C :    0.152380
  43 C :   -0.043655
  44 C :    0.099841
  45 C :   -0.183576
  46 S :    0.202503
  47 C :   -0.217630
  48 C :    0.244222
  49 C :    0.166430
  50 O :   -0.184018
  51 C :    0.240927
  52 S :   -0.142108
  53 O :   -0.149861
  54 C :    0.047463
  55 C :   -0.090509
  56 C :    0.320605
  57 C :   -0.345682
  58 C :   -0.180753
  59 N :    0.150937
  60 C :   -0.197996
  61 N :    0.162690
  62 C :    0.048804
  63 C :   -0.005048
  64 C :    0.145777
  65 O :   -0.147928
  66 C :   -0.074284
  67 C :    0.096602
  68 C :    0.096296
  69 C :   -0.081167
  70 C :   -0.016901
  71 C :    0.035817
  72 C :    0.037793
  73 C :   -0.015303
  74 H :   -0.012052
  75 H :   -0.001249
  76 H :   -0.009113
  77 H :   -0.004114
  78 H :   -0.005698
  79 H :   -0.017804
  80 H :    0.019806
  81 H :    0.049103
  82 H :    0.032590
  83 H :    0.030696
  84 H :    0.026339
  85 H :    0.021490
  86 H :    0.052124
  87 H :    0.032197
  88 H :    0.032514
  89 H :    0.030834
  90 H :    0.014982
  91 H :   -0.000318
  92 H :    0.003446
  93 H :    0.023977
  94 H :   -0.010827
  95 H :   -0.008921
  96 H :   -0.008626
  97 H :   -0.003552
  98 H :   -0.003595
  99 H :   -0.016339
Sum of atomic charges:   -0.0000000

LOEWDIN ATOMIC CHARGES
----------------------
   0 C :    0.061071
   1 C :   -0.125989
   2 C :   -0.017424
   3 N :   -0.042414
   4 C :   -0.021575
   5 N :   -0.045316
   6 C :   -0.020726
   7 C :   -0.060206
   8 C :    0.034783
   9 C :   -0.010269
  10 C :   -0.003959
  11 C :    0.017306
  12 C :   -0.005549
  13 C :   -0.011688
  14 C :   -0.013340
  15 C :   -0.008854
  16 C :    0.084690
  17 O :   -0.139441
  18 C :   -0.073192
  19 C :    0.035853
  20 C :   -0.191990
  21 S :    0.475145
  22 C :   -0.184960
  23 C :    0.017743
  24 C :    0.013589
  25 O :   -0.004701
  26 C :   -0.059817
  27 S :    0.037987
  28 O :    0.020877
  29 C :    0.043361
  30 N :    0.000244
  31 C :    0.029737
  32 C :   -0.062261
  33 C :    0.079211
  34 O :   -0.201642
  35 C :   -0.124988
  36 C :   -0.102198
  37 C :    0.080092
  38 O :   -0.165656
  39 N :    0.000746
  40 C :    0.036747
  41 C :   -0.060001
  42 C :    0.085506
  43 C :   -0.033167
  44 C :    0.013698
  45 C :   -0.177038
  46 S :    0.483230
  47 C :   -0.193954
  48 C :    0.024437
  49 C :   -0.001470
  50 O :   -0.015379
  51 C :   -0.060734
  52 S :    0.021876
  53 O :    0.013449
  54 C :    0.043546
  55 C :   -0.079150
  56 C :    0.073947
  57 C :   -0.133805
  58 C :   -0.017107
  59 N :   -0.048730
  60 C :   -0.022284
  61 N :   -0.047136
  62 C :   -0.026746
  63 C :   -0.054623
  64 C :    0.080034
  65 O :   -0.136923
  66 C :    0.034780
  67 C :   -0.007155
  68 C :   -0.005902
  69 C :    0.021099
  70 C :   -0.004636
  71 C :   -0.012256
  72 C :   -0.010454
  73 C :   -0.008562
  74 H :    0.039380
  75 H :    0.040391
  76 H :    0.035096
  77 H :    0.033433
  78 H :    0.032672
  79 H :    0.031749
  80 H :    0.048157
  81 H :    0.040374
  82 H :    0.012952
  83 H :    0.032162
  84 H :    0.032799
  85 H :    0.018572
  86 H :    0.040847
  87 H :    0.026166
  88 H :    0.033325
  89 H :    0.034095
  90 H :    0.021732
  91 H :    0.034238
  92 H :    0.040619
  93 H :    0.047456
  94 H :    0.040315
  95 H :    0.039160
  96 H :    0.035080
  97 H :    0.033765
  98 H :    0.033472
  99 H :    0.032576

  Mayer bond orders larger than 0.100000
B(  0-C ,  1-C ) :   1.6539 B(  0-C ,  6-C ) :   0.9989 B(  0-C , 18-C ) :   1.0451
B(  1-C ,  2-C ) :   1.1343 B(  1-C ,  4-C ) :   1.1676 B(  2-C ,  3-N ) :   2.9912
B(  4-C ,  5-N ) :   2.9905 B(  6-C ,  7-C ) :   1.2120 B(  6-C , 11-C ) :   1.4645
B(  7-C ,  8-C ) :   1.4690 B(  7-C , 16-C ) :   0.9254 B(  8-C ,  9-C ) :   1.1867
B(  8-C , 74-H ) :   1.0162 B(  9-C , 10-C ) :   1.2577 B(  9-C , 15-C ) :   1.2428
B( 10-C , 11-C ) :   1.1989 B( 10-C , 12-C ) :   1.2436 B( 11-C , 75-H ) :   0.9942
B( 12-C , 13-C ) :   1.4872 B( 12-C , 76-H ) :   0.9979 B( 13-C , 14-C ) :   1.2603
B( 13-C , 77-H ) :   0.9892 B( 14-C , 15-C ) :   1.4896 B( 14-C , 78-H ) :   0.9885
B( 15-C , 79-H ) :   0.9978 B( 16-C , 17-O ) :   2.2756 B( 16-C , 18-C ) :   0.9281
B( 18-C , 19-C ) :   1.6670 B( 19-C , 20-C ) :   1.1443 B( 19-C , 80-H ) :   0.9313
B( 20-C , 21-S ) :   1.0691 B( 20-C , 22-C ) :   0.1031 B( 20-C , 24-C ) :   1.4701
B( 21-S , 22-C ) :   1.0896 B( 22-C , 23-C ) :   1.5193 B( 22-C , 29-C ) :   1.0926
B( 23-C , 24-C ) :   1.2487 B( 23-C , 28-O ) :   1.1091 B( 24-C , 25-O ) :   1.0908
B( 25-O , 26-C ) :   1.0517 B( 26-C , 27-S ) :   1.8221 B( 26-C , 28-O ) :   1.1031
B( 29-C , 30-N ) :   1.1875 B( 29-C , 36-C ) :   1.4212 B( 30-N , 31-C ) :   0.9417
B( 30-N , 33-C ) :   1.0536 B( 31-C , 32-C ) :   1.1146 B( 31-C , 81-H ) :   0.9240
B( 31-C , 82-H ) :   0.9465 B( 32-C , 83-H ) :   0.9642 B( 32-C , 84-H ) :   0.9676
B( 32-C , 85-H ) :   0.9670 B( 33-C , 34-O ) :   2.0246 B( 33-C , 35-C ) :   0.9996
B( 34-O , 92-H ) :   0.1138 B( 35-C , 36-C ) :   1.2445 B( 35-C , 42-C ) :   1.3221
B( 36-C , 37-C ) :   0.9528 B( 37-C , 38-O ) :   2.1622 B( 37-C , 39-N ) :   1.0253
B( 39-N , 40-C ) :   0.9377 B( 39-N , 42-C ) :   1.1817 B( 40-C , 41-C ) :   1.1231
B( 40-C , 86-H ) :   0.9267 B( 40-C , 87-H ) :   0.9498 B( 41-C , 88-H ) :   0.9635
B( 41-C , 89-H ) :   0.9677 B( 41-C , 90-H ) :   0.9682 B( 42-C , 43-C ) :   1.1624
B( 43-C , 44-C ) :   1.5943 B( 43-C , 91-H ) :   0.9617 B( 44-C , 45-C ) :   1.1509
B( 44-C , 92-H ) :   0.9372 B( 45-C , 46-S ) :   1.1125 B( 45-C , 49-C ) :   1.4402
B( 46-S , 47-C ) :   1.0900 B( 47-C , 48-C ) :   1.4512 B( 47-C , 54-C ) :   1.1625
B( 48-C , 49-C ) :   1.2793 B( 48-C , 53-O ) :   1.0933 B( 49-C , 50-O ) :   1.0692
B( 50-O , 51-C ) :   1.0772 B( 51-C , 52-S ) :   1.8095 B( 51-C , 53-O ) :   1.0983
B( 54-C , 55-C ) :   1.6247 B( 54-C , 93-H ) :   0.9304 B( 55-C , 56-C ) :   1.0666
B( 55-C , 64-C ) :   0.9402 B( 56-C , 57-C ) :   1.6401 B( 56-C , 62-C ) :   0.9941
B( 57-C , 58-C ) :   1.1446 B( 57-C , 60-C ) :   1.1438 B( 58-C , 59-N ) :   2.9634
B( 60-C , 61-N ) :   2.9764 B( 62-C , 63-C ) :   1.2150 B( 62-C , 69-C ) :   1.4459
B( 63-C , 64-C ) :   0.9420 B( 63-C , 66-C ) :   1.4720 B( 64-C , 65-O ) :   2.2165
B( 66-C , 67-C ) :   1.1806 B( 66-C , 94-H ) :   1.0158 B( 67-C , 68-C ) :   1.2552
B( 67-C , 73-C ) :   1.2440 B( 68-C , 69-C ) :   1.2091 B( 68-C , 70-C ) :   1.2390
B( 69-C , 95-H ) :   0.9887 B( 70-C , 71-C ) :   1.4892 B( 70-C , 96-H ) :   0.9971
B( 71-C , 72-C ) :   1.2596 B( 71-C , 97-H ) :   0.9887 B( 72-C , 73-C ) :   1.4894
B( 72-C , 98-H ) :   0.9886 B( 73-C , 99-H ) :   0.9973

-----------------------------------------------------------------------------
         ABSORPTION SPECTRUM VIA TRANSITION ELECTRIC DIPOLE MOMENTS
-----------------------------------------------------------------------------
State   Energy  Wavelength   fosc         T2         TX        TY        TZ
        (cm-1)    (nm)                  (au**2)     (au)      (au)      (au)
-----------------------------------------------------------------------------
   0   13304.1    751.6   1.324618674  32.77796  -3.89299   3.93757   1.45538
   1   18881.6    529.6   0.001340244   0.02337   0.10629   0.00365   0.10981
   2   22994.3    434.9   0.533019118   7.63130  -1.39059   1.06206   2.13766
   3   24123.5    414.5   0.051266709   0.69963   0.66432  -0.09825  -0.49865
   4   24522.9    407.8   0.052572834   0.70577  -0.41574   0.24803   0.68659
   5   24739.0    404.2   0.046850958   0.62346  -0.55378   0.37884  -0.41626
   6   24984.1    400.3   0.042007015   0.55352   0.49134  -0.34639   0.43832
   7   25063.9    399.0   0.071459005   0.93861  -0.81661  -0.42565   0.30098
   8   25167.6    397.3   0.267444369   3.49838  -1.19594   1.34249  -0.51558
   9   25865.4    386.6   0.001606652   0.02045   0.07315   0.04936  -0.11253
  10   26236.9    381.1   0.075941992   0.95289  -0.61497   0.44294   0.61523
  11   27090.8    369.1   0.276719781   3.36274   1.03448  -0.71995  -1.33202
  12   27293.9    366.4   0.200215550   2.41495  -1.06912   0.86758   0.72057
  13   27713.0    360.8   0.072312279   0.85902   0.52637  -0.48151  -0.59170
  14   27981.2    357.4   0.029484285   0.34690  -0.26427   0.29516  -0.43582
  15   28169.5    355.0   0.019267862   0.22518   0.34939  -0.30730  -0.09315
  16   28826.9    346.9   0.065552962   0.74863   0.21780   0.52469   0.65261
  17   29331.3    340.9   0.348742488   3.91426  -1.65972   0.99431   0.41343
  18   29462.1    339.4   0.022757708   0.25430  -0.25676   0.36144   0.24028
  19   30621.1    326.6   0.000940526   0.01011  -0.06097   0.01874  -0.07774
  20   30925.1    323.4   0.025174123   0.26799   0.29236  -0.17130   0.39138
  21   31172.1    320.8   0.003299513   0.03485  -0.13378   0.04459  -0.12232
  22   31744.8    315.0   0.010515245   0.10905  -0.03412   0.29021  -0.15383
  23   32220.8    310.4   0.105128355   1.07414  -0.21028  -0.91613  -0.43661
  24   32432.3    308.3   0.153176283   1.55485  -0.96916   0.77274  -0.13581
  25   32451.8    308.1   0.050627430   0.51360  -0.66530   0.06208  -0.25907
  26   32624.1    306.5   0.421915142   4.25757  -1.67851   0.90998  -0.78237
  27   32898.7    304.0   0.410620991   4.10901  -0.49567   1.72278   0.94622
  28   33642.0    297.2   0.020469330   0.20031  -0.01541   0.06850  -0.44202
  29   33749.9    296.3   0.010728753   0.10465  -0.16019  -0.28072   0.01363
  30   34535.2    289.6   0.034798430   0.33172   0.35976  -0.38113  -0.23882
  31   34845.0    287.0   0.029301445   0.27684   0.28799  -0.33106  -0.29033
  32   34899.4    286.5   0.039269581   0.37044   0.24679  -0.36682  -0.41830
  33   35148.8    284.5   0.004753454   0.04452  -0.05910  -0.16892   0.11178
  34   35605.5    280.9   0.048582738   0.44920  -0.50517   0.36629   0.24460
  35   35694.6    280.2   0.004956397   0.04571   0.14002   0.16152   0.00434
  36   35845.5    279.0   0.096135013   0.88292   0.31898   0.06239   0.88163
  37   36196.5    276.3   0.056428610   0.51323  -0.46734   0.48353  -0.24700
  38   36241.7    275.9   0.040415244   0.36712   0.41235  -0.40581   0.18002
  39   36543.4    273.6   0.240016154   2.16225  -0.29120   1.24599   0.72455
  40   36573.0    273.4   0.115547562   1.04010   0.50199  -0.74629   0.48078
  41   37197.6    268.8   0.014153471   0.12526   0.11003   0.10382   0.31996
  42   37485.7    266.8   0.008955120   0.07865  -0.15803  -0.22316  -0.06222
  43   37673.9    265.4   0.039427074   0.34453   0.15724   0.10033   0.55654
  44   37721.3    265.1   0.121407081   1.05958   0.37996   0.05002   0.95536
  45   37908.0    263.8   0.012003071   0.10424  -0.09354  -0.07309  -0.30025
  46   38103.6    262.4   0.138693268   1.19830   0.65084   0.06004   0.87812
  47   38405.5    260.4   0.033479374   0.28698  -0.04242   0.50829   0.16379
  48   38606.3    259.0   0.000598489   0.00510  -0.04179   0.05664   0.01224
  49   38948.4    256.8   0.088773964   0.75036   0.06175   0.23865  -0.83042
  50   38996.4    256.4   0.026453520   0.22332   0.35086  -0.07055  -0.30862
  51   39126.0    255.6   0.102020868   0.85842   0.12443  -0.09098  -0.91360
  52   39276.7    254.6   0.092206945   0.77287  -0.57432   0.66323   0.05610
  53   39740.9    251.6   0.047807056   0.39603  -0.56659   0.15806  -0.22366
  54   39851.5    250.9   0.136119585   1.12448   0.28804  -0.69277   0.74939
  55   39928.4    250.4   0.006814418   0.05619  -0.05388  -0.16334  -0.16310
  56   39966.9    250.2   0.020782436   0.17119   0.00070  -0.09607   0.40244
  57   40040.1    249.7   0.016382800   0.13470  -0.09048   0.25684  -0.24606

FINAL SINGLE POINT ENERGY     -4668.279466051189

DIPOLE MOMENT
-------------
                                X             Y             Z
Electronic contribution:      8.52881      14.11055       7.02942
Nuclear contribution   :     -9.99438     -16.04444      -7.27857
                        -----------------------------------------
Total Dipole Moment    :     -1.46557      -1.93389      -0.24915
                        -----------------------------------------
Magnitude (a.u.)       :      2.43924
Magnitude (Debye)      :      6.20006

Rotational constants in cm-1:     0.002945     0.000214     0.000205
Rotational constants in MHz :    88.280300     6.423626     6.138885

                             ****ORCA TERMINATED NORMALLY****
TOTAL RUN TIME: 0 days 0 hours 10 minutes 21 seconds 33 msec
