                         Program Version 4.2.0 -  RELEASE  -
|  1> # ORCA input file
|  2> # SCF done       -201.708037771543          0.000679926155
|  3> ! CAM-B3LYP def2-SVP def2/J RIJCOSX Grid4 TightSCF
|  4> %maxcore 5000
|  5> %tddft
|  6>     Mode sTDDFT
|  7>     Ethresh 5.0
|  8>     maxcore 5000
|  9> end
| 10>
| 11> %pal
| 12>   nprocs 6
| 13>   end
| 14> * xyz 0 1
| 15>    C       -3.02801         0.82213         1.80165
| 16>    C       -3.16770        -0.23870         0.94665
| 17>    C       -3.63294        -1.51287         1.33684
| 18>    N       -4.01354        -2.56585         1.58813
| 19>    C       -2.85563        -0.20992        -0.42906
| 20>    N       -2.60999        -0.25468        -1.54961
| 21>    C       -3.27417         0.80619         3.23607
| 22>    C       -2.89612         2.06781         3.78050
| 23>    C       -3.00676         2.34104         5.11408
| 24>    C       -3.51080         1.34652         5.98080
| 25>    C       -3.90500         0.08647         5.44245
| 26>    C       -3.77764        -0.16823         4.05819
| 27>    C       -4.42135        -0.89304         6.31530
| 28>    C       -4.53958        -0.64356         7.65556
| 29>    C       -4.14647         0.59502         8.18503
| 30>    C       -3.64239         1.56861         7.36579
| 31>    C       -2.41972         2.95105         2.70900
| 32>    O       -2.12843         4.12076         2.80211
| 33>    C       -2.52329         2.13981         1.45247
| 34>    C       -2.35811         2.64397         0.20376
| 35>    C       -1.71415         3.88222        -0.07385
| 36>    S       -2.22427         4.87217        -1.42350
| 37>    C       -1.02634         6.10503        -1.10020
| 38>    C       -0.25166         5.70771        -0.02733
| 39>    C       -0.63637         4.47971         0.53909
| 40>    C        0.36014         4.13639         1.56971
| 41>    O        0.46670         3.16780         2.25655
| 42>    O        1.27639         5.16079         1.57610
| 43>    C        1.00186         6.12258         0.61974
| 44>    O        1.74576         7.02139         0.38271
| 45>    C       -0.95780         7.35996        -1.76351
| 46>    N       -1.27704         7.61728        -3.07354
| 47>    C       -1.61439         6.65213        -4.09205
| 48>    C       -0.41869         5.78538        -4.47346
| 49>    C       -1.09517         8.97897        -3.38885
| 50>    O       -1.29907         9.44343        -4.49160
| 51>    C       -0.67000         9.58075        -2.14595
| 52>    C       -0.59043         8.55881        -1.16884
| 53>    C       -0.27313         9.17637         0.10759
| 54>    O       -0.19859         8.73611         1.22930
| 55>    N       -0.10118        10.53988        -0.21236
| 56>    C        0.22128        11.50817         0.80881
| 57>    C       -1.01878        12.25084         1.30003
| 58>    C       -0.35750        10.79579        -1.53493
| 59>    C       -0.31358        12.08851        -2.11243
| 60>    C       -0.65117        12.32933        -3.40743
| 61>    C       -0.63519        13.63649        -3.95226
| 62>    O       -0.24430        14.68928        -3.20250
| 63>    C       -0.33999        15.81221        -3.94316
| 64>    C       -0.80939        15.48924        -5.21917
| 65>    C       -0.99799        14.08192        -5.22635
| 66>    C       -1.46435        13.30592        -6.29788
| 67>    N       -1.85285        12.69489        -7.18559
| 68>    C       -1.04182        16.38527        -6.27208
| 69>    N       -1.22740        17.12494        -7.12729
| 70>    C        0.01878        17.06780        -3.39289
| 71>    C        0.49451        17.18400        -2.12533
| 72>    C        0.87085        18.42252        -1.55525
| 73>    C        1.38631        18.55703        -0.29907
| 74>    C        1.81792        19.79052         0.33803
| 75>    C        1.59597        21.06554        -0.11128
| 76>    C        2.02535        22.22702         0.56630
| 77>    N        2.34828        23.20845         1.06605
| 78>    C        0.88681        21.40965        -1.28179
| 79>    N        0.31603        21.76826        -2.21121
| 80>    C        2.49352        19.43531         1.58013
| 81>    C        2.40467        18.02498         1.76100
| 82>    C        1.68369        17.42747         0.62776
| 83>    O        1.40106        16.25509         0.48609
| 84>    C        2.94813        17.40068         2.84743
| 85>    C        3.62559        18.17131         3.81773
| 86>    C        3.72594        19.58197         3.64049
| 87>    C        3.14842        20.20113         2.50855
| 88>    C        4.41055        20.34113         4.61124
| 89>    C        4.96954        19.73775         5.70487
| 90>    C        4.86945        18.34913         5.87868
| 91>    C        4.21133        17.58243         4.95561
| 92>    H       -2.70839         3.30393         5.50076
| 93>    H       -4.08905        -1.12937         3.68067
| 94>    H       -4.72042        -1.84580         5.90378
| 95>    H       -4.93636        -1.39996         8.31583
| 96>    H       -4.24580         0.77383         9.24512
| 97>    H       -3.33833         2.52403         7.76722
| 98>    H       -2.74636         2.11096        -0.65504
| 99>    H       -1.93973         7.23817        -4.95631
|100>    H       -2.44870         6.03226        -3.75058
|101>    H        0.39252         6.40863        -4.84157
|102>    H       -0.70640         5.09037        -5.25665
|103>    H       -0.05851         5.21634        -3.61913
|104>    H        0.96731        12.20924         0.42632
|105>    H        0.65989        10.94100         1.63405
|106>    H       -1.50987        12.77550         0.48336
|107>    H       -0.73438        12.97577         2.05721
|108>    H       -1.72480        11.54854         1.73627
|109>    H       -0.01051        12.91511        -1.48525
|110>    H       -0.96102        11.52980        -4.06708
|111>    H       -0.10242        17.92972        -4.03461
|112>    H        0.60091        16.29659        -1.51828
|113>    H        0.75325        19.29943        -2.17875
|114>    H        2.86584        16.33000         2.96236
|115>    H        3.24580        21.26973         2.40228
|116>    H        4.48435        21.40980         4.47357
|117>    H        5.49253        20.32761         6.44243
|118>    H        5.31690        17.88995         6.74730
|119>    H        4.13163        16.51292         5.08396
|120> *
|121>
|122>                          ****END OF INPUT****

CARTESIAN COORDINATES (ANGSTROEM)
---------------------------------
  C     -3.028010    0.822130    1.801650
  C     -3.167700   -0.238700    0.946650
  C     -3.632940   -1.512870    1.336840
  N     -4.013540   -2.565850    1.588130
  C     -2.855630   -0.209920   -0.429060
  N     -2.609990   -0.254680   -1.549610
  C     -3.274170    0.806190    3.236070
  C     -2.896120    2.067810    3.780500
  C     -3.006760    2.341040    5.114080
  C     -3.510800    1.346520    5.980800
  C     -3.905000    0.086470    5.442450
  C     -3.777640   -0.168230    4.058190
  C     -4.421350   -0.893040    6.315300
  C     -4.539580   -0.643560    7.655560
  C     -4.146470    0.595020    8.185030
  C     -3.642390    1.568610    7.365790
  C     -2.419720    2.951050    2.709000
  O     -2.128430    4.120760    2.802110
  C     -2.523290    2.139810    1.452470
  C     -2.358110    2.643970    0.203760
  C     -1.714150    3.882220   -0.073850
  S     -2.224270    4.872170   -1.423500
  C     -1.026340    6.105030   -1.100200
  C     -0.251660    5.707710   -0.027330
  C     -0.636370    4.479710    0.539090
  C      0.360140    4.136390    1.569710
  O      0.466700    3.167800    2.256550
  O      1.276390    5.160790    1.576100
  C      1.001860    6.122580    0.619740
  O      1.745760    7.021390    0.382710
  C     -0.957800    7.359960   -1.763510
  N     -1.277040    7.617280   -3.073540
  C     -1.614390    6.652130   -4.092050
  C     -0.418690    5.785380   -4.473460
  C     -1.095170    8.978970   -3.388850
  O     -1.299070    9.443430   -4.491600
  C     -0.670000    9.580750   -2.145950
  C     -0.590430    8.558810   -1.168840
  C     -0.273130    9.176370    0.107590
  O     -0.198590    8.736110    1.229300
  N     -0.101180   10.539880   -0.212360
  C      0.221280   11.508170    0.808810
  C     -1.018780   12.250840    1.300030
  C     -0.357500   10.795790   -1.534930
  C     -0.313580   12.088510   -2.112430
  C     -0.651170   12.329330   -3.407430
  C     -0.635190   13.636490   -3.952260
  O     -0.244300   14.689280   -3.202500
  C     -0.339990   15.812210   -3.943160
  C     -0.809390   15.489240   -5.219170
  C     -0.997990   14.081920   -5.226350
  C     -1.464350   13.305920   -6.297880
  N     -1.852850   12.694890   -7.185590
  C     -1.041820   16.385270   -6.272080
  N     -1.227400   17.124940   -7.127290
  C      0.018780   17.067800   -3.392890
  C      0.494510   17.184000   -2.125330
  C      0.870850   18.422520   -1.555250
  C      1.386310   18.557030   -0.299070
  C      1.817920   19.790520    0.338030
  C      1.595970   21.065540   -0.111280
  C      2.025350   22.227020    0.566300
  N      2.348280   23.208450    1.066050
  C      0.886810   21.409650   -1.281790
  N      0.316030   21.768260   -2.211210
  C      2.493520   19.435310    1.580130
  C      2.404670   18.024980    1.761000
  C      1.683690   17.427470    0.627760
  O      1.401060   16.255090    0.486090
  C      2.948130   17.400680    2.847430
  C      3.625590   18.171310    3.817730
  C      3.725940   19.581970    3.640490
  C      3.148420   20.201130    2.508550
  C      4.410550   20.341130    4.611240
  C      4.969540   19.737750    5.704870
  C      4.869450   18.349130    5.878680
  C      4.211330   17.582430    4.955610
  H     -2.708390    3.303930    5.500760
  H     -4.089050   -1.129370    3.680670
  H     -4.720420   -1.845800    5.903780
  H     -4.936360   -1.399960    8.315830
  H     -4.245800    0.773830    9.245120
  H     -3.338330    2.524030    7.767220
  H     -2.746360    2.110960   -0.655040
  H     -1.939730    7.238170   -4.956310
  H     -2.448700    6.032260   -3.750580
  H      0.392520    6.408630   -4.841570
  H     -0.706400    5.090370   -5.256650
  H     -0.058510    5.216340   -3.619130
  H      0.967310   12.209240    0.426320
  H      0.659890   10.941000    1.634050
  H     -1.509870   12.775500    0.483360
  H     -0.734380   12.975770    2.057210
  H     -1.724800   11.548540    1.736270
  H     -0.010510   12.915110   -1.485250
  H     -0.961020   11.529800   -4.067080
  H     -0.102420   17.929720   -4.034610
  H      0.600910   16.296590   -1.518280
  H      0.753250   19.299430   -2.178750
  H      2.865840   16.330000    2.962360
  H      3.245800   21.269730    2.402280
  H      4.484350   21.409800    4.473570
  H      5.492530   20.327610    6.442430
  H      5.316900   17.889950    6.747300
  H      4.131630   16.512920    5.083960

 Total Charge           Charge          ....    0
 Multiplicity           Mult            ....    1
 Number of Electrons    NEL             ....  524
 Basis Dimension        Dim             .... 1222

ORBITAL ENERGIES
----------------

  NO   OCC          E(Eh)            E(eV)
   0   2.0000     -89.003670     -2421.9130
   1   2.0000     -19.343326      -526.3587
   2   2.0000     -19.282786      -524.7113
   3   2.0000     -19.232494      -523.3428
   4   2.0000     -19.230575      -523.2905
   5   2.0000     -19.228296      -523.2285
   6   2.0000     -19.224211      -523.1174
   7   2.0000     -19.207475      -522.6620
   8   2.0000     -19.206169      -522.6264
   9   2.0000     -14.470182      -393.7537
  10   2.0000     -14.468631      -393.7115
  11   2.0000     -14.429485      -392.6462
  12   2.0000     -14.427007      -392.5788
  13   2.0000     -14.425870      -392.5479
  14   2.0000     -14.425035      -392.5252
  15   2.0000     -14.424825      -392.5194
  16   2.0000     -14.423749      -392.4902
  17   2.0000     -10.427419      -283.7445
  18   2.0000     -10.425217      -283.6846
  19   2.0000     -10.390303      -282.7345
  20   2.0000     -10.389952      -282.7250
  21   2.0000     -10.389519      -282.7132
  22   2.0000     -10.389133      -282.7027
  23   2.0000     -10.382889      -282.5328
  24   2.0000     -10.376690      -282.3641
  25   2.0000     -10.361121      -281.9404
  26   2.0000     -10.360672      -281.9282
  27   2.0000     -10.358404      -281.8665
  28   2.0000     -10.355088      -281.7763
  29   2.0000     -10.353801      -281.7413
  30   2.0000     -10.351975      -281.6915
  31   2.0000     -10.351638      -281.6824
  32   2.0000     -10.350577      -281.6535
  33   2.0000     -10.350160      -281.6422
  34   2.0000     -10.350041      -281.6389
  35   2.0000     -10.335682      -281.2482
  36   2.0000     -10.329141      -281.0702
  37   2.0000     -10.329028      -281.0671
  38   2.0000     -10.329008      -281.0666
  39   2.0000     -10.328965      -281.0654
  40   2.0000     -10.328030      -281.0400
  41   2.0000     -10.327262      -281.0191
  42   2.0000     -10.325733      -280.9775
  43   2.0000     -10.324083      -280.9326
  44   2.0000     -10.320901      -280.8460
  45   2.0000     -10.319435      -280.8061
  46   2.0000     -10.319354      -280.8039
  47   2.0000     -10.318928      -280.7923
  48   2.0000     -10.318525      -280.7814
  49   2.0000     -10.318065      -280.7688
  50   2.0000     -10.317777      -280.7610
  51   2.0000     -10.316878      -280.7365
  52   2.0000     -10.313758      -280.6516
  53   2.0000     -10.310725      -280.5691
  54   2.0000     -10.310174      -280.5541
  55   2.0000     -10.308178      -280.4998
  56   2.0000     -10.307703      -280.4869
  57   2.0000     -10.307447      -280.4799
  58   2.0000     -10.306868      -280.4641
  59   2.0000     -10.303836      -280.3816
  60   2.0000     -10.303557      -280.3740
  61   2.0000     -10.303393      -280.3696
  62   2.0000     -10.302697      -280.3506
  63   2.0000     -10.299960      -280.2762
  64   2.0000     -10.295568      -280.1566
  65   2.0000     -10.295136      -280.1449
  66   2.0000     -10.295085      -280.1435
  67   2.0000     -10.294665      -280.1321
  68   2.0000     -10.294134      -280.1176
  69   2.0000     -10.291735      -280.0524
  70   2.0000     -10.291216      -280.0382
  71   2.0000     -10.291034      -280.0333
  72   2.0000     -10.290616      -280.0219
  73   2.0000     -10.285561      -279.8844
  74   2.0000     -10.279833      -279.7285
  75   2.0000     -10.272050      -279.5167
  76   2.0000     -10.271423      -279.4996
  77   2.0000      -8.098338      -220.3670
  78   2.0000      -6.067723      -165.1111
  79   2.0000      -6.063269      -164.9899
  80   2.0000      -6.060604      -164.9174
  81   2.0000      -1.264350       -34.4047
  82   2.0000      -1.229868       -33.4664
  83   2.0000      -1.157846       -31.5066
  84   2.0000      -1.150002       -31.2931
  85   2.0000      -1.146209       -31.1899
  86   2.0000      -1.143380       -31.1129
  87   2.0000      -1.140748       -31.0413
  88   2.0000      -1.118668       -30.4405
  89   2.0000      -1.082133       -29.4463
  90   2.0000      -1.073665       -29.2159
  91   2.0000      -1.029171       -28.0052
  92   2.0000      -1.029145       -28.0044
  93   2.0000      -1.025275       -27.8991
  94   2.0000      -1.017792       -27.6955
  95   2.0000      -1.009396       -27.4671
  96   2.0000      -1.007360       -27.4117
  97   2.0000      -1.006318       -27.3833
  98   2.0000      -1.004084       -27.3225
  99   2.0000      -1.002772       -27.2868
 100   2.0000      -0.982612       -26.7382
 101   2.0000      -0.978819       -26.6350
 102   2.0000      -0.966564       -26.3016
 103   2.0000      -0.961227       -26.1563
 104   2.0000      -0.945834       -25.7375
 105   2.0000      -0.940408       -25.5898
 106   2.0000      -0.935836       -25.4654
 107   2.0000      -0.930298       -25.3147
 108   2.0000      -0.923406       -25.1271
 109   2.0000      -0.910503       -24.7760
 110   2.0000      -0.900504       -24.5040
 111   2.0000      -0.896648       -24.3990
 112   2.0000      -0.892549       -24.2875
 113   2.0000      -0.890170       -24.2228
 114   2.0000      -0.887100       -24.1392
 115   2.0000      -0.883373       -24.0378
 116   2.0000      -0.863708       -23.5027
 117   2.0000      -0.858308       -23.3557
 118   2.0000      -0.838316       -22.8117
 119   2.0000      -0.834517       -22.7084
 120   2.0000      -0.832791       -22.6614
 121   2.0000      -0.826491       -22.4900
 122   2.0000      -0.815777       -22.1984
 123   2.0000      -0.808644       -22.0043
 124   2.0000      -0.795889       -21.6572
 125   2.0000      -0.777310       -21.1517
 126   2.0000      -0.773167       -21.0389
 127   2.0000      -0.772567       -21.0226
 128   2.0000      -0.769606       -20.9420
 129   2.0000      -0.766216       -20.8498
 130   2.0000      -0.760059       -20.6823
 131   2.0000      -0.742214       -20.1967
 132   2.0000      -0.740202       -20.1419
 133   2.0000      -0.728314       -19.8184
 134   2.0000      -0.726616       -19.7722
 135   2.0000      -0.721527       -19.6337
 136   2.0000      -0.714614       -19.4456
 137   2.0000      -0.711259       -19.3543
 138   2.0000      -0.709359       -19.3026
 139   2.0000      -0.704867       -19.1804
 140   2.0000      -0.699823       -19.0431
 141   2.0000      -0.695370       -18.9220
 142   2.0000      -0.686234       -18.6734
 143   2.0000      -0.682879       -18.5821
 144   2.0000      -0.680996       -18.5308
 145   2.0000      -0.667141       -18.1538
 146   2.0000      -0.660619       -17.9764
 147   2.0000      -0.654671       -17.8145
 148   2.0000      -0.643359       -17.5067
 149   2.0000      -0.639583       -17.4039
 150   2.0000      -0.632020       -17.1981
 151   2.0000      -0.626440       -17.0463
 152   2.0000      -0.625033       -17.0080
 153   2.0000      -0.622042       -16.9266
 154   2.0000      -0.616732       -16.7821
 155   2.0000      -0.612908       -16.6781
 156   2.0000      -0.611288       -16.6340
 157   2.0000      -0.604171       -16.4403
 158   2.0000      -0.600899       -16.3513
 159   2.0000      -0.596108       -16.2209
 160   2.0000      -0.593425       -16.1479
 161   2.0000      -0.589288       -16.0353
 162   2.0000      -0.584009       -15.8917
 163   2.0000      -0.582273       -15.8445
 164   2.0000      -0.579600       -15.7717
 165   2.0000      -0.572494       -15.5784
 166   2.0000      -0.565177       -15.3792
 167   2.0000      -0.562873       -15.3165
 168   2.0000      -0.560787       -15.2598
 169   2.0000      -0.556855       -15.1528
 170   2.0000      -0.554148       -15.0791
 171   2.0000      -0.551900       -15.0179
 172   2.0000      -0.550331       -14.9753
 173   2.0000      -0.547980       -14.9113
 174   2.0000      -0.547274       -14.8921
 175   2.0000      -0.545798       -14.8519
 176   2.0000      -0.543154       -14.7800
 177   2.0000      -0.541542       -14.7361
 178   2.0000      -0.540711       -14.7135
 179   2.0000      -0.540352       -14.7037
 180   2.0000      -0.534017       -14.5313
 181   2.0000      -0.532602       -14.4928
 182   2.0000      -0.530712       -14.4414
 183   2.0000      -0.526972       -14.3396
 184   2.0000      -0.526486       -14.3264
 185   2.0000      -0.525011       -14.2863
 186   2.0000      -0.524087       -14.2611
 187   2.0000      -0.521173       -14.1818
 188   2.0000      -0.517107       -14.0712
 189   2.0000      -0.517039       -14.0694
 190   2.0000      -0.514221       -13.9927
 191   2.0000      -0.512605       -13.9487
 192   2.0000      -0.508317       -13.8320
 193   2.0000      -0.507823       -13.8186
 194   2.0000      -0.505197       -13.7471
 195   2.0000      -0.502356       -13.6698
 196   2.0000      -0.500389       -13.6163
 197   2.0000      -0.499815       -13.6007
 198   2.0000      -0.497541       -13.5388
 199   2.0000      -0.495721       -13.4893
 200   2.0000      -0.493242       -13.4218
 201   2.0000      -0.490648       -13.3512
 202   2.0000      -0.488716       -13.2986
 203   2.0000      -0.486901       -13.2492
 204   2.0000      -0.482358       -13.1256
 205   2.0000      -0.477045       -12.9810
 206   2.0000      -0.474753       -12.9187
 207   2.0000      -0.474602       -12.9146
 208   2.0000      -0.473644       -12.8885
 209   2.0000      -0.472030       -12.8446
 210   2.0000      -0.464291       -12.6340
 211   2.0000      -0.460051       -12.5186
 212   2.0000      -0.459437       -12.5019
 213   2.0000      -0.458522       -12.4770
 214   2.0000      -0.457581       -12.4514
 215   2.0000      -0.455133       -12.3848
 216   2.0000      -0.454039       -12.3550
 217   2.0000      -0.452595       -12.3157
 218   2.0000      -0.452269       -12.3069
 219   2.0000      -0.450179       -12.2500
 220   2.0000      -0.449800       -12.2397
 221   2.0000      -0.448669       -12.2089
 222   2.0000      -0.447081       -12.1657
 223   2.0000      -0.443395       -12.0654
 224   2.0000      -0.443077       -12.0567
 225   2.0000      -0.441478       -12.0132
 226   2.0000      -0.440258       -11.9800
 227   2.0000      -0.439186       -11.9509
 228   2.0000      -0.436868       -11.8878
 229   2.0000      -0.436270       -11.8715
 230   2.0000      -0.435341       -11.8462
 231   2.0000      -0.434934       -11.8352
 232   2.0000      -0.429949       -11.6995
 233   2.0000      -0.428616       -11.6632
 234   2.0000      -0.426406       -11.6031
 235   2.0000      -0.422708       -11.5025
 236   2.0000      -0.417059       -11.3487
 237   2.0000      -0.416871       -11.3436
 238   2.0000      -0.412905       -11.2357
 239   2.0000      -0.409495       -11.1429
 240   2.0000      -0.403207       -10.9718
 241   2.0000      -0.394549       -10.7362
 242   2.0000      -0.385942       -10.5020
 243   2.0000      -0.385633       -10.4936
 244   2.0000      -0.383686       -10.4406
 245   2.0000      -0.374756       -10.1976
 246   2.0000      -0.369395       -10.0518
 247   2.0000      -0.366236        -9.9658
 248   2.0000      -0.365543        -9.9469
 249   2.0000      -0.362935        -9.8760
 250   2.0000      -0.350977        -9.5506
 251   2.0000      -0.348648        -9.4872
 252   2.0000      -0.346506        -9.4289
 253   2.0000      -0.345852        -9.4111
 254   2.0000      -0.331658        -9.0249
 255   2.0000      -0.327183        -8.9031
 256   2.0000      -0.325359        -8.8535
 257   2.0000      -0.316009        -8.5990
 258   2.0000      -0.306673        -8.3450
 259   2.0000      -0.299359        -8.1460
 260   2.0000      -0.295481        -8.0404
 261   2.0000      -0.256626        -6.9831
 262   0.0000      -0.127592        -3.4720
 263   0.0000      -0.112982        -3.0744
 264   0.0000      -0.093031        -2.5315
 265   0.0000      -0.071370        -1.9421
 266   0.0000      -0.067467        -1.8359

MULLIKEN ATOMIC CHARGES
-----------------------
   0 C :    0.302840
   1 C :   -0.333753
   2 C :   -0.179520
   3 N :    0.157651
   4 C :   -0.201223
   5 N :    0.163767
   6 C :    0.056364
   7 C :   -0.012132
   8 C :   -0.070655
   9 C :    0.097742
  10 C :    0.098204
  11 C :   -0.085316
  12 C :   -0.018276
  13 C :    0.039096
  14 C :    0.036281
  15 C :   -0.014072
  16 C :    0.168933
  17 O :   -0.141288
  18 C :   -0.062367
  19 C :    0.002808
  20 C :   -0.145311
  21 S :    0.197185
  22 C :   -0.207774
  23 C :   -0.008651
  24 C :    0.030273
  25 C :    0.243803
  26 O :   -0.116184
  27 O :   -0.240476
  28 C :    0.250884
  29 O :   -0.104562
  30 C :    0.119023
  31 N :   -0.256880
  32 C :    0.087386
  33 C :    0.000812
  34 C :    0.168818
  35 O :   -0.196772
  36 C :   -0.083871
  37 C :   -0.014141
  38 C :    0.159646
  39 O :   -0.168612
  40 N :   -0.260712
  41 C :    0.093974
  42 C :    0.003129
  43 C :    0.155069
  44 C :   -0.025180
  45 C :   -0.039669
  46 C :    0.143827
  47 O :   -0.184033
  48 C :    0.149993
  49 C :   -0.003790
  50 C :   -0.001455
  51 C :   -0.286872
  52 N :    0.246642
  53 C :   -0.297052
  54 N :    0.243527
  55 C :   -0.032482
  56 C :    0.013552
  57 C :   -0.038589
  58 C :   -0.058680
  59 C :    0.321544
  60 C :   -0.340247
  61 C :   -0.181182
  62 N :    0.157080
  63 C :   -0.197158
  64 N :    0.160156
  65 C :    0.049145
  66 C :    0.001092
  67 C :    0.153187
  68 O :   -0.158403
  69 C :   -0.079851
  70 C :    0.099849
  71 C :    0.097646
  72 C :   -0.084154
  73 C :   -0.019850
  74 C :    0.038873
  75 C :    0.037592
  76 C :   -0.018439
  77 H :   -0.008951
  78 H :   -0.006566
  79 H :   -0.008615
  80 H :   -0.002150
  81 H :   -0.002018
  82 H :   -0.015201
  83 H :    0.032435
  84 H :    0.054619
  85 H :    0.027314
  86 H :    0.032129
  87 H :    0.031476
  88 H :    0.023029
  89 H :    0.033763
  90 H :    0.049451
  91 H :    0.013746
  92 H :    0.030468
  93 H :    0.031906
  94 H :    0.003890
  95 H :    0.046127
  96 H :    0.038126
  97 H :    0.039097
  98 H :    0.019815
  99 H :   -0.013476
 100 H :   -0.005454
 101 H :   -0.005436
 102 H :   -0.000827
 103 H :   -0.001927
 104 H :   -0.014535
Sum of atomic charges:   -0.0000000

LOEWDIN ATOMIC CHARGES
----------------------
   0 C :    0.073640
   1 C :   -0.127637
   2 C :   -0.017063
   3 N :   -0.044189
   4 C :   -0.021636
   5 N :   -0.045447
   6 C :   -0.025100
   7 C :   -0.052691
   8 C :    0.039453
   9 C :   -0.006447
  10 C :   -0.004363
  11 C :    0.021386
  12 C :   -0.004550
  13 C :   -0.010775
  14 C :   -0.009837
  15 C :   -0.007486
  16 C :    0.090382
  17 O :   -0.127943
  18 C :   -0.055315
  19 C :    0.033041
  20 C :   -0.143297
  21 S :    0.495918
  22 C :   -0.142131
  23 C :   -0.081092
  24 C :   -0.066738
  25 C :    0.109570
  26 O :   -0.107651
  27 O :   -0.058035
  28 C :    0.112079
  29 O :   -0.096692
  30 C :    0.041001
  31 N :   -0.000974
  32 C :    0.030174
  33 C :   -0.060753
  34 C :    0.080772
  35 O :   -0.188689
  36 C :   -0.119508
  37 C :   -0.087742
  38 C :    0.088172
  39 O :   -0.163376
  40 N :    0.002143
  41 C :    0.038086
  42 C :   -0.060020
  43 C :    0.085138
  44 C :   -0.018956
  45 C :    0.010002
  46 C :    0.071648
  47 O :    0.039776
  48 C :    0.069464
  49 C :   -0.071615
  50 C :   -0.070861
  51 C :   -0.035545
  52 N :   -0.011575
  53 C :   -0.035996
  54 N :   -0.016802
  55 C :   -0.000576
  56 C :   -0.002191
  57 C :    0.060114
  58 C :   -0.072846
  59 C :    0.071639
  60 C :   -0.129210
  61 C :   -0.017169
  62 N :   -0.045396
  63 C :   -0.022200
  64 N :   -0.043140
  65 C :   -0.025645
  66 C :   -0.058053
  67 C :    0.087990
  68 O :   -0.149148
  69 C :    0.034517
  70 C :   -0.007817
  71 C :   -0.004505
  72 C :    0.021214
  73 C :   -0.004427
  74 C :   -0.009825
  75 C :   -0.009253
  76 C :   -0.008789
  77 H :    0.041239
  78 H :    0.039412
  79 H :    0.035137
  80 H :    0.034307
  81 H :    0.033951
  82 H :    0.032979
  83 H :    0.046989
  84 H :    0.042317
  85 H :    0.011672
  86 H :    0.033350
  87 H :    0.034917
  88 H :    0.020334
  89 H :    0.027444
  90 H :    0.041182
  91 H :    0.021597
  92 H :    0.033969
  93 H :    0.032677
  94 H :    0.037874
  95 H :    0.050864
  96 H :    0.052438
  97 H :    0.035737
  98 H :    0.044420
  99 H :    0.038748
 100 H :    0.039930
 101 H :    0.036034
 102 H :    0.034825
 103 H :    0.034264
 104 H :    0.032792

  Mayer bond orders larger than 0.100000
B(  0-C ,  1-C ) :   1.6536 B(  0-C ,  6-C ) :   0.9999 B(  0-C , 18-C ) :   1.0546
B(  1-C ,  2-C ) :   1.1429 B(  1-C ,  4-C ) :   1.1410 B(  2-C ,  3-N ) :   2.9679
B(  4-C ,  5-N ) :   2.9847 B(  6-C ,  7-C ) :   1.2102 B(  6-C , 11-C ) :   1.4426
B(  7-C ,  8-C ) :   1.4708 B(  7-C , 16-C ) :   0.9512 B(  8-C ,  9-C ) :   1.1834
B(  8-C , 77-H ) :   1.0157 B(  9-C , 10-C ) :   1.2508 B(  9-C , 15-C ) :   1.2434
B( 10-C , 11-C ) :   1.2118 B( 10-C , 12-C ) :   1.2397 B( 11-C , 78-H ) :   0.9887
B( 12-C , 13-C ) :   1.4920 B( 12-C , 79-H ) :   0.9966 B( 13-C , 14-C ) :   1.2574
B( 13-C , 80-H ) :   0.9878 B( 14-C , 15-C ) :   1.4907 B( 14-C , 81-H ) :   0.9890
B( 15-C , 82-H ) :   0.9973 B( 16-C , 17-O ) :   2.2204 B( 16-C , 18-C ) :   0.9157
B( 18-C , 19-C ) :   1.6846 B( 19-C , 20-C ) :   1.0982 B( 19-C , 83-H ) :   0.9325
B( 20-C , 21-S ) :   1.1198 B( 20-C , 24-C ) :   1.5055 B( 21-S , 22-C ) :   1.1523
B( 22-C , 23-C ) :   1.4932 B( 22-C , 30-C ) :   1.0881 B( 23-C , 24-C ) :   1.2916
B( 23-C , 28-C ) :   0.9086 B( 24-C , 25-C ) :   0.8963 B( 25-C , 26-O ) :   2.2517
B( 25-C , 27-O ) :   1.0646 B( 27-O , 28-C ) :   1.0318 B( 28-C , 29-O ) :   2.2589
B( 30-C , 31-N ) :   1.1888 B( 30-C , 37-C ) :   1.4246 B( 31-N , 32-C ) :   0.9392
B( 31-N , 34-C ) :   1.0496 B( 32-C , 33-C ) :   1.1146 B( 32-C , 84-H ) :   0.9246
B( 32-C , 85-H ) :   0.9474 B( 33-C , 86-H ) :   0.9643 B( 33-C , 87-H ) :   0.9672
B( 33-C , 88-H ) :   0.9678 B( 34-C , 35-O ) :   2.0352 B( 34-C , 36-C ) :   0.9900
B( 35-O , 95-H ) :   0.1115 B( 36-C , 37-C ) :   1.2505 B( 36-C , 43-C ) :   1.3313
B( 37-C , 38-C ) :   0.9505 B( 38-C , 39-O ) :   2.1459 B( 38-C , 40-N ) :   1.0251
B( 40-N , 41-C ) :   0.9389 B( 40-N , 43-C ) :   1.1824 B( 41-C , 42-C ) :   1.1196
B( 41-C , 89-H ) :   0.9508 B( 41-C , 90-H ) :   0.9293 B( 42-C , 91-H ) :   0.9685
B( 42-C , 92-H ) :   0.9677 B( 42-C , 93-H ) :   0.9643 B( 43-C , 44-C ) :   1.1334
B( 44-C , 45-C ) :   1.5754 B( 44-C , 94-H ) :   0.9767 B( 45-C , 46-C ) :   1.2013
B( 45-C , 95-H ) :   0.9278 B( 46-C , 47-O ) :   1.1521 B( 46-C , 50-C ) :   1.3570
B( 47-O , 48-C ) :   1.1524 B( 48-C , 49-C ) :   1.3653 B( 48-C , 55-C ) :   1.1705
B( 49-C , 50-C ) :   1.3303 B( 49-C , 53-C ) :   1.1560 B( 50-C , 51-C ) :   1.1562
B( 51-C , 52-N ) :   3.0155 B( 53-C , 54-N ) :   3.0212 B( 55-C , 56-C ) :   1.5613
B( 55-C , 96-H ) :   0.9691 B( 56-C , 57-C ) :   1.1248 B( 56-C , 97-H ) :   0.9858
B( 57-C , 58-C ) :   1.5746 B( 57-C , 98-H ) :   0.9667 B( 58-C , 59-C ) :   1.0487
B( 58-C , 67-C ) :   0.9363 B( 59-C , 60-C ) :   1.6445 B( 59-C , 65-C ) :   0.9903
B( 60-C , 61-C ) :   1.1434 B( 60-C , 63-C ) :   1.1442 B( 61-C , 62-N ) :   2.9664
B( 63-C , 64-N ) :   2.9726 B( 65-C , 66-C ) :   1.2133 B( 65-C , 72-C ) :   1.4476
B( 66-C , 67-C ) :   0.9519 B( 66-C , 69-C ) :   1.4624 B( 67-C , 68-O ) :   2.1899
B( 69-C , 70-C ) :   1.1841 B( 69-C , 99-H ) :   1.0166 B( 70-C , 71-C ) :   1.2531
B( 70-C , 76-C ) :   1.2418 B( 71-C , 72-C ) :   1.2072 B( 71-C , 73-C ) :   1.2392
B( 72-C ,100-H ) :   0.9901 B( 73-C , 74-C ) :   1.4890 B( 73-C ,101-H ) :   0.9978
B( 74-C , 75-C ) :   1.2593 B( 74-C ,102-H ) :   0.9886 B( 75-C , 76-C ) :   1.4901
B( 75-C ,103-H ) :   0.9884 B( 76-C ,104-H ) :   0.9984

-----------------------------------------------------------------------------
         ABSORPTION SPECTRUM VIA TRANSITION ELECTRIC DIPOLE MOMENTS
-----------------------------------------------------------------------------
State   Energy  Wavelength   fosc         T2         TX        TY        TZ
        (cm-1)    (nm)                  (au**2)     (au)      (au)      (au)
-----------------------------------------------------------------------------
   0   13319.0    750.8   1.086423123  26.85366   1.14318   5.04611  -0.28901
   1   18005.0    555.4   0.119755269   2.18966  -0.03104  -0.02301   1.47925
   2   21121.1    473.5   0.124376301   1.93864  -0.89062  -0.71772  -0.79392
   3   22180.2    450.9   0.344031527   5.10633  -0.48970  -2.03263  -0.85729
   4   23435.2    426.7   0.077848477   1.09360  -0.24188  -1.01698   0.02901
   5   23943.8    417.6   0.036711251   0.50476   0.15854   0.30091  -0.62376
   6   24202.5    413.2   0.093118566   1.26663  -0.55239  -0.78624  -0.58594
   7   25191.3    397.0   0.003231063   0.04223   0.05079   0.03702  -0.19564
   8   26039.0    384.0   0.000255958   0.00324  -0.00506  -0.03161   0.04703
   9   26988.0    370.5   0.012180282   0.14858  -0.24801  -0.29315  -0.03367
  10   27273.9    366.7   0.054586499   0.65889   0.04093   0.07314   0.80738
  11   27329.8    365.9   0.027526513   0.33158   0.09408  -0.35860   0.44061
  12   27559.0    362.9   0.105846362   1.26441   0.13766   0.71064  -0.86049
  13   27783.6    359.9   0.082663538   0.97949  -0.12516   0.87413  -0.44689
  14   27870.6    358.8   0.223589188   2.64107  -0.56611  -0.58960  -1.40462
  15   28961.8    345.3   0.204178449   2.32092  -0.35454   0.56265  -1.37064
  16   29086.6    343.8   0.341651257   3.86692   0.56204   1.03577  -1.57423
  17   30466.7    328.2   0.002966694   0.03206   0.02369  -0.08073   0.15804
  18   30662.0    326.1   0.065866557   0.70720   0.31474   0.77621  -0.07504
  19   31809.6    314.4   0.440341929   4.55730  -0.54987   0.69152  -1.94338
  20   31847.0    314.0   0.109217093   1.12901   1.02470  -0.18373  -0.21270
  21   32267.3    309.9   0.662899815   6.76332  -0.06954  -0.13524   2.59619
  22   32435.7    308.3   0.011249832   0.11418   0.31969   0.09002   0.06225
  23   32588.0    306.9   0.031610910   0.31934  -0.01507   0.24707  -0.50801
  24   32709.2    305.7   0.021586381   0.21726   0.42970   0.17069   0.05901
  25   33252.9    300.7   0.009552855   0.09458  -0.30372   0.03865   0.02889
  26   33640.5    297.3   0.232243206   2.27277  -0.75331   0.18600  -1.29255
  27   33879.8    295.2   0.039637708   0.38516   0.20046  -0.20693   0.54969
  28   33912.7    294.9   0.288382679   2.79951  -0.57117   0.68997  -1.41323
  29   34119.2    293.1   0.006339288   0.06117   0.08648  -0.16671   0.16093
  30   34402.4    290.7   0.019832205   0.18978  -0.03043  -0.32756   0.28559
  31   34710.5    288.1   0.028842025   0.27355  -0.28389   0.11745  -0.42328
  32   34964.4    286.0   0.010881492   0.10246   0.06168  -0.18068   0.25692
  33   35073.9    285.1   0.003144955   0.02952  -0.15429  -0.00301   0.07552
  34   35828.8    279.1   0.486340968   4.46873   0.15015   0.47446   2.05452
  35   36201.6    276.2   0.092384339   0.84013  -0.28594  -0.27266   0.82706
  36   36425.1    274.5   0.053775629   0.48603  -0.11417   0.39945  -0.55985
  37   36695.6    272.5   0.430624435   3.86332  -0.76107   1.19984  -1.35812
  38   36788.1    271.8   0.008857275   0.07926   0.08929   0.19164   0.18591
  39   36870.6    271.2   0.009713639   0.08673  -0.03044   0.28938  -0.04540
  40   37259.6    268.4   0.128324319   1.13383   0.20701  -0.51287   0.90991
  41   37312.2    268.0   0.087105918   0.76855   0.38732   0.51698   0.59268
  42   37579.9    266.1   0.093062165   0.81525   0.14532  -0.31107   0.83509
  43   37815.3    264.4   0.028595111   0.24894   0.03533  -0.45611  -0.19913
  44   38043.6    262.9   0.054908190   0.47515  -0.35458  -0.24278   0.53897
  45   38236.2    261.5   0.176835654   1.52255  -0.60355  -0.53816  -0.93202
  46   38462.4    260.0   0.058421826   0.50005   0.26197  -0.08881   0.65079
  47   39000.9    256.4   0.068342812   0.57689   0.03687  -0.69625   0.30128
  48   39384.3    253.9   0.034775504   0.29069   0.21618  -0.28050   0.40654
  49   39563.4    252.8   0.006687732   0.05565   0.05360  -0.09915   0.20724
  50   39725.9    251.7   0.041874508   0.34702   0.11951   0.10950   0.56634
  51   39926.8    250.5   0.022183247   0.18291   0.08231   0.41877   0.02767
  52   40324.2    248.0   0.443063194   3.61723   0.38656   1.79162   0.50783

FINAL SINGLE POINT ENERGY     -3736.893116747034

DIPOLE MOMENT
-------------
                                X             Y             Z
Electronic contribution:     -4.64092      -8.35535     -24.34111
Nuclear contribution   :      4.85040       8.17773      28.93707
                        -----------------------------------------
Total Dipole Moment    :      0.20948      -0.17762       4.59596
                        -----------------------------------------
Magnitude (a.u.)       :      4.60416
Magnitude (Debye)      :     11.70285

Rotational constants in cm-1:     0.001260     0.000275     0.000235
Rotational constants in MHz :    37.770566     8.255136     7.035829

                             ****ORCA TERMINATED NORMALLY****
TOTAL RUN TIME: 0 days 0 hours 11 minutes 3 seconds 727 msec
