                         Program Version 4.2.0 -  RELEASE  -
|  1> # ORCA input file
|  2> # SCF done       -189.357219205316          0.000888511735
|  3> ! CAM-B3LYP def2-SVP def2/J RIJCOSX Grid4 TightSCF
|  4> %maxcore 5000
|  5> %tddft
|  6>     Mode sTDDFT
|  7>     Ethresh 5.0
|  8>     maxcore 5000
|  9> end
| 10>
| 11> %pal
| 12>   nprocs 6
| 13>   end
| 14> * xyz 0 1
| 15>    C       -0.56832         1.26547        -7.50269
| 16>    S       -1.84967         2.39173        -7.84171
| 17>    C       -0.67422         3.75324        -8.00216
| 18>    O       -0.98425         4.86134        -8.31463
| 19>    N        0.56781         3.30394        -7.67014
| 20>    C        0.71348         1.98049        -7.30426
| 21>    O        1.71446         1.52966        -6.80726
| 22>    C        1.70374         4.20100        -7.68905
| 23>    C       -0.72740        -0.07123        -7.39872
| 24>    C        0.34273        -1.01876        -7.35176
| 25>    C        1.47704        -1.09336        -8.13934
| 26>    N        1.89624        -0.24831        -9.18151
| 27>    O        1.25987         0.76798        -9.42718
| 28>    O        2.87591        -0.59351        -9.81594
| 29>    C        2.17414        -2.32538        -7.84879
| 30>    C        1.47198        -3.01974        -6.92215
| 31>    C        0.31180        -2.25644        -6.55412
| 32>    C       -0.59151        -2.51994        -5.54646
| 33>    C       -1.36665        -1.54980        -4.83983
| 34>    C       -1.95993        -2.15764        -3.77743
| 35>    C       -1.62889        -3.55317        -3.77919
| 36>    N       -2.21896        -4.40475        -2.83065
| 37>    O       -1.83212        -5.56080        -2.72588
| 38>    O       -3.10691        -3.93371        -2.14114
| 39>    C       -0.80294        -3.82479        -4.87981
| 40>    C       -0.38068        -5.01769        -5.49457
| 41>    C       -0.23146        -6.25481        -4.92062
| 42>    C        0.14602        -7.38166        -5.66629
| 43>    N        0.30715        -8.63162        -5.12196
| 44>    C        0.08207        -9.00674        -3.74348
| 45>    C       -1.40220        -9.08386        -3.39845
| 46>    C        0.68751        -9.58096        -6.07891
| 47>    O        0.89215       -10.75105        -5.82891
| 48>    C        0.77181        -8.82891        -7.31994
| 49>    C        0.43686        -7.49642        -7.04179
| 50>    C        0.52243        -6.74423        -8.28140
| 51>    O        0.32178        -5.57341        -8.53277
| 52>    N        0.90534        -7.69408        -9.23921
| 53>    C        1.13710        -7.31719       -10.61492
| 54>    C        2.62385        -7.14819       -10.91436
| 55>    C        1.06438        -8.94531        -8.69432
| 56>    C        1.43527       -10.08418        -9.42566
| 57>    C        1.59304       -11.31450        -8.84191
| 58>    C        1.95944       -12.48481        -9.53339
| 59>    C        2.22203       -12.66611       -10.88459
| 60>    C        2.54627       -14.02452       -11.12038
| 61>    C        2.47506       -14.69870        -9.80906
| 62>    C        2.12506       -13.77451        -8.87817
| 63>    C        2.72229       -16.05157        -9.54835
| 64>    N        2.92102       -17.15632        -9.30470
| 65>    C        2.85571       -14.61737       -12.33016
| 66>    C        3.16309       -15.97790       -12.57728
| 67>    C        3.38723       -16.16235       -13.93061
| 68>    C        3.22654       -14.86964       -14.58447
| 69>    C        2.91278       -13.94226       -13.64329
| 70>    C        2.68772       -12.58416       -13.89231
| 71>    N        2.50657       -11.47141       -14.11529
| 72>    C        3.70496       -17.39286       -14.54784
| 73>    C        3.89206       -17.58188       -15.88463
| 74>    C        4.19517       -18.84269       -16.43834
| 75>    C        4.37219       -19.08673       -17.76415
| 76>    S        4.26796       -17.92139       -19.05606
| 77>    C        4.62456       -19.18253       -20.29235
| 78>    O        4.68799       -18.96632       -21.46418
| 79>    N        4.79919       -20.38038       -19.66503
| 80>    C        4.67993       -20.42411       -18.28504
| 81>    O        4.81256       -21.43031       -17.63165
| 82>    C        5.10005       -21.56916       -20.43478
| 83>    H        2.12120         4.25147        -8.69535
| 84>    H        2.45146         3.80282        -7.00486
| 85>    H        1.38320         5.19373        -7.37833
| 86>    H       -1.73127        -0.47698        -7.38884
| 87>    H        3.09938        -2.59955        -8.31831
| 88>    H        1.77481        -3.93770        -6.45984
| 89>    H       -1.37668        -0.49935        -5.05409
| 90>    H       -2.58049        -1.70388        -3.02758
| 91>    H       -0.15188        -4.92437        -6.54877
| 92>    H       -0.39755        -6.38185        -3.86361
| 93>    H        0.59199        -8.29834        -3.08578
| 94>    H        0.54107        -9.99246        -3.62698
| 95>    H       -1.86735        -8.10245        -3.43100
| 96>    H       -1.51611        -9.48142        -2.39424
| 97>    H       -1.91551        -9.74451        -4.09311
| 98>    H        0.62332        -6.36290       -10.75857
| 99>    H        0.68847        -8.06211       -11.27697
|100>    H        3.04549        -6.36957       -10.28348
|101>    H        2.75561        -6.86143       -11.95349
|102>    H        3.16766        -8.07321       -10.73647
|103>    H        1.59840        -9.97466       -10.48776
|104>    H        1.43066       -11.41294        -7.77617
|105>    H        2.18732       -11.91243       -11.64546
|106>    H        1.98615       -13.93996        -7.82593
|107>    H        3.20743       -16.74411       -11.82847
|108>    H        3.34122       -14.68507       -15.63593
|109>    H        3.79478       -18.24540       -13.88593
|110>    H        3.80507       -16.75379       -16.57482
|111>    H        4.29544       -19.69462       -15.77695
|112>    H        4.32564       -21.73175       -21.18402
|113>    H        5.13522       -22.40446       -19.73723
|114>    H        6.06151       -21.45710       -20.93619
|115> *
|116>
|117>                          ****END OF INPUT****

CARTESIAN COORDINATES (ANGSTROEM)
---------------------------------
  C     -0.568320    1.265470   -7.502690
  S     -1.849670    2.391730   -7.841710
  C     -0.674220    3.753240   -8.002160
  O     -0.984250    4.861340   -8.314630
  N      0.567810    3.303940   -7.670140
  C      0.713480    1.980490   -7.304260
  O      1.714460    1.529660   -6.807260
  C      1.703740    4.201000   -7.689050
  C     -0.727400   -0.071230   -7.398720
  C      0.342730   -1.018760   -7.351760
  C      1.477040   -1.093360   -8.139340
  N      1.896240   -0.248310   -9.181510
  O      1.259870    0.767980   -9.427180
  O      2.875910   -0.593510   -9.815940
  C      2.174140   -2.325380   -7.848790
  C      1.471980   -3.019740   -6.922150
  C      0.311800   -2.256440   -6.554120
  C     -0.591510   -2.519940   -5.546460
  C     -1.366650   -1.549800   -4.839830
  C     -1.959930   -2.157640   -3.777430
  C     -1.628890   -3.553170   -3.779190
  N     -2.218960   -4.404750   -2.830650
  O     -1.832120   -5.560800   -2.725880
  O     -3.106910   -3.933710   -2.141140
  C     -0.802940   -3.824790   -4.879810
  C     -0.380680   -5.017690   -5.494570
  C     -0.231460   -6.254810   -4.920620
  C      0.146020   -7.381660   -5.666290
  N      0.307150   -8.631620   -5.121960
  C      0.082070   -9.006740   -3.743480
  C     -1.402200   -9.083860   -3.398450
  C      0.687510   -9.580960   -6.078910
  O      0.892150  -10.751050   -5.828910
  C      0.771810   -8.828910   -7.319940
  C      0.436860   -7.496420   -7.041790
  C      0.522430   -6.744230   -8.281400
  O      0.321780   -5.573410   -8.532770
  N      0.905340   -7.694080   -9.239210
  C      1.137100   -7.317190  -10.614920
  C      2.623850   -7.148190  -10.914360
  C      1.064380   -8.945310   -8.694320
  C      1.435270  -10.084180   -9.425660
  C      1.593040  -11.314500   -8.841910
  C      1.959440  -12.484810   -9.533390
  C      2.222030  -12.666110  -10.884590
  C      2.546270  -14.024520  -11.120380
  C      2.475060  -14.698700   -9.809060
  C      2.125060  -13.774510   -8.878170
  C      2.722290  -16.051570   -9.548350
  N      2.921020  -17.156320   -9.304700
  C      2.855710  -14.617370  -12.330160
  C      3.163090  -15.977900  -12.577280
  C      3.387230  -16.162350  -13.930610
  C      3.226540  -14.869640  -14.584470
  C      2.912780  -13.942260  -13.643290
  C      2.687720  -12.584160  -13.892310
  N      2.506570  -11.471410  -14.115290
  C      3.704960  -17.392860  -14.547840
  C      3.892060  -17.581880  -15.884630
  C      4.195170  -18.842690  -16.438340
  C      4.372190  -19.086730  -17.764150
  S      4.267960  -17.921390  -19.056060
  C      4.624560  -19.182530  -20.292350
  O      4.687990  -18.966320  -21.464180
  N      4.799190  -20.380380  -19.665030
  C      4.679930  -20.424110  -18.285040
  O      4.812560  -21.430310  -17.631650
  C      5.100050  -21.569160  -20.434780
  H      2.121200    4.251470   -8.695350
  H      2.451460    3.802820   -7.004860
  H      1.383200    5.193730   -7.378330
  H     -1.731270   -0.476980   -7.388840
  H      3.099380   -2.599550   -8.318310
  H      1.774810   -3.937700   -6.459840
  H     -1.376680   -0.499350   -5.054090
  H     -2.580490   -1.703880   -3.027580
  H     -0.151880   -4.924370   -6.548770
  H     -0.397550   -6.381850   -3.863610
  H      0.591990   -8.298340   -3.085780
  H      0.541070   -9.992460   -3.626980
  H     -1.867350   -8.102450   -3.431000
  H     -1.516110   -9.481420   -2.394240
  H     -1.915510   -9.744510   -4.093110
  H      0.623320   -6.362900  -10.758570
  H      0.688470   -8.062110  -11.276970
  H      3.045490   -6.369570  -10.283480
  H      2.755610   -6.861430  -11.953490
  H      3.167660   -8.073210  -10.736470
  H      1.598400   -9.974660  -10.487760
  H      1.430660  -11.412940   -7.776170
  H      2.187320  -11.912430  -11.645460
  H      1.986150  -13.939960   -7.825930
  H      3.207430  -16.744110  -11.828470
  H      3.341220  -14.685070  -15.635930
  H      3.794780  -18.245400  -13.885930
  H      3.805070  -16.753790  -16.574820
  H      4.295440  -19.694620  -15.776950
  H      4.325640  -21.731750  -21.184020
  H      5.135220  -22.404460  -19.737230
  H      6.061510  -21.457100  -20.936190

 Total Charge           Charge          ....    0
 Multiplicity           Mult            ....    1
 Number of Electrons    NEL             ....  488
 Basis Dimension        Dim             .... 1120

ORBITAL ENERGIES
----------------

  NO   OCC          E(Eh)            E(eV)
   0   2.0000     -88.963145     -2420.8103
   1   2.0000     -88.958771     -2420.6912
   2   2.0000     -19.243548      -523.6436
   3   2.0000     -19.241438      -523.5862
   4   2.0000     -19.241308      -523.5826
   5   2.0000     -19.239015      -523.5202
   6   2.0000     -19.225878      -523.1627
   7   2.0000     -19.222423      -523.0687
   8   2.0000     -19.218610      -522.9650
   9   2.0000     -19.214383      -522.8499
  10   2.0000     -19.213390      -522.8229
  11   2.0000     -19.207087      -522.6514
  12   2.0000     -14.651774      -398.6950
  13   2.0000     -14.648057      -398.5939
  14   2.0000     -14.478999      -393.9936
  15   2.0000     -14.474067      -393.8594
  16   2.0000     -14.471793      -393.7975
  17   2.0000     -14.467268      -393.6744
  18   2.0000     -14.420797      -392.4098
  19   2.0000     -14.414226      -392.2310
  20   2.0000     -10.420363      -283.5525
  21   2.0000     -10.416635      -283.4511
  22   2.0000     -10.405688      -283.1532
  23   2.0000     -10.404278      -283.1148
  24   2.0000     -10.394341      -282.8444
  25   2.0000     -10.389698      -282.7181
  26   2.0000     -10.358929      -281.8808
  27   2.0000     -10.352509      -281.7061
  28   2.0000     -10.335456      -281.2421
  29   2.0000     -10.333123      -281.1786
  30   2.0000     -10.332016      -281.1485
  31   2.0000     -10.331624      -281.1378
  32   2.0000     -10.330987      -281.1204
  33   2.0000     -10.329050      -281.0677
  34   2.0000     -10.328857      -281.0625
  35   2.0000     -10.328594      -281.0553
  36   2.0000     -10.328166      -281.0437
  37   2.0000     -10.327335      -281.0211
  38   2.0000     -10.323078      -280.9052
  39   2.0000     -10.322154      -280.8801
  40   2.0000     -10.322141      -280.8797
  41   2.0000     -10.320353      -280.8311
  42   2.0000     -10.320229      -280.8277
  43   2.0000     -10.316302      -280.7209
  44   2.0000     -10.315257      -280.6924
  45   2.0000     -10.314091      -280.6607
  46   2.0000     -10.313745      -280.6513
  47   2.0000     -10.313357      -280.6407
  48   2.0000     -10.311080      -280.5787
  49   2.0000     -10.310698      -280.5683
  50   2.0000     -10.310500      -280.5630
  51   2.0000     -10.310188      -280.5545
  52   2.0000     -10.310109      -280.5523
  53   2.0000     -10.309041      -280.5233
  54   2.0000     -10.308850      -280.5181
  55   2.0000     -10.308501      -280.5086
  56   2.0000     -10.306000      -280.4405
  57   2.0000     -10.304793      -280.4077
  58   2.0000     -10.302578      -280.3474
  59   2.0000     -10.295565      -280.1566
  60   2.0000     -10.294906      -280.1386
  61   2.0000     -10.294325      -280.1228
  62   2.0000     -10.289026      -279.9786
  63   2.0000     -10.285376      -279.8793
  64   2.0000     -10.284869      -279.8655
  65   2.0000     -10.282947      -279.8132
  66   2.0000     -10.272828      -279.5379
  67   2.0000     -10.262840      -279.2661
  68   2.0000      -8.060663      -219.3418
  69   2.0000      -8.056518      -219.2290
  70   2.0000      -6.030113      -164.0877
  71   2.0000      -6.026654      -163.9936
  72   2.0000      -6.026055      -163.9773
  73   2.0000      -6.022548      -163.8819
  74   2.0000      -6.021173      -163.8445
  75   2.0000      -6.016836      -163.7264
  76   2.0000      -1.321607       -35.9627
  77   2.0000      -1.318727       -35.8844
  78   2.0000      -1.176466       -32.0133
  79   2.0000      -1.173520       -31.9331
  80   2.0000      -1.153057       -31.3763
  81   2.0000      -1.150366       -31.3030
  82   2.0000      -1.148888       -31.2628
  83   2.0000      -1.144951       -31.1557
  84   2.0000      -1.137669       -30.9575
  85   2.0000      -1.134088       -30.8601
  86   2.0000      -1.082346       -29.4521
  87   2.0000      -1.072398       -29.1814
  88   2.0000      -1.063777       -28.9469
  89   2.0000      -1.060461       -28.8566
  90   2.0000      -1.025340       -27.9009
  91   2.0000      -1.019893       -27.7527
  92   2.0000      -1.009257       -27.4633
  93   2.0000      -0.999212       -27.1899
  94   2.0000      -0.995566       -27.0907
  95   2.0000      -0.989813       -26.9342
  96   2.0000      -0.960814       -26.1451
  97   2.0000      -0.950356       -25.8605
  98   2.0000      -0.944051       -25.6889
  99   2.0000      -0.928650       -25.2698
 100   2.0000      -0.921825       -25.0841
 101   2.0000      -0.918783       -25.0014
 102   2.0000      -0.914334       -24.8803
 103   2.0000      -0.886299       -24.1174
 104   2.0000      -0.884036       -24.0558
 105   2.0000      -0.878635       -23.9089
 106   2.0000      -0.878159       -23.8959
 107   2.0000      -0.868514       -23.6335
 108   2.0000      -0.856822       -23.3153
 109   2.0000      -0.852140       -23.1879
 110   2.0000      -0.837382       -22.7863
 111   2.0000      -0.831009       -22.6129
 112   2.0000      -0.824465       -22.4348
 113   2.0000      -0.813670       -22.1411
 114   2.0000      -0.811220       -22.0744
 115   2.0000      -0.809262       -22.0211
 116   2.0000      -0.793988       -21.6055
 117   2.0000      -0.783335       -21.3156
 118   2.0000      -0.771240       -20.9865
 119   2.0000      -0.769902       -20.9501
 120   2.0000      -0.766170       -20.8486
 121   2.0000      -0.756586       -20.5878
 122   2.0000      -0.741046       -20.1649
 123   2.0000      -0.733531       -19.9604
 124   2.0000      -0.731172       -19.8962
 125   2.0000      -0.722764       -19.6674
 126   2.0000      -0.719332       -19.5740
 127   2.0000      -0.709416       -19.3042
 128   2.0000      -0.704368       -19.1668
 129   2.0000      -0.693183       -18.8625
 130   2.0000      -0.685696       -18.6587
 131   2.0000      -0.674801       -18.3623
 132   2.0000      -0.674674       -18.3588
 133   2.0000      -0.664057       -18.0699
 134   2.0000      -0.662524       -18.0282
 135   2.0000      -0.658654       -17.9229
 136   2.0000      -0.656496       -17.8642
 137   2.0000      -0.650060       -17.6890
 138   2.0000      -0.642439       -17.4816
 139   2.0000      -0.638782       -17.3822
 140   2.0000      -0.633449       -17.2370
 141   2.0000      -0.630896       -17.1676
 142   2.0000      -0.627048       -17.0628
 143   2.0000      -0.626798       -17.0560
 144   2.0000      -0.618818       -16.8389
 145   2.0000      -0.610129       -16.6025
 146   2.0000      -0.602314       -16.3898
 147   2.0000      -0.600103       -16.3296
 148   2.0000      -0.598178       -16.2772
 149   2.0000      -0.592484       -16.1223
 150   2.0000      -0.591868       -16.1056
 151   2.0000      -0.589636       -16.0448
 152   2.0000      -0.587297       -15.9812
 153   2.0000      -0.584478       -15.9044
 154   2.0000      -0.580919       -15.8076
 155   2.0000      -0.578656       -15.7460
 156   2.0000      -0.575950       -15.6724
 157   2.0000      -0.574246       -15.6260
 158   2.0000      -0.571764       -15.5585
 159   2.0000      -0.558982       -15.2107
 160   2.0000      -0.552473       -15.0336
 161   2.0000      -0.546166       -14.8619
 162   2.0000      -0.544395       -14.8137
 163   2.0000      -0.543696       -14.7947
 164   2.0000      -0.542223       -14.7546
 165   2.0000      -0.541161       -14.7257
 166   2.0000      -0.540044       -14.6953
 167   2.0000      -0.537765       -14.6333
 168   2.0000      -0.534404       -14.5419
 169   2.0000      -0.532197       -14.4818
 170   2.0000      -0.531107       -14.4522
 171   2.0000      -0.530179       -14.4269
 172   2.0000      -0.524268       -14.2660
 173   2.0000      -0.522859       -14.2277
 174   2.0000      -0.520296       -14.1580
 175   2.0000      -0.517366       -14.0782
 176   2.0000      -0.517269       -14.0756
 177   2.0000      -0.512742       -13.9524
 178   2.0000      -0.508657       -13.8413
 179   2.0000      -0.507423       -13.8077
 180   2.0000      -0.505985       -13.7686
 181   2.0000      -0.504201       -13.7200
 182   2.0000      -0.500252       -13.6125
 183   2.0000      -0.498852       -13.5745
 184   2.0000      -0.496928       -13.5221
 185   2.0000      -0.495342       -13.4789
 186   2.0000      -0.493376       -13.4255
 187   2.0000      -0.492615       -13.4047
 188   2.0000      -0.492442       -13.4000
 189   2.0000      -0.488845       -13.3021
 190   2.0000      -0.486820       -13.2471
 191   2.0000      -0.484765       -13.1911
 192   2.0000      -0.483407       -13.1542
 193   2.0000      -0.482575       -13.1315
 194   2.0000      -0.478278       -13.0146
 195   2.0000      -0.476173       -12.9573
 196   2.0000      -0.471247       -12.8233
 197   2.0000      -0.469220       -12.7681
 198   2.0000      -0.467319       -12.7164
 199   2.0000      -0.464015       -12.6265
 200   2.0000      -0.460610       -12.5338
 201   2.0000      -0.458329       -12.4718
 202   2.0000      -0.458054       -12.4643
 203   2.0000      -0.455906       -12.4058
 204   2.0000      -0.453784       -12.3481
 205   2.0000      -0.451232       -12.2787
 206   2.0000      -0.450153       -12.2493
 207   2.0000      -0.445639       -12.1265
 208   2.0000      -0.444389       -12.0924
 209   2.0000      -0.443839       -12.0775
 210   2.0000      -0.440702       -11.9921
 211   2.0000      -0.437018       -11.8919
 212   2.0000      -0.432007       -11.7555
 213   2.0000      -0.429358       -11.6834
 214   2.0000      -0.425440       -11.5768
 215   2.0000      -0.417049       -11.3485
 216   2.0000      -0.405552       -11.0356
 217   2.0000      -0.400080       -10.8867
 218   2.0000      -0.392930       -10.6922
 219   2.0000      -0.388504       -10.5717
 220   2.0000      -0.388266       -10.5653
 221   2.0000      -0.382934       -10.4202
 222   2.0000      -0.379608       -10.3297
 223   2.0000      -0.379312       -10.3216
 224   2.0000      -0.376486       -10.2447
 225   2.0000      -0.374014       -10.1774
 226   2.0000      -0.368539       -10.0284
 227   2.0000      -0.366167        -9.9639
 228   2.0000      -0.364916        -9.9299
 229   2.0000      -0.362145        -9.8545
 230   2.0000      -0.356058        -9.6888
 231   2.0000      -0.354712        -9.6522
 232   2.0000      -0.354104        -9.6357
 233   2.0000      -0.349885        -9.5208
 234   2.0000      -0.341429        -9.2908
 235   2.0000      -0.340231        -9.2582
 236   2.0000      -0.333734        -9.0814
 237   2.0000      -0.332688        -9.0529
 238   2.0000      -0.328724        -8.9450
 239   2.0000      -0.311820        -8.4851
 240   2.0000      -0.306409        -8.3378
 241   2.0000      -0.285562        -7.7705
 242   2.0000      -0.279041        -7.5931
 243   2.0000      -0.243031        -6.6132
 244   0.0000      -0.151088        -4.1113
 245   0.0000      -0.132780        -3.6131
 246   0.0000      -0.087356        -2.3771
 247   0.0000      -0.062430        -1.6988
 248   0.0000      -0.055882        -1.5206

MULLIKEN ATOMIC CHARGES
-----------------------
   0 C :   -0.114418
   1 S :    0.067256
   2 C :    0.143274
   3 O :   -0.164977
   4 N :   -0.268420
   5 C :    0.233061
   6 O :   -0.174080
   7 C :    0.124695
   8 C :   -0.061066
   9 C :    0.051704
  10 C :    0.093975
  11 N :    0.279953
  12 O :   -0.262030
  13 O :   -0.238283
  14 C :    0.017165
  15 C :    0.028111
  16 C :    0.048488
  17 C :    0.017423
  18 C :   -0.011244
  19 C :    0.024596
  20 C :    0.064961
  21 N :    0.278390
  22 O :   -0.262451
  23 O :   -0.245922
  24 C :    0.094199
  25 C :   -0.105569
  26 C :    0.001402
  27 C :    0.136097
  28 N :   -0.250571
  29 C :    0.094770
  30 C :    0.000815
  31 C :    0.171700
  32 O :   -0.204396
  33 C :   -0.069389
  34 C :   -0.060019
  35 C :    0.167729
  36 O :   -0.195574
  37 N :   -0.251956
  38 C :    0.094497
  39 C :    0.003657
  40 C :    0.155223
  41 C :   -0.020839
  42 C :    0.006714
  43 C :    0.109935
  44 C :   -0.119524
  45 C :    0.120168
  46 C :   -0.089886
  47 C :    0.000041
  48 C :   -0.175989
  49 N :    0.134470
  50 C :    0.121377
  51 C :   -0.106126
  52 C :    0.119006
  53 C :   -0.002365
  54 C :   -0.100541
  55 C :   -0.162668
  56 N :    0.124155
  57 C :    0.004645
  58 C :    0.012552
  59 C :    0.008899
  60 C :   -0.157098
  61 S :    0.047372
  62 C :    0.144022
  63 O :   -0.169184
  64 N :   -0.267383
  65 C :    0.227631
  66 O :   -0.170556
  67 C :    0.122439
  68 H :    0.055015
  69 H :    0.055674
  70 H :    0.049299
  71 H :    0.027103
  72 H :    0.001649
  73 H :   -0.006833
  74 H :    0.006462
  75 H :    0.009476
  76 H :    0.041219
  77 H :    0.009132
  78 H :    0.031798
  79 H :    0.042373
  80 H :    0.032600
  81 H :    0.026739
  82 H :    0.021569
  83 H :    0.046087
  84 H :    0.034603
  85 H :    0.027816
  86 H :    0.035014
  87 H :    0.019213
  88 H :   -0.010951
  89 H :    0.008751
  90 H :    0.000218
  91 H :    0.014308
  92 H :    0.005484
  93 H :    0.003054
  94 H :    0.005899
  95 H :    0.006383
  96 H :    0.028130
  97 H :    0.050191
  98 H :    0.060297
  99 H :    0.048182
Sum of atomic charges:   -0.0000000

LOEWDIN ATOMIC CHARGES
----------------------
   0 C :   -0.176984
   1 S :    0.341494
   2 C :   -0.039973
   3 O :   -0.153770
   4 N :   -0.036401
   5 C :    0.066350
   6 O :   -0.163258
   7 C :    0.043839
   8 C :   -0.030568
   9 C :    0.012424
  10 C :   -0.025732
  11 N :    0.292442
  12 O :   -0.212040
  13 O :   -0.200128
  14 C :    0.019491
  15 C :   -0.029735
  16 C :    0.046694
  17 C :    0.039077
  18 C :   -0.044324
  19 C :    0.022325
  20 C :   -0.050213
  21 N :    0.287832
  22 O :   -0.221752
  23 O :   -0.209554
  24 C :    0.011843
  25 C :    0.005681
  26 C :   -0.005271
  27 C :    0.067039
  28 N :    0.007663
  29 C :    0.037982
  30 C :   -0.060268
  31 C :    0.079724
  32 O :   -0.193580
  33 C :   -0.109819
  34 C :   -0.101657
  35 C :    0.081435
  36 O :   -0.184044
  37 N :    0.004870
  38 C :    0.038073
  39 C :   -0.058960
  40 C :    0.080315
  41 C :   -0.025566
  42 C :    0.034094
  43 C :   -0.021828
  44 C :   -0.016569
  45 C :    0.035332
  46 C :   -0.082258
  47 C :    0.060595
  48 C :   -0.030119
  49 N :   -0.061787
  50 C :    0.037787
  51 C :   -0.019330
  52 C :   -0.015422
  53 C :    0.053942
  54 C :   -0.077922
  55 C :   -0.026889
  56 N :   -0.066972
  57 C :    0.009335
  58 C :   -0.017040
  59 C :   -0.001129
  60 C :   -0.201962
  61 S :    0.328692
  62 C :   -0.044151
  63 O :   -0.157187
  64 N :   -0.045640
  65 C :    0.068400
  66 O :   -0.164601
  67 C :    0.042424
  68 H :    0.037591
  69 H :    0.038491
  70 H :    0.035967
  71 H :    0.042961
  72 H :    0.037297
  73 H :    0.030044
  74 H :    0.033180
  75 H :    0.039519
  76 H :    0.040894
  77 H :    0.030950
  78 H :    0.027162
  79 H :    0.036948
  80 H :    0.026130
  81 H :    0.034052
  82 H :    0.028952
  83 H :    0.039247
  84 H :    0.027563
  85 H :    0.031216
  86 H :    0.036064
  87 H :    0.023472
  88 H :    0.035682
  89 H :    0.038952
  90 H :    0.031239
  91 H :    0.043463
  92 H :    0.036973
  93 H :    0.037053
  94 H :    0.041950
  95 H :    0.024915
  96 H :    0.048317
  97 H :    0.035984
  98 H :    0.039759
  99 H :    0.035225

  Mayer bond orders larger than 0.100000
B(  0-C ,  1-S ) :   1.0553 B(  0-C ,  5-C ) :   0.8983 B(  0-C ,  8-C ) :   1.7699
B(  1-S ,  2-C ) :   0.9609 B(  2-C ,  3-O ) :   2.1482 B(  2-C ,  4-N ) :   1.0753
B(  4-N ,  5-C ) :   1.0718 B(  4-N ,  7-C ) :   0.9289 B(  5-C ,  6-O ) :   2.1706
B(  7-C , 68-H ) :   0.9814 B(  7-C , 69-H ) :   0.9612 B(  7-C , 70-H ) :   0.9699
B(  8-C ,  9-C ) :   1.0842 B(  8-C , 71-H ) :   0.9415 B(  9-C , 10-C ) :   1.5767
B(  9-C , 16-C ) :   1.0541 B( 10-C , 11-N ) :   0.9475 B( 10-C , 14-C ) :   1.1115
B( 11-N , 12-O ) :   1.4821 B( 11-N , 13-O ) :   1.5458 B( 12-O , 13-O ) :   0.2557
B( 14-C , 15-C ) :   1.6053 B( 14-C , 72-H ) :   1.0090 B( 15-C , 16-C ) :   1.1075
B( 15-C , 73-H ) :   1.0008 B( 16-C , 17-C ) :   1.5080 B( 17-C , 18-C ) :   1.1344
B( 17-C , 24-C ) :   1.0161 B( 18-C , 19-C ) :   1.5471 B( 18-C , 74-H ) :   1.0037
B( 19-C , 20-C ) :   1.1462 B( 19-C , 75-H ) :   1.0077 B( 20-C , 21-N ) :   0.9662
B( 20-C , 24-C ) :   1.4482 B( 21-N , 22-O ) :   1.4541 B( 21-N , 23-O ) :   1.5409
B( 22-O , 23-O ) :   0.2461 B( 24-C , 25-C ) :   1.1854 B( 25-C , 26-C ) :   1.5230
B( 25-C , 76-H ) :   0.9332 B( 26-C , 27-C ) :   1.1926 B( 26-C , 77-H ) :   0.9494
B( 27-C , 28-N ) :   1.1646 B( 27-C , 34-C ) :   1.2693 B( 28-N , 29-C ) :   0.9357
B( 28-N , 31-C ) :   1.0741 B( 29-C , 30-C ) :   1.1212 B( 29-C , 78-H ) :   0.9489
B( 29-C , 79-H ) :   0.9284 B( 30-C , 80-H ) :   0.9640 B( 30-C , 81-H ) :   0.9669
B( 30-C , 82-H ) :   0.9622 B( 31-C , 32-O ) :   2.0225 B( 31-C , 33-C ) :   0.9804
B( 32-O , 89-H ) :   0.1176 B( 33-C , 34-C ) :   1.3153 B( 33-C , 40-C ) :   1.2744
B( 34-C , 35-C ) :   0.9756 B( 35-C , 36-O ) :   2.0276 B( 35-C , 37-N ) :   1.0666
B( 36-O , 76-H ) :   0.1056 B( 37-N , 38-C ) :   0.9376 B( 37-N , 40-C ) :   1.1666
B( 38-C , 39-C ) :   1.1193 B( 38-C , 83-H ) :   0.9286 B( 38-C , 84-H ) :   0.9498
B( 39-C , 85-H ) :   0.9639 B( 39-C , 86-H ) :   0.9683 B( 39-C , 87-H ) :   0.9689
B( 40-C , 41-C ) :   1.1974 B( 41-C , 42-C ) :   1.5292 B( 41-C , 88-H ) :   0.9670
B( 42-C , 43-C ) :   1.1358 B( 42-C , 89-H ) :   0.9528 B( 43-C , 44-C ) :   1.4907
B( 43-C , 47-C ) :   1.0361 B( 44-C , 45-C ) :   1.1553 B( 44-C , 90-H ) :   0.9952
B( 45-C , 46-C ) :   1.1055 B( 45-C , 50-C ) :   1.3724 B( 46-C , 47-C ) :   1.6622
B( 46-C , 48-C ) :   1.0880 B( 47-C , 91-H ) :   1.0276 B( 48-C , 49-N ) :   2.9660
B( 50-C , 51-C ) :   1.1373 B( 50-C , 54-C ) :   1.1041 B( 51-C , 52-C ) :   1.4914
B( 51-C , 92-H ) :   1.0100 B( 52-C , 53-C ) :   1.0424 B( 52-C , 57-C ) :   1.1122
B( 53-C , 54-C ) :   1.6842 B( 53-C , 93-H ) :   1.0144 B( 54-C , 55-C ) :   1.0906
B( 55-C , 56-N ) :   2.9582 B( 57-C , 58-C ) :   1.6174 B( 57-C , 94-H ) :   0.9873
B( 58-C , 59-C ) :   1.1228 B( 58-C , 95-H ) :   0.9729 B( 59-C , 60-C ) :   1.6940
B( 59-C , 96-H ) :   0.9782 B( 60-C , 61-S ) :   1.0343 B( 60-C , 65-C ) :   0.9382
B( 61-S , 62-C ) :   0.9710 B( 62-C , 63-O ) :   2.1451 B( 62-C , 64-N ) :   1.0735
B( 64-N , 65-C ) :   1.0613 B( 64-N , 67-C ) :   0.9276 B( 65-C , 66-O ) :   2.1777
B( 67-C , 97-H ) :   0.9757 B( 67-C , 98-H ) :   0.9590 B( 67-C , 99-H ) :   0.9783

-----------------------------------------------------------------------------
         ABSORPTION SPECTRUM VIA TRANSITION ELECTRIC DIPOLE MOMENTS
-----------------------------------------------------------------------------
State   Energy  Wavelength   fosc         T2         TX        TY        TZ
        (cm-1)    (nm)                  (au**2)     (au)      (au)      (au)
-----------------------------------------------------------------------------
   0    6034.7   1657.1   0.554257293  30.23669  -1.16458   4.54788   2.86308
   1   10311.3    969.8   0.253248286   8.08553   0.79502  -1.06179  -2.51517
   2   12106.8    826.0   0.018791779   0.51099  -0.10759   0.46169  -0.53503
   3   14185.1    705.0   0.233210847   5.41241  -0.50859   1.15602   1.95380
   4   17375.9    575.5   0.011100405   0.21031  -0.04110   0.43482   0.13984
   5   17683.1    565.5   0.062650516   1.16639  -0.34582  -0.03009   1.02269
   6   18913.8    528.7   0.087735603   1.52712   0.40894  -0.60494  -0.99697
   7   21768.5    459.4   0.218986860   3.31180  -0.63466   1.49332   0.82402
   8   21953.6    455.5   0.148343063   2.22453  -0.24664   1.28734   0.71165
   9   22273.9    449.0   0.033880012   0.50075   0.11449  -0.22521  -0.66100
  10   22842.7    437.8   0.017958561   0.25882   0.09260  -0.23816  -0.43992
  11   22993.7    434.9   0.116059243   1.66167  -0.18008   0.27277   1.24693
  12   24498.6    408.2   0.028181827   0.37871  -0.33857  -0.12619   0.49815
  13   24933.8    401.1   0.247771244   3.27143  -0.11076  -1.77397   0.33497
  14   25184.4    397.1   0.049364900   0.64530  -0.45747   0.32015   0.57751
  15   25815.0    387.4   0.154701299   1.97286   0.41830  -1.01134  -0.88039
  16   25942.5    385.5   0.082587265   1.04804  -0.54190   0.47274   0.72863
  17   26171.1    382.1   0.014557351   0.18312  -0.04157  -0.42368  -0.04346
  18   26895.5    371.8   0.052789718   0.64617  -0.44632  -0.27578   0.60903
  19   27217.4    367.4   0.058760454   0.71075   0.45764  -0.60653  -0.36528
  20   27488.7    363.8   0.299390035   3.58558   0.41647  -1.18862  -1.41397
  21   27584.6    362.5   0.003863173   0.04611   0.08976  -0.13536  -0.14045
  22   28384.5    352.3   0.007348466   0.08523  -0.10241  -0.14332   0.23281
  23   28577.1    349.9   0.161557647   1.86117   0.75204   0.17030  -1.12543
  24   28901.3    346.0   0.255859449   2.91447   0.27328  -1.00656  -1.35153
  25   29985.6    333.5   0.028813949   0.31635   0.04188   0.47006  -0.30601
  26   30770.6    325.0   0.092351978   0.98806   0.48597   0.74890  -0.43708
  27   31195.1    320.6   0.209344798   2.20928   0.49884   0.80094  -1.14845
  28   31284.9    319.6   0.022789391   0.23981   0.35560  -0.22367  -0.25166
  29   31489.7    317.6   0.001429690   0.01495   0.08039   0.05899  -0.07074
  30   31752.6    314.9   0.000097758   0.00101   0.03051   0.00874  -0.00252
  31   31901.1    313.5   0.080343622   0.82913  -0.53532   0.38233   0.62960
  32   31966.8    312.8   0.075065906   0.77307   0.43890  -0.74702  -0.14965
  33   32046.6    312.0   0.224275813   2.30396  -0.90944   0.73096   0.97087
  34   32306.2    309.5   0.090130460   0.91846  -0.01501   0.70778   0.64597
  35   32514.4    307.6   0.076761941   0.77722   0.25116   0.21949  -0.81607
  36   32672.8    306.1   0.049320501   0.49695  -0.42301   0.22665   0.51638
  37   32857.6    304.3   0.007552791   0.07567  -0.20492   0.15646   0.09592
  38   33045.9    302.6   0.004045365   0.04030   0.00745   0.01484   0.20006
  39   33212.5    301.1   0.025760744   0.25535   0.27246  -0.41081  -0.11112
  40   33860.7    295.3   0.106612749   1.03655  -0.63854  -0.22614   0.76005
  41   33926.3    294.8   0.117876051   1.14384   0.28890  -0.63160  -0.81330
  42   34286.8    291.7   0.038011268   0.36497  -0.00426   0.15376  -0.58422
  43   34323.7    291.3   0.026720511   0.25629  -0.21558   0.17462   0.42346
  44   34557.9    289.4   0.017470458   0.16643   0.29625   0.18265  -0.21285
  45   34605.2    289.0   0.005134091   0.04884  -0.08618  -0.20335   0.00801
  46   34790.1    287.4   0.051228348   0.48476   0.19104  -0.48027  -0.46649
  47   35343.5    282.9   0.022873898   0.21306  -0.04567  -0.10095   0.44809
  48   36196.8    276.3   0.013905222   0.12647   0.05735   0.30096  -0.18055
  49   36244.4    275.9   0.020972903   0.19050   0.02987   0.39138  -0.19087
  50   36854.8    271.3   0.072505853   0.64767  -0.16317   0.78703   0.04033
  51   37161.9    269.1   0.023265176   0.20610  -0.22143  -0.18498   0.35051
  52   37317.5    268.0   0.006173795   0.05446  -0.02532  -0.18120   0.14488
  53   37364.0    267.6   0.025770502   0.22706  -0.06138   0.05229   0.46964
  54   37726.6    265.1   0.000940297   0.00821  -0.01754  -0.08185   0.03462
  55   37983.2    263.3   0.022637137   0.19620  -0.11857   0.41587  -0.09588
  56   38399.4    260.4   0.033967410   0.29121   0.23820   0.38550  -0.29303
  57   39113.0    255.7   0.046524091   0.39159   0.22606   0.38950  -0.43449
  58   39264.1    254.7   0.006978317   0.05851   0.05611   0.08355  -0.21996
  59   39577.9    252.7   0.049390166   0.41083   0.19396  -0.59818  -0.12405
  60   39721.5    251.8   0.006554076   0.05432   0.18659  -0.06713  -0.12247
  61   39886.4    250.7   0.209270965   1.72727   0.42835   1.03850  -0.68213
  62   40143.8    249.1   0.009893193   0.08113   0.09838  -0.26619   0.02445
  63   40244.7    248.5   0.007795741   0.06377   0.02828  -0.24599   0.04961

FINAL SINGLE POINT ENERGY     -3830.747004033828

DIPOLE MOMENT
-------------
                                X             Y             Z
Electronic contribution:     -6.23502      18.28163      -5.97972
Nuclear contribution   :      6.72519     -19.48706       5.86109
                        -----------------------------------------
Total Dipole Moment    :      0.49017      -1.20543      -0.11863
                        -----------------------------------------
Magnitude (a.u.)       :      1.30667
Magnitude (Debye)      :      3.32130

Rotational constants in cm-1:     0.001752     0.000235     0.000211
Rotational constants in MHz :    52.511414     7.057551     6.323965

                             ****ORCA TERMINATED NORMALLY****
TOTAL RUN TIME: 0 days 0 hours 12 minutes 3 seconds 152 msec
