                         Program Version 4.2.0 -  RELEASE  -
|  1> # ORCA input file
|  2> # SCF done       -187.290379478275          0.000715139654
|  3> ! CAM-B3LYP def2-SVP def2/J RIJCOSX Grid4 TightSCF
|  4> %maxcore 5000
|  5> %tddft
|  6>     Mode sTDDFT
|  7>     Ethresh 5.0
|  8>     maxcore 5000
|  9> end
| 10>
| 11> %pal
| 12>   nprocs 6
| 13>   end
| 14> * xyz 0 1
| 15>    C       -0.93815         1.53612         1.72345
| 16>    C       -2.09236         2.25718         1.77421
| 17>    S       -3.08343         1.73752         3.08598
| 18>    C       -1.94220         0.54104         3.57519
| 19>    C       -0.85793         0.55242         2.75944
| 20>    C        0.40630        -0.18445         2.64679
| 21>    O        0.79737        -1.06671         3.37897
| 22>    C        1.10239         0.41853         1.47419
| 23>    C        0.25778         1.46329         0.90914
| 24>    C        0.47639         2.24109        -0.19912
| 25>    C       -0.46715         3.20847        -0.60531
| 26>    N       -1.22054         4.00192        -0.95110
| 27>    C        1.59035         2.19557        -1.05942
| 28>    N        2.46001         2.21342        -1.81022
| 29>    C        2.35627         0.13897         1.00073
| 30>    C        3.29329        -0.85040         1.35453
| 31>    C        3.23308        -1.95983         2.19183
| 32>    C        4.41810        -2.67926         2.19417
| 33>    C        5.41395        -2.11904         1.35558
| 34>    S        4.87160        -0.72249         0.55598
| 35>    C        6.58171        -2.90596         1.44546
| 36>    C        6.33059        -3.97149         2.33746
| 37>    C        4.96325        -3.86984         2.82540
| 38>    C        4.33526        -4.72922         3.67718
| 39>    C        2.98694        -4.58420         4.07173
| 40>    N        1.89169        -4.50984         4.40081
| 41>    C        4.99197        -5.85590         4.21850
| 42>    N        5.51508        -6.77314         4.66564
| 43>    C        7.42409        -4.80803         2.49853
| 44>    C        8.51498        -4.39570         1.73988
| 45>    S        8.16866        -2.94425         0.81020
| 46>    C        9.79796        -4.99828         1.65034
| 47>    C       10.18464        -6.16762         2.35999
| 48>    C       11.49833        -6.72042         2.21302
| 49>    N       11.84132        -7.82680         2.89682
| 50>    C       10.97127        -8.38803         3.68829
| 51>    C        9.67819        -7.84610         3.83092
| 52>    N        9.31055        -6.77484         3.18550
| 53>    C       12.48832        -6.16420         1.36568
| 54>    C       12.10828        -4.99999         0.66589
| 55>    C       10.78889        -4.43907         0.81554
| 56>    N       10.63362        -3.34239         0.07030
| 57>    S       11.99388        -3.04677        -0.72976
| 58>    N       12.84922        -4.28261        -0.18185
| 59>    C       13.76304        -6.77061         1.24584
| 60>    C       14.80891        -6.35122         0.42984
| 61>    C       15.91352        -7.18175         0.53718
| 62>    C       15.71304        -8.24105         1.44967
| 63>    S       14.15408        -8.20984         2.16603
| 64>    C       16.88618        -9.02559         1.47504
| 65>    C       17.82921        -8.47375         0.57317
| 66>    C       17.24993        -7.28446        -0.02872
| 67>    C       17.83205        -6.43066        -0.91787
| 68>    C       17.14815        -5.30795        -1.43253
| 69>    N       16.59946        -4.39563        -1.85841
| 70>    C       19.16017        -6.58090        -1.37361
| 71>    N       20.24221        -6.66281        -1.74217
| 72>    C       19.00514        -9.20350         0.49512
| 73>    C       18.99147       -10.31226         1.33478
| 74>    S       17.47629       -10.41935         2.24719
| 75>    C       19.95291       -11.30195         1.61643
| 76>    C       21.10591       -11.63881         0.96004
| 77>    C       21.54189       -11.19026        -0.39425
| 78>    O       21.00744       -10.38374        -1.12274
| 79>    C       22.73571       -11.99090        -0.69201
| 80>    C       23.61165       -12.11968        -1.72029
| 81>    S       24.80943       -13.30500        -1.35433
| 82>    C       24.12421       -13.63095         0.19429
| 83>    C       23.02483       -12.85712         0.41004
| 84>    C       22.04176       -12.64012         1.45138
| 85>    C       22.06912       -13.25563         2.67647
| 86>    C       23.06338       -14.20578         2.99087
| 87>    N       23.86115       -14.98527         3.26081
| 88>    C       21.18078       -13.03235         3.74598
| 89>    N       20.50289       -12.89228         4.66273
| 90>    H       -2.43153         3.05314         1.14224
| 91>    H       -2.14418        -0.08646         4.41988
| 92>    H        2.71384         0.78921         0.21027
| 93>    H        2.35705        -2.20010         2.76738
| 94>    H        7.46986        -5.67999         3.12370
| 95>    H       11.28838        -9.27413         4.21887
| 96>    H        8.93877        -8.29475         4.47909
| 97>    H       14.72717        -5.48313        -0.19796
| 98>    H       19.83899        -8.96616        -0.13947
| 99>    H       19.71244       -11.89459         2.49202
|100>    H       23.63422       -11.59895        -2.65646
|101>    H       24.57790       -14.36772         0.82625
|102> *
|103>
|104>                          ****END OF INPUT****

CARTESIAN COORDINATES (ANGSTROEM)
---------------------------------
  C     -0.938150    1.536120    1.723450
  C     -2.092360    2.257180    1.774210
  S     -3.083430    1.737520    3.085980
  C     -1.942200    0.541040    3.575190
  C     -0.857930    0.552420    2.759440
  C      0.406300   -0.184450    2.646790
  O      0.797370   -1.066710    3.378970
  C      1.102390    0.418530    1.474190
  C      0.257780    1.463290    0.909140
  C      0.476390    2.241090   -0.199120
  C     -0.467150    3.208470   -0.605310
  N     -1.220540    4.001920   -0.951100
  C      1.590350    2.195570   -1.059420
  N      2.460010    2.213420   -1.810220
  C      2.356270    0.138970    1.000730
  C      3.293290   -0.850400    1.354530
  C      3.233080   -1.959830    2.191830
  C      4.418100   -2.679260    2.194170
  C      5.413950   -2.119040    1.355580
  S      4.871600   -0.722490    0.555980
  C      6.581710   -2.905960    1.445460
  C      6.330590   -3.971490    2.337460
  C      4.963250   -3.869840    2.825400
  C      4.335260   -4.729220    3.677180
  C      2.986940   -4.584200    4.071730
  N      1.891690   -4.509840    4.400810
  C      4.991970   -5.855900    4.218500
  N      5.515080   -6.773140    4.665640
  C      7.424090   -4.808030    2.498530
  C      8.514980   -4.395700    1.739880
  S      8.168660   -2.944250    0.810200
  C      9.797960   -4.998280    1.650340
  C     10.184640   -6.167620    2.359990
  C     11.498330   -6.720420    2.213020
  N     11.841320   -7.826800    2.896820
  C     10.971270   -8.388030    3.688290
  C      9.678190   -7.846100    3.830920
  N      9.310550   -6.774840    3.185500
  C     12.488320   -6.164200    1.365680
  C     12.108280   -4.999990    0.665890
  C     10.788890   -4.439070    0.815540
  N     10.633620   -3.342390    0.070300
  S     11.993880   -3.046770   -0.729760
  N     12.849220   -4.282610   -0.181850
  C     13.763040   -6.770610    1.245840
  C     14.808910   -6.351220    0.429840
  C     15.913520   -7.181750    0.537180
  C     15.713040   -8.241050    1.449670
  S     14.154080   -8.209840    2.166030
  C     16.886180   -9.025590    1.475040
  C     17.829210   -8.473750    0.573170
  C     17.249930   -7.284460   -0.028720
  C     17.832050   -6.430660   -0.917870
  C     17.148150   -5.307950   -1.432530
  N     16.599460   -4.395630   -1.858410
  C     19.160170   -6.580900   -1.373610
  N     20.242210   -6.662810   -1.742170
  C     19.005140   -9.203500    0.495120
  C     18.991470  -10.312260    1.334780
  S     17.476290  -10.419350    2.247190
  C     19.952910  -11.301950    1.616430
  C     21.105910  -11.638810    0.960040
  C     21.541890  -11.190260   -0.394250
  O     21.007440  -10.383740   -1.122740
  C     22.735710  -11.990900   -0.692010
  C     23.611650  -12.119680   -1.720290
  S     24.809430  -13.305000   -1.354330
  C     24.124210  -13.630950    0.194290
  C     23.024830  -12.857120    0.410040
  C     22.041760  -12.640120    1.451380
  C     22.069120  -13.255630    2.676470
  C     23.063380  -14.205780    2.990870
  N     23.861150  -14.985270    3.260810
  C     21.180780  -13.032350    3.745980
  N     20.502890  -12.892280    4.662730
  H     -2.431530    3.053140    1.142240
  H     -2.144180   -0.086460    4.419880
  H      2.713840    0.789210    0.210270
  H      2.357050   -2.200100    2.767380
  H      7.469860   -5.679990    3.123700
  H     11.288380   -9.274130    4.218870
  H      8.938770   -8.294750    4.479090
  H     14.727170   -5.483130   -0.197960
  H     19.838990   -8.966160   -0.139470
  H     19.712440  -11.894590    2.492020
  H     23.634220  -11.598950   -2.656460
  H     24.577900  -14.367720    0.826250

 Total Charge           Charge          ....    0
 Multiplicity           Mult            ....    1
 Number of Electrons    NEL             ....  548
 Basis Dimension        Dim             .... 1138

ORBITAL ENERGIES
----------------

  NO   OCC          E(Eh)            E(eV)
   0   2.0000     -89.059420     -2423.4300
   1   2.0000     -88.997395     -2421.7422
   2   2.0000     -88.996806     -2421.7262
   3   2.0000     -88.991869     -2421.5919
   4   2.0000     -88.990697     -2421.5600
   5   2.0000     -88.984341     -2421.3870
   6   2.0000     -88.984315     -2421.3863
   7   2.0000     -19.220326      -523.0117
   8   2.0000     -19.219394      -522.9863
   9   2.0000     -14.467239      -393.6736
  10   2.0000     -14.467006      -393.6672
  11   2.0000     -14.461015      -393.5042
  12   2.0000     -14.454162      -393.3178
  13   2.0000     -14.434592      -392.7852
  14   2.0000     -14.432462      -392.7273
  15   2.0000     -14.429970      -392.6594
  16   2.0000     -14.429496      -392.6466
  17   2.0000     -14.419874      -392.3847
  18   2.0000     -14.418982      -392.3604
  19   2.0000     -14.414793      -392.2465
  20   2.0000     -14.414775      -392.2460
  21   2.0000     -10.375900      -282.3426
  22   2.0000     -10.375342      -282.3274
  23   2.0000     -10.368427      -282.1393
  24   2.0000     -10.367406      -282.1115
  25   2.0000     -10.355605      -281.7903
  26   2.0000     -10.355212      -281.7796
  27   2.0000     -10.354377      -281.7569
  28   2.0000     -10.354229      -281.7529
  29   2.0000     -10.353956      -281.7455
  30   2.0000     -10.353413      -281.7307
  31   2.0000     -10.351229      -281.6713
  32   2.0000     -10.349495      -281.6241
  33   2.0000     -10.348171      -281.5880
  34   2.0000     -10.346672      -281.5473
  35   2.0000     -10.345592      -281.5179
  36   2.0000     -10.345043      -281.5029
  37   2.0000     -10.342143      -281.4240
  38   2.0000     -10.342007      -281.4203
  39   2.0000     -10.335017      -281.2301
  40   2.0000     -10.334703      -281.2216
  41   2.0000     -10.332706      -281.1672
  42   2.0000     -10.332543      -281.1628
  43   2.0000     -10.331845      -281.1438
  44   2.0000     -10.331416      -281.1321
  45   2.0000     -10.330654      -281.1114
  46   2.0000     -10.330064      -281.0953
  47   2.0000     -10.329850      -281.0895
  48   2.0000     -10.329813      -281.0885
  49   2.0000     -10.329534      -281.0809
  50   2.0000     -10.329238      -281.0729
  51   2.0000     -10.328932      -281.0645
  52   2.0000     -10.327239      -281.0184
  53   2.0000     -10.322965      -280.9022
  54   2.0000     -10.322885      -280.9000
  55   2.0000     -10.322836      -280.8987
  56   2.0000     -10.322502      -280.8896
  57   2.0000     -10.322420      -280.8873
  58   2.0000     -10.321969      -280.8751
  59   2.0000     -10.317700      -280.7589
  60   2.0000     -10.317589      -280.7559
  61   2.0000     -10.311092      -280.5791
  62   2.0000     -10.310232      -280.5557
  63   2.0000     -10.309377      -280.5324
  64   2.0000     -10.309039      -280.5232
  65   2.0000     -10.308519      -280.5091
  66   2.0000     -10.308321      -280.5037
  67   2.0000     -10.305806      -280.4352
  68   2.0000     -10.305180      -280.4182
  69   2.0000     -10.304062      -280.3878
  70   2.0000     -10.303956      -280.3849
  71   2.0000     -10.302601      -280.3480
  72   2.0000     -10.300344      -280.2866
  73   2.0000     -10.291788      -280.0538
  74   2.0000     -10.291729      -280.0522
  75   2.0000      -8.150294      -221.7808
  76   2.0000      -8.092212      -220.2003
  77   2.0000      -8.091660      -220.1853
  78   2.0000      -8.085006      -220.0042
  79   2.0000      -8.082730      -219.9423
  80   2.0000      -8.080197      -219.8733
  81   2.0000      -8.080101      -219.8707
  82   2.0000      -6.121353      -166.5705
  83   2.0000      -6.113554      -166.3583
  84   2.0000      -6.113149      -166.3472
  85   2.0000      -6.061287      -164.9360
  86   2.0000      -6.060730      -164.9208
  87   2.0000      -6.057174      -164.8241
  88   2.0000      -6.056626      -164.8092
  89   2.0000      -6.054763      -164.7585
  90   2.0000      -6.054448      -164.7499
  91   2.0000      -6.054216      -164.7436
  92   2.0000      -6.052397      -164.6941
  93   2.0000      -6.049826      -164.6241
  94   2.0000      -6.049413      -164.6129
  95   2.0000      -6.049325      -164.6105
  96   2.0000      -6.047437      -164.5591
  97   2.0000      -6.047418      -164.5586
  98   2.0000      -6.045192      -164.4980
  99   2.0000      -6.044697      -164.4846
 100   2.0000      -6.044593      -164.4817
 101   2.0000      -6.042952      -164.4371
 102   2.0000      -6.042885      -164.4353
 103   2.0000      -1.156050       -31.4577
 104   2.0000      -1.136846       -30.9351
 105   2.0000      -1.136002       -30.9122
 106   2.0000      -1.115789       -30.3622
 107   2.0000      -1.050980       -28.5986
 108   2.0000      -1.049392       -28.5554
 109   2.0000      -1.040439       -28.3118
 110   2.0000      -1.025646       -27.9092
 111   2.0000      -1.025187       -27.8968
 112   2.0000      -1.024694       -27.8833
 113   2.0000      -1.023210       -27.8430
 114   2.0000      -1.014628       -27.6094
 115   2.0000      -1.009295       -27.4643
 116   2.0000      -1.009021       -27.4569
 117   2.0000      -1.008734       -27.4491
 118   2.0000      -1.008257       -27.4361
 119   2.0000      -1.006139       -27.3784
 120   2.0000      -0.998077       -27.1591
 121   2.0000      -0.995689       -27.0941
 122   2.0000      -0.995350       -27.0849
 123   2.0000      -0.983638       -26.7661
 124   2.0000      -0.967637       -26.3307
 125   2.0000      -0.965396       -26.2698
 126   2.0000      -0.960399       -26.1338
 127   2.0000      -0.957188       -26.0464
 128   2.0000      -0.926259       -25.2048
 129   2.0000      -0.920854       -25.0577
 130   2.0000      -0.905007       -24.6265
 131   2.0000      -0.901788       -24.5389
 132   2.0000      -0.899066       -24.4648
 133   2.0000      -0.894655       -24.3448
 134   2.0000      -0.883948       -24.0534
 135   2.0000      -0.881357       -23.9829
 136   2.0000      -0.870822       -23.6963
 137   2.0000      -0.862184       -23.4612
 138   2.0000      -0.859019       -23.3751
 139   2.0000      -0.857825       -23.3426
 140   2.0000      -0.842848       -22.9351
 141   2.0000      -0.842660       -22.9299
 142   2.0000      -0.829009       -22.5585
 143   2.0000      -0.812098       -22.0983
 144   2.0000      -0.809973       -22.0405
 145   2.0000      -0.796549       -21.6752
 146   2.0000      -0.784121       -21.3370
 147   2.0000      -0.779931       -21.2230
 148   2.0000      -0.773317       -21.0430
 149   2.0000      -0.761932       -20.7332
 150   2.0000      -0.757273       -20.6064
 151   2.0000      -0.756099       -20.5745
 152   2.0000      -0.741407       -20.1747
 153   2.0000      -0.727210       -19.7884
 154   2.0000      -0.717457       -19.5230
 155   2.0000      -0.709936       -19.3184
 156   2.0000      -0.706685       -19.2299
 157   2.0000      -0.692596       -18.8465
 158   2.0000      -0.690856       -18.7991
 159   2.0000      -0.687846       -18.7172
 160   2.0000      -0.684887       -18.6367
 161   2.0000      -0.679963       -18.5027
 162   2.0000      -0.675663       -18.3857
 163   2.0000      -0.671033       -18.2597
 164   2.0000      -0.669147       -18.2084
 165   2.0000      -0.664222       -18.0744
 166   2.0000      -0.656888       -17.8748
 167   2.0000      -0.655485       -17.8367
 168   2.0000      -0.642994       -17.4968
 169   2.0000      -0.639375       -17.3983
 170   2.0000      -0.633523       -17.2390
 171   2.0000      -0.631931       -17.1957
 172   2.0000      -0.628567       -17.1042
 173   2.0000      -0.619676       -16.8622
 174   2.0000      -0.617564       -16.8048
 175   2.0000      -0.611013       -16.6265
 176   2.0000      -0.608851       -16.5677
 177   2.0000      -0.600754       -16.3473
 178   2.0000      -0.597536       -16.2598
 179   2.0000      -0.585728       -15.9385
 180   2.0000      -0.585547       -15.9335
 181   2.0000      -0.585260       -15.9257
 182   2.0000      -0.580106       -15.7855
 183   2.0000      -0.571628       -15.5548
 184   2.0000      -0.559893       -15.2355
 185   2.0000      -0.556951       -15.1554
 186   2.0000      -0.554426       -15.0867
 187   2.0000      -0.552893       -15.0450
 188   2.0000      -0.550510       -14.9801
 189   2.0000      -0.544968       -14.8293
 190   2.0000      -0.544538       -14.8176
 191   2.0000      -0.542259       -14.7556
 192   2.0000      -0.541590       -14.7374
 193   2.0000      -0.530964       -14.4483
 194   2.0000      -0.529101       -14.3976
 195   2.0000      -0.526212       -14.3189
 196   2.0000      -0.523711       -14.2509
 197   2.0000      -0.521111       -14.1802
 198   2.0000      -0.519654       -14.1405
 199   2.0000      -0.509754       -13.8711
 200   2.0000      -0.508788       -13.8448
 201   2.0000      -0.507503       -13.8098
 202   2.0000      -0.503528       -13.7017
 203   2.0000      -0.502008       -13.6603
 204   2.0000      -0.501710       -13.6522
 205   2.0000      -0.500440       -13.6177
 206   2.0000      -0.499012       -13.5788
 207   2.0000      -0.497355       -13.5337
 208   2.0000      -0.496239       -13.5033
 209   2.0000      -0.495259       -13.4767
 210   2.0000      -0.494512       -13.4563
 211   2.0000      -0.492671       -13.4063
 212   2.0000      -0.491219       -13.3667
 213   2.0000      -0.481923       -13.1138
 214   2.0000      -0.481649       -13.1063
 215   2.0000      -0.475093       -12.9279
 216   2.0000      -0.474447       -12.9104
 217   2.0000      -0.471699       -12.8356
 218   2.0000      -0.470528       -12.8037
 219   2.0000      -0.469478       -12.7751
 220   2.0000      -0.465309       -12.6617
 221   2.0000      -0.463016       -12.5993
 222   2.0000      -0.462658       -12.5896
 223   2.0000      -0.460953       -12.5432
 224   2.0000      -0.457082       -12.4378
 225   2.0000      -0.455628       -12.3983
 226   2.0000      -0.454410       -12.3651
 227   2.0000      -0.451449       -12.2846
 228   2.0000      -0.451288       -12.2802
 229   2.0000      -0.451112       -12.2754
 230   2.0000      -0.450764       -12.2659
 231   2.0000      -0.447982       -12.1902
 232   2.0000      -0.447914       -12.1884
 233   2.0000      -0.442058       -12.0290
 234   2.0000      -0.441423       -12.0117
 235   2.0000      -0.441068       -12.0021
 236   2.0000      -0.440570       -11.9885
 237   2.0000      -0.440480       -11.9861
 238   2.0000      -0.439816       -11.9680
 239   2.0000      -0.437145       -11.8953
 240   2.0000      -0.429946       -11.6994
 241   2.0000      -0.429681       -11.6922
 242   2.0000      -0.429438       -11.6856
 243   2.0000      -0.428845       -11.6695
 244   2.0000      -0.427041       -11.6204
 245   2.0000      -0.426566       -11.6074
 246   2.0000      -0.425235       -11.5712
 247   2.0000      -0.424782       -11.5589
 248   2.0000      -0.417892       -11.3714
 249   2.0000      -0.413164       -11.2428
 250   2.0000      -0.412758       -11.2317
 251   2.0000      -0.410828       -11.1792
 252   2.0000      -0.410319       -11.1653
 253   2.0000      -0.395262       -10.7556
 254   2.0000      -0.393906       -10.7187
 255   2.0000      -0.390320       -10.6211
 256   2.0000      -0.384499       -10.4628
 257   2.0000      -0.364396        -9.9157
 258   2.0000      -0.362851        -9.8737
 259   2.0000      -0.353280        -9.6132
 260   2.0000      -0.353228        -9.6118
 261   2.0000      -0.347903        -9.4669
 262   2.0000      -0.346122        -9.4185
 263   2.0000      -0.341800        -9.3009
 264   2.0000      -0.340018        -9.2524
 265   2.0000      -0.337804        -9.1921
 266   2.0000      -0.337575        -9.1859
 267   2.0000      -0.325929        -8.8690
 268   2.0000      -0.324587        -8.8325
 269   2.0000      -0.321746        -8.7552
 270   2.0000      -0.314906        -8.5690
 271   2.0000      -0.303066        -8.2468
 272   2.0000      -0.279383        -7.6024
 273   2.0000      -0.247056        -6.7227
 274   0.0000      -0.138555        -3.7703
 275   0.0000      -0.110234        -2.9996
 276   0.0000      -0.101971        -2.7748
 277   0.0000      -0.089457        -2.4342
 278   0.0000      -0.088597        -2.4108

MULLIKEN ATOMIC CHARGES
-----------------------
   0 C :    0.030924
   1 C :   -0.136047
   2 S :    0.159787
   3 C :   -0.135364
   4 C :    0.031707
   5 C :    0.173136
   6 O :   -0.144294
   7 C :   -0.107052
   8 C :    0.303754
   9 C :   -0.348362
  10 C :   -0.194709
  11 N :    0.148458
  12 C :   -0.179212
  13 N :    0.151011
  14 C :    0.034363
  15 C :   -0.110731
  16 C :   -0.007586
  17 C :   -0.007630
  18 C :   -0.084750
  19 S :    0.206649
  20 C :   -0.074854
  21 C :    0.052967
  22 C :    0.320124
  23 C :   -0.305342
  24 C :   -0.195913
  25 N :    0.195057
  26 C :   -0.188760
  27 N :    0.168257
  28 C :   -0.069807
  29 C :   -0.182491
  30 S :    0.216014
  31 C :    0.200474
  32 C :   -0.066299
  33 C :   -0.046087
  34 N :   -0.092418
  35 C :    0.057306
  36 C :    0.039669
  37 N :   -0.020034
  38 C :    0.171120
  39 C :   -0.000065
  40 C :   -0.023876
  41 N :   -0.342083
  42 S :    0.581126
  43 N :   -0.279420
  44 C :   -0.166846
  45 C :   -0.069249
  46 C :    0.044221
  47 C :   -0.067159
  48 S :    0.209674
  49 C :   -0.090027
  50 C :   -0.014814
  51 C :    0.313666
  52 C :   -0.300332
  53 C :   -0.190144
  54 N :    0.170872
  55 C :   -0.192003
  56 N :    0.190220
  57 C :    0.011769
  58 C :   -0.111116
  59 S :    0.205106
  60 C :    0.031706
  61 C :   -0.110897
  62 C :    0.171178
  63 O :   -0.146293
  64 C :    0.030659
  65 C :   -0.134419
  66 S :    0.159497
  67 C :   -0.135444
  68 C :    0.030088
  69 C :    0.298167
  70 C :   -0.340854
  71 C :   -0.192892
  72 N :    0.148085
  73 C :   -0.186852
  74 N :    0.151804
  75 H :    0.051798
  76 H :    0.042342
  77 H :    0.004074
  78 H :    0.038687
  79 H :    0.021871
  80 H :    0.025294
  81 H :    0.037827
  82 H :    0.020761
  83 H :    0.035966
  84 H :    0.011541
  85 H :    0.041962
  86 H :    0.051792
Sum of atomic charges:   -0.0000000

LOEWDIN ATOMIC CHARGES
----------------------
   0 C :   -0.064780
   1 C :   -0.150025
   2 S :    0.488357
   3 C :   -0.138300
   4 C :   -0.090734
   5 C :    0.086046
   6 O :   -0.134523
   7 C :   -0.095691
   8 C :    0.077743
   9 C :   -0.146874
  10 C :   -0.014630
  11 N :   -0.057178
  12 C :   -0.025085
  13 N :   -0.054650
  14 C :    0.039908
  15 C :   -0.175637
  16 C :    0.017639
  17 C :   -0.072937
  18 C :   -0.156476
  19 S :    0.496426
  20 C :   -0.193308
  21 C :   -0.059636
  22 C :    0.076749
  23 C :   -0.097247
  24 C :   -0.023848
  25 N :   -0.017081
  26 C :   -0.012127
  27 N :   -0.037768
  28 C :   -0.014724
  29 C :   -0.152533
  30 S :    0.516013
  31 C :   -0.044513
  32 C :   -0.004446
  33 C :   -0.014276
  34 N :   -0.050280
  35 C :    0.027851
  36 C :    0.025260
  37 N :   -0.016883
  38 C :   -0.039700
  39 C :   -0.039091
  40 C :   -0.047067
  41 N :   -0.307653
  42 S :    0.698035
  43 N :   -0.269805
  44 C :   -0.156047
  45 C :   -0.013795
  46 C :   -0.060232
  47 C :   -0.193748
  48 S :    0.512923
  49 C :   -0.157227
  50 C :   -0.071990
  51 C :    0.076373
  52 C :   -0.096855
  53 C :   -0.015136
  54 N :   -0.033326
  55 C :   -0.021942
  56 N :   -0.019805
  57 C :    0.020280
  58 C :   -0.176094
  59 S :    0.493550
  60 C :    0.040708
  61 C :   -0.095379
  62 C :    0.084774
  63 O :   -0.135566
  64 C :   -0.090620
  65 C :   -0.138338
  66 S :    0.488017
  67 C :   -0.150280
  68 C :   -0.064416
  69 C :    0.076972
  70 C :   -0.146190
  71 C :   -0.015021
  72 N :   -0.057098
  73 C :   -0.025337
  74 N :   -0.054747
  75 H :    0.035782
  76 H :    0.037143
  77 H :    0.042566
  78 H :    0.043566
  79 H :    0.036749
  80 H :    0.033190
  81 H :    0.037266
  82 H :    0.038325
  83 H :    0.044476
  84 H :    0.043152
  85 H :    0.037032
  86 H :    0.035822

  Mayer bond orders larger than 0.100000
B(  0-C ,  1-C ) :   1.5290 B(  0-C ,  4-C ) :   1.2243 B(  0-C ,  8-C ) :   0.9935
B(  1-C ,  2-S ) :   1.1820 B(  1-C , 75-H ) :   0.9569 B(  2-S ,  3-C ) :   1.1887
B(  3-C ,  4-C ) :   1.5388 B(  3-C , 76-H ) :   0.9713 B(  4-C ,  5-C ) :   0.9620
B(  5-C ,  6-O ) :   2.1742 B(  5-C ,  7-C ) :   0.9310 B(  7-C ,  8-C ) :   1.0946
B(  7-C , 14-C ) :   1.5974 B(  8-C ,  9-C ) :   1.6250 B(  9-C , 10-C ) :   1.1565
B(  9-C , 12-C ) :   1.1359 B( 10-C , 11-N ) :   2.9871 B( 12-C , 13-N ) :   2.9637
B( 14-C , 15-C ) :   1.2219 B( 14-C , 77-H ) :   0.9091 B( 15-C , 16-C ) :   1.3888
B( 15-C , 19-S ) :   1.0745 B( 16-C , 17-C ) :   1.3211 B( 16-C , 78-H ) :   0.9700
B( 17-C , 18-C ) :   1.3652 B( 17-C , 22-C ) :   0.9927 B( 18-C , 19-S ) :   1.1654
B( 18-C , 20-C ) :   1.2146 B( 20-C , 21-C ) :   1.3913 B( 20-C , 30-S ) :   1.0879
B( 21-C , 22-C ) :   0.9924 B( 21-C , 28-C ) :   1.2660 B( 22-C , 23-C ) :   1.7108
B( 23-C , 24-C ) :   1.1345 B( 23-C , 26-C ) :   1.1431 B( 24-C , 25-N ) :   3.0000
B( 26-C , 27-N ) :   2.9861 B( 28-C , 29-C ) :   1.4030 B( 28-C , 79-H ) :   0.9812
B( 29-C , 30-S ) :   1.1099 B( 29-C , 31-C ) :   1.1900 B( 31-C , 32-C ) :   1.2692
B( 31-C , 38-C ) :   0.1355 B( 31-C , 40-C ) :   1.1990 B( 32-C , 33-C ) :   1.1269
B( 32-C , 37-N ) :   1.4702 B( 33-C , 34-N ) :   1.3919 B( 33-C , 38-C ) :   1.2683
B( 34-N , 35-C ) :   1.6503 B( 35-C , 36-C ) :   1.1918 B( 35-C , 80-H ) :   0.9737
B( 36-C , 37-N ) :   1.6689 B( 36-C , 81-H ) :   0.9753 B( 38-C , 39-C ) :   1.2096
B( 38-C , 44-C ) :   1.2010 B( 39-C , 40-C ) :   1.1079 B( 39-C , 43-N ) :   1.5038
B( 40-C , 41-N ) :   1.4606 B( 41-N , 42-S ) :   1.2739 B( 41-N , 43-N ) :   0.1533
B( 42-S , 43-N ) :   1.2954 B( 44-C , 45-C ) :   1.4082 B( 44-C , 48-S ) :   1.1000
B( 45-C , 46-C ) :   1.2828 B( 45-C , 82-H ) :   0.9838 B( 46-C , 47-C ) :   1.3970
B( 46-C , 51-C ) :   0.9898 B( 47-C , 48-S ) :   1.0612 B( 47-C , 49-C ) :   1.2186
B( 49-C , 50-C ) :   1.3675 B( 49-C , 59-S ) :   1.1630 B( 50-C , 51-C ) :   0.9930
B( 50-C , 57-C ) :   1.3354 B( 51-C , 52-C ) :   1.7125 B( 52-C , 53-C ) :   1.1420
B( 52-C , 55-C ) :   1.1332 B( 53-C , 54-N ) :   2.9837 B( 55-C , 56-N ) :   2.9969
B( 57-C , 58-C ) :   1.3910 B( 57-C , 83-H ) :   0.9726 B( 58-C , 59-S ) :   1.0749
B( 58-C , 60-C ) :   1.2118 B( 60-C , 61-C ) :   1.6003 B( 60-C , 84-H ) :   0.9174
B( 61-C , 62-C ) :   0.9335 B( 61-C , 69-C ) :   1.0892 B( 62-C , 63-O ) :   2.1887
B( 62-C , 64-C ) :   0.9575 B( 64-C , 65-C ) :   1.5412 B( 64-C , 68-C ) :   1.2239
B( 65-C , 66-S ) :   1.1887 B( 65-C , 85-H ) :   0.9703 B( 66-S , 67-C ) :   1.1811
B( 67-C , 68-C ) :   1.5309 B( 67-C , 86-H ) :   0.9567 B( 68-C , 69-C ) :   0.9952
B( 69-C , 70-C ) :   1.6332 B( 70-C , 71-C ) :   1.1497 B( 70-C , 73-C ) :   1.1363
B( 71-C , 72-N ) :   2.9899 B( 73-C , 74-N ) :   2.9741

-----------------------------------------------------------------------------
         ABSORPTION SPECTRUM VIA TRANSITION ELECTRIC DIPOLE MOMENTS
-----------------------------------------------------------------------------
State   Energy  Wavelength   fosc         T2         TX        TY        TZ
        (cm-1)    (nm)                  (au**2)     (au)      (au)      (au)
-----------------------------------------------------------------------------
   0    9217.2   1084.9   1.277275747  45.62065  -5.90819   3.26412   0.24372
   1   13721.9    728.8   0.001245844   0.02989   0.10647  -0.09456   0.09804
   2   14757.1    677.6   0.002526406   0.05636   0.14076   0.13869  -0.13157
   3   17571.8    569.1   0.000680982   0.01276  -0.04383   0.01233   0.10337
   4   20638.6    484.5   1.587210120  25.31808  -3.95161   3.07842  -0.47557
   5   21032.2    475.5   0.002623506   0.04107   0.09685  -0.03186  -0.17513
   6   22575.5    443.0   0.239287253   3.48946  -1.14495   1.37999  -0.52361
   7   23248.6    430.1   0.001445122   0.02046  -0.00924  -0.06132  -0.12891
   8   24638.0    405.9   0.000893239   0.01194  -0.09157   0.05346  -0.02630
   9   24867.1    402.1   0.032853396   0.43494  -0.59629  -0.09071   0.26673
  10   25572.1    391.1   0.003548051   0.04568   0.12527   0.09345  -0.14578
  11   25887.5    386.3   0.040409846   0.51389   0.52172   0.27408  -0.40814
  12   26883.0    372.0   0.003780101   0.04629   0.14245  -0.04173  -0.15575
  13   27529.7    363.2   0.024247023   0.28996   0.39716   0.06525  -0.35772
  14   27722.8    360.7   0.003340729   0.03967   0.07806   0.07150  -0.16872
  15   27915.1    358.2   0.002891290   0.03410  -0.07772   0.01368   0.16694
  16   28057.0    356.4   0.014431584   0.16934  -0.24650   0.01694   0.32907
  17   29177.8    342.7   0.199733041   2.25358  -0.30402  -0.97247   1.10248
  18   29404.4    340.1   0.018045904   0.20204  -0.16496  -0.13232   0.39664
  19   29477.7    339.2   0.015849518   0.17701  -0.20373   0.00580   0.36806
  20   29664.4    337.1   0.088427257   0.98135   0.67110   0.15480  -0.71205
  21   30230.8    330.8   0.135491715   1.47550   0.00883  -1.06824   0.57817
  22   30755.7    325.1   0.023457750   0.25109  -0.02107  -0.45838   0.20134
  23   30941.5    323.2   0.192414378   2.04725  -0.39545   1.27905  -0.50487
  24   31184.4    320.7   0.000660093   0.00697   0.07432  -0.03542   0.01379
  25   31210.3    320.4   0.038218894   0.40314   0.17768  -0.58146   0.18296
  26   31376.0    318.7   0.012542876   0.13161  -0.17533   0.31436   0.04522
  27   31647.3    316.0   0.925170656   9.62412  -2.86007   0.14939   1.19239
  28   32035.8    312.2   0.260201438   2.67393   1.51402  -0.23138  -0.57284
  29   32100.0    311.5   0.038554316   0.39541  -0.58375   0.20523   0.11192
  30   32159.1    311.0   0.034207417   0.35018  -0.14989  -0.41172   0.39774
  31   32560.6    307.1   0.023774976   0.24038  -0.29186   0.00360   0.39394
  32   33134.7    301.8   0.207773770   2.06435   0.81997  -1.16617   0.17905
  33   33640.9    297.3   0.012761784   0.12489  -0.27731  -0.02568   0.21755
  34   33785.9    296.0   0.029624173   0.28866   0.31206   0.20110  -0.38838
  35   33928.5    294.7   0.020272874   0.19671   0.14495   0.03475  -0.41772
  36   33995.3    294.2   0.173439215   1.67959  -0.63730  -0.17914   1.11416
  37   34041.3    293.8   0.010560335   0.10213   0.22248   0.13701  -0.18401
  38   34405.3    290.7   0.008747616   0.08370  -0.03744   0.03098  -0.28520
  39   34496.8    289.9   0.105233961   1.00428  -0.36856  -0.55574   0.74806
  40   34633.5    288.7   0.015083564   0.14338  -0.06181  -0.10826   0.35755
  41   35183.0    284.2   0.031509645   0.29484   0.26796   0.36517  -0.29948
  42   35414.0    282.4   0.038276044   0.35582  -0.07100  -0.49535   0.32467
  43   35468.3    281.9   0.029276161   0.27174  -0.33910  -0.22055   0.32880
  44   35577.2    281.1   0.006385616   0.05909   0.15735   0.09415  -0.15958
  45   35617.0    280.8   0.002315108   0.02140   0.00569  -0.08225   0.12083
  46   35671.6    280.3   0.062904766   0.58055   0.20944   0.58941  -0.43505
  47   35776.2    279.5   0.006463536   0.05948  -0.09745  -0.07863   0.20928
  48   35851.3    278.9   0.414426297   3.80555  -1.11303  -1.05483   1.20584
  49   36212.6    276.1   0.454421099   4.13119   0.57654  -1.73391   0.89014
  50   37010.0    270.2   0.002712883   0.02413   0.11446   0.06073  -0.08569
  51   37048.9    269.9   0.009370695   0.08327  -0.20380  -0.05421   0.19696
  52   37417.8    267.3   0.019530178   0.17183   0.26841  -0.30352   0.08754
  53   37509.5    266.6   0.020177709   0.17709  -0.28778   0.30601  -0.02513
  54   37734.1    265.0   0.015901834   0.13874  -0.20496   0.29223  -0.10642
  55   37774.6    264.7   0.012897055   0.11240   0.24904   0.13188  -0.18162
  56   38013.9    263.1   0.008484922   0.07348  -0.04662   0.26183  -0.05246
  57   38074.6    262.6   0.017037462   0.14731   0.20175  -0.26200   0.19485
  58   38221.6    261.6   0.008053031   0.06936   0.20747  -0.10646  -0.12241
  59   38460.1    260.0   0.239181232   2.04735   0.80048   0.11096  -1.18079
  60   38522.6    259.6   0.017196394   0.14696   0.09637  -0.10815   0.35493
  61   38564.5    259.3   0.218919275   1.86884   0.69660   0.55058  -1.03944
  62   38713.5    258.3   0.320506904   2.72553   0.77941   0.36186  -1.40965
  63   38931.8    256.9   0.170004635   1.43758  -0.55190  -0.74707   0.75820
  64   39196.0    255.1   0.010463194   0.08788  -0.19139  -0.15554   0.16449
  65   39290.9    254.5   0.003874431   0.03246  -0.01628   0.09811  -0.15024
  66   39338.6    254.2   0.356569798   2.98402  -0.34559  -0.77626   1.50400
  67   39795.8    251.3   0.024292508   0.20096   0.01078  -0.21351   0.39403
  68   40070.8    249.6   0.004336204   0.03563  -0.11454   0.14661  -0.03183

FINAL SINGLE POINT ENERGY     -5655.061140006987

DIPOLE MOMENT
-------------
                                X             Y             Z
Electronic contribution:      2.16898       6.11888      -4.59641
Nuclear contribution   :     -2.60901      -6.64843       4.80552
                        -----------------------------------------
Total Dipole Moment    :     -0.44003      -0.52955       0.20911
                        -----------------------------------------
Magnitude (a.u.)       :      0.71956
Magnitude (Debye)      :      1.82899

Rotational constants in cm-1:     0.002814     0.000173     0.000164
Rotational constants in MHz :    84.370447     5.180246     4.904992

                             ****ORCA TERMINATED NORMALLY****
TOTAL RUN TIME: 0 days 0 hours 9 minutes 33 seconds 324 msec
