                         Program Version 4.2.0 -  RELEASE  -
|  1> # ORCA input file
|  2> # SCF done       -208.375115436760          0.000950074958
|  3> ! CAM-B3LYP def2-SVP def2/J RIJCOSX Grid4 TightSCF
|  4> %maxcore 5000
|  5> %tddft
|  6>     Mode sTDDFT
|  7>     Ethresh 5.0
|  8>     maxcore 5000
|  9> end
| 10>
| 11> %pal
| 12>   nprocs 6
| 13>   end
| 14> * xyz 0 1
| 15>    C       -0.48464         3.35597        -2.53862
| 16>    C       -0.79815         4.31579        -3.46244
| 17>    C        0.21757         5.03702        -4.10767
| 18>    C        1.53230         4.78958        -3.82014
| 19>    C        1.89083         3.81075        -2.87130
| 20>    C        3.24725         3.56263        -2.55927
| 21>    C        3.55817         2.61094        -1.62597
| 22>    C        2.52242         1.86021        -0.99600
| 23>    C        1.20452         2.08391        -1.27380
| 24>    C        0.85852         3.07586        -2.21887
| 25>    C        3.12355         0.87503        -0.08277
| 26>    O        2.56717         0.09877         0.65901
| 27>    C        4.59797         0.98516        -0.30119
| 28>    C        4.84219         2.18189        -1.08158
| 29>    C        5.98683         2.93581        -1.09884
| 30>    C        7.14920         2.63081        -0.36534
| 31>    N        8.11376         2.44320         0.22931
| 32>    C        6.10406         4.16854        -1.77562
| 33>    N        6.25456         5.17813        -2.29970
| 34>    C        5.40122        -0.01108         0.15835
| 35>    C        6.73356        -0.30846        -0.21235
| 36>    C        7.41149         0.04598        -1.36882
| 37>    C        8.72243        -0.41413        -1.37121
| 38>    C        9.04971        -1.13580        -0.20716
| 39>    S        7.73519        -1.27102         0.86516
| 40>    C       10.41846        -1.49407        -0.27627
| 41>    C       10.95716        -1.00069        -1.48145
| 42>    C        9.90680        -0.30423        -2.20811
| 43>    C        9.99660         0.36120        -3.39395
| 44>    C       11.17913         0.44397        -4.16162
| 45>    N       12.11458         0.52817        -4.81801
| 46>    C        8.87825         1.02817        -3.94051
| 47>    N        7.96274         1.56626        -4.37340
| 48>    C       12.31770        -1.26418        -1.61783
| 49>    C       12.81630        -1.95094        -0.52198
| 50>    S       11.58156        -2.28697         0.68274
| 51>    C       14.16128        -2.32595        -0.28260
| 52>    C       15.28770        -2.10430        -1.04491
| 53>    C       15.64017        -1.50837        -2.34231
| 54>    O       14.94550        -1.00602        -3.19076
| 55>    N       17.02415        -1.63481        -2.43145
| 56>    C       17.78136        -1.16618        -3.56582
| 57>    C       17.60470        -2.24050        -1.32804
| 58>    O       18.78885        -2.43674        -1.17967
| 59>    C       16.48408        -2.55319        -0.43876
| 60>    C       16.32254        -3.14227         0.79263
| 61>    S       14.61690        -3.14238         1.20608
| 62>    C       17.30032        -3.65349         1.67859
| 63>    C       17.06528        -4.28360         2.89090
| 64>    C       18.25205        -4.60887         3.53885
| 65>    C       19.39213        -4.21082         2.81179
| 66>    S       19.01161        -3.47046         1.32312
| 67>    C       20.54844        -4.53750         3.56548
| 68>    C       20.13027        -5.15186         4.76931
| 69>    C       18.67719        -5.22298         4.78550
| 70>    C       17.87948        -5.74034         5.76322
| 71>    C       18.40410        -6.30034         6.94739
| 72>    N       18.82355        -6.75027         7.91472
| 73>    C       16.47286        -5.74205         5.65403
| 74>    N       15.32979        -5.74191         5.56373
| 75>    C       21.19655        -5.48056         5.58525
| 76>    C       22.42637        -5.09541         5.03879
| 77>    S       22.23437        -4.33240         3.46180
| 78>    C       23.63731        -5.30647         5.72157
| 79>    C       24.90359        -4.88117         5.42081
| 80>    C       26.09377        -5.10489         6.22404
| 81>    C       26.23262        -5.98128         7.26784
| 82>    C       27.42927        -6.15625         7.99474
| 83>    N       28.37029        -6.34086         8.62563
| 84>    C       25.22928        -6.85278         7.74159
| 85>    N       24.46871        -7.59894         8.17014
| 86>    C       27.15225        -4.25853         5.68259
| 87>    C       26.65767        -3.60434         4.51736
| 88>    C       27.42507        -2.74205         3.78866
| 89>    C       28.74886        -2.48022         4.20667
| 90>    C       29.58591        -1.59294         3.50237
| 91>    C       30.86199        -1.34637         3.93163
| 92>    C       31.35633        -1.97777         5.08247
| 93>    C       30.56908        -2.84690         5.78828
| 94>    C       29.25015        -3.12319         5.37529
| 95>    C       28.43267        -4.01814         6.10445
| 96>    C       25.26252        -4.00388         4.29781
| 97>    O       24.54399        -3.65967         3.37403
| 98>    H       -1.26258         2.79726        -2.03915
| 99>    H       -1.83029         4.52414        -3.70128
|100>    H       -0.04719         5.79093        -4.83372
|101>    H        2.31797         5.34447        -4.31127
|102>    H        4.00972         4.12416        -3.07600
|103>    H        0.43433         1.51180        -0.77823
|104>    H        4.93226        -0.69030         0.86397
|105>    H        6.94820         0.58497        -2.17497
|106>    H       12.93395        -0.97457        -2.45158
|107>    H       17.10155        -0.61742        -4.21517
|108>    H       18.21105        -2.00994        -4.10785
|109>    H       18.58838        -0.51677        -3.22657
|110>    H       16.07459        -4.47823         3.26188
|111>    H       21.12100        -5.96462         6.54295
|112>    H       23.51004        -5.85900         6.64520
|113>    H       27.02547        -2.26184         2.90779
|114>    H       29.19916        -1.10945         2.61722
|115>    H       31.49654        -0.66325         3.38720
|116>    H       32.36498        -1.77201         5.40789
|117>    H       30.94601        -3.33589         6.67450
|118>    H       28.84155        -4.48458         6.98651
|119> *
|120>
|121>                          ****END OF INPUT****

CARTESIAN COORDINATES (ANGSTROEM)
---------------------------------
  C     -0.484640    3.355970   -2.538620
  C     -0.798150    4.315790   -3.462440
  C      0.217570    5.037020   -4.107670
  C      1.532300    4.789580   -3.820140
  C      1.890830    3.810750   -2.871300
  C      3.247250    3.562630   -2.559270
  C      3.558170    2.610940   -1.625970
  C      2.522420    1.860210   -0.996000
  C      1.204520    2.083910   -1.273800
  C      0.858520    3.075860   -2.218870
  C      3.123550    0.875030   -0.082770
  O      2.567170    0.098770    0.659010
  C      4.597970    0.985160   -0.301190
  C      4.842190    2.181890   -1.081580
  C      5.986830    2.935810   -1.098840
  C      7.149200    2.630810   -0.365340
  N      8.113760    2.443200    0.229310
  C      6.104060    4.168540   -1.775620
  N      6.254560    5.178130   -2.299700
  C      5.401220   -0.011080    0.158350
  C      6.733560   -0.308460   -0.212350
  C      7.411490    0.045980   -1.368820
  C      8.722430   -0.414130   -1.371210
  C      9.049710   -1.135800   -0.207160
  S      7.735190   -1.271020    0.865160
  C     10.418460   -1.494070   -0.276270
  C     10.957160   -1.000690   -1.481450
  C      9.906800   -0.304230   -2.208110
  C      9.996600    0.361200   -3.393950
  C     11.179130    0.443970   -4.161620
  N     12.114580    0.528170   -4.818010
  C      8.878250    1.028170   -3.940510
  N      7.962740    1.566260   -4.373400
  C     12.317700   -1.264180   -1.617830
  C     12.816300   -1.950940   -0.521980
  S     11.581560   -2.286970    0.682740
  C     14.161280   -2.325950   -0.282600
  C     15.287700   -2.104300   -1.044910
  C     15.640170   -1.508370   -2.342310
  O     14.945500   -1.006020   -3.190760
  N     17.024150   -1.634810   -2.431450
  C     17.781360   -1.166180   -3.565820
  C     17.604700   -2.240500   -1.328040
  O     18.788850   -2.436740   -1.179670
  C     16.484080   -2.553190   -0.438760
  C     16.322540   -3.142270    0.792630
  S     14.616900   -3.142380    1.206080
  C     17.300320   -3.653490    1.678590
  C     17.065280   -4.283600    2.890900
  C     18.252050   -4.608870    3.538850
  C     19.392130   -4.210820    2.811790
  S     19.011610   -3.470460    1.323120
  C     20.548440   -4.537500    3.565480
  C     20.130270   -5.151860    4.769310
  C     18.677190   -5.222980    4.785500
  C     17.879480   -5.740340    5.763220
  C     18.404100   -6.300340    6.947390
  N     18.823550   -6.750270    7.914720
  C     16.472860   -5.742050    5.654030
  N     15.329790   -5.741910    5.563730
  C     21.196550   -5.480560    5.585250
  C     22.426370   -5.095410    5.038790
  S     22.234370   -4.332400    3.461800
  C     23.637310   -5.306470    5.721570
  C     24.903590   -4.881170    5.420810
  C     26.093770   -5.104890    6.224040
  C     26.232620   -5.981280    7.267840
  C     27.429270   -6.156250    7.994740
  N     28.370290   -6.340860    8.625630
  C     25.229280   -6.852780    7.741590
  N     24.468710   -7.598940    8.170140
  C     27.152250   -4.258530    5.682590
  C     26.657670   -3.604340    4.517360
  C     27.425070   -2.742050    3.788660
  C     28.748860   -2.480220    4.206670
  C     29.585910   -1.592940    3.502370
  C     30.861990   -1.346370    3.931630
  C     31.356330   -1.977770    5.082470
  C     30.569080   -2.846900    5.788280
  C     29.250150   -3.123190    5.375290
  C     28.432670   -4.018140    6.104450
  C     25.262520   -4.003880    4.297810
  O     24.543990   -3.659670    3.374030
  H     -1.262580    2.797260   -2.039150
  H     -1.830290    4.524140   -3.701280
  H     -0.047190    5.790930   -4.833720
  H      2.317970    5.344470   -4.311270
  H      4.009720    4.124160   -3.076000
  H      0.434330    1.511800   -0.778230
  H      4.932260   -0.690300    0.863970
  H      6.948200    0.584970   -2.174970
  H     12.933950   -0.974570   -2.451580
  H     17.101550   -0.617420   -4.215170
  H     18.211050   -2.009940   -4.107850
  H     18.588380   -0.516770   -3.226570
  H     16.074590   -4.478230    3.261880
  H     21.121000   -5.964620    6.542950
  H     23.510040   -5.859000    6.645200
  H     27.025470   -2.261840    2.907790
  H     29.199160   -1.109450    2.617220
  H     31.496540   -0.663250    3.387200
  H     32.364980   -1.772010    5.407890
  H     30.946010   -3.335890    6.674500
  H     28.841550   -4.484580    6.986510

 Total Charge           Charge          ....    0
 Multiplicity           Mult            ....    1
 Number of Electrons    NEL             ....  586
 Basis Dimension        Dim             .... 1287

ORBITAL ENERGIES
----------------

  NO   OCC          E(Eh)            E(eV)
   0   2.0000     -89.002069     -2421.8694
   1   2.0000     -88.999507     -2421.7997
   2   2.0000     -88.996028     -2421.7050
   3   2.0000     -88.995314     -2421.6856
   4   2.0000     -88.992961     -2421.6216
   5   2.0000     -19.227327      -523.2022
   6   2.0000     -19.225838      -523.1616
   7   2.0000     -19.224945      -523.1374
   8   2.0000     -19.216882      -522.9179
   9   2.0000     -14.469766      -393.7423
  10   2.0000     -14.435259      -392.8034
  11   2.0000     -14.435058      -392.7979
  12   2.0000     -14.432723      -392.7344
  13   2.0000     -14.430238      -392.6667
  14   2.0000     -14.419974      -392.3874
  15   2.0000     -14.417891      -392.3308
  16   2.0000     -14.415437      -392.2640
  17   2.0000     -14.414934      -392.2503
  18   2.0000     -10.408228      -283.2223
  19   2.0000     -10.407740      -283.2090
  20   2.0000     -10.374997      -282.3180
  21   2.0000     -10.370517      -282.1961
  22   2.0000     -10.368765      -282.1484
  23   2.0000     -10.368088      -282.1300
  24   2.0000     -10.357662      -281.8463
  25   2.0000     -10.356619      -281.8179
  26   2.0000     -10.354993      -281.7737
  27   2.0000     -10.353393      -281.7301
  28   2.0000     -10.345658      -281.5197
  29   2.0000     -10.345283      -281.5095
  30   2.0000     -10.344490      -281.4879
  31   2.0000     -10.344291      -281.4825
  32   2.0000     -10.343764      -281.4681
  33   2.0000     -10.343144      -281.4513
  34   2.0000     -10.341133      -281.3965
  35   2.0000     -10.340211      -281.3715
  36   2.0000     -10.336349      -281.2664
  37   2.0000     -10.336098      -281.2595
  38   2.0000     -10.335521      -281.2438
  39   2.0000     -10.335267      -281.2369
  40   2.0000     -10.332571      -281.1635
  41   2.0000     -10.331915      -281.1457
  42   2.0000     -10.330490      -281.1069
  43   2.0000     -10.330080      -281.0958
  44   2.0000     -10.328991      -281.0661
  45   2.0000     -10.327603      -281.0284
  46   2.0000     -10.321495      -280.8622
  47   2.0000     -10.320344      -280.8308
  48   2.0000     -10.318401      -280.7780
  49   2.0000     -10.317325      -280.7487
  50   2.0000     -10.315786      -280.7068
  51   2.0000     -10.314596      -280.6744
  52   2.0000     -10.314417      -280.6696
  53   2.0000     -10.313791      -280.6525
  54   2.0000     -10.313766      -280.6519
  55   2.0000     -10.311941      -280.6022
  56   2.0000     -10.311768      -280.5975
  57   2.0000     -10.309355      -280.5318
  58   2.0000     -10.309007      -280.5223
  59   2.0000     -10.308239      -280.5014
  60   2.0000     -10.308185      -280.5000
  61   2.0000     -10.305693      -280.4322
  62   2.0000     -10.304429      -280.3978
  63   2.0000     -10.303888      -280.3830
  64   2.0000     -10.302948      -280.3575
  65   2.0000     -10.300826      -280.2997
  66   2.0000     -10.300500      -280.2908
  67   2.0000     -10.300244      -280.2839
  68   2.0000     -10.299320      -280.2587
  69   2.0000     -10.298499      -280.2364
  70   2.0000     -10.298380      -280.2332
  71   2.0000     -10.298101      -280.2256
  72   2.0000     -10.297326      -280.2045
  73   2.0000     -10.292528      -280.0739
  74   2.0000     -10.290672      -280.0234
  75   2.0000     -10.289287      -279.9857
  76   2.0000     -10.288809      -279.9727
  77   2.0000     -10.288376      -279.9609
  78   2.0000     -10.287834      -279.9462
  79   2.0000     -10.287035      -279.9244
  80   2.0000     -10.286547      -279.9112
  81   2.0000     -10.286118      -279.8995
  82   2.0000     -10.285514      -279.8831
  83   2.0000      -8.096836      -220.3261
  84   2.0000      -8.094101      -220.2517
  85   2.0000      -8.090391      -220.1507
  86   2.0000      -8.089561      -220.1282
  87   2.0000      -8.085280      -220.0116
  88   2.0000      -6.066094      -165.0668
  89   2.0000      -6.063286      -164.9904
  90   2.0000      -6.061899      -164.9527
  91   2.0000      -6.060037      -164.9020
  92   2.0000      -6.059161      -164.8782
  93   2.0000      -6.059101      -164.8765
  94   2.0000      -6.058868      -164.8702
  95   2.0000      -6.056615      -164.8089
  96   2.0000      -6.055644      -164.7825
  97   2.0000      -6.054670      -164.7560
  98   2.0000      -6.054402      -164.7486
  99   2.0000      -6.052000      -164.6833
 100   2.0000      -6.051946      -164.6818
 101   2.0000      -6.049899      -164.6261
 102   2.0000      -6.047898      -164.5717
 103   2.0000      -1.172102       -31.8945
 104   2.0000      -1.148784       -31.2600
 105   2.0000      -1.142865       -31.0989
 106   2.0000      -1.132282       -30.8110
 107   2.0000      -1.064006       -28.9531
 108   2.0000      -1.054347       -28.6902
 109   2.0000      -1.051057       -28.6007
 110   2.0000      -1.028412       -27.9845
 111   2.0000      -1.025954       -27.9176
 112   2.0000      -1.023964       -27.8635
 113   2.0000      -1.020737       -27.7757
 114   2.0000      -1.020182       -27.7606
 115   2.0000      -1.011545       -27.5255
 116   2.0000      -1.009587       -27.4722
 117   2.0000      -1.007405       -27.4129
 118   2.0000      -1.001640       -27.2560
 119   2.0000      -1.000586       -27.2273
 120   2.0000      -0.998575       -27.1726
 121   2.0000      -0.995024       -27.0760
 122   2.0000      -0.994194       -27.0534
 123   2.0000      -0.975113       -26.5342
 124   2.0000      -0.973563       -26.4920
 125   2.0000      -0.966777       -26.3073
 126   2.0000      -0.962855       -26.2006
 127   2.0000      -0.932225       -25.3671
 128   2.0000      -0.930024       -25.3072
 129   2.0000      -0.923976       -25.1427
 130   2.0000      -0.920771       -25.0554
 131   2.0000      -0.907988       -24.7076
 132   2.0000      -0.905943       -24.6520
 133   2.0000      -0.899450       -24.4753
 134   2.0000      -0.888523       -24.1779
 135   2.0000      -0.884102       -24.0576
 136   2.0000      -0.882512       -24.0144
 137   2.0000      -0.880408       -23.9571
 138   2.0000      -0.880385       -23.9565
 139   2.0000      -0.869142       -23.6506
 140   2.0000      -0.865438       -23.5498
 141   2.0000      -0.863041       -23.4845
 142   2.0000      -0.858171       -23.3520
 143   2.0000      -0.831359       -22.6224
 144   2.0000      -0.829221       -22.5643
 145   2.0000      -0.825161       -22.4538
 146   2.0000      -0.816179       -22.2094
 147   2.0000      -0.811209       -22.0741
 148   2.0000      -0.797395       -21.6982
 149   2.0000      -0.787037       -21.4164
 150   2.0000      -0.781997       -21.2792
 151   2.0000      -0.780686       -21.2435
 152   2.0000      -0.766041       -20.8450
 153   2.0000      -0.764590       -20.8055
 154   2.0000      -0.758095       -20.6288
 155   2.0000      -0.746959       -20.3258
 156   2.0000      -0.728398       -19.8207
 157   2.0000      -0.719024       -19.5656
 158   2.0000      -0.711267       -19.3546
 159   2.0000      -0.708201       -19.2711
 160   2.0000      -0.707342       -19.2477
 161   2.0000      -0.703004       -19.1297
 162   2.0000      -0.702551       -19.1174
 163   2.0000      -0.701096       -19.0778
 164   2.0000      -0.694145       -18.8887
 165   2.0000      -0.690876       -18.7997
 166   2.0000      -0.688242       -18.7280
 167   2.0000      -0.685850       -18.6629
 168   2.0000      -0.679046       -18.4778
 169   2.0000      -0.676443       -18.4069
 170   2.0000      -0.664174       -18.0731
 171   2.0000      -0.657652       -17.8956
 172   2.0000      -0.644175       -17.5289
 173   2.0000      -0.642888       -17.4939
 174   2.0000      -0.638610       -17.3775
 175   2.0000      -0.633184       -17.2298
 176   2.0000      -0.632567       -17.2130
 177   2.0000      -0.624993       -17.0069
 178   2.0000      -0.624183       -16.9849
 179   2.0000      -0.623035       -16.9536
 180   2.0000      -0.610362       -16.6088
 181   2.0000      -0.609045       -16.5730
 182   2.0000      -0.607646       -16.5349
 183   2.0000      -0.606067       -16.4919
 184   2.0000      -0.597336       -16.2543
 185   2.0000      -0.596171       -16.2226
 186   2.0000      -0.592038       -16.1102
 187   2.0000      -0.581535       -15.8244
 188   2.0000      -0.576688       -15.6925
 189   2.0000      -0.570061       -15.5121
 190   2.0000      -0.564640       -15.3646
 191   2.0000      -0.559630       -15.2283
 192   2.0000      -0.557047       -15.1580
 193   2.0000      -0.554667       -15.0933
 194   2.0000      -0.553764       -15.0687
 195   2.0000      -0.551081       -14.9957
 196   2.0000      -0.549820       -14.9614
 197   2.0000      -0.547552       -14.8997
 198   2.0000      -0.546528       -14.8718
 199   2.0000      -0.543399       -14.7866
 200   2.0000      -0.540938       -14.7197
 201   2.0000      -0.538070       -14.6416
 202   2.0000      -0.536901       -14.6098
 203   2.0000      -0.533737       -14.5237
 204   2.0000      -0.530480       -14.4351
 205   2.0000      -0.529385       -14.4053
 206   2.0000      -0.527911       -14.3652
 207   2.0000      -0.523663       -14.2496
 208   2.0000      -0.521306       -14.1855
 209   2.0000      -0.520313       -14.1584
 210   2.0000      -0.518164       -14.0999
 211   2.0000      -0.513184       -13.9644
 212   2.0000      -0.512636       -13.9495
 213   2.0000      -0.510817       -13.9000
 214   2.0000      -0.510366       -13.8878
 215   2.0000      -0.509716       -13.8701
 216   2.0000      -0.508591       -13.8395
 217   2.0000      -0.505353       -13.7514
 218   2.0000      -0.504476       -13.7275
 219   2.0000      -0.500841       -13.6286
 220   2.0000      -0.499603       -13.5949
 221   2.0000      -0.498115       -13.5544
 222   2.0000      -0.496509       -13.5107
 223   2.0000      -0.493164       -13.4197
 224   2.0000      -0.493006       -13.4154
 225   2.0000      -0.489856       -13.3297
 226   2.0000      -0.488419       -13.2906
 227   2.0000      -0.486918       -13.2497
 228   2.0000      -0.485754       -13.2180
 229   2.0000      -0.484491       -13.1837
 230   2.0000      -0.481523       -13.1029
 231   2.0000      -0.477815       -13.0020
 232   2.0000      -0.473931       -12.8963
 233   2.0000      -0.471642       -12.8340
 234   2.0000      -0.468924       -12.7601
 235   2.0000      -0.466045       -12.6817
 236   2.0000      -0.465128       -12.6568
 237   2.0000      -0.464223       -12.6321
 238   2.0000      -0.460070       -12.5191
 239   2.0000      -0.459636       -12.5073
 240   2.0000      -0.453493       -12.3402
 241   2.0000      -0.453035       -12.3277
 242   2.0000      -0.450877       -12.2690
 243   2.0000      -0.449256       -12.2249
 244   2.0000      -0.447158       -12.1678
 245   2.0000      -0.446326       -12.1451
 246   2.0000      -0.444179       -12.0867
 247   2.0000      -0.444033       -12.0827
 248   2.0000      -0.443330       -12.0636
 249   2.0000      -0.442271       -12.0348
 250   2.0000      -0.441686       -12.0189
 251   2.0000      -0.440916       -11.9979
 252   2.0000      -0.439944       -11.9715
 253   2.0000      -0.439417       -11.9571
 254   2.0000      -0.437893       -11.9157
 255   2.0000      -0.437203       -11.8969
 256   2.0000      -0.434182       -11.8147
 257   2.0000      -0.433174       -11.7873
 258   2.0000      -0.432949       -11.7811
 259   2.0000      -0.428982       -11.6732
 260   2.0000      -0.428007       -11.6467
 261   2.0000      -0.427842       -11.6422
 262   2.0000      -0.427586       -11.6352
 263   2.0000      -0.425360       -11.5746
 264   2.0000      -0.419796       -11.4232
 265   2.0000      -0.417437       -11.3590
 266   2.0000      -0.411200       -11.1893
 267   2.0000      -0.408975       -11.1288
 268   2.0000      -0.406814       -11.0700
 269   2.0000      -0.404814       -11.0156
 270   2.0000      -0.398424       -10.8417
 271   2.0000      -0.386339       -10.5128
 272   2.0000      -0.380550       -10.3553
 273   2.0000      -0.376279       -10.2391
 274   2.0000      -0.374620       -10.1939
 275   2.0000      -0.368109       -10.0168
 276   2.0000      -0.364969        -9.9313
 277   2.0000      -0.358761        -9.7624
 278   2.0000      -0.357218        -9.7204
 279   2.0000      -0.354644        -9.6504
 280   2.0000      -0.346965        -9.4414
 281   2.0000      -0.344387        -9.3712
 282   2.0000      -0.342420        -9.3177
 283   2.0000      -0.337562        -9.1855
 284   2.0000      -0.328763        -8.9461
 285   2.0000      -0.326632        -8.8881
 286   2.0000      -0.320419        -8.7191
 287   2.0000      -0.318821        -8.6756
 288   2.0000      -0.314059        -8.5460
 289   2.0000      -0.297605        -8.0982
 290   2.0000      -0.295403        -8.0383
 291   2.0000      -0.279014        -7.5924
 292   2.0000      -0.256338        -6.9753
 293   0.0000      -0.119133        -3.2418
 294   0.0000      -0.112056        -3.0492
 295   0.0000      -0.092504        -2.5172
 296   0.0000      -0.091642        -2.4937
 297   0.0000      -0.067820        -1.8455

MULLIKEN ATOMIC CHARGES
-----------------------
   0 C :   -0.015161
   1 C :    0.035569
   2 C :    0.034789
   3 C :   -0.014112
   4 C :    0.091877
   5 C :   -0.073355
   6 C :    0.026152
   7 C :    0.018562
   8 C :   -0.079190
   9 C :    0.091861
  10 C :    0.133463
  11 O :   -0.142390
  12 C :   -0.131407
  13 C :    0.271731
  14 C :   -0.336284
  15 C :   -0.195975
  16 N :    0.165675
  17 C :   -0.170818
  18 N :    0.161375
  19 C :    0.076112
  20 C :   -0.113256
  21 C :   -0.005114
  22 C :   -0.002977
  23 C :   -0.073816
  24 S :    0.219232
  25 C :   -0.097016
  26 C :    0.024702
  27 C :    0.314332
  28 C :   -0.292680
  29 C :   -0.196093
  30 N :    0.201103
  31 C :   -0.187210
  32 N :    0.170647
  33 C :   -0.056147
  34 C :   -0.070850
  35 S :    0.197639
  36 C :   -0.093190
  37 C :   -0.016191
  38 C :    0.199829
  39 O :   -0.153635
  40 N :   -0.305602
  41 C :    0.134310
  42 C :    0.186261
  43 O :   -0.178830
  44 C :   -0.025090
  45 C :   -0.089743
  46 S :    0.164431
  47 C :   -0.073617
  48 C :   -0.077496
  49 C :    0.033430
  50 C :   -0.093625
  51 S :    0.252809
  52 C :   -0.074310
  53 C :    0.043141
  54 C :    0.304763
  55 C :   -0.295230
  56 C :   -0.193323
  57 N :    0.186343
  58 C :   -0.189635
  59 N :    0.168081
  60 C :   -0.052384
  61 C :   -0.057677
  62 S :    0.252766
  63 C :   -0.026667
  64 C :   -0.094652
  65 C :    0.321051
  66 C :   -0.344208
  67 C :   -0.181399
  68 N :    0.148363
  69 C :   -0.200279
  70 N :    0.156073
  71 C :    0.046036
  72 C :   -0.003197
  73 C :   -0.079226
  74 C :    0.097409
  75 C :   -0.014881
  76 C :    0.034077
  77 C :    0.038317
  78 C :   -0.019241
  79 C :    0.095874
  80 C :   -0.081671
  81 C :    0.171963
  82 O :   -0.191426
  83 H :   -0.017279
  84 H :   -0.005078
  85 H :   -0.003253
  86 H :   -0.008138
  87 H :   -0.000029
  88 H :   -0.011435
  89 H :    0.023954
  90 H :    0.026555
  91 H :    0.029641
  92 H :    0.062106
  93 H :    0.041972
  94 H :    0.043514
  95 H :    0.014230
  96 H :    0.025943
  97 H :    0.021335
  98 H :   -0.013411
  99 H :   -0.017694
 100 H :   -0.003225
 101 H :   -0.003874
 102 H :   -0.008321
 103 H :   -0.007385
Sum of atomic charges:   -0.0000000

LOEWDIN ATOMIC CHARGES
----------------------
   0 C :   -0.009178
   1 C :   -0.012257
   2 C :   -0.012209
   3 C :   -0.004717
   4 C :   -0.004857
   5 C :    0.019836
   6 C :   -0.023140
   7 C :   -0.058123
   8 C :    0.033533
   9 C :   -0.008963
  10 C :    0.083412
  11 O :   -0.143095
  12 C :   -0.085819
  13 C :    0.066289
  14 C :   -0.135264
  15 C :   -0.015135
  16 N :   -0.048933
  17 C :   -0.018311
  18 N :   -0.045764
  19 C :    0.041542
  20 C :   -0.178331
  21 C :    0.005122
  22 C :   -0.060152
  23 C :   -0.165059
  24 S :    0.501830
  25 C :   -0.174082
  26 C :   -0.059775
  27 C :    0.078056
  28 C :   -0.089848
  29 C :   -0.024886
  30 N :   -0.010846
  31 C :   -0.011300
  32 N :   -0.031884
  33 C :   -0.003370
  34 C :   -0.188215
  35 S :    0.478486
  36 C :   -0.141668
  37 C :   -0.094567
  38 C :    0.094207
  39 O :   -0.148314
  40 N :   -0.033295
  41 C :    0.038011
  42 C :    0.083604
  43 O :   -0.174368
  44 C :   -0.101563
  45 C :   -0.145054
  46 S :    0.448892
  47 C :   -0.182504
  48 C :   -0.028741
  49 C :   -0.060111
  50 C :   -0.184122
  51 S :    0.542510
  52 C :   -0.169509
  53 C :   -0.076459
  54 C :    0.078596
  55 C :   -0.102614
  56 C :   -0.020259
  57 N :   -0.024565
  58 C :   -0.015766
  59 N :   -0.034749
  60 C :    0.010919
  61 C :   -0.182418
  62 S :    0.556225
  63 C :    0.056381
  64 C :   -0.106758
  65 C :    0.076311
  66 C :   -0.139951
  67 C :   -0.017253
  68 N :   -0.052879
  69 C :   -0.024196
  70 N :   -0.048102
  71 C :   -0.024785
  72 C :   -0.056107
  73 C :    0.033174
  74 C :   -0.009068
  75 C :   -0.009138
  76 C :   -0.011943
  77 C :   -0.012086
  78 C :   -0.004800
  79 C :   -0.005800
  80 C :    0.020597
  81 C :    0.086522
  82 O :   -0.175175
  83 H :    0.031842
  84 H :    0.032827
  85 H :    0.033613
  86 H :    0.035340
  87 H :    0.040588
  88 H :    0.039482
  89 H :    0.046540
  90 H :    0.042828
  91 H :    0.043650
  92 H :    0.041436
  93 H :    0.033554
  94 H :    0.035125
  95 H :    0.037105
  96 H :    0.047615
  97 H :    0.054126
  98 H :    0.038954
  99 H :    0.031847
 100 H :    0.033321
 101 H :    0.033672
 102 H :    0.035193
 103 H :    0.039489

  Mayer bond orders larger than 0.100000
B(  0-C ,  1-C ) :   1.4915 B(  0-C ,  9-C ) :   1.2449 B(  0-C , 83-H ) :   0.9973
B(  1-C ,  2-C ) :   1.2585 B(  1-C , 84-H ) :   0.9893 B(  2-C ,  3-C ) :   1.4901
B(  2-C , 85-H ) :   0.9893 B(  3-C ,  4-C ) :   1.2409 B(  3-C , 86-H ) :   0.9977
B(  4-C ,  5-C ) :   1.2079 B(  4-C ,  9-C ) :   1.2548 B(  5-C ,  6-C ) :   1.4599
B(  5-C , 87-H ) :   0.9930 B(  6-C ,  7-C ) :   1.2140 B(  6-C , 13-C ) :   1.0002
B(  7-C ,  8-C ) :   1.4734 B(  7-C , 10-C ) :   0.9231 B(  8-C ,  9-C ) :   1.1875
B(  8-C , 88-H ) :   1.0155 B( 10-C , 11-O ) :   2.2691 B( 10-C , 12-C ) :   0.9374
B( 12-C , 13-C ) :   1.0285 B( 12-C , 19-C ) :   1.6862 B( 13-C , 14-C ) :   1.6526
B( 14-C , 15-C ) :   1.1731 B( 14-C , 17-C ) :   1.1285 B( 15-C , 16-N ) :   2.9954
B( 17-C , 18-N ) :   2.9930 B( 19-C , 20-C ) :   1.1168 B( 19-C , 89-H ) :   0.9298
B( 20-C , 21-C ) :   1.4070 B( 20-C , 24-S ) :   1.0960 B( 21-C , 22-C ) :   1.3491
B( 21-C , 90-H ) :   0.9818 B( 22-C , 23-C ) :   1.4207 B( 22-C , 27-C ) :   0.9972
B( 23-C , 24-S ) :   1.1469 B( 23-C , 25-C ) :   1.1956 B( 25-C , 26-C ) :   1.4229
B( 25-C , 35-S ) :   1.1340 B( 26-C , 27-C ) :   0.9911 B( 26-C , 33-C ) :   1.2854
B( 27-C , 28-C ) :   1.7194 B( 28-C , 29-C ) :   1.1351 B( 28-C , 31-C ) :   1.1368
B( 29-C , 30-N ) :   3.0044 B( 31-C , 32-N ) :   2.9805 B( 33-C , 34-C ) :   1.4688
B( 33-C , 91-H ) :   0.9728 B( 34-C , 35-S ) :   1.0871 B( 34-C , 36-C ) :   1.1543
B( 36-C , 37-C ) :   1.5679 B( 36-C , 46-S ) :   1.1084 B( 37-C , 38-C ) :   0.9009
B( 37-C , 44-C ) :   1.2407 B( 38-C , 39-O ) :   2.1195 B( 38-C , 40-N ) :   1.0809
B( 40-N , 41-C ) :   0.9354 B( 40-N , 42-C ) :   1.0915 B( 41-C , 92-H ) :   0.9605
B( 41-C , 93-H ) :   0.9783 B( 41-C , 94-H ) :   0.9727 B( 42-C , 43-O ) :   2.1488
B( 42-C , 44-C ) :   0.9006 B( 44-C , 45-C ) :   1.5264 B( 45-C , 46-S ) :   1.1185
B( 45-C , 47-C ) :   1.1861 B( 47-C , 48-C ) :   1.4153 B( 47-C , 51-S ) :   1.1257
B( 48-C , 49-C ) :   1.3149 B( 48-C , 95-H ) :   0.9920 B( 49-C , 50-C ) :   1.4095
B( 49-C , 54-C ) :   0.9946 B( 50-C , 51-S ) :   1.1108 B( 50-C , 52-C ) :   1.1952
B( 52-C , 53-C ) :   1.3589 B( 52-C , 62-S ) :   1.1323 B( 53-C , 54-C ) :   0.9861
B( 53-C , 60-C ) :   1.3331 B( 54-C , 55-C ) :   1.7163 B( 55-C , 56-C ) :   1.1340
B( 55-C , 58-C ) :   1.1328 B( 56-C , 57-N ) :   2.9966 B( 58-C , 59-N ) :   2.9900
B( 60-C , 61-C ) :   1.3321 B( 60-C , 96-H ) :   1.0075 B( 61-C , 62-S ) :   1.0766
B( 61-C , 63-C ) :   1.2598 B( 63-C , 64-C ) :   1.5048 B( 63-C , 97-H ) :   0.9440
B( 64-C , 65-C ) :   1.0665 B( 64-C , 81-C ) :   0.9806 B( 65-C , 66-C ) :   1.6343
B( 65-C , 71-C ) :   0.9863 B( 66-C , 67-C ) :   1.1460 B( 66-C , 69-C ) :   1.1411
B( 67-C , 68-N ) :   2.9646 B( 69-C , 70-N ) :   2.9761 B( 71-C , 72-C ) :   1.2141
B( 71-C , 80-C ) :   1.4543 B( 72-C , 73-C ) :   1.4664 B( 72-C , 81-C ) :   0.9655
B( 73-C , 74-C ) :   1.1760 B( 73-C , 98-H ) :   1.0177 B( 74-C , 75-C ) :   1.2440
B( 74-C , 79-C ) :   1.2590 B( 75-C , 76-C ) :   1.4862 B( 75-C , 99-H ) :   0.9984
B( 76-C , 77-C ) :   1.2616 B( 76-C ,100-H ) :   0.9893 B( 77-C , 78-C ) :   1.4868
B( 77-C ,101-H ) :   0.9885 B( 78-C , 79-C ) :   1.2408 B( 78-C ,102-H ) :   0.9983
B( 79-C , 80-C ) :   1.2001 B( 80-C ,103-H ) :   0.9912 B( 81-C , 82-O ) :   2.1078

-----------------------------------------------------------------------------
         ABSORPTION SPECTRUM VIA TRANSITION ELECTRIC DIPOLE MOMENTS
-----------------------------------------------------------------------------
State   Energy  Wavelength   fosc         T2         TX        TY        TZ
        (cm-1)    (nm)                  (au**2)     (au)      (au)      (au)
-----------------------------------------------------------------------------
   0   13622.9    734.1   0.769139033  18.58701  -3.95002   1.32948  -1.10311
   1   14695.5    680.5   0.089150792   1.99717   1.05206  -0.05870   0.94175
   2   19596.2    510.3   1.673150075  28.10856   4.78597  -1.79385   1.40897
   3   21124.6    473.4   0.363526855   5.66531  -1.70461  -0.58392  -1.55520
   4   22280.1    448.8   0.015250044   0.22534  -0.23958   0.39762   0.09917
   5   23586.2    424.0   0.060746064   0.84788  -0.87539   0.23340  -0.16463
   6   24998.0    400.0   0.009653228   0.12713  -0.33691  -0.05199  -0.10450
   7   26022.8    384.3   0.029889623   0.37813   0.15477   0.51853  -0.29208
   8   26135.1    382.6   0.305828286   3.85239   1.77527  -0.38472   0.74350
   9   27466.1    364.1   0.008583058   0.10288  -0.16088  -0.27172  -0.05625
  10   27726.9    360.7   0.022392469   0.26587  -0.35962   0.34513  -0.13203
  11   28112.6    355.7   0.068857018   0.80635   0.79185   0.22490  -0.35881
  12   28398.1    352.1   0.008008737   0.09284  -0.02701   0.24131   0.18407
  13   28519.3    350.6   0.085445395   0.98634  -0.66953  -0.53758   0.49907
  14   29000.7    344.8   0.110991803   1.25996  -0.91024  -0.30425   0.58211
  15   29151.4    343.0   0.010974491   0.12394  -0.20513   0.13201  -0.25384
  16   29647.7    337.3   0.001922377   0.02135   0.03202  -0.13826   0.03472
  17   29761.7    336.0   0.177024169   1.95817   0.11388   0.27948  -1.36642
  18   30000.9    333.3   0.268611482   2.94758  -0.81199   0.89457  -1.21984
  19   30361.9    329.4   0.058586012   0.63524  -0.17238  -0.65091   0.42644
  20   30625.5    326.5   0.675235720   7.25851  -2.42916  -0.53196   1.03668
  21   30931.5    323.3   0.055165830   0.58714   0.05642  -0.11918   0.75482
  22   31079.2    321.8   0.095762003   1.01438   0.63396  -0.58190   0.52332
  23   31702.1    315.4   0.064992037   0.67491   0.70756   0.25326  -0.33186
  24   32044.3    312.1   0.059003805   0.60618  -0.73236   0.17832  -0.19503
  25   32430.7    308.3   0.381079710   3.86843   0.86733  -1.25676   1.23964
  26   32715.7    305.7   0.019918362   0.20043   0.40009  -0.07555  -0.18616
  27   33038.7    302.7   0.880580396   8.77448   2.59727   1.23515  -0.70926
  28   33677.0    296.9   0.054319081   0.53100  -0.66653   0.17451  -0.23724
  29   33961.7    294.4   0.054716047   0.53040  -0.71011   0.15691   0.03894
  30   34095.9    293.3   0.110334842   1.06533  -0.51348   0.35952  -0.82001
  31   34253.8    291.9   0.089031206   0.85567   0.60562   0.31208  -0.62571
  32   34343.2    291.2   0.206521551   1.97970  -0.96968   0.20201  -0.99931
  33   34641.1    288.7   0.345743870   3.28578  -1.36108  -0.57668   1.04914
  34   34686.2    288.3   0.033344609   0.31648   0.35536   0.35643  -0.25131
  35   34952.4    286.1   0.180096375   1.69631   0.52491  -0.43719   1.10889
  36   35030.7    285.5   0.309479469   2.90843  -1.57104  -0.32785   0.57687
  37   35126.2    284.7   0.090337870   0.84667   0.88536   0.02837  -0.24901
  38   35253.2    283.7   0.008032690   0.07501  -0.09986  -0.21554   0.13632
  39   35674.8    280.3   0.044259878   0.40844  -0.46565  -0.24920   0.35987
  40   35800.4    279.3   0.280076197   2.57551   0.66338   0.97707  -1.08663
  41   36056.3    277.3   0.041115210   0.37540  -0.05685   0.41772  -0.44461
  42   36164.6    276.5   0.033876756   0.30839  -0.29293   0.34260  -0.32435
  43   36351.1    275.1   0.048881235   0.44269   0.52701   0.07768   0.39865
  44   36375.6    274.9   0.066872823   0.60522  -0.71669   0.17908  -0.24394
  45   36517.3    273.8   0.001014263   0.00914   0.05680  -0.06737  -0.03714
  46   36718.2    272.3   0.007214249   0.06468  -0.20516  -0.04177  -0.14438
  47   36966.8    270.5   0.003177352   0.02830  -0.16018  -0.03992  -0.03232
  48   37200.6    268.8   0.002951064   0.02612   0.02954  -0.07263   0.14131
  49   37389.3    267.5   0.126850988   1.11692   0.21425   0.73521  -0.72834
  50   37826.8    264.4   0.105003622   0.91386  -0.35212  -0.62307   0.63376
  51   37937.5    263.6   0.046069529   0.39978   0.54424  -0.06296   0.31562
  52   38335.4    260.9   0.041523383   0.35659   0.44001  -0.37255   0.15551
  53   38410.7    260.3   0.077783083   0.66667   0.50425  -0.28226   0.57682
  54   38602.4    259.1   0.046759484   0.39878   0.31470  -0.21076   0.50529
  55   38718.6    258.3   0.010279789   0.08741   0.26731   0.04199   0.11911
  56   38909.8    257.0   0.138012323   1.16771  -0.72402   0.43491  -0.67406
  57   39159.0    255.4   0.045425716   0.38190  -0.50148   0.32578  -0.15583
  58   39263.4    254.7   0.015434411   0.12941   0.19193  -0.22177   0.20830
  59   39470.8    253.4   0.127119460   1.06026  -0.38651   0.41307  -0.86037
  60   39527.0    253.0   0.069544395   0.57922   0.32516  -0.51778   0.45321
  61   39689.9    252.0   0.046953378   0.38946  -0.52612  -0.08014  -0.32593
  62   39826.6    251.1   0.115709935   0.95647   0.41885   0.67240  -0.57351
  63   40074.8    249.5   0.023786856   0.19541  -0.24685  -0.36498  -0.03554

FINAL SINGLE POINT ENERGY     -5269.294438084082

DIPOLE MOMENT
-------------
                                X             Y             Z
Electronic contribution:     -5.67539     -24.35824      14.19115
Nuclear contribution   :      5.30031      25.49434     -16.33979
                        -----------------------------------------
Total Dipole Moment    :     -0.37508       1.13610      -2.14864
                        -----------------------------------------
Magnitude (a.u.)       :      2.45928
Magnitude (Debye)      :      6.25100

Rotational constants in cm-1:     0.001864     0.000156     0.000149
Rotational constants in MHz :    55.889171     4.670603     4.470406

                             ****ORCA TERMINATED NORMALLY****
TOTAL RUN TIME: 0 days 0 hours 11 minutes 24 seconds 536 msec
