                         Program Version 4.2.0 -  RELEASE  -
|  1> # ORCA input file
|  2> # SCF done       -179.499363984174          0.000736049212
|  3> ! CAM-B3LYP def2-SVP def2/J RIJCOSX Grid4 TightSCF
|  4> %maxcore 5000
|  5> %tddft
|  6>     Mode sTDDFT
|  7>     Ethresh 5.0
|  8>     maxcore 5000
|  9> end
| 10>
| 11> %pal
| 12>   nprocs 6
| 13>   end
| 14> * xyz 0 1
| 15>    C       -9.72214        -0.09317        -0.17952
| 16>    C       -9.48302        -0.86883         0.92764
| 17>    C      -10.32197        -1.92045         1.35081
| 18>    N      -10.95695        -2.78939         1.75182
| 19>    C       -8.38016        -0.76081         1.80002
| 20>    N       -7.52204        -0.75910         2.56439
| 21>    C      -10.86235        -0.24639        -1.07964
| 22>    C      -10.74345         0.70164        -2.12619
| 23>    C      -11.66494         0.81033        -3.13872
| 24>    C      -12.76006        -0.05902        -3.12059
| 25>    C      -12.87153        -1.00298        -2.07294
| 26>    C      -11.93844        -1.11224        -1.04765
| 27>    S      -14.30027        -1.97241        -2.25080
| 28>    C      -14.72695        -1.12277        -3.69591
| 29>    C      -13.84583        -0.15695        -4.03593
| 30>    C       -9.51972         1.49510        -1.92250
| 31>    O       -9.11682         2.39021        -2.64496
| 32>    C       -8.90628         0.99023        -0.68875
| 33>    C       -7.75731         1.47027        -0.10861
| 34>    C       -6.88669         2.47820        -0.53328
| 35>    C       -5.71494         2.79701         0.17723
| 36>    C       -4.96264         3.81905        -0.40934
| 37>    O       -3.75850         4.26592         0.01573
| 38>    C       -3.44435         4.00739         1.36605
| 39>    C       -3.51806         2.52619         1.70109
| 40>    S       -5.24931         1.95627         1.64029
| 41>    C       -5.55074         4.29967        -1.58431
| 42>    S       -6.99855         3.43432        -1.99054
| 43>    C       -5.12300         5.37812        -2.41341
| 44>    C       -5.56740         5.43324        -3.75870
| 45>    C       -5.22058         6.49951        -4.65283
| 46>    N       -5.67319         6.47068        -5.91759
| 47>    C       -6.43957         5.48776        -6.30550
| 48>    C       -6.77447         4.43906        -5.42874
| 49>    N       -6.33494         4.42431        -4.20338
| 50>    C       -4.40012         7.57449        -4.24466
| 51>    C       -3.93457         7.50883        -2.91252
| 52>    C       -4.31781         6.45913        -1.99561
| 53>    N       -3.85117         6.69981        -0.76799
| 54>    S       -2.99882         8.05254        -0.77025
| 55>    N       -3.17589         8.43113        -2.31946
| 56>    C       -4.08450         8.69550        -5.05873
| 57>    C       -4.70193         9.20703        -6.20031
| 58>    C       -4.09135        10.39536        -6.66105
| 59>    O       -4.43077        11.15057        -7.72010
| 60>    C       -5.50326        10.70779        -8.52846
| 61>    C       -6.65459        10.18516        -7.69450
| 62>    S       -6.16042         8.58264        -6.93422
| 63>    C       -3.03425        10.82020        -5.85541
| 64>    S       -2.76040         9.69788        -4.55707
| 65>    C       -2.25366        11.97322        -6.07761
| 66>    C       -1.41604        12.59412        -5.19989
| 67>    C       -1.26065        12.44368        -3.76855
| 68>    C       -2.26689        12.18200        -2.87337
| 69>    C       -2.07395        12.01159        -1.49098
| 70>    N       -1.96566        11.81515        -0.36432
| 71>    C       -3.62464        12.11340        -3.25029
| 72>    N       -4.74281        12.13365        -3.51175
| 73>    C        0.08100        12.90066        -3.43119
| 74>    C        0.63299        13.55132        -4.56568
| 75>    C       -0.31699        13.46194        -5.69417
| 76>    O       -0.20244        13.94035        -6.80009
| 77>    C        1.87539        14.13684        -4.54199
| 78>    C        2.60989        14.06540        -3.35381
| 79>    C        2.05358        13.40359        -2.23320
| 80>    C        0.79110        12.82195        -2.24987
| 81>    S        3.14494        13.42923        -0.88349
| 82>    C        4.30986        14.31142        -1.80994
| 83>    C        3.90845        14.57678        -3.07178
| 84>    H      -11.54396         1.54483        -3.91981
| 85>    H      -12.07245        -1.84786        -0.27257
| 86>    H      -15.62592        -1.40408        -4.20907
| 87>    H      -13.94711         0.47311        -4.90109
| 88>    H       -7.45665         1.01209         0.82753
| 89>    H       -4.11576         4.57436         2.02403
| 90>    H       -2.42405         4.37769         1.49241
| 91>    H       -3.16926         2.33186         2.71267
| 92>    H       -2.93888         1.93940         0.98782
| 93>    H       -6.78466         5.52013        -7.32873
| 94>    H       -7.38696         3.60385        -5.73525
| 95>    H       -5.15377         9.92334        -9.21342
| 96>    H       -5.79464        11.58607        -9.11134
| 97>    H       -7.52192         9.96922        -8.31237
| 98>    H       -6.92000        10.89130        -6.90841
| 99>    H       -2.27290        12.36677        -7.08857
|100>    H        2.26947        14.63550        -5.41389
|101>    H        0.40345        12.32443        -1.37583
|102>    H        5.23793        14.57957        -1.34374
|103>    H        4.49961        15.11398        -3.79124
|104> *
|105>
|106>                          ****END OF INPUT****

CARTESIAN COORDINATES (ANGSTROEM)
---------------------------------
  C     -9.722140   -0.093170   -0.179520
  C     -9.483020   -0.868830    0.927640
  C    -10.321970   -1.920450    1.350810
  N    -10.956950   -2.789390    1.751820
  C     -8.380160   -0.760810    1.800020
  N     -7.522040   -0.759100    2.564390
  C    -10.862350   -0.246390   -1.079640
  C    -10.743450    0.701640   -2.126190
  C    -11.664940    0.810330   -3.138720
  C    -12.760060   -0.059020   -3.120590
  C    -12.871530   -1.002980   -2.072940
  C    -11.938440   -1.112240   -1.047650
  S    -14.300270   -1.972410   -2.250800
  C    -14.726950   -1.122770   -3.695910
  C    -13.845830   -0.156950   -4.035930
  C     -9.519720    1.495100   -1.922500
  O     -9.116820    2.390210   -2.644960
  C     -8.906280    0.990230   -0.688750
  C     -7.757310    1.470270   -0.108610
  C     -6.886690    2.478200   -0.533280
  C     -5.714940    2.797010    0.177230
  C     -4.962640    3.819050   -0.409340
  O     -3.758500    4.265920    0.015730
  C     -3.444350    4.007390    1.366050
  C     -3.518060    2.526190    1.701090
  S     -5.249310    1.956270    1.640290
  C     -5.550740    4.299670   -1.584310
  S     -6.998550    3.434320   -1.990540
  C     -5.123000    5.378120   -2.413410
  C     -5.567400    5.433240   -3.758700
  C     -5.220580    6.499510   -4.652830
  N     -5.673190    6.470680   -5.917590
  C     -6.439570    5.487760   -6.305500
  C     -6.774470    4.439060   -5.428740
  N     -6.334940    4.424310   -4.203380
  C     -4.400120    7.574490   -4.244660
  C     -3.934570    7.508830   -2.912520
  C     -4.317810    6.459130   -1.995610
  N     -3.851170    6.699810   -0.767990
  S     -2.998820    8.052540   -0.770250
  N     -3.175890    8.431130   -2.319460
  C     -4.084500    8.695500   -5.058730
  C     -4.701930    9.207030   -6.200310
  C     -4.091350   10.395360   -6.661050
  O     -4.430770   11.150570   -7.720100
  C     -5.503260   10.707790   -8.528460
  C     -6.654590   10.185160   -7.694500
  S     -6.160420    8.582640   -6.934220
  C     -3.034250   10.820200   -5.855410
  S     -2.760400    9.697880   -4.557070
  C     -2.253660   11.973220   -6.077610
  C     -1.416040   12.594120   -5.199890
  C     -1.260650   12.443680   -3.768550
  C     -2.266890   12.182000   -2.873370
  C     -2.073950   12.011590   -1.490980
  N     -1.965660   11.815150   -0.364320
  C     -3.624640   12.113400   -3.250290
  N     -4.742810   12.133650   -3.511750
  C      0.081000   12.900660   -3.431190
  C      0.632990   13.551320   -4.565680
  C     -0.316990   13.461940   -5.694170
  O     -0.202440   13.940350   -6.800090
  C      1.875390   14.136840   -4.541990
  C      2.609890   14.065400   -3.353810
  C      2.053580   13.403590   -2.233200
  C      0.791100   12.821950   -2.249870
  S      3.144940   13.429230   -0.883490
  C      4.309860   14.311420   -1.809940
  C      3.908450   14.576780   -3.071780
  H    -11.543960    1.544830   -3.919810
  H    -12.072450   -1.847860   -0.272570
  H    -15.625920   -1.404080   -4.209070
  H    -13.947110    0.473110   -4.901090
  H     -7.456650    1.012090    0.827530
  H     -4.115760    4.574360    2.024030
  H     -2.424050    4.377690    1.492410
  H     -3.169260    2.331860    2.712670
  H     -2.938880    1.939400    0.987820
  H     -6.784660    5.520130   -7.328730
  H     -7.386960    3.603850   -5.735250
  H     -5.153770    9.923340   -9.213420
  H     -5.794640   11.586070   -9.111340
  H     -7.521920    9.969220   -8.312370
  H     -6.920000   10.891300   -6.908410
  H     -2.272900   12.366770   -7.088570
  H      2.269470   14.635500   -5.413890
  H      0.403450   12.324430   -1.375830
  H      5.237930   14.579570   -1.343740
  H      4.499610   15.113980   -3.791240

 Total Charge           Charge          ....    0
 Multiplicity           Mult            ....    1
 Number of Electrons    NEL             ....  520
 Basis Dimension        Dim             .... 1094

ORBITAL ENERGIES
----------------

  NO   OCC          E(Eh)            E(eV)
   0   2.0000     -89.036639     -2422.8101
   1   2.0000     -88.962148     -2420.7831
   2   2.0000     -88.960724     -2420.7444
   3   2.0000     -88.955167     -2420.5932
   4   2.0000     -88.952424     -2420.5185
   5   2.0000     -88.937059     -2420.1004
   6   2.0000     -88.934621     -2420.0341
   7   2.0000     -19.263554      -524.1880
   8   2.0000     -19.250963      -523.8453
   9   2.0000     -19.212308      -522.7935
  10   2.0000     -19.201494      -522.4992
  11   2.0000     -14.443624      -393.0310
  12   2.0000     -14.443520      -393.0282
  13   2.0000     -14.442268      -392.9941
  14   2.0000     -14.436240      -392.8301
  15   2.0000     -14.408877      -392.0855
  16   2.0000     -14.407583      -392.0503
  17   2.0000     -14.405859      -392.0033
  18   2.0000     -14.400170      -391.8485
  19   2.0000     -10.360578      -281.9257
  20   2.0000     -10.353555      -281.7346
  21   2.0000     -10.352753      -281.7127
  22   2.0000     -10.342603      -281.4365
  23   2.0000     -10.337518      -281.2982
  24   2.0000     -10.337239      -281.2906
  25   2.0000     -10.335813      -281.2518
  26   2.0000     -10.335347      -281.2391
  27   2.0000     -10.335072      -281.2316
  28   2.0000     -10.333828      -281.1977
  29   2.0000     -10.333643      -281.1927
  30   2.0000     -10.333453      -281.1875
  31   2.0000     -10.332735      -281.1680
  32   2.0000     -10.331764      -281.1416
  33   2.0000     -10.330173      -281.0983
  34   2.0000     -10.329591      -281.0824
  35   2.0000     -10.321667      -280.8668
  36   2.0000     -10.314905      -280.6828
  37   2.0000     -10.313877      -280.6549
  38   2.0000     -10.313663      -280.6491
  39   2.0000     -10.313050      -280.6323
  40   2.0000     -10.312907      -280.6285
  41   2.0000     -10.312678      -280.6222
  42   2.0000     -10.312060      -280.6054
  43   2.0000     -10.311376      -280.5868
  44   2.0000     -10.310249      -280.5562
  45   2.0000     -10.309999      -280.5493
  46   2.0000     -10.309516      -280.5362
  47   2.0000     -10.309298      -280.5303
  48   2.0000     -10.307909      -280.4925
  49   2.0000     -10.307275      -280.4752
  50   2.0000     -10.306905      -280.4651
  51   2.0000     -10.303936      -280.3843
  52   2.0000     -10.303272      -280.3663
  53   2.0000     -10.299483      -280.2632
  54   2.0000     -10.298234      -280.2292
  55   2.0000     -10.297050      -280.1970
  56   2.0000     -10.296776      -280.1895
  57   2.0000     -10.296395      -280.1792
  58   2.0000     -10.295677      -280.1596
  59   2.0000     -10.294069      -280.1159
  60   2.0000     -10.293676      -280.1052
  61   2.0000     -10.292566      -280.0750
  62   2.0000     -10.290972      -280.0316
  63   2.0000     -10.288058      -279.9523
  64   2.0000     -10.285309      -279.8775
  65   2.0000     -10.283773      -279.8357
  66   2.0000     -10.283159      -279.8190
  67   2.0000     -10.281988      -279.7871
  68   2.0000     -10.281564      -279.7756
  69   2.0000      -8.127638      -221.1643
  70   2.0000      -8.058339      -219.2786
  71   2.0000      -8.056873      -219.2387
  72   2.0000      -8.049108      -219.0274
  73   2.0000      -8.044596      -218.9046
  74   2.0000      -8.032374      -218.5720
  75   2.0000      -8.027663      -218.4438
  76   2.0000      -6.098635      -165.9523
  77   2.0000      -6.090814      -165.7395
  78   2.0000      -6.090644      -165.7349
  79   2.0000      -6.027844      -164.0260
  80   2.0000      -6.026404      -163.9868
  81   2.0000      -6.023555      -163.9093
  82   2.0000      -6.022106      -163.8698
  83   2.0000      -6.020029      -163.8133
  84   2.0000      -6.018693      -163.7770
  85   2.0000      -6.018565      -163.7735
  86   2.0000      -6.014380      -163.6596
  87   2.0000      -6.014154      -163.6534
  88   2.0000      -6.010684      -163.5590
  89   2.0000      -6.009662      -163.5312
  90   2.0000      -6.006295      -163.4396
  91   2.0000      -6.002711      -163.3421
  92   2.0000      -5.998721      -163.2335
  93   2.0000      -5.998229      -163.2201
  94   2.0000      -5.994125      -163.1084
  95   2.0000      -5.992042      -163.0518
  96   2.0000      -5.987183      -162.9195
  97   2.0000      -1.173449       -31.9312
  98   2.0000      -1.164083       -31.6763
  99   2.0000      -1.133631       -30.8477
 100   2.0000      -1.127475       -30.6802
 101   2.0000      -1.116479       -30.3809
 102   2.0000      -1.099315       -29.9139
 103   2.0000      -1.026456       -27.9313
 104   2.0000      -1.012759       -27.5586
 105   2.0000      -1.011647       -27.5283
 106   2.0000      -1.001929       -27.2639
 107   2.0000      -1.001383       -27.2490
 108   2.0000      -0.998250       -27.1638
 109   2.0000      -0.991321       -26.9752
 110   2.0000      -0.985284       -26.8109
 111   2.0000      -0.984501       -26.7896
 112   2.0000      -0.980115       -26.6703
 113   2.0000      -0.977378       -26.5958
 114   2.0000      -0.974648       -26.5215
 115   2.0000      -0.961952       -26.1760
 116   2.0000      -0.926417       -25.2091
 117   2.0000      -0.924258       -25.1503
 118   2.0000      -0.920844       -25.0574
 119   2.0000      -0.914900       -24.8957
 120   2.0000      -0.897819       -24.4309
 121   2.0000      -0.891996       -24.2724
 122   2.0000      -0.884927       -24.0801
 123   2.0000      -0.879708       -23.9381
 124   2.0000      -0.875612       -23.8266
 125   2.0000      -0.873644       -23.7731
 126   2.0000      -0.868899       -23.6439
 127   2.0000      -0.863058       -23.4850
 128   2.0000      -0.859590       -23.3906
 129   2.0000      -0.847986       -23.0749
 130   2.0000      -0.822472       -22.3806
 131   2.0000      -0.817701       -22.2508
 132   2.0000      -0.815420       -22.1887
 133   2.0000      -0.805856       -21.9285
 134   2.0000      -0.797898       -21.7119
 135   2.0000      -0.778822       -21.1928
 136   2.0000      -0.770965       -20.9790
 137   2.0000      -0.767005       -20.8713
 138   2.0000      -0.765307       -20.8251
 139   2.0000      -0.753790       -20.5117
 140   2.0000      -0.750816       -20.4307
 141   2.0000      -0.746317       -20.3083
 142   2.0000      -0.742330       -20.1998
 143   2.0000      -0.722497       -19.6601
 144   2.0000      -0.718270       -19.5451
 145   2.0000      -0.708712       -19.2850
 146   2.0000      -0.705612       -19.2007
 147   2.0000      -0.685997       -18.6669
 148   2.0000      -0.683665       -18.6035
 149   2.0000      -0.681121       -18.5342
 150   2.0000      -0.678239       -18.4558
 151   2.0000      -0.664375       -18.0786
 152   2.0000      -0.657505       -17.8916
 153   2.0000      -0.657035       -17.8788
 154   2.0000      -0.654192       -17.8015
 155   2.0000      -0.653232       -17.7753
 156   2.0000      -0.645964       -17.5776
 157   2.0000      -0.641651       -17.4602
 158   2.0000      -0.627628       -17.0786
 159   2.0000      -0.624757       -17.0005
 160   2.0000      -0.617644       -16.8069
 161   2.0000      -0.614597       -16.7240
 162   2.0000      -0.611635       -16.6434
 163   2.0000      -0.602311       -16.3897
 164   2.0000      -0.601678       -16.3725
 165   2.0000      -0.592376       -16.1194
 166   2.0000      -0.590665       -16.0728
 167   2.0000      -0.584804       -15.9133
 168   2.0000      -0.580161       -15.7870
 169   2.0000      -0.577322       -15.7097
 170   2.0000      -0.574347       -15.6288
 171   2.0000      -0.569652       -15.5010
 172   2.0000      -0.568682       -15.4746
 173   2.0000      -0.563747       -15.3403
 174   2.0000      -0.560372       -15.2485
 175   2.0000      -0.551573       -15.0091
 176   2.0000      -0.548547       -14.9267
 177   2.0000      -0.543461       -14.7883
 178   2.0000      -0.540552       -14.7092
 179   2.0000      -0.537752       -14.6330
 180   2.0000      -0.534840       -14.5537
 181   2.0000      -0.533550       -14.5186
 182   2.0000      -0.531737       -14.4693
 183   2.0000      -0.529751       -14.4153
 184   2.0000      -0.527203       -14.3459
 185   2.0000      -0.524369       -14.2688
 186   2.0000      -0.521591       -14.1932
 187   2.0000      -0.516693       -14.0599
 188   2.0000      -0.513902       -13.9840
 189   2.0000      -0.510071       -13.8797
 190   2.0000      -0.508391       -13.8340
 191   2.0000      -0.505419       -13.7532
 192   2.0000      -0.502737       -13.6802
 193   2.0000      -0.497690       -13.5428
 194   2.0000      -0.495590       -13.4857
 195   2.0000      -0.494465       -13.4551
 196   2.0000      -0.494082       -13.4447
 197   2.0000      -0.491283       -13.3685
 198   2.0000      -0.490372       -13.3437
 199   2.0000      -0.484829       -13.1929
 200   2.0000      -0.484440       -13.1823
 201   2.0000      -0.483980       -13.1698
 202   2.0000      -0.480047       -13.0627
 203   2.0000      -0.477952       -13.0057
 204   2.0000      -0.474610       -12.9148
 205   2.0000      -0.472095       -12.8464
 206   2.0000      -0.466232       -12.6868
 207   2.0000      -0.462831       -12.5943
 208   2.0000      -0.459109       -12.4930
 209   2.0000      -0.453295       -12.3348
 210   2.0000      -0.450973       -12.2716
 211   2.0000      -0.448662       -12.2087
 212   2.0000      -0.446490       -12.1496
 213   2.0000      -0.445535       -12.1236
 214   2.0000      -0.440895       -11.9974
 215   2.0000      -0.440568       -11.9885
 216   2.0000      -0.437069       -11.8933
 217   2.0000      -0.436237       -11.8706
 218   2.0000      -0.435444       -11.8490
 219   2.0000      -0.432777       -11.7765
 220   2.0000      -0.431483       -11.7413
 221   2.0000      -0.429119       -11.6769
 222   2.0000      -0.427122       -11.6226
 223   2.0000      -0.425899       -11.5893
 224   2.0000      -0.424720       -11.5572
 225   2.0000      -0.422165       -11.4877
 226   2.0000      -0.420719       -11.4484
 227   2.0000      -0.418014       -11.3747
 228   2.0000      -0.417362       -11.3570
 229   2.0000      -0.414611       -11.2821
 230   2.0000      -0.411663       -11.2019
 231   2.0000      -0.408423       -11.1137
 232   2.0000      -0.406177       -11.0526
 233   2.0000      -0.399096       -10.8600
 234   2.0000      -0.397642       -10.8204
 235   2.0000      -0.395777       -10.7696
 236   2.0000      -0.393484       -10.7072
 237   2.0000      -0.391400       -10.6505
 238   2.0000      -0.382862       -10.4182
 239   2.0000      -0.374268       -10.1843
 240   2.0000      -0.372082       -10.1249
 241   2.0000      -0.365868        -9.9558
 242   2.0000      -0.360392        -9.8068
 243   2.0000      -0.357841        -9.7373
 244   2.0000      -0.349133        -9.5004
 245   2.0000      -0.343447        -9.3457
 246   2.0000      -0.339966        -9.2510
 247   2.0000      -0.333704        -9.0806
 248   2.0000      -0.327898        -8.9226
 249   2.0000      -0.324171        -8.8211
 250   2.0000      -0.315233        -8.5779
 251   2.0000      -0.309415        -8.4196
 252   2.0000      -0.308925        -8.4063
 253   2.0000      -0.303848        -8.2681
 254   2.0000      -0.290679        -7.9098
 255   2.0000      -0.286866        -7.8060
 256   2.0000      -0.276959        -7.5364
 257   2.0000      -0.273533        -7.4432
 258   2.0000      -0.267430        -7.2771
 259   2.0000      -0.237080        -6.4513
 260   0.0000      -0.117088        -3.1861
 261   0.0000      -0.077792        -2.1168
 262   0.0000      -0.071608        -1.9486
 263   0.0000      -0.050839        -1.3834
 264   0.0000      -0.043404        -1.1811

MULLIKEN ATOMIC CHARGES
-----------------------
   0 C :    0.324589
   1 C :   -0.356820
   2 C :   -0.191047
   3 N :    0.142976
   4 C :   -0.195900
   5 N :    0.151427
   6 C :    0.011759
   7 C :   -0.009024
   8 C :   -0.072333
   9 C :    0.114363
  10 C :   -0.098100
  11 C :   -0.024485
  12 S :    0.138022
  13 C :   -0.049419
  14 C :    0.023819
  15 C :    0.151905
  16 O :   -0.180552
  17 C :   -0.093306
  18 C :   -0.051097
  19 C :   -0.078088
  20 C :   -0.068153
  21 C :    0.215224
  22 O :   -0.283142
  23 C :    0.223502
  24 C :   -0.083915
  25 S :    0.030148
  26 C :   -0.225032
  27 S :    0.232987
  28 C :    0.145769
  29 C :   -0.047737
  30 C :   -0.037237
  31 N :   -0.079395
  32 C :    0.067718
  33 C :    0.049477
  34 N :   -0.052827
  35 C :    0.161151
  36 C :   -0.015710
  37 C :   -0.011996
  38 N :   -0.258887
  39 S :    0.563102
  40 N :   -0.325061
  41 C :   -0.211578
  42 C :   -0.011336
  43 C :    0.217969
  44 O :   -0.283468
  45 C :    0.243470
  46 C :   -0.122750
  47 S :    0.042867
  48 C :   -0.176848
  49 S :    0.182993
  50 C :    0.061235
  51 C :   -0.132518
  52 C :    0.246768
  53 C :   -0.320842
  54 C :   -0.170985
  55 N :    0.130994
  56 C :   -0.198827
  57 N :    0.152506
  58 C :    0.013916
  59 C :   -0.004421
  60 C :    0.137639
  61 O :   -0.149237
  62 C :   -0.073105
  63 C :    0.110538
  64 C :   -0.090571
  65 C :   -0.031005
  66 S :    0.130917
  67 C :   -0.051823
  68 C :    0.025884
  69 H :   -0.017835
  70 H :   -0.007357
  71 H :    0.035825
  72 H :   -0.010089
  73 H :    0.021689
  74 H :    0.032911
  75 H :    0.027727
  76 H :    0.063885
  77 H :    0.073300
  78 H :    0.013396
  79 H :    0.023795
  80 H :    0.027495
  81 H :    0.031014
  82 H :    0.047842
  83 H :    0.077769
  84 H :    0.026433
  85 H :   -0.013598
  86 H :   -0.008617
  87 H :    0.035324
  88 H :   -0.007969
Sum of atomic charges:   -0.0000000

LOEWDIN ATOMIC CHARGES
----------------------
   0 C :    0.075984
   1 C :   -0.146782
   2 C :   -0.017485
   3 N :   -0.060960
   4 C :   -0.025598
   5 N :   -0.053549
   6 C :   -0.021122
   7 C :   -0.052342
   8 C :    0.018886
   9 C :   -0.037253
  10 C :   -0.146735
  11 C :   -0.009874
  12 S :    0.427716
  13 C :   -0.151666
  14 C :   -0.059421
  15 C :    0.082018
  16 O :   -0.169497
  17 C :   -0.108809
  18 C :    0.049275
  19 C :   -0.212638
  20 C :   -0.194329
  21 C :   -0.001491
  22 O :   -0.082231
  23 C :    0.072321
  24 C :   -0.139060
  25 S :    0.325294
  26 C :   -0.177017
  27 S :    0.552559
  28 C :   -0.035067
  29 C :   -0.010755
  30 C :   -0.004372
  31 N :   -0.043264
  32 C :    0.017901
  33 C :    0.023431
  34 N :   -0.041601
  35 C :   -0.047230
  36 C :   -0.045357
  37 C :   -0.042932
  38 N :   -0.267834
  39 S :    0.690234
  40 N :   -0.307787
  41 C :   -0.153800
  42 C :   -0.209406
  43 C :    0.035319
  44 O :   -0.078516
  45 C :    0.072147
  46 C :   -0.165422
  47 S :    0.346135
  48 C :   -0.220120
  49 S :    0.518964
  50 C :    0.062953
  51 C :   -0.106652
  52 C :    0.062896
  53 C :   -0.152705
  54 C :   -0.017132
  55 N :   -0.072852
  56 C :   -0.034784
  57 N :   -0.061094
  58 C :   -0.017332
  59 C :   -0.053520
  60 C :    0.081517
  61 O :   -0.150338
  62 C :    0.021343
  63 C :   -0.037981
  64 C :   -0.145893
  65 C :   -0.016048
  66 S :    0.422045
  67 C :   -0.153226
  68 C :   -0.057959
  69 H :    0.037579
  70 H :    0.040478
  71 H :    0.028344
  72 H :    0.033788
  73 H :    0.040020
  74 H :    0.021046
  75 H :    0.029841
  76 H :    0.037939
  77 H :    0.031295
  78 H :    0.025643
  79 H :    0.032275
  80 H :    0.017353
  81 H :    0.028920
  82 H :    0.031085
  83 H :    0.032515
  84 H :    0.050940
  85 H :    0.039573
  86 H :    0.038700
  87 H :    0.027969
  88 H :    0.034596

  Mayer bond orders larger than 0.100000
B(  0-C ,  1-C ) :   1.6062 B(  0-C ,  6-C ) :   0.9943 B(  0-C , 17-C ) :   1.0916
B(  1-C ,  2-C ) :   1.1517 B(  1-C ,  4-C ) :   1.1464 B(  2-C ,  3-N ) :   2.9640
B(  4-C ,  5-N ) :   2.9666 B(  6-C ,  7-C ) :   1.2730 B(  6-C , 11-C ) :   1.4183
B(  7-C ,  8-C ) :   1.4261 B(  7-C , 15-C ) :   0.9566 B(  8-C ,  9-C ) :   1.2422
B(  8-C , 69-H ) :   1.0163 B(  9-C , 10-C ) :   1.3073 B(  9-C , 14-C ) :   1.1719
B( 10-C , 11-C ) :   1.3189 B( 10-C , 12-S ) :   1.0975 B( 11-C , 70-H ) :   0.9817
B( 12-S , 13-C ) :   1.1269 B( 13-C , 14-C ) :   1.6267 B( 13-C , 71-H ) :   0.9691
B( 14-C , 72-H ) :   0.9992 B( 15-C , 16-O ) :   2.1385 B( 15-C , 17-C ) :   0.9706
B( 17-C , 18-C ) :   1.5114 B( 18-C , 19-C ) :   1.2929 B( 18-C , 73-H ) :   0.9320
B( 19-C , 20-C ) :   1.3869 B( 19-C , 26-C ) :   0.1094 B( 19-C , 27-S ) :   1.0607
B( 20-C , 21-C ) :   1.3090 B( 20-C , 25-S ) :   1.0329 B( 21-C , 22-O ) :   1.1858
B( 21-C , 26-C ) :   1.3986 B( 22-O , 23-C ) :   0.9579 B( 23-C , 24-C ) :   1.0443
B( 23-C , 74-H ) :   0.9499 B( 23-C , 75-H ) :   0.9518 B( 24-C , 25-S ) :   1.0031
B( 24-C , 76-H ) :   0.9487 B( 24-C , 77-H ) :   0.9436 B( 26-C , 27-S ) :   1.1190
B( 26-C , 28-C ) :   1.1410 B( 28-C , 29-C ) :   1.2791 B( 28-C , 35-C ) :   0.1275
B( 28-C , 37-C ) :   1.2117 B( 29-C , 30-C ) :   1.1333 B( 29-C , 34-N ) :   1.4130
B( 30-C , 31-N ) :   1.3991 B( 30-C , 35-C ) :   1.2835 B( 31-N , 32-C ) :   1.6116
B( 32-C , 33-C ) :   1.2011 B( 32-C , 78-H ) :   0.9673 B( 33-C , 34-N ) :   1.6660
B( 33-C , 79-H ) :   0.9763 B( 35-C , 36-C ) :   1.1990 B( 35-C , 41-C ) :   1.1647
B( 36-C , 37-C ) :   1.1117 B( 36-C , 40-N ) :   1.4731 B( 37-C , 38-N ) :   1.5123
B( 38-N , 39-S ) :   1.3057 B( 38-N , 40-N ) :   0.1540 B( 39-S , 40-N ) :   1.2684
B( 41-C , 42-C ) :   1.4686 B( 41-C , 48-C ) :   0.1082 B( 41-C , 49-S ) :   1.1608
B( 42-C , 43-C ) :   1.2588 B( 42-C , 47-S ) :   1.0023 B( 43-C , 44-O ) :   1.2252
B( 43-C , 48-C ) :   1.4145 B( 44-O , 45-C ) :   0.9375 B( 45-C , 46-C ) :   1.0387
B( 45-C , 80-H ) :   0.9529 B( 45-C , 81-H ) :   0.9513 B( 46-C , 47-S ) :   0.9550
B( 46-C , 82-H ) :   0.9485 B( 46-C , 83-H ) :   0.9424 B( 48-C , 49-S ) :   1.0638
B( 48-C , 50-C ) :   1.1683 B( 50-C , 51-C ) :   1.5865 B( 50-C , 84-H ) :   0.9532
B( 51-C , 52-C ) :   1.0496 B( 51-C , 60-C ) :   0.9496 B( 52-C , 53-C ) :   1.6350
B( 52-C , 58-C ) :   1.0236 B( 53-C , 54-C ) :   1.1425 B( 53-C , 56-C ) :   1.1451
B( 54-C , 55-N ) :   2.9747 B( 56-C , 57-N ) :   3.0210 B( 58-C , 59-C ) :   1.2708
B( 58-C , 65-C ) :   1.4212 B( 59-C , 60-C ) :   0.9180 B( 59-C , 62-C ) :   1.4310
B( 60-C , 61-O ) :   2.2686 B( 62-C , 63-C ) :   1.2496 B( 62-C , 85-H ) :   1.0160
B( 63-C , 64-C ) :   1.3088 B( 63-C , 68-C ) :   1.1715 B( 64-C , 65-C ) :   1.3158
B( 64-C , 66-S ) :   1.0934 B( 65-C , 86-H ) :   0.9866 B( 66-S , 67-C ) :   1.1244
B( 67-C , 68-C ) :   1.6308 B( 67-C , 87-H ) :   0.9687 B( 68-C , 88-H ) :   0.9992

-----------------------------------------------------------------------------
         ABSORPTION SPECTRUM VIA TRANSITION ELECTRIC DIPOLE MOMENTS
-----------------------------------------------------------------------------
State   Energy  Wavelength   fosc         T2         TX        TY        TZ
        (cm-1)    (nm)                  (au**2)     (au)      (au)      (au)
-----------------------------------------------------------------------------
   0   10612.6    942.3   0.843675305  26.17165   2.39854   4.15967  -1.76518
   1   16403.2    609.6   0.036975641   0.74210   0.73311   0.02271   0.45180
   2   17178.4    582.1   0.067290158   1.28957   0.92039   0.52849   0.40392
   3   18590.2    537.9   0.053862648   0.95385  -0.33303  -0.09759   0.91292
   4   19574.0    510.9   0.138628374   2.33156   0.85374   1.02799   0.73888
   5   20411.2    489.9   0.388841555   6.27160   1.79424   1.69902  -0.40701
   6   21646.8    462.0   0.010038259   0.15267  -0.16066  -0.10394   0.34066
   7   23178.1    431.4   0.010667187   0.15151   0.26148   0.14294  -0.25042
   8   24311.0    411.3   0.057851817   0.78341   0.08646  -0.43759   0.76449
   9   24800.1    403.2   0.093780981   1.24491  -0.68177  -0.31451  -0.82534
  10   25070.8    398.9   0.013935261   0.18299   0.28248  -0.12332   0.29663
  11   25692.1    389.2   0.010305218   0.13205   0.15669   0.11326   0.30768
  12   25992.2    384.7   0.109568791   1.38777   0.99847  -0.01897   0.62487
  13   26577.6    376.3   0.032825359   0.40660   0.33326  -0.07607   0.53829
  14   27192.8    367.7   0.146659354   1.77555   0.82798   1.01290  -0.25304
  15   27833.6    359.3   0.027266033   0.32250   0.42562   0.35417  -0.12614
  16   28244.3    354.1   0.117717693   1.37210   0.76474   0.57097   0.67917
  17   28454.8    351.4   0.008285997   0.09587  -0.18241   0.12886  -0.21445
  18   28644.7    349.1   0.017371914   0.19965   0.03306   0.12312  -0.42826
  19   28963.1    345.3   0.038708005   0.43998  -0.53470  -0.36542  -0.14333
  20   29248.7    341.9   0.011913534   0.13409  -0.18436  -0.31333  -0.04392
  21   29489.9    339.1   0.172512868   1.92585  -1.06234  -0.69828   0.55650
  22   30198.4    331.1   0.163151349   1.77862   0.86633   0.86409   0.53050
  23   30336.5    329.6   0.004011994   0.04354   0.10647   0.11873  -0.13455
  24   30442.7    328.5   0.051681819   0.55890   0.14914   0.19381   0.70646
  25   31042.4    322.1   0.369643832   3.92016   1.79655   0.63303   0.54023
  26   31542.4    317.0   0.012453293   0.12998  -0.07930   0.01094  -0.35152
  27   31637.9    316.1   0.037606386   0.39132  -0.53074  -0.26579  -0.19747
  28   31680.2    315.7   0.401385183   4.17108  -1.62967  -0.10499  -1.22647
  29   32000.9    312.5   0.023476765   0.24152   0.41315   0.18399   0.19228
  30   32212.3    310.4   0.022133023   0.22620  -0.32796   0.09567  -0.33089
  31   32338.0    309.2   0.035889601   0.36537   0.41239   0.35967  -0.25680
  32   32775.9    305.1   0.041363256   0.41547   0.28627  -0.15756   0.55560
  33   33049.2    302.6   0.058455562   0.58229  -0.68010   0.06983  -0.33894
  34   33132.5    301.8   0.000780379   0.00775   0.04519  -0.04054  -0.06378
  35   33338.2    300.0   0.013469265   0.13301   0.35131   0.05027  -0.08406
  36   34351.5    291.1   0.052935917   0.50732   0.15827  -0.28532   0.63314
  37   34837.5    287.0   0.214780464   2.02966  -1.07282   0.02480  -0.93708
  38   35075.3    285.1   0.027912761   0.26199   0.32020   0.35951   0.17381
  39   35160.1    284.4   0.042409821   0.39709   0.18538   0.54000  -0.26670
  40   35325.9    283.1   0.052833875   0.49237   0.58877   0.23698   0.29927
  41   35612.1    280.8   0.082296877   0.76078  -0.63363   0.55971  -0.21451
  42   35681.4    280.3   0.377797769   3.48573   1.33375   1.08564  -0.72678
  43   36011.6    277.7   0.551626052   5.04288  -1.77399  -0.18647  -1.36420
  44   36421.3    274.6   0.251758473   2.27564   0.15876  -0.04108   1.49958
  45   36548.5    273.6   0.019572294   0.17630  -0.11255   0.34412  -0.21263
  46   36770.2    272.0   0.005299597   0.04745   0.14218   0.11376  -0.11954
  47   37155.2    269.1   0.009468641   0.08390  -0.00651   0.25299   0.14089
  48   37452.9    267.0   0.001033020   0.00908  -0.03115   0.03780   0.08174
  49   37579.3    266.1   0.022092881   0.19354  -0.05773  -0.23111  -0.36986
  50   37690.7    265.3   0.077859315   0.68007  -0.57181  -0.55389  -0.21520
  51   37791.3    264.6   0.123133224   1.07265   0.65549   0.80144  -0.02602
  52   38570.6    259.3   0.015603477   0.13318  -0.20421  -0.30143  -0.02480
  53   38895.4    257.1   0.003891201   0.03294   0.05353   0.09948  -0.14203
  54   38965.2    256.6   0.008258561   0.06978  -0.15741   0.04107  -0.20811
  55   39060.0    256.0   0.052979849   0.44653  -0.45173  -0.38092  -0.31206
  56   39134.3    255.5   0.032355320   0.27218   0.20650   0.26659   0.39809
  57   39462.0    253.4   0.058934370   0.49166   0.42218   0.50048  -0.25090
  58   39591.3    252.6   0.197915821   1.64572  -1.01605  -0.78317   0.00204
  59   39696.8    251.9   0.009763826   0.08097   0.17265   0.22226   0.04199
  60   40234.5    248.5   0.118974141   0.97348   0.44117  -0.01960   0.88231

FINAL SINGLE POINT ENERGY     -5439.310815536372

DIPOLE MOMENT
-------------
                                X             Y             Z
Electronic contribution:      0.46166      -4.48995      13.33628
Nuclear contribution   :      0.34286       4.81376     -15.99572
                        -----------------------------------------
Total Dipole Moment    :      0.80452       0.32381      -2.65944
                        -----------------------------------------
Magnitude (a.u.)       :      2.79727
Magnitude (Debye)      :      7.11009

Rotational constants in cm-1:     0.001913     0.000351     0.000304
Rotational constants in MHz :    57.350018    10.533419     9.110644

                             ****ORCA TERMINATED NORMALLY****
TOTAL RUN TIME: 0 days 0 hours 14 minutes 5 seconds 892 msec
