                         Program Version 4.2.0 -  RELEASE  -
|  1> # ORCA input file
|  2> # SCF done       -187.233267841561          0.000945921612
|  3> ! CAM-B3LYP def2-SVP def2/J RIJCOSX Grid4 TightSCF
|  4> %maxcore 5000
|  5> %tddft
|  6>     Mode sTDDFT
|  7>     Ethresh 5.0
|  8>     maxcore 5000
|  9> end
| 10>
| 11> %pal
| 12>   nprocs 6
| 13>   end
| 14> * xyz 0 1
| 15>    C       -3.18333        -1.13371         0.84692
| 16>    C       -2.87119        -1.83864        -0.28453
| 17>    C       -2.15084        -3.05223        -0.28960
| 18>    N       -1.57739        -4.04390        -0.36138
| 19>    C       -3.20842        -1.45979        -1.60146
| 20>    N       -3.43266        -1.22100        -2.70172
| 21>    C       -2.79651        -1.48895         2.20478
| 22>    C       -3.25526        -0.48295         3.09195
| 23>    C       -3.03931        -0.53622         4.44818
| 24>    C       -2.33068        -1.62901         4.95471
| 25>    C       -1.87687        -2.63049         4.06196
| 26>    C       -2.09981        -2.58042         2.69180
| 27>    S       -1.02801        -3.88683         4.90690
| 28>    C       -1.27967        -3.07661         6.41396
| 29>    C       -1.96771        -1.91960         6.29978
| 30>    C       -3.96998         0.55993         2.33511
| 31>    O       -4.54788         1.51810         2.79662
| 32>    C       -3.91459         0.12507         0.90910
| 33>    C       -4.58575         0.73118        -0.09776
| 34>    C       -5.18356         2.04992        -0.03768
| 35>    C       -6.46912         2.27024        -0.56229
| 36>    O       -7.25792         1.21301        -0.96250
| 37>    C       -7.41128         0.13740        -0.05591
| 38>    C       -6.97873         3.57242        -0.64529
| 39>    O       -8.22466         3.91341        -1.05907
| 40>    C       -8.97428         3.06240        -1.89931
| 41>    C       -6.18606         4.64265        -0.18758
| 42>    C       -4.94326         4.40153         0.38739
| 43>    C       -4.44154         3.12435         0.45608
| 44>    C       -6.69387         6.01171        -0.28213
| 45>    C       -7.19647         6.54129        -1.48095
| 46>    C       -7.80758         7.84244        -1.53303
| 47>    N       -8.25170         8.33462        -2.71443
| 48>    C       -8.16361         7.57892        -3.76546
| 49>    C       -7.56952         6.29316        -3.71358
| 50>    N       -7.07640         5.80936        -2.61539
| 51>    C       -7.93986         8.64057        -0.38409
| 52>    C       -7.33301         8.16488         0.78346
| 53>    C       -6.71226         6.85668         0.83230
| 54>    N       -6.24081         6.58276         2.05710
| 55>    S       -6.54170         7.82256         3.01880
| 56>    N       -7.28502         8.77774         1.97431
| 57>    C       -8.68643         9.89618        -0.40801
| 58>    C       -9.95383         9.95644        -0.99640
| 59>    O      -10.58739         8.80804        -1.43383
| 60>    C      -10.96547         7.92834        -0.39073
| 61>    C      -10.63215        11.18279        -1.08000
| 62>    O      -11.79406        11.38148        -1.73881
| 63>    C      -12.26586        10.45420        -2.69671
| 64>    C      -10.08326        12.32693        -0.44997
| 65>    C       -8.81695        12.22594         0.14425
| 66>    C       -8.13044        11.04169         0.16453
| 67>    C      -10.72322        13.60798        -0.41969
| 68>    C      -12.01710        14.01600        -0.49230
| 69>    C      -13.30305        13.35699        -0.45550
| 70>    C      -13.59539        12.14664         0.11760
| 71>    C      -14.87635        11.55846         0.11973
| 72>    N      -15.88571        11.01082         0.13107
| 73>    C      -12.67575        11.35063         0.82409
| 74>    N      -11.98342        10.65869         1.42528
| 75>    C      -14.29518        14.30038        -0.96256
| 76>    C      -13.68646        15.57312        -1.10525
| 77>    C      -12.26172        15.46740        -0.74817
| 78>    O      -11.44012        16.35513        -0.70134
| 79>    C      -14.38109        16.68189        -1.52486
| 80>    C      -15.73698        16.52725        -1.82893
| 81>    C      -16.33193        15.24998        -1.69869
| 82>    C      -15.63193        14.12939        -1.26624
| 83>    S      -18.01108        15.29191        -2.13678
| 84>    C      -17.90546        16.98502        -2.47767
| 85>    C      -16.67360        17.50115        -2.27811
| 86>    H       -3.40435         0.24611         5.09544
| 87>    H       -1.73776        -3.37034         2.05526
| 88>    H       -0.89056        -3.52500         7.30740
| 89>    H       -2.21759        -1.28287         7.12903
| 90>    H       -4.68645         0.22704        -1.05172
| 91>    H       -8.45959        -0.16623        -0.10125
| 92>    H       -7.16778         0.43491         0.96636
| 93>    H       -6.78938        -0.71490        -0.34421
| 94>    H       -8.35179         2.61698        -2.67586
| 95>    H       -9.72868         3.70385        -2.35730
| 96>    H       -9.47123         2.27063        -1.33381
| 97>    H       -4.36697         5.23385         0.75715
| 98>    H       -3.45595         2.94504         0.85400
| 99>    H       -8.51942         7.99578        -4.69843
|100>    H       -7.46019         5.68972        -4.60527
|101>    H      -11.51449         8.46362         0.39089
|102>    H      -10.09897         7.43270         0.05863
|103>    H      -11.60808         7.17921        -0.85115
|104>    H      -12.96831        11.01627        -3.31442
|105>    H      -12.78785         9.62001        -2.22342
|106>    H      -11.45290        10.06743        -3.31177
|107>    H       -8.39750        13.10232         0.61430
|108>    H       -7.15777        10.97644         0.62388
|109>    H      -10.02734        14.44238        -0.35522
|110>    H      -13.89247        17.63970        -1.61483
|111>    H      -16.12895        13.17682        -1.18667
|112>    H      -18.78760        17.49571        -2.81180
|113>    H      -16.42000        18.53347        -2.43828
|114> *
|115>
|116>                          ****END OF INPUT****

CARTESIAN COORDINATES (ANGSTROEM)
---------------------------------
  C     -3.183330   -1.133710    0.846920
  C     -2.871190   -1.838640   -0.284530
  C     -2.150840   -3.052230   -0.289600
  N     -1.577390   -4.043900   -0.361380
  C     -3.208420   -1.459790   -1.601460
  N     -3.432660   -1.221000   -2.701720
  C     -2.796510   -1.488950    2.204780
  C     -3.255260   -0.482950    3.091950
  C     -3.039310   -0.536220    4.448180
  C     -2.330680   -1.629010    4.954710
  C     -1.876870   -2.630490    4.061960
  C     -2.099810   -2.580420    2.691800
  S     -1.028010   -3.886830    4.906900
  C     -1.279670   -3.076610    6.413960
  C     -1.967710   -1.919600    6.299780
  C     -3.969980    0.559930    2.335110
  O     -4.547880    1.518100    2.796620
  C     -3.914590    0.125070    0.909100
  C     -4.585750    0.731180   -0.097760
  C     -5.183560    2.049920   -0.037680
  C     -6.469120    2.270240   -0.562290
  O     -7.257920    1.213010   -0.962500
  C     -7.411280    0.137400   -0.055910
  C     -6.978730    3.572420   -0.645290
  O     -8.224660    3.913410   -1.059070
  C     -8.974280    3.062400   -1.899310
  C     -6.186060    4.642650   -0.187580
  C     -4.943260    4.401530    0.387390
  C     -4.441540    3.124350    0.456080
  C     -6.693870    6.011710   -0.282130
  C     -7.196470    6.541290   -1.480950
  C     -7.807580    7.842440   -1.533030
  N     -8.251700    8.334620   -2.714430
  C     -8.163610    7.578920   -3.765460
  C     -7.569520    6.293160   -3.713580
  N     -7.076400    5.809360   -2.615390
  C     -7.939860    8.640570   -0.384090
  C     -7.333010    8.164880    0.783460
  C     -6.712260    6.856680    0.832300
  N     -6.240810    6.582760    2.057100
  S     -6.541700    7.822560    3.018800
  N     -7.285020    8.777740    1.974310
  C     -8.686430    9.896180   -0.408010
  C     -9.953830    9.956440   -0.996400
  O    -10.587390    8.808040   -1.433830
  C    -10.965470    7.928340   -0.390730
  C    -10.632150   11.182790   -1.080000
  O    -11.794060   11.381480   -1.738810
  C    -12.265860   10.454200   -2.696710
  C    -10.083260   12.326930   -0.449970
  C     -8.816950   12.225940    0.144250
  C     -8.130440   11.041690    0.164530
  C    -10.723220   13.607980   -0.419690
  C    -12.017100   14.016000   -0.492300
  C    -13.303050   13.356990   -0.455500
  C    -13.595390   12.146640    0.117600
  C    -14.876350   11.558460    0.119730
  N    -15.885710   11.010820    0.131070
  C    -12.675750   11.350630    0.824090
  N    -11.983420   10.658690    1.425280
  C    -14.295180   14.300380   -0.962560
  C    -13.686460   15.573120   -1.105250
  C    -12.261720   15.467400   -0.748170
  O    -11.440120   16.355130   -0.701340
  C    -14.381090   16.681890   -1.524860
  C    -15.736980   16.527250   -1.828930
  C    -16.331930   15.249980   -1.698690
  C    -15.631930   14.129390   -1.266240
  S    -18.011080   15.291910   -2.136780
  C    -17.905460   16.985020   -2.477670
  C    -16.673600   17.501150   -2.278110
  H     -3.404350    0.246110    5.095440
  H     -1.737760   -3.370340    2.055260
  H     -0.890560   -3.525000    7.307400
  H     -2.217590   -1.282870    7.129030
  H     -4.686450    0.227040   -1.051720
  H     -8.459590   -0.166230   -0.101250
  H     -7.167780    0.434910    0.966360
  H     -6.789380   -0.714900   -0.344210
  H     -8.351790    2.616980   -2.675860
  H     -9.728680    3.703850   -2.357300
  H     -9.471230    2.270630   -1.333810
  H     -4.366970    5.233850    0.757150
  H     -3.455950    2.945040    0.854000
  H     -8.519420    7.995780   -4.698430
  H     -7.460190    5.689720   -4.605270
  H    -11.514490    8.463620    0.390890
  H    -10.098970    7.432700    0.058630
  H    -11.608080    7.179210   -0.851150
  H    -12.968310   11.016270   -3.314420
  H    -12.787850    9.620010   -2.223420
  H    -11.452900   10.067430   -3.311770
  H     -8.397500   13.102320    0.614300
  H     -7.157770   10.976440    0.623880
  H    -10.027340   14.442380   -0.355220
  H    -13.892470   17.639700   -1.614830
  H    -16.128950   13.176820   -1.186670
  H    -18.787600   17.495710   -2.811800
  H    -16.420000   18.533470   -2.438280

 Total Charge           Charge          ....    0
 Multiplicity           Mult            ....    1
 Number of Electrons    NEL             ....  504
 Basis Dimension        Dim             .... 1146

ORBITAL ENERGIES
----------------

  NO   OCC          E(Eh)            E(eV)
   0   2.0000     -89.029994     -2422.6293
   1   2.0000     -88.968536     -2420.9569
   2   2.0000     -88.959963     -2420.7237
   3   2.0000     -19.252850      -523.8967
   4   2.0000     -19.241848      -523.5973
   5   2.0000     -19.236505      -523.4519
   6   2.0000     -19.227556      -523.2084
   7   2.0000     -19.215118      -522.8699
   8   2.0000     -19.204485      -522.5806
   9   2.0000     -14.435128      -392.7998
  10   2.0000     -14.434902      -392.7937
  11   2.0000     -14.420284      -392.3959
  12   2.0000     -14.420144      -392.3921
  13   2.0000     -14.416570      -392.2948
  14   2.0000     -14.416380      -392.2896
  15   2.0000     -14.408305      -392.0699
  16   2.0000     -14.406514      -392.0212
  17   2.0000     -10.366975      -282.0997
  18   2.0000     -10.353895      -281.7438
  19   2.0000     -10.344069      -281.4764
  20   2.0000     -10.342533      -281.4346
  21   2.0000     -10.341130      -281.3965
  22   2.0000     -10.332400      -281.1589
  23   2.0000     -10.331828      -281.1433
  24   2.0000     -10.330589      -281.1096
  25   2.0000     -10.327091      -281.0144
  26   2.0000     -10.325316      -280.9661
  27   2.0000     -10.323288      -280.9110
  28   2.0000     -10.322767      -280.8968
  29   2.0000     -10.322574      -280.8915
  30   2.0000     -10.322310      -280.8843
  31   2.0000     -10.319233      -280.8006
  32   2.0000     -10.318821      -280.7894
  33   2.0000     -10.318031      -280.7679
  34   2.0000     -10.317507      -280.7536
  35   2.0000     -10.317436      -280.7517
  36   2.0000     -10.316595      -280.7288
  37   2.0000     -10.316517      -280.7267
  38   2.0000     -10.316367      -280.7226
  39   2.0000     -10.315458      -280.6979
  40   2.0000     -10.313392      -280.6417
  41   2.0000     -10.311423      -280.5881
  42   2.0000     -10.309429      -280.5338
  43   2.0000     -10.309081      -280.5244
  44   2.0000     -10.308289      -280.5028
  45   2.0000     -10.307445      -280.4798
  46   2.0000     -10.305258      -280.4203
  47   2.0000     -10.304109      -280.3891
  48   2.0000     -10.304098      -280.3888
  49   2.0000     -10.301248      -280.3112
  50   2.0000     -10.300479      -280.2903
  51   2.0000     -10.298729      -280.2427
  52   2.0000     -10.297640      -280.2130
  53   2.0000     -10.294402      -280.1249
  54   2.0000     -10.294318      -280.1226
  55   2.0000     -10.294130      -280.1175
  56   2.0000     -10.293649      -280.1044
  57   2.0000     -10.291790      -280.0538
  58   2.0000     -10.291315      -280.0409
  59   2.0000     -10.291072      -280.0343
  60   2.0000     -10.284830      -279.8645
  61   2.0000     -10.284044      -279.8431
  62   2.0000     -10.283014      -279.8150
  63   2.0000     -10.282881      -279.8114
  64   2.0000     -10.281382      -279.7706
  65   2.0000     -10.281187      -279.7653
  66   2.0000     -10.280997      -279.7602
  67   2.0000     -10.270971      -279.4873
  68   2.0000     -10.268681      -279.4250
  69   2.0000     -10.265140      -279.3287
  70   2.0000     -10.264025      -279.2983
  71   2.0000      -8.121343      -220.9930
  72   2.0000      -8.064818      -219.4549
  73   2.0000      -8.056240      -219.2214
  74   2.0000      -6.092213      -165.7775
  75   2.0000      -6.084572      -165.5696
  76   2.0000      -6.084450      -165.5663
  77   2.0000      -6.034348      -164.2030
  78   2.0000      -6.030017      -164.0851
  79   2.0000      -6.026465      -163.9885
  80   2.0000      -6.025755      -163.9691
  81   2.0000      -6.021475      -163.8527
  82   2.0000      -6.017885      -163.7550
  83   2.0000      -1.160543       -31.5800
  84   2.0000      -1.152593       -31.3636
  85   2.0000      -1.131645       -30.7936
  86   2.0000      -1.130683       -30.7674
  87   2.0000      -1.127279       -30.6748
  88   2.0000      -1.124542       -30.6003
  89   2.0000      -1.119257       -30.4565
  90   2.0000      -1.076932       -29.3048
  91   2.0000      -1.021320       -27.7915
  92   2.0000      -1.010640       -27.5009
  93   2.0000      -1.009983       -27.4830
  94   2.0000      -1.002372       -27.2759
  95   2.0000      -1.000624       -27.2284
  96   2.0000      -0.995059       -27.0769
  97   2.0000      -0.986534       -26.8449
  98   2.0000      -0.986178       -26.8353
  99   2.0000      -0.978480       -26.6258
 100   2.0000      -0.974875       -26.5277
 101   2.0000      -0.964655       -26.2496
 102   2.0000      -0.952869       -25.9289
 103   2.0000      -0.943952       -25.6863
 104   2.0000      -0.930603       -25.3230
 105   2.0000      -0.919843       -25.0302
 106   2.0000      -0.905591       -24.6424
 107   2.0000      -0.895350       -24.3637
 108   2.0000      -0.884316       -24.0635
 109   2.0000      -0.882607       -24.0170
 110   2.0000      -0.874298       -23.7909
 111   2.0000      -0.872693       -23.7472
 112   2.0000      -0.863202       -23.4889
 113   2.0000      -0.855038       -23.2668
 114   2.0000      -0.843543       -22.9540
 115   2.0000      -0.841888       -22.9089
 116   2.0000      -0.832052       -22.6413
 117   2.0000      -0.824863       -22.4457
 118   2.0000      -0.815866       -22.2008
 119   2.0000      -0.814761       -22.1708
 120   2.0000      -0.798670       -21.7329
 121   2.0000      -0.792420       -21.5628
 122   2.0000      -0.784525       -21.3480
 123   2.0000      -0.771654       -20.9978
 124   2.0000      -0.764768       -20.8104
 125   2.0000      -0.759613       -20.6701
 126   2.0000      -0.757127       -20.6025
 127   2.0000      -0.754251       -20.5242
 128   2.0000      -0.746059       -20.3013
 129   2.0000      -0.738093       -20.0845
 130   2.0000      -0.729275       -19.8446
 131   2.0000      -0.711442       -19.3593
 132   2.0000      -0.698591       -19.0096
 133   2.0000      -0.691877       -18.8269
 134   2.0000      -0.691072       -18.8050
 135   2.0000      -0.689331       -18.7577
 136   2.0000      -0.681316       -18.5395
 137   2.0000      -0.680128       -18.5072
 138   2.0000      -0.676131       -18.3985
 139   2.0000      -0.669778       -18.2256
 140   2.0000      -0.662901       -18.0384
 141   2.0000      -0.657067       -17.8797
 142   2.0000      -0.653255       -17.7760
 143   2.0000      -0.649811       -17.6823
 144   2.0000      -0.643398       -17.5077
 145   2.0000      -0.627350       -17.0711
 146   2.0000      -0.621051       -16.8997
 147   2.0000      -0.618264       -16.8238
 148   2.0000      -0.615197       -16.7404
 149   2.0000      -0.610379       -16.6093
 150   2.0000      -0.607593       -16.5334
 151   2.0000      -0.602637       -16.3986
 152   2.0000      -0.598972       -16.2989
 153   2.0000      -0.595819       -16.2131
 154   2.0000      -0.590588       -16.0707
 155   2.0000      -0.589328       -16.0364
 156   2.0000      -0.584377       -15.9017
 157   2.0000      -0.581733       -15.8298
 158   2.0000      -0.567385       -15.4393
 159   2.0000      -0.563742       -15.3402
 160   2.0000      -0.561012       -15.2659
 161   2.0000      -0.559378       -15.2215
 162   2.0000      -0.558676       -15.2023
 163   2.0000      -0.550984       -14.9930
 164   2.0000      -0.549687       -14.9578
 165   2.0000      -0.548306       -14.9202
 166   2.0000      -0.544938       -14.8285
 167   2.0000      -0.543714       -14.7952
 168   2.0000      -0.539353       -14.6765
 169   2.0000      -0.538782       -14.6610
 170   2.0000      -0.536381       -14.5957
 171   2.0000      -0.534139       -14.5347
 172   2.0000      -0.531889       -14.4734
 173   2.0000      -0.529546       -14.4097
 174   2.0000      -0.527998       -14.3676
 175   2.0000      -0.526847       -14.3362
 176   2.0000      -0.523369       -14.2416
 177   2.0000      -0.523169       -14.2362
 178   2.0000      -0.519577       -14.1384
 179   2.0000      -0.516746       -14.0614
 180   2.0000      -0.512512       -13.9462
 181   2.0000      -0.509116       -13.8537
 182   2.0000      -0.507625       -13.8132
 183   2.0000      -0.506848       -13.7920
 184   2.0000      -0.502380       -13.6704
 185   2.0000      -0.499494       -13.5919
 186   2.0000      -0.498083       -13.5535
 187   2.0000      -0.492730       -13.4079
 188   2.0000      -0.490278       -13.3411
 189   2.0000      -0.489725       -13.3261
 190   2.0000      -0.487656       -13.2698
 191   2.0000      -0.483039       -13.1442
 192   2.0000      -0.480536       -13.0760
 193   2.0000      -0.478114       -13.0101
 194   2.0000      -0.476166       -12.9571
 195   2.0000      -0.467990       -12.7347
 196   2.0000      -0.466414       -12.6918
 197   2.0000      -0.462126       -12.5751
 198   2.0000      -0.460380       -12.5276
 199   2.0000      -0.456963       -12.4346
 200   2.0000      -0.455988       -12.4081
 201   2.0000      -0.454308       -12.3623
 202   2.0000      -0.451388       -12.2829
 203   2.0000      -0.448970       -12.2171
 204   2.0000      -0.448246       -12.1974
 205   2.0000      -0.445696       -12.1280
 206   2.0000      -0.444202       -12.0874
 207   2.0000      -0.443287       -12.0625
 208   2.0000      -0.435438       -11.8489
 209   2.0000      -0.435202       -11.8424
 210   2.0000      -0.434491       -11.8231
 211   2.0000      -0.429586       -11.6896
 212   2.0000      -0.428308       -11.6549
 213   2.0000      -0.426888       -11.6162
 214   2.0000      -0.426563       -11.6074
 215   2.0000      -0.425509       -11.5787
 216   2.0000      -0.423747       -11.5307
 217   2.0000      -0.421031       -11.4568
 218   2.0000      -0.420170       -11.4334
 219   2.0000      -0.416019       -11.3204
 220   2.0000      -0.414519       -11.2796
 221   2.0000      -0.411369       -11.1939
 222   2.0000      -0.409580       -11.1452
 223   2.0000      -0.409143       -11.1334
 224   2.0000      -0.404774       -11.0145
 225   2.0000      -0.401029       -10.9125
 226   2.0000      -0.397291       -10.8108
 227   2.0000      -0.396342       -10.7850
 228   2.0000      -0.392664       -10.6849
 229   2.0000      -0.391803       -10.6615
 230   2.0000      -0.384447       -10.4613
 231   2.0000      -0.378321       -10.2946
 232   2.0000      -0.374897       -10.2015
 233   2.0000      -0.370094       -10.0708
 234   2.0000      -0.366799        -9.9811
 235   2.0000      -0.362958        -9.8766
 236   2.0000      -0.352893        -9.6027
 237   2.0000      -0.342811        -9.3283
 238   2.0000      -0.340555        -9.2670
 239   2.0000      -0.336944        -9.1687
 240   2.0000      -0.328595        -8.9415
 241   2.0000      -0.326057        -8.8725
 242   2.0000      -0.315823        -8.5940
 243   2.0000      -0.315631        -8.5887
 244   2.0000      -0.306940        -8.3523
 245   2.0000      -0.305090        -8.3019
 246   2.0000      -0.296610        -8.0712
 247   2.0000      -0.292855        -7.9690
 248   2.0000      -0.287797        -7.8314
 249   2.0000      -0.278260        -7.5718
 250   2.0000      -0.277401        -7.5485
 251   2.0000      -0.258070        -7.0224
 252   0.0000      -0.092863        -2.5269
 253   0.0000      -0.082788        -2.2528
 254   0.0000      -0.070038        -1.9058
 255   0.0000      -0.055086        -1.4990
 256   0.0000      -0.043891        -1.1943

MULLIKEN ATOMIC CHARGES
-----------------------
   0 C :    0.312016
   1 C :   -0.346108
   2 C :   -0.186341
   3 N :    0.153894
   4 C :   -0.205211
   5 N :    0.164857
   6 C :    0.015105
   7 C :   -0.018367
   8 C :   -0.064884
   9 C :    0.114008
  10 C :   -0.095170
  11 C :   -0.023108
  12 S :    0.142473
  13 C :   -0.046835
  14 C :    0.024875
  15 C :    0.122890
  16 O :   -0.131464
  17 C :   -0.066808
  18 C :   -0.088419
  19 C :    0.024207
  20 C :    0.083869
  21 O :   -0.353758
  22 C :    0.204649
  23 C :    0.188010
  24 O :   -0.314378
  25 C :    0.214283
  26 C :   -0.062961
  27 C :    0.018133
  28 C :    0.031721
  29 C :    0.068531
  30 C :   -0.047301
  31 C :   -0.055840
  32 N :    0.014394
  33 C :    0.023350
  34 C :    0.018295
  35 N :    0.000502
  36 C :   -0.007680
  37 C :    0.015314
  38 C :    0.000347
  39 N :   -0.267000
  40 S :    0.533589
  41 N :   -0.272856
  42 C :   -0.002928
  43 C :    0.101268
  44 O :   -0.364296
  45 C :    0.195652
  46 C :    0.133036
  47 O :   -0.315493
  48 C :    0.207606
  49 C :    0.059814
  50 C :   -0.014249
  51 C :    0.024018
  52 C :    0.004094
  53 C :   -0.102745
  54 C :    0.319907
  55 C :   -0.344953
  56 C :   -0.194071
  57 N :    0.145000
  58 C :   -0.169641
  59 N :    0.152062
  60 C :    0.006159
  61 C :    0.003853
  62 C :    0.124204
  63 O :   -0.149261
  64 C :   -0.071867
  65 C :    0.113409
  66 C :   -0.091461
  67 C :   -0.036023
  68 S :    0.133686
  69 C :   -0.052298
  70 C :    0.024931
  71 H :   -0.011644
  72 H :   -0.006332
  73 H :    0.039421
  74 H :   -0.005904
  75 H :    0.055077
  76 H :    0.030687
  77 H :    0.032927
  78 H :    0.020682
  79 H :    0.026443
  80 H :    0.017574
  81 H :    0.013508
  82 H :   -0.026076
  83 H :   -0.027032
  84 H :    0.008670
  85 H :    0.012209
  86 H :    0.033944
  87 H :    0.023446
  88 H :    0.021942
  89 H :    0.025989
  90 H :    0.025215
  91 H :    0.036907
  92 H :   -0.021228
  93 H :   -0.026442
  94 H :    0.021752
  95 H :   -0.014348
  96 H :   -0.008752
  97 H :    0.035801
  98 H :   -0.008667
Sum of atomic charges:    0.0000000

LOEWDIN ATOMIC CHARGES
----------------------
   0 C :    0.075316
   1 C :   -0.137654
   2 C :   -0.018024
   3 N :   -0.051424
   4 C :   -0.024035
   5 N :   -0.046118
   6 C :   -0.024412
   7 C :   -0.054243
   8 C :    0.023395
   9 C :   -0.033828
  10 C :   -0.144932
  11 C :   -0.008415
  12 S :    0.430275
  13 C :   -0.147668
  14 C :   -0.057848
  15 C :    0.078264
  16 O :   -0.130280
  17 C :   -0.092638
  18 C :    0.088886
  19 C :   -0.057824
  20 C :    0.028820
  21 O :   -0.124012
  22 C :    0.078045
  23 C :    0.052041
  24 O :   -0.098656
  25 C :    0.078798
  26 C :   -0.019563
  27 C :   -0.004345
  28 C :    0.001958
  29 C :   -0.006667
  30 C :   -0.006720
  31 C :   -0.007103
  32 N :   -0.021850
  33 C :    0.005288
  34 C :    0.004528
  35 N :   -0.027033
  36 C :   -0.023633
  37 C :   -0.046253
  38 C :   -0.045779
  39 N :   -0.288552
  40 S :    0.676437
  41 N :   -0.289471
  42 C :   -0.008010
  43 C :    0.030011
  44 O :   -0.126176
  45 C :    0.075491
  46 C :    0.061846
  47 O :   -0.074180
  48 C :    0.082571
  49 C :   -0.060027
  50 C :   -0.000267
  51 C :   -0.013396
  52 C :    0.077667
  53 C :   -0.091887
  54 C :    0.071943
  55 C :   -0.137480
  56 C :   -0.019008
  57 N :   -0.062469
  58 C :   -0.007958
  59 N :   -0.056355
  60 C :   -0.016325
  61 C :   -0.056688
  62 C :    0.085024
  63 O :   -0.146648
  64 C :    0.023125
  65 C :   -0.038881
  66 C :   -0.144889
  67 C :   -0.017095
  68 S :    0.423330
  69 C :   -0.153426
  70 C :   -0.057890
  71 H :    0.040654
  72 H :    0.040811
  73 H :    0.029803
  74 H :    0.035738
  75 H :    0.046786
  76 H :    0.022429
  77 H :    0.022803
  78 H :    0.014462
  79 H :    0.018792
  80 H :    0.017314
  81 H :    0.012423
  82 H :    0.031308
  83 H :    0.028873
  84 H :    0.024931
  85 H :    0.025619
  86 H :    0.017712
  87 H :    0.011779
  88 H :    0.020846
  89 H :    0.021088
  90 H :    0.018135
  91 H :    0.023158
  92 H :    0.032213
  93 H :    0.030371
  94 H :    0.046014
  95 H :    0.039538
  96 H :    0.038846
  97 H :    0.028078
  98 H :    0.034455

  Mayer bond orders larger than 0.100000
B(  0-C ,  1-C ) :   1.6530 B(  0-C ,  6-C ) :   1.0126 B(  0-C , 17-C ) :   1.0302
B(  1-C ,  2-C ) :   1.1372 B(  1-C ,  4-C ) :   1.1442 B(  2-C ,  3-N ) :   2.9718
B(  4-C ,  5-N ) :   2.9811 B(  6-C ,  7-C ) :   1.2635 B(  6-C , 11-C ) :   1.4033
B(  7-C ,  8-C ) :   1.4244 B(  7-C , 15-C ) :   0.9431 B(  8-C ,  9-C ) :   1.2484
B(  8-C , 71-H ) :   1.0160 B(  9-C , 10-C ) :   1.2978 B(  9-C , 14-C ) :   1.1706
B( 10-C , 11-C ) :   1.3302 B( 10-C , 12-S ) :   1.0987 B( 11-C , 72-H ) :   0.9813
B( 12-S , 13-C ) :   1.1264 B( 13-C , 14-C ) :   1.6293 B( 13-C , 73-H ) :   0.9685
B( 14-C , 74-H ) :   0.9995 B( 15-C , 16-O ) :   2.2399 B( 15-C , 17-C ) :   0.9242
B( 17-C , 18-C ) :   1.6951 B( 18-C , 19-C ) :   1.0182 B( 18-C , 75-H ) :   0.9383
B( 19-C , 20-C ) :   1.3240 B( 19-C , 26-C ) :   0.1069 B( 19-C , 28-C ) :   1.3309
B( 20-C , 21-O ) :   1.1280 B( 20-C , 23-C ) :   1.3167 B( 21-O , 22-C ) :   0.9426
B( 22-C , 76-H ) :   0.9737 B( 22-C , 77-H ) :   0.9623 B( 22-C , 78-H ) :   0.9687
B( 23-C , 24-O ) :   1.1919 B( 23-C , 26-C ) :   1.3860 B( 24-O , 25-C ) :   0.9364
B( 25-C , 79-H ) :   0.9725 B( 25-C , 80-H ) :   0.9760 B( 25-C , 81-H ) :   0.9770
B( 26-C , 27-C ) :   1.3810 B( 26-C , 29-C ) :   0.9357 B( 27-C , 28-C ) :   1.3618
B( 27-C , 82-H ) :   1.0002 B( 28-C , 83-H ) :   0.9930 B( 29-C , 30-C ) :   1.3611
B( 29-C , 36-C ) :   0.1545 B( 29-C , 38-C ) :   1.3005 B( 30-C , 31-C ) :   1.0943
B( 30-C , 35-N ) :   1.4308 B( 31-C , 32-N ) :   1.4362 B( 31-C , 36-C ) :   1.3459
B( 32-N , 33-C ) :   1.7289 B( 33-C , 34-C ) :   1.1502 B( 33-C , 84-H ) :   0.9728
B( 34-C , 35-N ) :   1.7324 B( 34-C , 85-H ) :   0.9727 B( 36-C , 37-C ) :   1.2740
B( 36-C , 42-C ) :   0.9539 B( 37-C , 38-C ) :   1.1105 B( 37-C , 41-N ) :   1.4840
B( 38-C , 39-N ) :   1.4859 B( 39-N , 40-S ) :   1.3012 B( 39-N , 41-N ) :   0.1651
B( 40-S , 41-N ) :   1.2961 B( 42-C , 43-C ) :   1.3985 B( 42-C , 51-C ) :   1.3294
B( 43-C , 44-O ) :   1.1081 B( 43-C , 46-C ) :   1.2926 B( 44-O , 45-C ) :   0.9345
B( 45-C , 86-H ) :   0.9566 B( 45-C , 87-H ) :   0.9639 B( 45-C , 88-H ) :   0.9779
B( 46-C , 47-O ) :   1.1937 B( 46-C , 49-C ) :   1.3092 B( 47-O , 48-C ) :   0.9168
B( 48-C , 89-H ) :   0.9758 B( 48-C , 90-H ) :   0.9763 B( 48-C , 91-H ) :   0.9745
B( 49-C , 50-C ) :   1.2968 B( 49-C , 52-C ) :   1.0918 B( 50-C , 51-C ) :   1.3820
B( 50-C , 92-H ) :   1.0025 B( 51-C , 93-H ) :   0.9931 B( 52-C , 53-C ) :   1.6663
B( 52-C , 94-H ) :   0.9317 B( 53-C , 54-C ) :   1.0373 B( 53-C , 62-C ) :   0.9400
B( 54-C , 55-C ) :   1.6317 B( 54-C , 60-C ) :   1.0155 B( 55-C , 56-C ) :   1.1399
B( 55-C , 58-C ) :   1.1843 B( 56-C , 57-N ) :   2.9784 B( 58-C , 59-N ) :   2.9184
B( 60-C , 61-C ) :   1.2698 B( 60-C , 67-C ) :   1.4118 B( 61-C , 62-C ) :   0.9265
B( 61-C , 64-C ) :   1.4264 B( 62-C , 63-O ) :   2.2481 B( 64-C , 65-C ) :   1.2477
B( 64-C , 95-H ) :   1.0169 B( 65-C , 66-C ) :   1.3083 B( 65-C , 70-C ) :   1.1684
B( 66-C , 67-C ) :   1.3187 B( 66-C , 68-S ) :   1.0966 B( 67-C , 96-H ) :   0.9851
B( 68-S , 69-C ) :   1.1233 B( 69-C , 70-C ) :   1.6328 B( 69-C , 97-H ) :   0.9682
B( 70-C , 98-H ) :   0.9994

-----------------------------------------------------------------------------
         ABSORPTION SPECTRUM VIA TRANSITION ELECTRIC DIPOLE MOMENTS
-----------------------------------------------------------------------------
State   Energy  Wavelength   fosc         T2         TX        TY        TZ
        (cm-1)    (nm)                  (au**2)     (au)      (au)      (au)
-----------------------------------------------------------------------------
   0   18755.7    533.2   0.676050995  11.86649  -1.75110   2.95506  -0.26032
   1   22020.2    454.1   0.247495991   3.70018   1.45312  -1.25419   0.12503
   2   22957.0    435.6   0.134782542   1.93283   0.58597  -1.26073   0.00616
   3   23060.0    433.7   0.069344857   0.98999   0.42632  -0.85208   0.28670
   4   24627.4    406.1   0.031026011   0.41475   0.62996   0.02436  -0.13156
   5   24809.1    403.1   0.014404460   0.19114  -0.17628  -0.12374   0.38047
   6   25301.4    395.2   0.240037484   3.12328  -1.53127   0.88206  -0.02150
   7   26607.0    375.8   0.025544087   0.31606   0.34015   0.43370  -0.11073
   8   27045.0    369.8   0.006026482   0.07336   0.01818   0.22365  -0.15169
   9   27530.2    363.2   0.001204663   0.01441  -0.01039  -0.06368   0.10121
  10   28617.4    349.4   0.191607188   2.20423   0.33778  -0.34014   1.40515
  11   29076.4    343.9   0.023601722   0.26723   0.23423   0.18526  -0.42195
  12   29597.4    337.9   0.055708833   0.61965  -0.53099   0.32770  -0.47991
  13   30290.3    330.1   0.020442632   0.22218  -0.45900  -0.04498  -0.09737
  14   30568.0    327.1   0.008051938   0.08672  -0.12239   0.04698   0.26369
  15   30744.8    325.3   0.060517248   0.64801   0.30606  -0.70306  -0.24504
  16   31132.2    321.2   0.107328539   1.13496   0.47422  -0.91315   0.27610
  17   31328.1    319.2   0.053457807   0.56176   0.12157   0.13212   0.72769
  18   31648.9    316.0   0.038389778   0.39933  -0.24443   0.58093  -0.04594
  19   32183.0    310.7   0.072936176   0.74609  -0.82061  -0.25041   0.09995
  20   32337.6    309.2   0.158345593   1.61203   0.47410  -1.08161   0.46624
  21   32820.9    304.7   0.355183834   3.56269  -0.42400   0.09769  -1.83667
  22   33251.0    300.7   0.124572317   1.23337  -0.66010   0.87755  -0.16600
  23   33325.9    300.1   0.022414264   0.22142   0.20329   0.02234   0.42379
  24   33632.0    297.3   0.070723401   0.69229   0.36825  -0.73556   0.12502
  25   33892.2    295.1   0.373024435   3.62337   1.05996  -1.36016   0.80612
  26   33964.3    294.4   0.367776968   3.56482  -1.13303   1.46753  -0.35697
  27   34231.0    292.1   0.063457213   0.61029  -0.38426   0.59592   0.32789
  28   34431.2    290.4   0.695496434   6.64994   0.36242  -0.08840   2.55162
  29   34838.6    287.0   0.008691135   0.08213  -0.16905   0.11520   0.20070
  30   35381.7    282.6   0.021468970   0.19976  -0.20969   0.27114  -0.28683
  31   35460.2    282.0   0.021476067   0.19938   0.33276  -0.14619  -0.25939
  32   35870.7    278.8   0.121816319   1.11800   0.48724  -0.81398   0.46694
  33   36042.2    277.5   0.025388345   0.23190  -0.11921   0.11559  -0.45202
  34   36817.8    271.6   0.000243059   0.00217   0.03770  -0.00608   0.02674
  35   36984.5    270.4   0.012091961   0.10763   0.20782  -0.11484   0.22640
  36   37585.9    266.1   0.110255398   0.96572  -0.00551  -0.95108   0.24727
  37   37709.1    265.2   0.032094325   0.28019  -0.03033   0.46845  -0.24459
  38   38275.1    261.3   0.046674249   0.40145   0.53998  -0.12123   0.30852
  39   38491.1    259.8   0.079728281   0.68191   0.10407  -0.40320  -0.71310
  40   38873.4    257.2   0.012697445   0.10753   0.21400   0.24332  -0.05031
  41   39067.3    256.0   0.005378179   0.04532   0.16879   0.12433  -0.03704
  42   39204.0    255.1   0.003244675   0.02725   0.01869   0.15908  -0.03989
  43   39528.3    253.0   0.087528494   0.72898   0.45403  -0.70201   0.17327
  44   39821.3    251.1   0.258285752   2.13531  -0.72526   1.22078  -0.34498
  45   40031.4    249.8   0.119800417   0.98522  -0.96882  -0.03978  -0.21218

FINAL SINGLE POINT ENERGY     -4154.315750237171

DIPOLE MOMENT
-------------
                                X             Y             Z
Electronic contribution:     13.95310       4.22829      13.54279
Nuclear contribution   :    -14.26781      -4.00586     -12.69354
                        -----------------------------------------
Total Dipole Moment    :     -0.31470       0.22242       0.84924
                        -----------------------------------------
Magnitude (a.u.)       :      0.93259
Magnitude (Debye)      :      2.37046

Rotational constants in cm-1:     0.003053     0.000265     0.000259
Rotational constants in MHz :    91.515175     7.954599     7.752621

                             ****ORCA TERMINATED NORMALLY****
TOTAL RUN TIME: 0 days 0 hours 10 minutes 46 seconds 883 msec
