                         Program Version 4.2.0 -  RELEASE  -
|  1> # ORCA input file
|  2> # SCF done       -159.823812612498          0.000547384917
|  3> ! CAM-B3LYP def2-SVP def2/J RIJCOSX Grid4 TightSCF
|  4> %maxcore 5000
|  5> %tddft
|  6>     Mode sTDDFT
|  7>     Ethresh 5.0
|  8>     maxcore 5000
|  9> end
| 10>
| 11> %pal
| 12>   nprocs 6
| 13>   end
| 14> * xyz 0 1
| 15>    C        0.16610        -1.98066         6.71855
| 16>    O        0.15992        -1.97825         5.49448
| 17>    C        0.73838        -0.93642         7.58502
| 18>    C        0.55410        -1.30367         8.93086
| 19>    C        1.00848        -0.46539         9.93423
| 20>    C        1.63927         0.72257         9.57691
| 21>    C        1.81922         1.07507         8.23791
| 22>    C        1.36452         0.23875         7.22616
| 23>   Br        2.68067         2.69328         7.78131
| 24>   Br        2.25670         1.86642        10.94849
| 25>    C       -0.13678        -2.59431         8.97694
| 26>    C       -0.47244        -3.26608        10.12247
| 27>    C       -0.19370        -2.79480        11.42411
| 28>    N        0.00532        -2.46574        12.50513
| 29>    C       -1.13350        -4.51184        10.18242
| 30>    N       -1.66581        -5.52013        10.31721
| 31>    C       -0.38038        -2.99878         7.60551
| 32>    C       -1.02958        -4.14123         7.19140
| 33>    C       -1.33260        -4.59663         5.90276
| 34>    C       -2.03956        -5.79852         5.71444
| 35>    C       -2.32049        -6.15724         4.41659
| 36>    C       -1.84679        -5.25533         3.45865
| 37>   Se       -0.94890        -3.80296         4.23208
| 38>    C       -2.03168        -5.38639         2.07334
| 39>    C       -2.72891        -6.38228         1.36993
| 40>    C       -2.72440        -6.13412        -0.04112
| 41>    N       -3.33002        -6.93264        -0.90714
| 42>    C       -3.95749        -7.97995        -0.42049
| 43>    C       -4.64109        -8.85075        -1.40463
| 44>    O       -4.61588        -8.60743        -2.59305
| 45>    C       -5.33865       -10.00500        -0.81858
| 46>    C       -5.35278       -10.26069         0.49516
| 47>    C       -4.67960        -9.43215         1.51446
| 48>    O       -4.70547        -9.70879         2.69385
| 49>    C       -3.96842        -8.23800         0.98585
| 50>    N       -3.36336        -7.45436         1.85355
| 51>    C       -2.04159        -4.97830        -0.43820
| 52>    S       -1.39521        -4.19545         0.96087
| 53>    C       -1.99313        -4.59194        -1.78492
| 54>    C       -1.34650        -3.50018        -2.35042
| 55>    C       -1.57305        -3.33223        -3.70711
| 56>    C       -2.37816        -4.29770        -4.29663
| 57>   Se       -2.95206        -5.59243        -3.05567
| 58>    C       -2.82051        -4.30218        -5.64242
| 59>    C       -3.14427        -3.20144        -6.37762
| 60>    C       -3.19389        -3.25591        -7.86140
| 61>    O       -3.17283        -4.24024        -8.55960
| 62>    C       -3.21097        -1.83710        -8.29043
| 63>    C       -3.29276        -1.00167        -7.16014
| 64>    C       -3.39684        -1.83618        -5.96582
| 65>    C       -3.89617        -1.43428        -4.75349
| 66>    C       -4.26341        -2.34625        -3.74390
| 67>    N       -4.62986        -3.07636        -2.93564
| 68>    C       -4.17303        -0.09223        -4.42292
| 69>    N       -4.38697         0.98961        -4.10597
| 70>    C       -3.29672         0.37385        -7.31597
| 71>    C       -3.22384         0.89645        -8.60228
| 72>    C       -3.15625         0.06134        -9.72023
| 73>    C       -3.14794        -1.31985        -9.56736
| 74>   Br       -3.07226         0.79908       -11.45764
| 75>   Br       -3.21083         2.77394        -8.81883
| 76>    H        0.88914        -0.70008        10.97937
| 77>    H        1.49570         0.49961         6.18760
| 78>    H       -1.38243        -4.80527         7.97266
| 79>    H       -2.34398        -6.39397         6.55974
| 80>    H       -2.86016        -7.04642         4.13864
| 81>    H       -5.84913       -10.64830        -1.52224
| 82>    H       -5.87647       -11.12070         0.89062
| 83>    H       -0.73325        -2.83680        -1.76286
| 84>    H       -1.12073        -2.53767        -4.27889
| 85>    H       -2.87974        -5.25830        -6.15483
| 86>    H       -3.34479         1.04515        -6.47339
| 87>    H       -3.09615        -1.97258       -10.42493
| 88> *
| 89>
| 90>                          ****END OF INPUT****

CARTESIAN COORDINATES (ANGSTROEM)
---------------------------------
  C      0.166100   -1.980660    6.718550
  O      0.159920   -1.978250    5.494480
  C      0.738380   -0.936420    7.585020
  C      0.554100   -1.303670    8.930860
  C      1.008480   -0.465390    9.934230
  C      1.639270    0.722570    9.576910
  C      1.819220    1.075070    8.237910
  C      1.364520    0.238750    7.226160
  Br     2.680670    2.693280    7.781310
  Br     2.256700    1.866420   10.948490
  C     -0.136780   -2.594310    8.976940
  C     -0.472440   -3.266080   10.122470
  C     -0.193700   -2.794800   11.424110
  N      0.005320   -2.465740   12.505130
  C     -1.133500   -4.511840   10.182420
  N     -1.665810   -5.520130   10.317210
  C     -0.380380   -2.998780    7.605510
  C     -1.029580   -4.141230    7.191400
  C     -1.332600   -4.596630    5.902760
  C     -2.039560   -5.798520    5.714440
  C     -2.320490   -6.157240    4.416590
  C     -1.846790   -5.255330    3.458650
  Se    -0.948900   -3.802960    4.232080
  C     -2.031680   -5.386390    2.073340
  C     -2.728910   -6.382280    1.369930
  C     -2.724400   -6.134120   -0.041120
  N     -3.330020   -6.932640   -0.907140
  C     -3.957490   -7.979950   -0.420490
  C     -4.641090   -8.850750   -1.404630
  O     -4.615880   -8.607430   -2.593050
  C     -5.338650  -10.005000   -0.818580
  C     -5.352780  -10.260690    0.495160
  C     -4.679600   -9.432150    1.514460
  O     -4.705470   -9.708790    2.693850
  C     -3.968420   -8.238000    0.985850
  N     -3.363360   -7.454360    1.853550
  C     -2.041590   -4.978300   -0.438200
  S     -1.395210   -4.195450    0.960870
  C     -1.993130   -4.591940   -1.784920
  C     -1.346500   -3.500180   -2.350420
  C     -1.573050   -3.332230   -3.707110
  C     -2.378160   -4.297700   -4.296630
  Se    -2.952060   -5.592430   -3.055670
  C     -2.820510   -4.302180   -5.642420
  C     -3.144270   -3.201440   -6.377620
  C     -3.193890   -3.255910   -7.861400
  O     -3.172830   -4.240240   -8.559600
  C     -3.210970   -1.837100   -8.290430
  C     -3.292760   -1.001670   -7.160140
  C     -3.396840   -1.836180   -5.965820
  C     -3.896170   -1.434280   -4.753490
  C     -4.263410   -2.346250   -3.743900
  N     -4.629860   -3.076360   -2.935640
  C     -4.173030   -0.092230   -4.422920
  N     -4.386970    0.989610   -4.105970
  C     -3.296720    0.373850   -7.315970
  C     -3.223840    0.896450   -8.602280
  C     -3.156250    0.061340   -9.720230
  C     -3.147940   -1.319850   -9.567360
  Br    -3.072260    0.799080  -11.457640
  Br    -3.210830    2.773940   -8.818830
  H      0.889140   -0.700080   10.979370
  H      1.495700    0.499610    6.187600
  H     -1.382430   -4.805270    7.972660
  H     -2.343980   -6.393970    6.559740
  H     -2.860160   -7.046420    4.138640
  H     -5.849130  -10.648300   -1.522240
  H     -5.876470  -11.120700    0.890620
  H     -0.733250   -2.836800   -1.762860
  H     -1.120730   -2.537670   -4.278890
  H     -2.879740   -5.258300   -6.154830
  H     -3.344790    1.045150   -6.473390
  H     -3.096150   -1.972580  -10.424930

 Total Charge           Charge          ....    0
 Multiplicity           Mult            ....    1
 Number of Electrons    NEL             ....  574
 Basis Dimension        Dim             .... 1026

ORBITAL ENERGIES
----------------

  NO   OCC          E(Eh)            E(eV)
   0   2.0000    -482.879934    -13139.8310
   1   2.0000    -482.879178    -13139.8104
   2   2.0000    -482.878743    -13139.7986
   3   2.0000    -482.876566    -13139.7394
   4   2.0000    -453.942369    -12352.3999
   5   2.0000    -453.937634    -12352.2710
   6   2.0000     -89.010532     -2422.0997
   7   2.0000     -62.557557     -1702.2777
   8   2.0000     -62.556784     -1702.2566
   9   2.0000     -62.556327     -1702.2442
  10   2.0000     -62.554197     -1702.1862
  11   2.0000     -58.156482     -1582.5183
  12   2.0000     -58.151465     -1582.3818
  13   2.0000     -56.391509     -1534.4910
  14   2.0000     -56.390750     -1534.4703
  15   2.0000     -56.390277     -1534.4574
  16   2.0000     -56.388851     -1534.4186
  17   2.0000     -56.388758     -1534.4161
  18   2.0000     -56.388160     -1534.3998
  19   2.0000     -56.388076     -1534.3975
  20   2.0000     -56.387980     -1534.3950
  21   2.0000     -56.387629     -1534.3854
  22   2.0000     -56.387527     -1534.3826
  23   2.0000     -56.385487     -1534.3271
  24   2.0000     -56.385388     -1534.3244
  25   2.0000     -52.226592     -1421.1578
  26   2.0000     -52.225363     -1421.1244
  27   2.0000     -52.224627     -1421.1043
  28   2.0000     -52.221590     -1421.0217
  29   2.0000     -52.220428     -1420.9901
  30   2.0000     -52.219498     -1420.9648
  31   2.0000     -19.242067      -523.6033
  32   2.0000     -19.240868      -523.5706
  33   2.0000     -19.233927      -523.3818
  34   2.0000     -19.225264      -523.1460
  35   2.0000     -14.469315      -393.7301
  36   2.0000     -14.463950      -393.5841
  37   2.0000     -14.423496      -392.4833
  38   2.0000     -14.423075      -392.4718
  39   2.0000     -14.420574      -392.4038
  40   2.0000     -14.419031      -392.3618
  41   2.0000     -10.391090      -282.7559
  42   2.0000     -10.389654      -282.7169
  43   2.0000     -10.380120      -282.4574
  44   2.0000     -10.376784      -282.3667
  45   2.0000     -10.357909      -281.8530
  46   2.0000     -10.357568      -281.8437
  47   2.0000     -10.357304      -281.8366
  48   2.0000     -10.357179      -281.8332
  49   2.0000     -10.355406      -281.7849
  50   2.0000     -10.355023      -281.7745
  51   2.0000     -10.352101      -281.6950
  52   2.0000     -10.351027      -281.6658
  53   2.0000     -10.350315      -281.6464
  54   2.0000     -10.349544      -281.6254
  55   2.0000     -10.348647      -281.6010
  56   2.0000     -10.347998      -281.5833
  57   2.0000     -10.343968      -281.4737
  58   2.0000     -10.343741      -281.4675
  59   2.0000     -10.329381      -281.0767
  60   2.0000     -10.327778      -281.0331
  61   2.0000     -10.327633      -281.0292
  62   2.0000     -10.326183      -280.9897
  63   2.0000     -10.325595      -280.9737
  64   2.0000     -10.325509      -280.9714
  65   2.0000     -10.322824      -280.8983
  66   2.0000     -10.322463      -280.8885
  67   2.0000     -10.322435      -280.8877
  68   2.0000     -10.321673      -280.8670
  69   2.0000     -10.321644      -280.8662
  70   2.0000     -10.321643      -280.8662
  71   2.0000     -10.319763      -280.8150
  72   2.0000     -10.315883      -280.7095
  73   2.0000     -10.315674      -280.7038
  74   2.0000     -10.314463      -280.6708
  75   2.0000     -10.312809      -280.6258
  76   2.0000     -10.310485      -280.5626
  77   2.0000     -10.308105      -280.4978
  78   2.0000     -10.306186      -280.4456
  79   2.0000     -10.306069      -280.4424
  80   2.0000     -10.302240      -280.3382
  81   2.0000     -10.301349      -280.3140
  82   2.0000     -10.298993      -280.2498
  83   2.0000     -10.296191      -280.1736
  84   2.0000     -10.286898      -279.9207
  85   2.0000      -8.786887      -239.1033
  86   2.0000      -8.786094      -239.0818
  87   2.0000      -8.785633      -239.0692
  88   2.0000      -8.783536      -239.0122
  89   2.0000      -8.104811      -220.5431
  90   2.0000      -7.930548      -215.8012
  91   2.0000      -7.925523      -215.6645
  92   2.0000      -6.623035      -180.2219
  93   2.0000      -6.622264      -180.2010
  94   2.0000      -6.621748      -180.1869
  95   2.0000      -6.619718      -180.1317
  96   2.0000      -6.608996      -179.8399
  97   2.0000      -6.608224      -179.8189
  98   2.0000      -6.608194      -179.8181
  99   2.0000      -6.607755      -179.8061
 100   2.0000      -6.607417      -179.7970
 101   2.0000      -6.606995      -179.7855
 102   2.0000      -6.605629      -179.7483
 103   2.0000      -6.604855      -179.7272
 104   2.0000      -6.073832      -165.2774
 105   2.0000      -6.069602      -165.1623
 106   2.0000      -6.067697      -165.1104
 107   2.0000      -5.879640      -159.9931
 108   2.0000      -5.875104      -159.8697
 109   2.0000      -5.874602      -159.8560
 110   2.0000      -5.870265      -159.7380
 111   2.0000      -5.870032      -159.7317
 112   2.0000      -5.865232      -159.6011
 113   2.0000      -2.738892       -74.5290
 114   2.0000      -2.738153       -74.5089
 115   2.0000      -2.737659       -74.4955
 116   2.0000      -2.735571       -74.4387
 117   2.0000      -2.735193       -74.4284
 118   2.0000      -2.734570       -74.4114
 119   2.0000      -2.734395       -74.4067
 120   2.0000      -2.733901       -74.3932
 121   2.0000      -2.733768       -74.3896
 122   2.0000      -2.733291       -74.3766
 123   2.0000      -2.731852       -74.3375
 124   2.0000      -2.731235       -74.3207
 125   2.0000      -2.723413       -74.1078
 126   2.0000      -2.723385       -74.1071
 127   2.0000      -2.722582       -74.0852
 128   2.0000      -2.722568       -74.0849
 129   2.0000      -2.722170       -74.0740
 130   2.0000      -2.722151       -74.0735
 131   2.0000      -2.720031       -74.0158
 132   2.0000      -2.720010       -74.0152
 133   2.0000      -2.234202       -60.7957
 134   2.0000      -2.233440       -60.7750
 135   2.0000      -2.229062       -60.6559
 136   2.0000      -2.228886       -60.6511
 137   2.0000      -2.228479       -60.6400
 138   2.0000      -2.225229       -60.5515
 139   2.0000      -2.224895       -60.5425
 140   2.0000      -2.223862       -60.5144
 141   2.0000      -2.220163       -60.4137
 142   2.0000      -2.219826       -60.4045
 143   2.0000      -1.159131       -31.5415
 144   2.0000      -1.153930       -31.4000
 145   2.0000      -1.146254       -31.1912
 146   2.0000      -1.141045       -31.0494
 147   2.0000      -1.118544       -30.4371
 148   2.0000      -1.046232       -28.4694
 149   2.0000      -1.030170       -28.0324
 150   2.0000      -1.027743       -27.9663
 151   2.0000      -1.020793       -27.7772
 152   2.0000      -1.012772       -27.5589
 153   2.0000      -1.012103       -27.5407
 154   2.0000      -1.002169       -27.2704
 155   2.0000      -0.999502       -27.1978
 156   2.0000      -0.983957       -26.7748
 157   2.0000      -0.982400       -26.7325
 158   2.0000      -0.977168       -26.5901
 159   2.0000      -0.970393       -26.4057
 160   2.0000      -0.952931       -25.9306
 161   2.0000      -0.926559       -25.2130
 162   2.0000      -0.924012       -25.1436
 163   2.0000      -0.919801       -25.0290
 164   2.0000      -0.916395       -24.9364
 165   2.0000      -0.913220       -24.8500
 166   2.0000      -0.907965       -24.7070
 167   2.0000      -0.893099       -24.3024
 168   2.0000      -0.887900       -24.1610
 169   2.0000      -0.874601       -23.7991
 170   2.0000      -0.863951       -23.5093
 171   2.0000      -0.857013       -23.3205
 172   2.0000      -0.855342       -23.2750
 173   2.0000      -0.839245       -22.8370
 174   2.0000      -0.828231       -22.5373
 175   2.0000      -0.824598       -22.4384
 176   2.0000      -0.817423       -22.2432
 177   2.0000      -0.803746       -21.8710
 178   2.0000      -0.799177       -21.7467
 179   2.0000      -0.782081       -21.2815
 180   2.0000      -0.775644       -21.1063
 181   2.0000      -0.770149       -20.9568
 182   2.0000      -0.767613       -20.8878
 183   2.0000      -0.748113       -20.3572
 184   2.0000      -0.733687       -19.9646
 185   2.0000      -0.720660       -19.6102
 186   2.0000      -0.708163       -19.2701
 187   2.0000      -0.701642       -19.0927
 188   2.0000      -0.699325       -19.0296
 189   2.0000      -0.694074       -18.8867
 190   2.0000      -0.686650       -18.6847
 191   2.0000      -0.684283       -18.6203
 192   2.0000      -0.678363       -18.4592
 193   2.0000      -0.667377       -18.1602
 194   2.0000      -0.656245       -17.8573
 195   2.0000      -0.652723       -17.7615
 196   2.0000      -0.637814       -17.3558
 197   2.0000      -0.626706       -17.0535
 198   2.0000      -0.625095       -17.0097
 199   2.0000      -0.623914       -16.9776
 200   2.0000      -0.621114       -16.9014
 201   2.0000      -0.613972       -16.7070
 202   2.0000      -0.607172       -16.5220
 203   2.0000      -0.597777       -16.2664
 204   2.0000      -0.594233       -16.1699
 205   2.0000      -0.592044       -16.1103
 206   2.0000      -0.583841       -15.8871
 207   2.0000      -0.582902       -15.8616
 208   2.0000      -0.573615       -15.6089
 209   2.0000      -0.570647       -15.5281
 210   2.0000      -0.563035       -15.3210
 211   2.0000      -0.558108       -15.1869
 212   2.0000      -0.553843       -15.0708
 213   2.0000      -0.550716       -14.9858
 214   2.0000      -0.549673       -14.9574
 215   2.0000      -0.547469       -14.8974
 216   2.0000      -0.543599       -14.7921
 217   2.0000      -0.541739       -14.7415
 218   2.0000      -0.540792       -14.7157
 219   2.0000      -0.536456       -14.5977
 220   2.0000      -0.535166       -14.5626
 221   2.0000      -0.531994       -14.4763
 222   2.0000      -0.525957       -14.3120
 223   2.0000      -0.516848       -14.0641
 224   2.0000      -0.515770       -14.0348
 225   2.0000      -0.513971       -13.9859
 226   2.0000      -0.511603       -13.9214
 227   2.0000      -0.508632       -13.8406
 228   2.0000      -0.504897       -13.7389
 229   2.0000      -0.504873       -13.7383
 230   2.0000      -0.503521       -13.7015
 231   2.0000      -0.500294       -13.6137
 232   2.0000      -0.495597       -13.4859
 233   2.0000      -0.494662       -13.4604
 234   2.0000      -0.492017       -13.3885
 235   2.0000      -0.486595       -13.2409
 236   2.0000      -0.481423       -13.1002
 237   2.0000      -0.476249       -12.9594
 238   2.0000      -0.467774       -12.7288
 239   2.0000      -0.466696       -12.6994
 240   2.0000      -0.466210       -12.6862
 241   2.0000      -0.463891       -12.6231
 242   2.0000      -0.462730       -12.5915
 243   2.0000      -0.460701       -12.5363
 244   2.0000      -0.457454       -12.4480
 245   2.0000      -0.457107       -12.4385
 246   2.0000      -0.454489       -12.3673
 247   2.0000      -0.454323       -12.3628
 248   2.0000      -0.448760       -12.2114
 249   2.0000      -0.447046       -12.1648
 250   2.0000      -0.439136       -11.9495
 251   2.0000      -0.435398       -11.8478
 252   2.0000      -0.434775       -11.8308
 253   2.0000      -0.433779       -11.8037
 254   2.0000      -0.432230       -11.7616
 255   2.0000      -0.432041       -11.7564
 256   2.0000      -0.424792       -11.5592
 257   2.0000      -0.417922       -11.3722
 258   2.0000      -0.415993       -11.3197
 259   2.0000      -0.406583       -11.0637
 260   2.0000      -0.405524       -11.0349
 261   2.0000      -0.403838       -10.9890
 262   2.0000      -0.401801       -10.9336
 263   2.0000      -0.400840       -10.9074
 264   2.0000      -0.393424       -10.7056
 265   2.0000      -0.391583       -10.6555
 266   2.0000      -0.390766       -10.6333
 267   2.0000      -0.386027       -10.5043
 268   2.0000      -0.378188       -10.2910
 269   2.0000      -0.376638       -10.2488
 270   2.0000      -0.364360        -9.9147
 271   2.0000      -0.362598        -9.8668
 272   2.0000      -0.361093        -9.8258
 273   2.0000      -0.352902        -9.6030
 274   2.0000      -0.351471        -9.5640
 275   2.0000      -0.348226        -9.4757
 276   2.0000      -0.346485        -9.4283
 277   2.0000      -0.344490        -9.3740
 278   2.0000      -0.340564        -9.2672
 279   2.0000      -0.338812        -9.2195
 280   2.0000      -0.331096        -9.0096
 281   2.0000      -0.324415        -8.8278
 282   2.0000      -0.318187        -8.6583
 283   2.0000      -0.314343        -8.5537
 284   2.0000      -0.313859        -8.5405
 285   2.0000      -0.297084        -8.0841
 286   2.0000      -0.251581        -6.8459
 287   0.0000      -0.128320        -3.4918
 288   0.0000      -0.106373        -2.8946
 289   0.0000      -0.090173        -2.4537
 290   0.0000      -0.086763        -2.3609
 291   0.0000      -0.072172        -1.9639

MULLIKEN ATOMIC CHARGES
-----------------------
   0 C :    0.179866
   1 O :   -0.205050
   2 C :   -0.006584
   3 C :    0.032909
   4 C :   -0.015138
   5 C :   -0.024535
   6 C :   -0.013501
   7 C :   -0.025378
   8 Br:    0.014184
   9 Br:    0.023048
  10 C :    0.327067
  11 C :   -0.348186
  12 C :   -0.187625
  13 N :    0.157200
  14 C :   -0.189543
  15 N :    0.153147
  16 C :   -0.103215
  17 C :   -0.003620
  18 C :   -0.090843
  19 C :    0.032438
  20 C :   -0.003731
  21 C :   -0.129400
  22 Se:    0.294482
  23 C :   -0.133510
  24 C :    0.084538
  25 C :    0.019026
  26 N :   -0.006036
  27 C :   -0.111110
  28 C :    0.158154
  29 O :   -0.108161
  30 C :   -0.025195
  31 C :   -0.007273
  32 C :    0.132325
  33 O :   -0.099159
  34 C :   -0.104538
  35 N :    0.074270
  36 C :   -0.046919
  37 S :    0.228005
  38 C :   -0.119437
  39 C :   -0.020362
  40 C :    0.053705
  41 C :   -0.201133
  42 Se:    0.357521
  43 C :    0.085483
  44 C :   -0.127296
  45 C :    0.140563
  46 O :   -0.128870
  47 C :   -0.002694
  48 C :    0.022349
  49 C :    0.245341
  50 C :   -0.326822
  51 C :   -0.169664
  52 N :    0.164881
  53 C :   -0.177424
  54 N :    0.158521
  55 C :   -0.009325
  56 C :   -0.023391
  57 C :   -0.018150
  58 C :   -0.020513
  59 Br:    0.015783
  60 Br:    0.022311
  61 H :    0.008187
  62 H :    0.004759
  63 H :    0.013488
  64 H :    0.017536
  65 H :    0.016328
  66 H :    0.022931
  67 H :    0.023977
  68 H :   -0.006267
  69 H :    0.000209
  70 H :    0.035098
  71 H :    0.010170
  72 H :    0.009798
Sum of atomic charges:   -0.0000000

LOEWDIN ATOMIC CHARGES
----------------------
   0 C :    0.092368
   1 O :   -0.162023
   2 C :   -0.041123
   3 C :   -0.009292
   4 C :   -0.006847
   5 C :   -0.118968
   6 C :   -0.124013
   7 C :    0.005758
   8 Br:    0.137810
   9 Br:    0.142670
  10 C :    0.075308
  11 C :   -0.136150
  12 C :   -0.019847
  13 N :   -0.046399
  14 C :   -0.021041
  15 N :   -0.047487
  16 C :   -0.117318
  17 C :    0.063219
  18 C :   -0.164759
  19 C :    0.001911
  20 C :   -0.043387
  21 C :   -0.155296
  22 Se:    0.434831
  23 C :   -0.188302
  24 C :   -0.031241
  25 C :   -0.048609
  26 N :    0.007740
  27 C :   -0.034495
  28 C :    0.057870
  29 O :   -0.102184
  30 C :   -0.011442
  31 C :   -0.007118
  32 C :    0.057414
  33 O :   -0.093545
  34 C :   -0.035000
  35 N :    0.011268
  36 C :   -0.171486
  37 S :    0.521364
  38 C :   -0.152468
  39 C :   -0.038807
  40 C :   -0.031445
  41 C :   -0.174274
  42 Se:    0.494966
  43 C :    0.063242
  44 C :   -0.091442
  45 C :    0.081954
  46 O :   -0.131700
  47 C :   -0.043687
  48 C :   -0.010702
  49 C :    0.066223
  50 C :   -0.131013
  51 C :   -0.013812
  52 N :   -0.050946
  53 C :   -0.022649
  54 N :   -0.045394
  55 C :   -0.009342
  56 C :   -0.118450
  57 C :   -0.123345
  58 C :    0.007314
  59 Br:    0.138867
  60 Br:    0.142436
  61 H :    0.045001
  62 H :    0.045677
  63 H :    0.051233
  64 H :    0.042268
  65 H :    0.037068
  66 H :    0.047943
  67 H :    0.048367
  68 H :    0.031571
  69 H :    0.031454
  70 H :    0.049937
  71 H :    0.044625
  72 H :    0.047172

  Mayer bond orders larger than 0.100000
B(  0-C ,  1-O ) :   2.0626 B(  0-C ,  2-C ) :   0.9695 B(  0-C , 16-C ) :   1.0094
B(  1-O , 22-Se) :   0.1336 B(  2-C ,  3-C ) :   1.3293 B(  2-C ,  7-C ) :   1.3683
B(  3-C ,  4-C ) :   1.3714 B(  3-C , 10-C ) :   0.9822 B(  4-C ,  5-C ) :   1.3600
B(  4-C , 61-H ) :   0.9803 B(  5-C ,  6-C ) :   1.4276 B(  5-C ,  9-Br) :   1.0590
B(  6-C ,  7-C ) :   1.3437 B(  6-C ,  8-Br) :   1.0328 B(  7-C , 62-H ) :   1.0101
B( 10-C , 11-C ) :   1.6306 B( 10-C , 16-C ) :   1.0860 B( 11-C , 12-C ) :   1.1431
B( 11-C , 14-C ) :   1.1453 B( 12-C , 13-N ) :   2.9686 B( 14-C , 15-N ) :   2.9595
B( 16-C , 17-C ) :   1.4573 B( 17-C , 18-C ) :   1.2863 B( 17-C , 63-H ) :   0.9395
B( 18-C , 19-C ) :   1.3265 B( 18-C , 22-Se) :   1.0653 B( 19-C , 20-C ) :   1.3432
B( 19-C , 64-H ) :   1.0019 B( 20-C , 21-C ) :   1.4108 B( 20-C , 65-H ) :   0.9911
B( 21-C , 22-Se) :   1.0523 B( 21-C , 23-C ) :   1.2346 B( 23-C , 24-C ) :   1.3143
B( 23-C , 36-C ) :   0.1176 B( 23-C , 37-S ) :   1.1572 B( 24-C , 25-C ) :   1.1932
B( 24-C , 35-N ) :   1.4372 B( 25-C , 26-N ) :   1.3956 B( 25-C , 36-C ) :   1.2871
B( 26-N , 27-C ) :   1.6779 B( 26-N , 42-Se) :   0.1128 B( 27-C , 28-C ) :   0.8953
B( 27-C , 34-C ) :   1.0956 B( 28-C , 29-O ) :   2.2237 B( 28-C , 30-C ) :   1.0243
B( 30-C , 31-C ) :   1.6845 B( 30-C , 66-H ) :   0.9996 B( 31-C , 32-C ) :   1.0266
B( 31-C , 67-H ) :   0.9977 B( 32-C , 33-O ) :   2.2386 B( 32-C , 34-C ) :   0.8941
B( 34-C , 35-N ) :   1.7107 B( 36-C , 37-S ) :   1.1604 B( 36-C , 38-C ) :   1.2517
B( 38-C , 39-C ) :   1.4139 B( 38-C , 42-Se) :   1.1172 B( 39-C , 40-C ) :   1.3155
B( 39-C , 68-H ) :   1.0046 B( 40-C , 41-C ) :   1.4566 B( 40-C , 69-H ) :   0.9974
B( 41-C , 42-Se) :   1.0568 B( 41-C , 43-C ) :   1.0976 B( 43-C , 44-C ) :   1.6708
B( 43-C , 70-H ) :   0.9430 B( 44-C , 45-C ) :   0.9436 B( 44-C , 49-C ) :   1.0402
B( 45-C , 46-O ) :   2.2898 B( 45-C , 47-C ) :   0.9155 B( 47-C , 48-C ) :   1.3267
B( 47-C , 58-C ) :   1.3740 B( 48-C , 49-C ) :   1.0071 B( 48-C , 55-C ) :   1.3707
B( 49-C , 50-C ) :   1.6681 B( 50-C , 51-C ) :   1.1666 B( 50-C , 53-C ) :   1.1253
B( 51-C , 52-N ) :   2.9708 B( 53-C , 54-N ) :   2.9884 B( 55-C , 56-C ) :   1.3701
B( 55-C , 71-H ) :   0.9835 B( 56-C , 57-C ) :   1.4198 B( 56-C , 60-Br) :   1.0521
B( 57-C , 58-C ) :   1.3584 B( 57-C , 59-Br) :   1.0341 B( 58-C , 72-H ) :   1.0075

-----------------------------------------------------------------------------
         ABSORPTION SPECTRUM VIA TRANSITION ELECTRIC DIPOLE MOMENTS
-----------------------------------------------------------------------------
State   Energy  Wavelength   fosc         T2         TX        TY        TZ
        (cm-1)    (nm)                  (au**2)     (au)      (au)      (au)
-----------------------------------------------------------------------------
   0   11027.7    906.8   0.782284479  23.35374   0.88422  -0.16935   4.74797
   1   16266.5    614.8   0.290706330   5.88352   0.88676   1.99381   1.05919
   2   18945.9    527.8   0.227973580   3.96136  -0.81097   0.47700  -1.75390
   3   20787.7    481.1   0.431101901   6.82730   0.37012   0.91549   2.41913
   4   21630.2    462.3   0.148524210   2.26055  -0.35161  -1.38814  -0.45825
   5   22839.4    437.8   0.027280880   0.39323   0.12456   0.26644  -0.55383
   6   23425.7    426.9   0.114727325   1.61232  -0.49691  -0.83186  -0.82061
   7   23568.3    424.3   0.008261284   0.11540   0.04705   0.33636   0.00676
   8   25351.8    394.4   0.001413420   0.01835   0.12498  -0.01198   0.05091
   9   25532.8    391.7   0.037517371   0.48374  -0.01812   0.39665  -0.57104
  10   25774.6    388.0   0.016216730   0.20713  -0.16081   0.27507  -0.32497
  11   26284.6    380.5   0.005498969   0.06887   0.02813   0.18056  -0.18836
  12   26822.5    372.8   0.059331653   0.72822  -0.39268  -0.42222   0.62909
  13   27574.3    362.7   0.147309908   1.75875  -0.06460   0.61513  -1.17311
  14   28030.0    356.8   0.141454961   1.66139   0.56462   1.09353  -0.38313
  15   28651.7    349.0   0.005202478   0.05978  -0.06200   0.08930  -0.21900
  16   28856.6    346.5   0.061186500   0.69805   0.15500  -0.76562   0.29640
  17   29352.4    340.7   0.020265110   0.22729  -0.37655  -0.08960  -0.27833
  18   29567.2    338.2   0.046202237   0.51443  -0.05574  -0.45890   0.54839
  19   30313.2    329.9   0.094716521   1.02865  -0.16056   0.23802  -0.97274
  20   30335.7    329.6   0.004067917   0.04415   0.07897   0.00185   0.19469
  21   30968.0    322.9   0.145481515   1.54657  -0.66565  -0.18874   1.03337
  22   31610.8    316.3   0.023301678   0.24268   0.17428   0.19162   0.41903
  23   32114.3    311.4   0.014637060   0.15005   0.11221   0.00671  -0.37069
  24   32522.1    307.5   0.009405806   0.09521   0.13724   0.23482   0.14573
  25   32569.0    307.0   0.029113665   0.29429  -0.11836  -0.26079  -0.46073
  26   33007.2    303.0   0.034299921   0.34211   0.03657   0.00613   0.58372
  27   33234.9    300.9   0.010454598   0.10356  -0.15120   0.05897   0.27788
  28   33328.9    300.0   0.032391018   0.31995   0.14904   0.21382   0.50201
  29   33375.8    299.6   0.094848532   0.93557  -0.38380  -0.35575  -0.81345
  30   33583.7    297.8   0.264808621   2.59585  -0.63757  -0.72348   1.29071
  31   33738.9    296.4   0.057669177   0.56272  -0.44753  -0.59570  -0.08704
  32   33929.2    294.7   0.051862503   0.50322   0.14364   0.35508  -0.59708
  33   34209.3    292.3   0.409972811   3.94536  -0.80337  -1.58135   0.89403
  34   34518.0    289.7   0.090943217   0.86736   0.00059  -0.24944   0.89730
  35   34583.7    289.2   0.025552350   0.24324   0.05480   0.16360  -0.46203
  36   34684.4    288.3   0.071751245   0.68104   0.32411   0.62955  -0.42386
  37   35051.3    285.3   0.164966099   1.54941  -0.23397  -1.07078  -0.59000
  38   35167.9    284.4   0.172351320   1.61341   0.41418   0.39550  -1.13377
  39   35556.6    281.2   0.144701351   1.33976  -0.15341  -0.24167   1.12153
  40   35731.0    279.9   0.217042644   1.99975   0.53573   0.82502   1.01592
  41   35973.0    278.0   0.121170320   1.10891  -0.65698  -0.80513  -0.17047
  42   36329.6    275.3   0.100920895   0.91453  -0.17104  -0.61427   0.71270
  43   36435.0    274.5   0.021428738   0.19362  -0.02969  -0.23621   0.37006
  44   36634.6    273.0   0.019538183   0.17558   0.19750   0.31819   0.18796
  45   37012.0    270.2   0.021062728   0.18735   0.21861  -0.06141   0.36849
  46   37074.0    269.7   0.001108240   0.00984   0.03842  -0.03758  -0.08338
  47   37430.7    267.2   0.025023307   0.22009  -0.13990   0.35064   0.27850
  48   37499.0    266.7   0.021685006   0.19038   0.06150  -0.41482   0.12049
  49   37600.4    266.0   0.004680665   0.04098   0.02318   0.13614  -0.14802
  50   38013.6    263.1   0.021146504   0.18314   0.05415   0.21274  -0.36735
  51   38096.1    262.5   0.066805715   0.57731   0.13469   0.66947  -0.33314
  52   38139.7    262.2   0.031846287   0.27489  -0.08329   0.30771   0.41625
  53   38398.1    260.4   0.012690021   0.10880   0.15096  -0.28866  -0.05184
  54   38903.7    257.0   0.058912433   0.49853   0.40722   0.32494   0.47657
  55   39014.6    256.3   0.127797846   1.07838  -0.15932  -1.01506  -0.15051
  56   39392.8    253.9   0.039638165   0.33126   0.13586   0.53352  -0.16782
  57   39644.9    252.2   0.039705705   0.32972  -0.11600  -0.54700  -0.13060
  58   39854.0    250.9   0.001369673   0.01131   0.00050   0.10629  -0.00407
  59   40092.7    249.4   0.000086331   0.00071   0.01126  -0.01124   0.02135
  60   40224.4    248.6   0.006674998   0.05463  -0.00779  -0.21887   0.08165

FINAL SINGLE POINT ENERGY    -17806.954974242726

DIPOLE MOMENT
-------------
                                X             Y             Z
Electronic contribution:     52.77348     139.54713     -34.14070
Nuclear contribution   :    -52.02863    -140.27984      31.74860
                        -----------------------------------------
Total Dipole Moment    :      0.74485      -0.73271      -2.39210
                        -----------------------------------------
Magnitude (a.u.)       :      2.61033
Magnitude (Debye)      :      6.63493

Rotational constants in cm-1:     0.000928     0.000257     0.000204
Rotational constants in MHz :    27.835216     7.693418     6.126159

                             ****ORCA TERMINATED NORMALLY****
TOTAL RUN TIME: 0 days 0 hours 8 minutes 13 seconds 620 msec
