                         Program Version 4.2.0 -  RELEASE  -
|  1> # ORCA input file
|  2> # SCF done       -217.730700783610          0.000496564054
|  3> ! CAM-B3LYP def2-SVP def2/J RIJCOSX Grid4 TightSCF
|  4> %maxcore 5000
|  5> %tddft
|  6>     Mode sTDDFT
|  7>     Ethresh 5.0
|  8>     maxcore 5000
|  9> end
| 10>
| 11> %pal
| 12>   nprocs 6
| 13>   end
| 14> * xyz 0 1
| 15>    C       -2.50939         3.16519         4.14358
| 16>    C       -1.78046         4.04669         3.39583
| 17>    F       -1.45508         5.24541         3.89599
| 18>    C       -1.36192         3.70808         2.09291
| 19>    F       -0.64818         4.59214         1.38390
| 20>    C       -1.67783         2.49158         1.55591
| 21>    C       -2.42669         1.56086         2.30204
| 22>    C       -2.85223         1.90267         3.61877
| 23>    C       -3.60797         0.98671         4.38539
| 24>    C       -3.92677        -0.23468         3.85179
| 25>    C       -3.48895        -0.57031         2.54160
| 26>    C       -2.76107         0.29378         1.77531
| 27>    C       -3.93265        -1.93636         2.20404
| 28>    O       -3.71346        -2.51661         1.16315
| 29>    C       -4.63240        -2.43844         3.41251
| 30>    C       -4.68436        -1.36078         4.38763
| 31>    C       -5.37848        -1.35286         5.56939
| 32>    C       -6.19700        -2.39597         6.05305
| 33>    N       -6.89530        -3.18751         6.50589
| 34>    C       -5.39765        -0.26151         6.46440
| 35>    N       -5.44990         0.58573         7.23684
| 36>    C       -5.03538        -3.71916         3.67453
| 37>    C       -5.11075        -4.85307         2.84163
| 38>    C       -5.02573        -5.02177         1.46432
| 39>    C       -5.19556        -6.34746         1.08880
| 40>    C       -5.40877        -7.21047         2.18623
| 41>    S       -5.42851        -6.38572         3.66900
| 42>    C       -5.52757        -8.53423         1.69855
| 43>    C       -5.39727        -8.51669         0.30023
| 44>    C       -5.20531        -7.14021        -0.13314
| 45>    C       -5.08892        -6.68730        -1.41276
| 46>    C       -5.12588        -7.55630        -2.52576
| 47>    N       -5.15834        -8.25145        -3.43639
| 48>    C       -4.95397        -5.31793        -1.73370
| 49>    N       -4.86359        -4.21388        -2.02695
| 50>    C       -5.48091        -9.79049        -0.26757
| 51>    C       -5.67414       -10.77311         0.68379
| 52>    S       -5.76161       -10.10636         2.30998
| 53>    C       -5.78635       -12.19907         0.51868
| 54>    C       -6.13866       -13.01451         1.60052
| 55>    C       -6.21728       -14.37914         1.47191
| 56>    F       -6.56504       -15.08494         2.56661
| 57>    C       -5.95267       -15.05328         0.26973
| 58>    C       -5.61222       -14.23677        -0.81685
| 59>    C       -5.53601       -12.86938        -0.68993
| 60>    F       -5.18460       -12.17418        -1.78411
| 61>    C       -6.00356       -16.48680         0.15083
| 62>    C       -5.78501       -17.23708        -0.99217
| 63>    C       -5.87787       -18.60636        -0.74911
| 64>    C       -6.17118       -18.89868         0.59405
| 65>    S       -6.33650       -17.49835         1.54546
| 66>    C       -6.22003       -20.30654         0.74660
| 67>    C       -5.96539       -20.90633        -0.50221
| 68>    C       -5.74499       -19.85558        -1.48391
| 69>    C       -5.47112       -20.00720        -2.81072
| 70>    C       -5.37716       -21.27700        -3.41987
| 71>    N       -5.31045       -22.30693        -3.91817
| 72>    C       -5.27322       -18.89875        -3.66153
| 73>    N       -5.11514       -17.99349        -4.34682
| 74>    C       -5.99227       -22.29568        -0.44567
| 75>    C       -6.22263       -22.76573         0.83898
| 76>    S       -6.47256       -21.44639         1.98152
| 77>    C       -6.34471       -24.12450         1.21088
| 78>    C       -6.28013       -24.69399         2.44484
| 79>    C       -6.90348       -26.03016         2.66646
| 80>    O       -7.26816       -26.80782         1.81730
| 81>    C       -7.03441       -26.15295         4.13302
| 82>    C       -7.65616       -27.12648         4.86050
| 83>    C       -7.68360       -27.01911         6.26921
| 84>    C       -7.06869       -25.89755         6.89868
| 85>    C       -7.10888       -25.79262         8.30356
| 86>    C       -7.72672       -26.75719         9.04889
| 87>    C       -8.33212       -27.86737         8.42574
| 88>    C       -8.31151       -27.99691         7.06527
| 89>    F       -8.93123       -28.79658         9.18124
| 90>    F       -7.76360       -26.65593        10.38330
| 91>    C       -6.42389       -24.90943         6.12016
| 92>    C       -6.40170       -25.04002         4.75773
| 93>    C       -5.78860       -24.21611         3.71994
| 94>    C       -4.73289       -23.36387         3.91146
| 95>    C       -3.98272       -22.81285         2.85226
| 96>    N       -3.33165       -22.38035         2.01160
| 97>    C       -4.22676       -23.01839         5.18091
| 98>    N       -3.79475       -22.69384         6.19317
| 99>    H       -2.82313         3.44092         5.13829
|100>    H       -1.35017         2.24716         0.55764
|101>    H       -3.91005         1.27452         5.37918
|102>    H       -2.44601         0.01223         0.78209
|103>    H       -5.32933        -3.92674         4.69722
|104>    H       -4.83609        -4.20449         0.79250
|105>    H       -5.40619        -9.98585        -1.32082
|106>    H       -6.35592       -12.57887         2.56353
|107>    H       -5.39058       -14.66446        -1.78032
|108>    H       -5.56814       -16.81175        -1.95391
|109>    H       -5.82236       -22.95387        -1.27860
|110>    H       -6.60443       -24.80319         0.40332
|111>    H       -8.12120       -27.96715         4.36863
|112>    H       -6.64674       -24.95171         8.79663
|113>    H       -8.77951       -28.85234         6.60388
|114>    H       -5.97216       -24.06675         6.61915
|115> *
|116>
|117>                          ****END OF INPUT****

CARTESIAN COORDINATES (ANGSTROEM)
---------------------------------
  C     -2.509390    3.165190    4.143580
  C     -1.780460    4.046690    3.395830
  F     -1.455080    5.245410    3.895990
  C     -1.361920    3.708080    2.092910
  F     -0.648180    4.592140    1.383900
  C     -1.677830    2.491580    1.555910
  C     -2.426690    1.560860    2.302040
  C     -2.852230    1.902670    3.618770
  C     -3.607970    0.986710    4.385390
  C     -3.926770   -0.234680    3.851790
  C     -3.488950   -0.570310    2.541600
  C     -2.761070    0.293780    1.775310
  C     -3.932650   -1.936360    2.204040
  O     -3.713460   -2.516610    1.163150
  C     -4.632400   -2.438440    3.412510
  C     -4.684360   -1.360780    4.387630
  C     -5.378480   -1.352860    5.569390
  C     -6.197000   -2.395970    6.053050
  N     -6.895300   -3.187510    6.505890
  C     -5.397650   -0.261510    6.464400
  N     -5.449900    0.585730    7.236840
  C     -5.035380   -3.719160    3.674530
  C     -5.110750   -4.853070    2.841630
  C     -5.025730   -5.021770    1.464320
  C     -5.195560   -6.347460    1.088800
  C     -5.408770   -7.210470    2.186230
  S     -5.428510   -6.385720    3.669000
  C     -5.527570   -8.534230    1.698550
  C     -5.397270   -8.516690    0.300230
  C     -5.205310   -7.140210   -0.133140
  C     -5.088920   -6.687300   -1.412760
  C     -5.125880   -7.556300   -2.525760
  N     -5.158340   -8.251450   -3.436390
  C     -4.953970   -5.317930   -1.733700
  N     -4.863590   -4.213880   -2.026950
  C     -5.480910   -9.790490   -0.267570
  C     -5.674140  -10.773110    0.683790
  S     -5.761610  -10.106360    2.309980
  C     -5.786350  -12.199070    0.518680
  C     -6.138660  -13.014510    1.600520
  C     -6.217280  -14.379140    1.471910
  F     -6.565040  -15.084940    2.566610
  C     -5.952670  -15.053280    0.269730
  C     -5.612220  -14.236770   -0.816850
  C     -5.536010  -12.869380   -0.689930
  F     -5.184600  -12.174180   -1.784110
  C     -6.003560  -16.486800    0.150830
  C     -5.785010  -17.237080   -0.992170
  C     -5.877870  -18.606360   -0.749110
  C     -6.171180  -18.898680    0.594050
  S     -6.336500  -17.498350    1.545460
  C     -6.220030  -20.306540    0.746600
  C     -5.965390  -20.906330   -0.502210
  C     -5.744990  -19.855580   -1.483910
  C     -5.471120  -20.007200   -2.810720
  C     -5.377160  -21.277000   -3.419870
  N     -5.310450  -22.306930   -3.918170
  C     -5.273220  -18.898750   -3.661530
  N     -5.115140  -17.993490   -4.346820
  C     -5.992270  -22.295680   -0.445670
  C     -6.222630  -22.765730    0.838980
  S     -6.472560  -21.446390    1.981520
  C     -6.344710  -24.124500    1.210880
  C     -6.280130  -24.693990    2.444840
  C     -6.903480  -26.030160    2.666460
  O     -7.268160  -26.807820    1.817300
  C     -7.034410  -26.152950    4.133020
  C     -7.656160  -27.126480    4.860500
  C     -7.683600  -27.019110    6.269210
  C     -7.068690  -25.897550    6.898680
  C     -7.108880  -25.792620    8.303560
  C     -7.726720  -26.757190    9.048890
  C     -8.332120  -27.867370    8.425740
  C     -8.311510  -27.996910    7.065270
  F     -8.931230  -28.796580    9.181240
  F     -7.763600  -26.655930   10.383300
  C     -6.423890  -24.909430    6.120160
  C     -6.401700  -25.040020    4.757730
  C     -5.788600  -24.216110    3.719940
  C     -4.732890  -23.363870    3.911460
  C     -3.982720  -22.812850    2.852260
  N     -3.331650  -22.380350    2.011600
  C     -4.226760  -23.018390    5.180910
  N     -3.794750  -22.693840    6.193170
  H     -2.823130    3.440920    5.138290
  H     -1.350170    2.247160    0.557640
  H     -3.910050    1.274520    5.379180
  H     -2.446010    0.012230    0.782090
  H     -5.329330   -3.926740    4.697220
  H     -4.836090   -4.204490    0.792500
  H     -5.406190   -9.985850   -1.320820
  H     -6.355920  -12.578870    2.563530
  H     -5.390580  -14.664460   -1.780320
  H     -5.568140  -16.811750   -1.953910
  H     -5.822360  -22.953870   -1.278600
  H     -6.604430  -24.803190    0.403320
  H     -8.121200  -27.967150    4.368630
  H     -6.646740  -24.951710    8.796630
  H     -8.779510  -28.852340    6.603880
  H     -5.972160  -24.066750    6.619150

 Total Charge           Charge          ....    0
 Multiplicity           Mult            ....    1
 Number of Electrons    NEL             ....  590
 Basis Dimension        Dim             .... 1272

ORBITAL ENERGIES
----------------

  NO   OCC          E(Eh)            E(eV)
   0   2.0000     -89.004871     -2421.9457
   1   2.0000     -89.003897     -2421.9192
   2   2.0000     -89.003825     -2421.9172
   3   2.0000     -89.002654     -2421.8853
   4   2.0000     -24.818404      -675.3431
   5   2.0000     -24.809772      -675.1082
   6   2.0000     -24.803097      -674.9266
   7   2.0000     -24.802816      -674.9189
   8   2.0000     -24.800434      -674.8541
   9   2.0000     -24.799695      -674.8340
  10   2.0000     -19.225186      -523.1439
  11   2.0000     -19.222940      -523.0828
  12   2.0000     -14.440058      -392.9339
  13   2.0000     -14.438835      -392.9007
  14   2.0000     -14.437937      -392.8763
  15   2.0000     -14.435542      -392.8111
  16   2.0000     -14.424975      -392.5235
  17   2.0000     -14.423991      -392.4968
  18   2.0000     -14.423161      -392.4742
  19   2.0000     -14.419921      -392.3860
  20   2.0000     -10.390532      -282.7408
  21   2.0000     -10.389686      -282.7177
  22   2.0000     -10.386752      -282.6379
  23   2.0000     -10.386395      -282.6282
  24   2.0000     -10.383994      -282.5628
  25   2.0000     -10.383228      -282.5420
  26   2.0000     -10.376658      -282.3632
  27   2.0000     -10.375757      -282.3387
  28   2.0000     -10.375411      -282.3293
  29   2.0000     -10.375096      -282.3207
  30   2.0000     -10.363109      -281.9945
  31   2.0000     -10.361794      -281.9587
  32   2.0000     -10.353870      -281.7431
  33   2.0000     -10.353421      -281.7309
  34   2.0000     -10.352467      -281.7050
  35   2.0000     -10.352177      -281.6970
  36   2.0000     -10.348484      -281.5966
  37   2.0000     -10.347799      -281.5779
  38   2.0000     -10.346327      -281.5379
  39   2.0000     -10.344968      -281.5009
  40   2.0000     -10.343975      -281.4739
  41   2.0000     -10.341435      -281.4048
  42   2.0000     -10.340191      -281.3709
  43   2.0000     -10.338636      -281.3286
  44   2.0000     -10.337431      -281.2958
  45   2.0000     -10.336555      -281.2720
  46   2.0000     -10.336471      -281.2697
  47   2.0000     -10.335347      -281.2391
  48   2.0000     -10.334451      -281.2147
  49   2.0000     -10.333781      -281.1965
  50   2.0000     -10.333577      -281.1909
  51   2.0000     -10.333229      -281.1815
  52   2.0000     -10.327277      -281.0195
  53   2.0000     -10.326093      -280.9873
  54   2.0000     -10.325780      -280.9787
  55   2.0000     -10.322853      -280.8991
  56   2.0000     -10.321785      -280.8700
  57   2.0000     -10.320062      -280.8232
  58   2.0000     -10.318556      -280.7822
  59   2.0000     -10.317054      -280.7413
  60   2.0000     -10.316898      -280.7371
  61   2.0000     -10.316763      -280.7334
  62   2.0000     -10.316428      -280.7243
  63   2.0000     -10.316143      -280.7165
  64   2.0000     -10.315996      -280.7125
  65   2.0000     -10.315336      -280.6946
  66   2.0000     -10.314549      -280.6731
  67   2.0000     -10.314501      -280.6718
  68   2.0000     -10.313743      -280.6512
  69   2.0000     -10.313457      -280.6434
  70   2.0000     -10.313197      -280.6363
  71   2.0000     -10.311111      -280.5796
  72   2.0000     -10.309529      -280.5365
  73   2.0000     -10.309252      -280.5290
  74   2.0000     -10.309007      -280.5224
  75   2.0000     -10.307808      -280.4897
  76   2.0000     -10.306526      -280.4548
  77   2.0000     -10.305943      -280.4390
  78   2.0000     -10.305923      -280.4384
  79   2.0000     -10.305416      -280.4246
  80   2.0000     -10.303459      -280.3714
  81   2.0000     -10.302851      -280.3548
  82   2.0000     -10.300900      -280.3017
  83   2.0000     -10.296686      -280.1871
  84   2.0000      -8.099517      -220.3991
  85   2.0000      -8.098663      -220.3758
  86   2.0000      -8.098077      -220.3599
  87   2.0000      -8.096749      -220.3237
  88   2.0000      -6.068753      -165.1392
  89   2.0000      -6.067757      -165.1121
  90   2.0000      -6.067330      -165.1004
  91   2.0000      -6.066044      -165.0655
  92   2.0000      -6.064578      -165.0255
  93   2.0000      -6.063609      -164.9992
  94   2.0000      -6.063088      -164.9850
  95   2.0000      -6.061879      -164.9521
  96   2.0000      -6.061568      -164.9437
  97   2.0000      -6.061217      -164.9341
  98   2.0000      -6.060513      -164.9149
  99   2.0000      -6.059246      -164.8805
 100   2.0000      -1.333130       -36.2763
 101   2.0000      -1.326116       -36.0855
 102   2.0000      -1.325576       -36.0707
 103   2.0000      -1.323168       -36.0052
 104   2.0000      -1.311219       -35.6801
 105   2.0000      -1.308269       -35.5998
 106   2.0000      -1.141107       -31.0511
 107   2.0000      -1.139075       -30.9958
 108   2.0000      -1.058898       -28.8141
 109   2.0000      -1.058447       -28.8018
 110   2.0000      -1.032293       -28.0901
 111   2.0000      -1.029831       -28.0231
 112   2.0000      -1.029218       -28.0064
 113   2.0000      -1.025861       -27.9151
 114   2.0000      -1.018911       -27.7260
 115   2.0000      -1.017010       -27.6743
 116   2.0000      -1.014093       -27.5949
 117   2.0000      -1.012758       -27.5585
 118   2.0000      -1.011261       -27.5178
 119   2.0000      -1.008882       -27.4531
 120   2.0000      -1.003000       -27.2930
 121   2.0000      -1.000111       -27.2144
 122   2.0000      -0.996793       -27.1241
 123   2.0000      -0.988673       -26.9032
 124   2.0000      -0.985832       -26.8259
 125   2.0000      -0.973180       -26.4816
 126   2.0000      -0.967809       -26.3354
 127   2.0000      -0.941226       -25.6121
 128   2.0000      -0.939171       -25.5562
 129   2.0000      -0.933889       -25.4124
 130   2.0000      -0.926572       -25.2133
 131   2.0000      -0.914234       -24.8776
 132   2.0000      -0.907294       -24.6887
 133   2.0000      -0.900715       -24.5097
 134   2.0000      -0.898638       -24.4532
 135   2.0000      -0.895331       -24.3632
 136   2.0000      -0.887430       -24.1482
 137   2.0000      -0.886432       -24.1210
 138   2.0000      -0.877973       -23.8909
 139   2.0000      -0.874311       -23.7912
 140   2.0000      -0.869470       -23.6595
 141   2.0000      -0.867880       -23.6162
 142   2.0000      -0.865228       -23.5440
 143   2.0000      -0.847073       -23.0500
 144   2.0000      -0.843887       -22.9633
 145   2.0000      -0.835596       -22.7377
 146   2.0000      -0.824432       -22.4339
 147   2.0000      -0.810330       -22.0502
 148   2.0000      -0.790652       -21.5147
 149   2.0000      -0.788493       -21.4560
 150   2.0000      -0.784157       -21.3380
 151   2.0000      -0.773477       -21.0474
 152   2.0000      -0.772499       -21.0208
 153   2.0000      -0.765949       -20.8425
 154   2.0000      -0.749556       -20.3965
 155   2.0000      -0.745756       -20.2931
 156   2.0000      -0.738490       -20.0953
 157   2.0000      -0.726484       -19.7686
 158   2.0000      -0.724708       -19.7203
 159   2.0000      -0.721386       -19.6299
 160   2.0000      -0.717035       -19.5115
 161   2.0000      -0.712367       -19.3845
 162   2.0000      -0.708649       -19.2833
 163   2.0000      -0.698590       -19.0096
 164   2.0000      -0.698408       -19.0047
 165   2.0000      -0.693446       -18.8696
 166   2.0000      -0.692096       -18.8329
 167   2.0000      -0.690566       -18.7913
 168   2.0000      -0.684320       -18.6213
 169   2.0000      -0.672139       -18.2898
 170   2.0000      -0.667441       -18.1620
 171   2.0000      -0.660244       -17.9661
 172   2.0000      -0.658978       -17.9317
 173   2.0000      -0.655243       -17.8301
 174   2.0000      -0.648865       -17.6565
 175   2.0000      -0.646353       -17.5882
 176   2.0000      -0.644248       -17.5309
 177   2.0000      -0.643798       -17.5186
 178   2.0000      -0.638836       -17.3836
 179   2.0000      -0.635178       -17.2841
 180   2.0000      -0.632087       -17.2000
 181   2.0000      -0.628538       -17.1034
 182   2.0000      -0.624438       -16.9918
 183   2.0000      -0.622296       -16.9335
 184   2.0000      -0.619520       -16.8580
 185   2.0000      -0.611339       -16.6354
 186   2.0000      -0.600193       -16.3321
 187   2.0000      -0.594759       -16.1842
 188   2.0000      -0.593702       -16.1555
 189   2.0000      -0.592655       -16.1270
 190   2.0000      -0.590575       -16.0704
 191   2.0000      -0.589756       -16.0481
 192   2.0000      -0.587619       -15.9899
 193   2.0000      -0.583641       -15.8817
 194   2.0000      -0.580082       -15.7848
 195   2.0000      -0.578052       -15.7296
 196   2.0000      -0.572561       -15.5802
 197   2.0000      -0.562880       -15.3167
 198   2.0000      -0.561832       -15.2882
 199   2.0000      -0.560377       -15.2486
 200   2.0000      -0.559977       -15.2377
 201   2.0000      -0.559409       -15.2223
 202   2.0000      -0.557758       -15.1774
 203   2.0000      -0.556466       -15.1422
 204   2.0000      -0.552106       -15.0236
 205   2.0000      -0.549323       -14.9478
 206   2.0000      -0.549112       -14.9421
 207   2.0000      -0.545578       -14.8459
 208   2.0000      -0.544670       -14.8212
 209   2.0000      -0.543588       -14.7918
 210   2.0000      -0.540625       -14.7112
 211   2.0000      -0.537142       -14.6164
 212   2.0000      -0.534921       -14.5559
 213   2.0000      -0.532593       -14.4926
 214   2.0000      -0.530931       -14.4474
 215   2.0000      -0.526787       -14.3346
 216   2.0000      -0.523312       -14.2401
 217   2.0000      -0.521773       -14.1982
 218   2.0000      -0.519106       -14.1256
 219   2.0000      -0.518352       -14.1051
 220   2.0000      -0.516289       -14.0489
 221   2.0000      -0.514648       -14.0043
 222   2.0000      -0.513113       -13.9625
 223   2.0000      -0.511418       -13.9164
 224   2.0000      -0.510975       -13.9043
 225   2.0000      -0.509162       -13.8550
 226   2.0000      -0.506451       -13.7812
 227   2.0000      -0.503183       -13.6923
 228   2.0000      -0.502831       -13.6827
 229   2.0000      -0.501033       -13.6338
 230   2.0000      -0.499754       -13.5990
 231   2.0000      -0.497602       -13.5405
 232   2.0000      -0.496679       -13.5153
 233   2.0000      -0.489666       -13.3245
 234   2.0000      -0.488724       -13.2989
 235   2.0000      -0.484230       -13.1766
 236   2.0000      -0.483183       -13.1481
 237   2.0000      -0.475084       -12.9277
 238   2.0000      -0.473234       -12.8773
 239   2.0000      -0.472846       -12.8668
 240   2.0000      -0.470546       -12.8042
 241   2.0000      -0.469883       -12.7862
 242   2.0000      -0.469124       -12.7655
 243   2.0000      -0.467055       -12.7092
 244   2.0000      -0.465864       -12.6768
 245   2.0000      -0.465672       -12.6716
 246   2.0000      -0.462423       -12.5832
 247   2.0000      -0.459113       -12.4931
 248   2.0000      -0.457214       -12.4414
 249   2.0000      -0.457078       -12.4377
 250   2.0000      -0.455219       -12.3872
 251   2.0000      -0.453221       -12.3328
 252   2.0000      -0.451186       -12.2774
 253   2.0000      -0.450461       -12.2577
 254   2.0000      -0.450326       -12.2540
 255   2.0000      -0.449420       -12.2293
 256   2.0000      -0.448730       -12.2106
 257   2.0000      -0.448262       -12.1978
 258   2.0000      -0.447099       -12.1662
 259   2.0000      -0.446042       -12.1374
 260   2.0000      -0.445894       -12.1334
 261   2.0000      -0.444772       -12.1029
 262   2.0000      -0.437770       -11.9123
 263   2.0000      -0.436579       -11.8799
 264   2.0000      -0.435109       -11.8399
 265   2.0000      -0.434689       -11.8285
 266   2.0000      -0.434098       -11.8124
 267   2.0000      -0.432107       -11.7582
 268   2.0000      -0.430777       -11.7220
 269   2.0000      -0.428696       -11.6654
 270   2.0000      -0.426959       -11.6181
 271   2.0000      -0.416788       -11.3414
 272   2.0000      -0.414611       -11.2821
 273   2.0000      -0.410267       -11.1639
 274   2.0000      -0.407590       -11.0911
 275   2.0000      -0.403332       -10.9752
 276   2.0000      -0.393516       -10.7081
 277   2.0000      -0.390359       -10.6222
 278   2.0000      -0.381625       -10.3845
 279   2.0000      -0.371948       -10.1212
 280   2.0000      -0.363493        -9.8911
 281   2.0000      -0.359592        -9.7850
 282   2.0000      -0.351513        -9.5651
 283   2.0000      -0.349445        -9.5089
 284   2.0000      -0.345873        -9.4117
 285   2.0000      -0.341370        -9.2892
 286   2.0000      -0.334205        -9.0942
 287   2.0000      -0.332169        -9.0388
 288   2.0000      -0.324706        -8.8357
 289   2.0000      -0.322320        -8.7708
 290   2.0000      -0.320242        -8.7142
 291   2.0000      -0.307880        -8.3778
 292   2.0000      -0.304149        -8.2763
 293   2.0000      -0.284794        -7.7496
 294   2.0000      -0.265234        -7.2174
 295   0.0000      -0.124784        -3.3956
 296   0.0000      -0.118435        -3.2228
 297   0.0000      -0.098009        -2.6670
 298   0.0000      -0.096892        -2.6366
 299   0.0000      -0.068329        -1.8593

MULLIKEN ATOMIC CHARGES
-----------------------
   0 C :   -0.107738
   1 C :    0.243476
   2 F :   -0.169708
   3 C :    0.237897
   4 F :   -0.170972
   5 C :   -0.102774
   6 C :    0.117689
   7 C :    0.113967
   8 C :   -0.082559
   9 C :    0.048569
  10 C :   -0.004347
  11 C :   -0.080102
  12 C :    0.158141
  13 O :   -0.146090
  14 C :   -0.090681
  15 C :    0.310243
  16 C :   -0.352289
  17 C :   -0.200150
  18 N :    0.154925
  19 C :   -0.180252
  20 N :    0.150704
  21 C :    0.034118
  22 C :   -0.113464
  23 C :    0.003846
  24 C :   -0.007175
  25 C :   -0.079744
  26 S :    0.208701
  27 C :   -0.097330
  28 C :    0.018346
  29 C :    0.303577
  30 C :   -0.290130
  31 C :   -0.194750
  32 N :    0.187084
  33 C :   -0.191456
  34 N :    0.193888
  35 C :   -0.046289
  36 C :   -0.070190
  37 S :    0.172504
  38 C :    0.096113
  39 C :   -0.112887
  40 C :    0.210942
  41 F :   -0.188984
  42 C :    0.095034
  43 C :   -0.101135
  44 C :    0.232387
  45 F :   -0.173010
  46 C :   -0.071641
  47 C :   -0.045785
  48 C :    0.022813
  49 C :   -0.098241
  50 S :    0.220594
  51 C :   -0.082908
  52 C :    0.022758
  53 C :    0.303350
  54 C :   -0.288280
  55 C :   -0.188084
  56 N :    0.179647
  57 C :   -0.186357
  58 N :    0.172349
  59 C :    0.008860
  60 C :   -0.094280
  61 S :    0.209076
  62 C :    0.052456
  63 C :   -0.144458
  64 C :    0.143645
  65 O :   -0.136364
  66 C :    0.011939
  67 C :   -0.082566
  68 C :    0.112901
  69 C :    0.113582
  70 C :   -0.106640
  71 C :    0.241062
  72 C :    0.238955
  73 C :   -0.102525
  74 F :   -0.170301
  75 F :   -0.169605
  76 C :   -0.081878
  77 C :    0.038391
  78 C :    0.247795
  79 C :   -0.325311
  80 C :   -0.211452
  81 N :    0.176508
  82 C :   -0.170820
  83 N :    0.157066
  84 H :    0.007603
  85 H :    0.000942
  86 H :   -0.005301
  87 H :   -0.006400
  88 H :    0.014597
  89 H :    0.040922
  90 H :    0.021992
  91 H :    0.007341
  92 H :    0.002214
  93 H :    0.007980
  94 H :    0.020309
  95 H :    0.035214
  96 H :   -0.006398
  97 H :    0.006023
  98 H :    0.001198
  99 H :   -0.002433
Sum of atomic charges:   -0.0000000

LOEWDIN ATOMIC CHARGES
----------------------
   0 C :   -0.029169
   1 C :    0.067115
   2 F :   -0.047818
   3 C :    0.068312
   4 F :   -0.048093
   5 C :   -0.032167
   6 C :   -0.008184
   7 C :   -0.006327
   8 C :    0.018273
   9 C :   -0.024075
  10 C :   -0.052521
  11 C :    0.032339
  12 C :    0.086017
  13 O :   -0.135072
  14 C :   -0.095157
  15 C :    0.076209
  16 C :   -0.141053
  17 C :   -0.024882
  18 N :   -0.052334
  19 C :   -0.017672
  20 N :   -0.051965
  21 C :    0.043248
  22 C :   -0.175212
  23 C :    0.019945
  24 C :   -0.071661
  25 C :   -0.160622
  26 S :    0.498787
  27 C :   -0.186211
  28 C :   -0.054912
  29 C :    0.073547
  30 C :   -0.088738
  31 C :   -0.018421
  32 N :   -0.022203
  33 C :   -0.021679
  34 N :   -0.013542
  35 C :   -0.023152
  36 C :   -0.149215
  37 S :    0.484494
  38 C :   -0.057740
  39 C :   -0.041603
  40 C :    0.079055
  41 F :   -0.064069
  42 C :   -0.055055
  43 C :   -0.023605
  44 C :    0.092903
  45 F :   -0.048284
  46 C :   -0.157051
  47 C :   -0.024064
  48 C :   -0.056301
  49 C :   -0.191462
  50 S :    0.507223
  51 C :   -0.150446
  52 C :   -0.071806
  53 C :    0.080151
  54 C :   -0.096283
  55 C :   -0.017714
  56 N :   -0.024733
  57 C :   -0.015697
  58 N :   -0.029683
  59 C :    0.016121
  60 C :   -0.178544
  61 S :    0.512862
  62 C :    0.053599
  63 C :   -0.101445
  64 C :    0.083362
  65 O :   -0.138537
  66 C :   -0.054116
  67 C :    0.031843
  68 C :   -0.008907
  69 C :   -0.005489
  70 C :   -0.030301
  71 C :    0.067761
  72 C :    0.067801
  73 C :   -0.032083
  74 F :   -0.047978
  75 F :   -0.047390
  76 C :    0.014140
  77 C :   -0.020730
  78 C :    0.060171
  79 C :   -0.143505
  80 C :   -0.037410
  81 N :   -0.046324
  82 C :   -0.020220
  83 N :   -0.048701
  84 H :    0.047783
  85 H :    0.045587
  86 H :    0.040079
  87 H :    0.041805
  88 H :    0.043170
  89 H :    0.044682
  90 H :    0.041334
  91 H :    0.034443
  92 H :    0.047221
  93 H :    0.039748
  94 H :    0.047965
  95 H :    0.055988
  96 H :    0.041641
  97 H :    0.047336
  98 H :    0.045509
  99 H :    0.039763

  Mayer bond orders larger than 0.100000
B(  0-C ,  1-C ) :   1.4403 B(  0-C ,  5-C ) :   0.1085 B(  0-C ,  7-C ) :   1.1881
B(  0-C , 84-H ) :   1.0069 B(  1-C ,  2-F ) :   1.1364 B(  1-C ,  3-C ) :   1.1914
B(  3-C ,  4-F ) :   1.1339 B(  3-C ,  5-C ) :   1.4428 B(  5-C ,  6-C ) :   1.1921
B(  5-C , 85-H ) :   1.0069 B(  6-C ,  7-C ) :   1.2583 B(  6-C , 11-C ) :   1.1869
B(  7-C ,  8-C ) :   1.2167 B(  8-C ,  9-C ) :   1.4481 B(  8-C , 86-H ) :   0.9896
B(  9-C , 10-C ) :   1.2242 B(  9-C , 15-C ) :   0.9825 B( 10-C , 11-C ) :   1.4707
B( 10-C , 12-C ) :   0.9494 B( 11-C , 87-H ) :   1.0168 B( 12-C , 13-O ) :   2.1838
B( 12-C , 14-C ) :   0.9401 B( 14-C , 15-C ) :   1.0782 B( 14-C , 21-C ) :   1.5940
B( 15-C , 16-C ) :   1.6291 B( 16-C , 17-C ) :   1.1394 B( 16-C , 19-C ) :   1.1465
B( 17-C , 18-N ) :   2.9822 B( 19-C , 20-N ) :   2.9649 B( 21-C , 22-C ) :   1.2114
B( 21-C , 88-H ) :   0.9155 B( 22-C , 23-C ) :   1.3997 B( 22-C , 26-S ) :   1.0770
B( 23-C , 24-C ) :   1.3196 B( 23-C , 89-H ) :   0.9715 B( 24-C , 25-C ) :   1.3851
B( 24-C , 29-C ) :   0.9943 B( 25-C , 26-S ) :   1.1669 B( 25-C , 27-C ) :   1.1948
B( 27-C , 28-C ) :   1.4414 B( 27-C , 37-S ) :   1.1206 B( 28-C , 29-C ) :   0.9958
B( 28-C , 35-C ) :   1.2685 B( 29-C , 30-C ) :   1.7213 B( 30-C , 31-C ) :   1.1344
B( 30-C , 33-C ) :   1.1360 B( 31-C , 32-N ) :   2.9942 B( 33-C , 34-N ) :   2.9949
B( 35-C , 36-C ) :   1.4791 B( 35-C , 90-H ) :   0.9942 B( 36-C , 37-S ) :   1.1091
B( 36-C , 38-C ) :   1.0941 B( 38-C , 39-C ) :   1.2680 B( 38-C , 44-C ) :   1.2963
B( 39-C , 40-C ) :   1.4191 B( 39-C , 91-H ) :   0.9809 B( 40-C , 41-F ) :   1.0944
B( 40-C , 42-C ) :   1.2895 B( 42-C , 43-C ) :   1.2861 B( 42-C , 46-C ) :   1.0826
B( 43-C , 44-C ) :   1.4000 B( 43-C , 92-H ) :   0.9930 B( 44-C , 45-F ) :   1.1155
B( 46-C , 47-C ) :   1.4702 B( 46-C , 50-S ) :   1.1197 B( 47-C , 48-C ) :   1.3028
B( 47-C , 93-H ) :   0.9866 B( 48-C , 49-C ) :   1.4285 B( 48-C , 53-C ) :   1.0020
B( 49-C , 50-S ) :   1.1029 B( 49-C , 51-C ) :   1.2045 B( 51-C , 52-C ) :   1.4045
B( 51-C , 61-S ) :   1.1618 B( 52-C , 53-C ) :   0.9909 B( 52-C , 59-C ) :   1.3058
B( 53-C , 54-C ) :   1.7164 B( 54-C , 55-C ) :   1.1299 B( 54-C , 57-C ) :   1.1350
B( 55-C , 56-N ) :   2.9940 B( 57-C , 58-N ) :   2.9855 B( 59-C , 60-C ) :   1.3979
B( 59-C , 94-H ) :   1.0010 B( 60-C , 61-S ) :   1.0846 B( 60-C , 62-C ) :   1.1461
B( 62-C , 63-C ) :   1.6375 B( 62-C , 95-H ) :   0.9446 B( 63-C , 64-C ) :   0.9386
B( 63-C , 78-C ) :   1.0363 B( 64-C , 65-O ) :   2.2774 B( 64-C , 66-C ) :   0.9169
B( 66-C , 67-C ) :   1.4764 B( 66-C , 77-C ) :   1.2212 B( 67-C , 68-C ) :   1.1957
B( 67-C , 96-H ) :   1.0160 B( 68-C , 69-C ) :   1.2543 B( 68-C , 73-C ) :   1.1932
B( 69-C , 70-C ) :   1.1897 B( 69-C , 76-C ) :   1.2156 B( 70-C , 71-C ) :   1.4427
B( 70-C , 73-C ) :   0.1084 B( 70-C , 97-H ) :   1.0066 B( 71-C , 72-C ) :   1.1918
B( 71-C , 75-F ) :   1.1361 B( 72-C , 73-C ) :   1.4442 B( 72-C , 74-F ) :   1.1343
B( 73-C , 98-H ) :   1.0066 B( 76-C , 77-C ) :   1.4577 B( 76-C , 99-H ) :   0.9941
B( 77-C , 78-C ) :   1.0012 B( 78-C , 79-C ) :   1.6558 B( 79-C , 80-C ) :   1.1549
B( 79-C , 82-C ) :   1.1337 B( 80-C , 81-N ) :   3.0218 B( 82-C , 83-N ) :   2.9898

-----------------------------------------------------------------------------
         ABSORPTION SPECTRUM VIA TRANSITION ELECTRIC DIPOLE MOMENTS
-----------------------------------------------------------------------------
State   Energy  Wavelength   fosc         T2         TX        TY        TZ
        (cm-1)    (nm)                  (au**2)     (au)      (au)      (au)
-----------------------------------------------------------------------------
   0   14038.3    712.3   0.646979656  15.17230   0.15112   3.88715  -0.19880
   1   15008.8    666.3   0.147295430   3.23086  -0.26109  -1.49075  -0.96972
   2   20245.8    493.9   1.185966093  19.28466   0.00734  -4.24351   1.13013
   3   21711.5    460.6   1.023503119  15.51943  -0.58364  -3.02603  -2.45396
   4   23200.6    431.0   0.008922701   0.12661   0.12777   0.26937   0.19423
   5   24255.3    412.3   0.018305877   0.24846   0.32882   0.25541  -0.27406
   6   25959.8    385.2   0.045922947   0.58238   0.45367   0.03335  -0.61274
   7   26218.9    381.4   0.028380275   0.35635   0.31168   0.50498   0.06483
   8   27692.8    361.1   0.077363053   0.91969   0.18825   0.92954  -0.14215
   9   27817.6    359.5   0.045085316   0.53357  -0.00270  -0.67787   0.27212
  10   28332.9    352.9   0.510843154   5.93571   0.60372   2.35832  -0.09775
  11   28769.6    347.6   0.157095469   1.79765  -0.41271  -1.25452   0.23132
  12   29034.1    344.4   0.222924129   2.52769   0.59734   1.37852  -0.52015
  13   29063.1    344.1   0.014602961   0.16541  -0.13938   0.21784   0.31390
  14   29308.4    341.2   0.102421249   1.15046  -0.50160  -0.63911   0.70028
  15   29663.2    337.1   0.082194127   0.91222  -0.02305  -0.01066  -0.95476
  16   30186.0    331.3   0.106464092   1.16111  -0.33783   1.02048  -0.07478
  17   30692.7    325.8   0.143243449   1.53644  -0.24740   0.14940   1.20537
  18   30862.0    324.0   0.404124878   4.31089  -0.11499  -0.10410   2.07047
  19   31210.7    320.4   0.497845364   5.25130  -0.63770  -1.49828   1.61239
  20   31365.7    318.8   0.159953873   1.67886   0.73990   1.06367   0.00345
  21   31710.7    315.4   0.204189156   2.11983  -0.07161  -1.33020  -0.58760
  22   31901.9    313.5   0.232479740   2.39908  -0.73008  -0.40743   1.30386
  23   32700.9    305.8   0.052521863   0.52876  -0.40624  -0.03013   0.60234
  24   32927.4    303.7   0.080721077   0.80706   0.14050  -0.80945   0.36348
  25   33111.9    302.0   0.075314202   0.74880  -0.30996  -0.79147  -0.16219
  26   33373.5    299.6   0.337897331   3.33318  -0.76053  -1.41898   0.86097
  27   33627.2    297.4   0.043533014   0.42619   0.04629  -0.56727  -0.31976
  28   33967.6    294.4   0.127013918   1.23101   0.07737  -0.84673  -0.71279
  29   34211.4    292.3   0.038413877   0.36965  -0.28529  -0.29467  -0.44881
  30   34378.9    290.9   0.122452040   1.17260   0.44673   0.22794  -0.95973
  31   34555.7    289.4   0.001777254   0.01693   0.04447   0.05220   0.11059
  32   34694.4    288.2   0.173437840   1.64574   0.18240  -0.08889  -1.26671
  33   34749.1    287.8   0.021095561   0.19986   0.05088   0.29902  -0.32841
  34   34908.3    286.5   0.076837792   0.72464   0.23787   0.57595  -0.57995
  35   35175.3    284.3   0.689388359   6.45211   1.31860   1.51915  -1.55100
  36   35355.8    282.8   0.072943176   0.67920   0.35513   0.10289   0.73655
  37   35693.9    280.2   0.381024289   3.51427   0.88408   0.97061  -1.33813
  38   36048.8    277.4   0.046918932   0.42848   0.38569   0.40178   0.34394
  39   36539.4    273.7   0.004132842   0.03724  -0.11684  -0.09486  -0.12077
  40   36662.4    272.8   0.061605446   0.55319   0.32805   0.38661  -0.54416
  41   37036.8    270.0   0.080671788   0.71707  -0.46098  -0.42739   0.56737
  42   37451.9    267.0   0.025297769   0.22237  -0.34746  -0.29108  -0.13005
  43   37725.3    265.1   0.009437889   0.08236  -0.06678   0.06648   0.27107
  44   37910.0    263.8   0.028214643   0.24502  -0.38390  -0.30101  -0.08385
  45   38058.3    262.8   0.110993234   0.96011  -0.28267  -0.20683   0.91511
  46   38212.2    261.7   0.037002192   0.31879   0.18329  -0.22229  -0.48557
  47   38327.6    260.9   0.023426540   0.20122   0.16450  -0.12065  -0.39951
  48   38659.0    258.7   0.008185663   0.06971   0.03511  -0.19914  -0.16976
  49   38739.8    258.1   0.031726087   0.26961  -0.26868  -0.37986   0.23049
  50   39027.9    256.2   0.034269019   0.28907   0.26345  -0.36572  -0.29311
  51   39147.0    255.4   0.003526317   0.02966   0.11861  -0.05445   0.11235
  52   39208.7    255.0   0.029105147   0.24438   0.04496  -0.36147   0.33422
  53   39354.6    254.1   0.119183773   0.99700   0.14595  -0.79258  -0.58951
  54   39769.9    251.4   0.232741756   1.92662  -0.02499  -0.81795  -1.12114
  55   40177.8    248.9   0.026749775   0.21918   0.30339   0.35390   0.04353

FINAL SINGLE POINT ENERGY     -5223.590668402881

DIPOLE MOMENT
-------------
                                X             Y             Z
Electronic contribution:      0.02518       3.89070       9.05493
Nuclear contribution   :     -1.00462      -4.90282      -7.95980
                        -----------------------------------------
Total Dipole Moment    :     -0.97944      -1.01211       1.09513
                        -----------------------------------------
Magnitude (a.u.)       :      1.78410
Magnitude (Debye)      :      4.53482

Rotational constants in cm-1:     0.001277     0.000134     0.000123
Rotational constants in MHz :    38.283441     4.006871     3.695199

                             ****ORCA TERMINATED NORMALLY****
TOTAL RUN TIME: 0 days 0 hours 11 minutes 1 seconds 792 msec
