                         Program Version 4.2.0 -  RELEASE  -
|  1> # ORCA input file
|  2> # SCF done       -209.534759955794          0.000373600383
|  3> ! CAM-B3LYP def2-SVP def2/J RIJCOSX Grid4 TightSCF
|  4> %maxcore 5000
|  5> %tddft
|  6>     Mode sTDDFT
|  7>     Ethresh 5.0
|  8>     maxcore 5000
|  9> end
| 10>
| 11> %pal
| 12>   nprocs 6
| 13>   end
| 14> * xyz 0 1
| 15>    C       -1.00413        -0.04535         1.74444
| 16>    O       -1.28085        -0.67353         0.74685
| 17>    C       -0.67941         1.39589         1.78992
| 18>    C       -0.43232         1.78930         3.11548
| 19>    C       -0.11783         3.11090         3.38831
| 20>    C       -0.05217         4.01160         2.33132
| 21>    C       -0.29457         3.60792         1.01590
| 22>    C       -0.61418         2.28551         0.73785
| 23>   Br       -0.19302         4.85419        -0.39997
| 24>   Br        0.37417         5.81481         2.70466
| 25>    C       -0.56435         0.62190         3.98397
| 26>    C       -0.28028         0.60614         5.32379
| 27>    C        0.12337         1.74373         6.05734
| 28>    N        0.44972         2.62972         6.70909
| 29>    C       -0.30860        -0.52723         6.16559
| 30>    N       -0.28570        -1.39785         6.91394
| 31>    C       -0.96449        -0.50341         3.15295
| 32>    C       -1.33610        -1.72361         3.65192
| 33>    C       -1.65090        -2.93351         3.00491
| 34>    C       -1.54020        -3.35299         1.68313
| 35>    C       -1.90863        -4.68039         1.52427
| 36>    C       -2.31762        -5.29383         2.73174
| 37>    S       -2.23045        -4.23767         4.05601
| 38>    C       -2.66590        -6.63897         2.45822
| 39>    C       -2.47136        -6.88078         1.08612
| 40>    C       -1.99025        -5.66137         0.45371
| 41>    C       -1.67069        -5.49355        -0.86024
| 42>    C       -1.80341        -6.54490        -1.79365
| 43>    N       -1.91314        -7.40109        -2.54803
| 44>    C       -1.17231        -4.28139        -1.38757
| 45>    N       -0.75058        -3.31855        -1.84336
| 46>    C       -2.76394        -8.19299         0.72693
| 47>    C       -3.18417        -8.94740         1.81137
| 48>    S       -3.22211        -8.01865         3.29940
| 49>    C       -3.52084       -10.32843         1.76665
| 50>    C       -4.02690       -11.14588         2.76963
| 51>    C       -4.32052       -10.66691         4.05581
| 52>    N       -4.55223       -10.24727         5.09782
| 53>    C       -4.20710       -12.48938         2.33748
| 54>    C       -3.82319       -12.64580         1.00936
| 55>    S       -3.26282       -11.20000         0.26847
| 56>    S       -3.97121       -14.25147         0.37681
| 57>    C       -4.56672       -14.74130         1.92818
| 58>    C       -4.65555       -13.73063         2.87989
| 59>    C       -5.16544       -14.22807         4.11171
| 60>    C       -5.37314       -13.45886         5.26715
| 61>    N       -5.55060       -12.85494         6.22599
| 62>    C       -5.43490       -15.58989         4.06355
| 63>    S       -5.06978       -16.28331         2.49658
| 64>    C       -5.94797       -16.44450         5.07838
| 65>    C       -6.03190       -17.82515         4.99463
| 66>    C       -6.59107       -18.38336         6.14048
| 67>    C       -6.94753       -17.41577         7.09778
| 68>    S       -6.57695       -15.82660         6.59590
| 69>    C       -7.52359       -18.07550         8.21360
| 70>    C       -7.51455       -19.46325         7.96112
| 71>    C       -6.93823       -19.70030         6.64897
| 72>    C       -6.79506       -20.90366         6.02403
| 73>    C       -7.21093       -22.10235         6.64214
| 74>    N       -7.55399       -23.06352         7.16452
| 75>    C       -6.22911       -21.01696         4.73658
| 76>    N       -5.76045       -21.09972         3.69379
| 77>    C       -8.08986       -20.20371         8.98331
| 78>    C       -8.55726       -19.39933        10.01464
| 79>    S       -8.22680       -17.69543         9.71303
| 80>    C       -9.18781       -19.77338        11.21897
| 81>    C       -9.77623       -20.95676        11.55449
| 82>    C       -9.99045       -21.25195        12.99952
| 83>    O       -9.90341       -20.47339        13.91807
| 84>    C      -10.27336       -22.70180        13.05689
| 85>    C      -10.35411       -23.21554        11.74945
| 86>    C      -10.20366       -22.11478        10.79717
| 87>    C      -10.65238       -22.14288         9.50332
| 88>    C      -10.72879       -21.00883         8.67088
| 89>    N      -10.83034       -20.10691         7.96811
| 90>    C      -11.18424       -23.29390         8.88161
| 91>    N      -11.62761       -24.19988         8.33587
| 92>    C      -10.56431       -24.56913        11.55149
| 93>    C      -10.70594       -25.38867        12.66608
| 94>    C      -10.64700       -24.86739        13.96107
| 95>    C      -10.42502       -23.51110        14.16368
| 96>   Br      -10.85973       -26.00180        15.45662
| 97>   Br      -10.97889       -27.23919        12.40215
| 98>    H        0.07289         3.46292         4.38890
| 99>    H       -0.80518         1.95752        -0.27222
|100>    H       -1.40652        -1.79311         4.73119
|101>    H       -1.21024        -2.70105         0.89455
|102>    H       -2.68139        -8.59597        -0.26673
|103>    H       -5.69343       -18.38107         4.13833
|104>    H       -8.13128       -21.27704         9.01095
|105>    H       -9.14975       -19.04580        12.02441
|106>    H      -10.60709       -25.00454        10.56603
|107>    H      -10.37164       -23.09981        15.15971
|108> *
|109>
|110>                          ****END OF INPUT****

CARTESIAN COORDINATES (ANGSTROEM)
---------------------------------
  C     -1.004130   -0.045350    1.744440
  O     -1.280850   -0.673530    0.746850
  C     -0.679410    1.395890    1.789920
  C     -0.432320    1.789300    3.115480
  C     -0.117830    3.110900    3.388310
  C     -0.052170    4.011600    2.331320
  C     -0.294570    3.607920    1.015900
  C     -0.614180    2.285510    0.737850
  Br    -0.193020    4.854190   -0.399970
  Br     0.374170    5.814810    2.704660
  C     -0.564350    0.621900    3.983970
  C     -0.280280    0.606140    5.323790
  C      0.123370    1.743730    6.057340
  N      0.449720    2.629720    6.709090
  C     -0.308600   -0.527230    6.165590
  N     -0.285700   -1.397850    6.913940
  C     -0.964490   -0.503410    3.152950
  C     -1.336100   -1.723610    3.651920
  C     -1.650900   -2.933510    3.004910
  C     -1.540200   -3.352990    1.683130
  C     -1.908630   -4.680390    1.524270
  C     -2.317620   -5.293830    2.731740
  S     -2.230450   -4.237670    4.056010
  C     -2.665900   -6.638970    2.458220
  C     -2.471360   -6.880780    1.086120
  C     -1.990250   -5.661370    0.453710
  C     -1.670690   -5.493550   -0.860240
  C     -1.803410   -6.544900   -1.793650
  N     -1.913140   -7.401090   -2.548030
  C     -1.172310   -4.281390   -1.387570
  N     -0.750580   -3.318550   -1.843360
  C     -2.763940   -8.192990    0.726930
  C     -3.184170   -8.947400    1.811370
  S     -3.222110   -8.018650    3.299400
  C     -3.520840  -10.328430    1.766650
  C     -4.026900  -11.145880    2.769630
  C     -4.320520  -10.666910    4.055810
  N     -4.552230  -10.247270    5.097820
  C     -4.207100  -12.489380    2.337480
  C     -3.823190  -12.645800    1.009360
  S     -3.262820  -11.200000    0.268470
  S     -3.971210  -14.251470    0.376810
  C     -4.566720  -14.741300    1.928180
  C     -4.655550  -13.730630    2.879890
  C     -5.165440  -14.228070    4.111710
  C     -5.373140  -13.458860    5.267150
  N     -5.550600  -12.854940    6.225990
  C     -5.434900  -15.589890    4.063550
  S     -5.069780  -16.283310    2.496580
  C     -5.947970  -16.444500    5.078380
  C     -6.031900  -17.825150    4.994630
  C     -6.591070  -18.383360    6.140480
  C     -6.947530  -17.415770    7.097780
  S     -6.576950  -15.826600    6.595900
  C     -7.523590  -18.075500    8.213600
  C     -7.514550  -19.463250    7.961120
  C     -6.938230  -19.700300    6.648970
  C     -6.795060  -20.903660    6.024030
  C     -7.210930  -22.102350    6.642140
  N     -7.553990  -23.063520    7.164520
  C     -6.229110  -21.016960    4.736580
  N     -5.760450  -21.099720    3.693790
  C     -8.089860  -20.203710    8.983310
  C     -8.557260  -19.399330   10.014640
  S     -8.226800  -17.695430    9.713030
  C     -9.187810  -19.773380   11.218970
  C     -9.776230  -20.956760   11.554490
  C     -9.990450  -21.251950   12.999520
  O     -9.903410  -20.473390   13.918070
  C    -10.273360  -22.701800   13.056890
  C    -10.354110  -23.215540   11.749450
  C    -10.203660  -22.114780   10.797170
  C    -10.652380  -22.142880    9.503320
  C    -10.728790  -21.008830    8.670880
  N    -10.830340  -20.106910    7.968110
  C    -11.184240  -23.293900    8.881610
  N    -11.627610  -24.199880    8.335870
  C    -10.564310  -24.569130   11.551490
  C    -10.705940  -25.388670   12.666080
  C    -10.647000  -24.867390   13.961070
  C    -10.425020  -23.511100   14.163680
  Br   -10.859730  -26.001800   15.456620
  Br   -10.978890  -27.239190   12.402150
  H      0.072890    3.462920    4.388900
  H     -0.805180    1.957520   -0.272220
  H     -1.406520   -1.793110    4.731190
  H     -1.210240   -2.701050    0.894550
  H     -2.681390   -8.595970   -0.266730
  H     -5.693430  -18.381070    4.138330
  H     -8.131280  -21.277040    9.010950
  H     -9.149750  -19.045800   12.024410
  H    -10.607090  -25.004540   10.566030
  H    -10.371640  -23.099810   15.159710

 Total Charge           Charge          ....    0
 Multiplicity           Mult            ....    1
 Number of Electrons    NEL             ....  708
 Basis Dimension        Dim             .... 1312

ORBITAL ENERGIES
----------------

  NO   OCC          E(Eh)            E(eV)
   0   2.0000    -482.879902    -13139.8302
   1   2.0000    -482.879801    -13139.8274
   2   2.0000    -482.878459    -13139.7909
   3   2.0000    -482.878357    -13139.7881
   4   2.0000     -89.009536     -2422.0726
   5   2.0000     -89.008315     -2422.0394
   6   2.0000     -89.006866     -2422.0000
   7   2.0000     -89.006824     -2421.9988
   8   2.0000     -89.006699     -2421.9954
   9   2.0000     -89.006643     -2421.9939
  10   2.0000     -89.006128     -2421.9799
  11   2.0000     -62.557516     -1702.2766
  12   2.0000     -62.557375     -1702.2727
  13   2.0000     -62.556080     -1702.2375
  14   2.0000     -62.555937     -1702.2336
  15   2.0000     -56.391466     -1534.4898
  16   2.0000     -56.391327     -1534.4860
  17   2.0000     -56.390046     -1534.4512
  18   2.0000     -56.389903     -1534.4473
  19   2.0000     -56.388809     -1534.4175
  20   2.0000     -56.388717     -1534.4150
  21   2.0000     -56.388676     -1534.4139
  22   2.0000     -56.388570     -1534.4110
  23   2.0000     -56.387368     -1534.3783
  24   2.0000     -56.387270     -1534.3756
  25   2.0000     -56.387230     -1534.3745
  26   2.0000     -56.387132     -1534.3719
  27   2.0000     -19.231891      -523.3264
  28   2.0000     -19.228408      -523.2316
  29   2.0000     -14.443594      -393.0302
  30   2.0000     -14.442789      -393.0083
  31   2.0000     -14.442696      -393.0057
  32   2.0000     -14.438671      -392.8962
  33   2.0000     -14.429027      -392.6338
  34   2.0000     -14.428136      -392.6095
  35   2.0000     -14.427875      -392.6024
  36   2.0000     -14.426944      -392.5771
  37   2.0000     -14.423497      -392.4833
  38   2.0000     -14.423122      -392.4731
  39   2.0000     -10.383150      -282.5399
  40   2.0000     -10.379633      -282.4442
  41   2.0000     -10.379220      -282.4329
  42   2.0000     -10.378419      -282.4111
  43   2.0000     -10.365889      -282.0702
  44   2.0000     -10.365677      -282.0644
  45   2.0000     -10.362854      -281.9876
  46   2.0000     -10.361996      -281.9642
  47   2.0000     -10.357986      -281.8551
  48   2.0000     -10.357928      -281.8536
  49   2.0000     -10.357425      -281.8399
  50   2.0000     -10.357365      -281.8382
  51   2.0000     -10.357349      -281.8378
  52   2.0000     -10.357282      -281.8360
  53   2.0000     -10.357006      -281.8285
  54   2.0000     -10.356969      -281.8274
  55   2.0000     -10.355437      -281.7858
  56   2.0000     -10.354899      -281.7711
  57   2.0000     -10.354230      -281.7529
  58   2.0000     -10.353631      -281.7366
  59   2.0000     -10.353143      -281.7234
  60   2.0000     -10.350440      -281.6498
  61   2.0000     -10.348664      -281.6015
  62   2.0000     -10.348277      -281.5909
  63   2.0000     -10.346046      -281.5302
  64   2.0000     -10.344497      -281.4881
  65   2.0000     -10.343558      -281.4625
  66   2.0000     -10.342847      -281.4432
  67   2.0000     -10.342722      -281.4398
  68   2.0000     -10.339550      -281.3534
  69   2.0000     -10.338835      -281.3340
  70   2.0000     -10.338563      -281.3266
  71   2.0000     -10.337476      -281.2970
  72   2.0000     -10.336036      -281.2578
  73   2.0000     -10.330989      -281.1205
  74   2.0000     -10.330476      -281.1066
  75   2.0000     -10.330236      -281.1000
  76   2.0000     -10.329752      -281.0869
  77   2.0000     -10.326170      -280.9894
  78   2.0000     -10.325879      -280.9815
  79   2.0000     -10.325207      -280.9632
  80   2.0000     -10.325155      -280.9618
  81   2.0000     -10.324846      -280.9534
  82   2.0000     -10.323496      -280.9166
  83   2.0000     -10.323486      -280.9163
  84   2.0000     -10.323291      -280.9110
  85   2.0000     -10.322571      -280.8914
  86   2.0000     -10.322201      -280.8814
  87   2.0000     -10.322097      -280.8785
  88   2.0000     -10.319851      -280.8174
  89   2.0000     -10.318794      -280.7887
  90   2.0000     -10.317267      -280.7471
  91   2.0000     -10.316317      -280.7213
  92   2.0000     -10.315631      -280.7026
  93   2.0000     -10.315234      -280.6918
  94   2.0000     -10.315079      -280.6876
  95   2.0000     -10.313247      -280.6377
  96   2.0000     -10.311895      -280.6009
  97   2.0000     -10.308961      -280.5211
  98   2.0000     -10.307600      -280.4840
  99   2.0000      -8.786846      -239.1022
 100   2.0000      -8.786684      -239.0978
 101   2.0000      -8.785409      -239.0631
 102   2.0000      -8.785237      -239.0584
 103   2.0000      -8.103302      -220.5021
 104   2.0000      -8.102017      -220.4671
 105   2.0000      -8.101911      -220.4642
 106   2.0000      -8.101844      -220.4624
 107   2.0000      -8.101334      -220.4485
 108   2.0000      -8.101315      -220.4480
 109   2.0000      -8.101091      -220.4419
 110   2.0000      -6.622978      -180.2204
 111   2.0000      -6.622795      -180.2154
 112   2.0000      -6.621600      -180.1829
 113   2.0000      -6.621400      -180.1775
 114   2.0000      -6.608969      -179.8392
 115   2.0000      -6.608828      -179.8354
 116   2.0000      -6.608183      -179.8178
 117   2.0000      -6.608014      -179.8132
 118   2.0000      -6.607509      -179.7995
 119   2.0000      -6.607342      -179.7949
 120   2.0000      -6.606702      -179.7775
 121   2.0000      -6.606551      -179.7734
 122   2.0000      -6.072661      -165.2455
 123   2.0000      -6.071910      -165.2251
 124   2.0000      -6.071495      -165.2138
 125   2.0000      -6.071361      -165.2101
 126   2.0000      -6.070744      -165.1933
 127   2.0000      -6.070439      -165.1850
 128   2.0000      -6.070419      -165.1845
 129   2.0000      -6.068210      -165.1244
 130   2.0000      -6.067598      -165.1077
 131   2.0000      -6.067245      -165.0981
 132   2.0000      -6.066916      -165.0892
 133   2.0000      -6.066497      -165.0778
 134   2.0000      -6.066286      -165.0720
 135   2.0000      -6.066247      -165.0710
 136   2.0000      -6.065648      -165.0547
 137   2.0000      -6.064430      -165.0215
 138   2.0000      -6.063948      -165.0084
 139   2.0000      -6.063878      -165.0065
 140   2.0000      -6.063315      -164.9912
 141   2.0000      -6.062739      -164.9755
 142   2.0000      -6.062582      -164.9712
 143   2.0000      -2.738894       -74.5291
 144   2.0000      -2.738753       -74.5253
 145   2.0000      -2.737506       -74.4913
 146   2.0000      -2.737338       -74.4867
 147   2.0000      -2.735117       -74.4263
 148   2.0000      -2.734938       -74.4214
 149   2.0000      -2.734509       -74.4098
 150   2.0000      -2.734315       -74.4045
 151   2.0000      -2.733706       -74.3879
 152   2.0000      -2.733500       -74.3823
 153   2.0000      -2.733089       -74.3711
 154   2.0000      -2.732906       -74.3662
 155   2.0000      -2.723358       -74.1063
 156   2.0000      -2.723350       -74.1061
 157   2.0000      -2.723194       -74.1019
 158   2.0000      -2.723187       -74.1017
 159   2.0000      -2.721875       -74.0660
 160   2.0000      -2.721868       -74.0658
 161   2.0000      -2.721717       -74.0617
 162   2.0000      -2.721712       -74.0616
 163   2.0000      -1.147981       -31.2382
 164   2.0000      -1.144564       -31.1452
 165   2.0000      -1.065761       -29.0008
 166   2.0000      -1.062732       -28.9184
 167   2.0000      -1.059661       -28.8348
 168   2.0000      -1.037449       -28.2304
 169   2.0000      -1.034746       -28.1569
 170   2.0000      -1.033714       -28.1288
 171   2.0000      -1.032149       -28.0862
 172   2.0000      -1.031426       -28.0665
 173   2.0000      -1.020801       -27.7774
 174   2.0000      -1.019185       -27.7334
 175   2.0000      -1.017515       -27.6880
 176   2.0000      -1.015566       -27.6350
 177   2.0000      -1.015414       -27.6308
 178   2.0000      -1.012697       -27.5569
 179   2.0000      -1.011286       -27.5185
 180   2.0000      -1.003915       -27.3179
 181   2.0000      -1.003691       -27.3118
 182   2.0000      -1.003014       -27.2934
 183   2.0000      -0.985082       -26.8055
 184   2.0000      -0.983760       -26.7695
 185   2.0000      -0.978457       -26.6252
 186   2.0000      -0.973134       -26.4803
 187   2.0000      -0.962338       -26.1866
 188   2.0000      -0.935882       -25.4666
 189   2.0000      -0.933942       -25.4139
 190   2.0000      -0.926052       -25.1992
 191   2.0000      -0.925696       -25.1895
 192   2.0000      -0.918029       -24.9808
 193   2.0000      -0.916472       -24.9385
 194   2.0000      -0.915651       -24.9161
 195   2.0000      -0.908422       -24.7194
 196   2.0000      -0.905826       -24.6488
 197   2.0000      -0.894058       -24.3286
 198   2.0000      -0.889165       -24.1954
 199   2.0000      -0.885623       -24.0990
 200   2.0000      -0.875663       -23.8280
 201   2.0000      -0.874314       -23.7913
 202   2.0000      -0.872163       -23.7328
 203   2.0000      -0.869764       -23.6675
 204   2.0000      -0.857608       -23.3367
 205   2.0000      -0.857195       -23.3255
 206   2.0000      -0.851374       -23.1671
 207   2.0000      -0.848237       -23.0817
 208   2.0000      -0.819753       -22.3066
 209   2.0000      -0.807784       -21.9809
 210   2.0000      -0.798191       -21.7199
 211   2.0000      -0.792180       -21.5563
 212   2.0000      -0.787817       -21.4376
 213   2.0000      -0.778650       -21.1882
 214   2.0000      -0.774649       -21.0793
 215   2.0000      -0.769004       -20.9257
 216   2.0000      -0.752727       -20.4827
 217   2.0000      -0.741529       -20.1780
 218   2.0000      -0.729125       -19.8405
 219   2.0000      -0.727521       -19.7968
 220   2.0000      -0.719660       -19.5829
 221   2.0000      -0.713642       -19.4192
 222   2.0000      -0.711811       -19.3694
 223   2.0000      -0.705828       -19.2066
 224   2.0000      -0.704818       -19.1791
 225   2.0000      -0.700593       -19.0641
 226   2.0000      -0.697816       -18.9885
 227   2.0000      -0.692162       -18.8347
 228   2.0000      -0.690990       -18.8028
 229   2.0000      -0.686396       -18.6778
 230   2.0000      -0.669088       -18.2068
 231   2.0000      -0.666716       -18.1423
 232   2.0000      -0.664186       -18.0734
 233   2.0000      -0.652733       -17.7618
 234   2.0000      -0.648996       -17.6601
 235   2.0000      -0.645400       -17.5622
 236   2.0000      -0.644180       -17.5290
 237   2.0000      -0.633918       -17.2498
 238   2.0000      -0.631298       -17.1785
 239   2.0000      -0.626792       -17.0559
 240   2.0000      -0.623272       -16.9601
 241   2.0000      -0.618830       -16.8392
 242   2.0000      -0.617182       -16.7944
 243   2.0000      -0.606112       -16.4931
 244   2.0000      -0.599294       -16.3076
 245   2.0000      -0.591872       -16.1057
 246   2.0000      -0.587004       -15.9732
 247   2.0000      -0.575042       -15.6477
 248   2.0000      -0.571509       -15.5515
 249   2.0000      -0.567790       -15.4503
 250   2.0000      -0.565956       -15.4004
 251   2.0000      -0.564796       -15.3689
 252   2.0000      -0.562894       -15.3171
 253   2.0000      -0.559259       -15.2182
 254   2.0000      -0.555974       -15.1288
 255   2.0000      -0.553807       -15.0698
 256   2.0000      -0.552154       -15.0249
 257   2.0000      -0.550786       -14.9876
 258   2.0000      -0.548488       -14.9251
 259   2.0000      -0.543191       -14.7810
 260   2.0000      -0.542667       -14.7667
 261   2.0000      -0.541695       -14.7403
 262   2.0000      -0.538558       -14.6549
 263   2.0000      -0.534168       -14.5355
 264   2.0000      -0.532988       -14.5033
 265   2.0000      -0.528573       -14.3832
 266   2.0000      -0.525471       -14.2988
 267   2.0000      -0.520270       -14.1573
 268   2.0000      -0.518285       -14.1032
 269   2.0000      -0.517516       -14.0823
 270   2.0000      -0.516631       -14.0583
 271   2.0000      -0.512979       -13.9589
 272   2.0000      -0.512278       -13.9398
 273   2.0000      -0.510789       -13.8993
 274   2.0000      -0.508132       -13.8270
 275   2.0000      -0.506406       -13.7800
 276   2.0000      -0.504104       -13.7174
 277   2.0000      -0.501662       -13.6509
 278   2.0000      -0.498798       -13.5730
 279   2.0000      -0.496806       -13.5188
 280   2.0000      -0.495099       -13.4723
 281   2.0000      -0.492725       -13.4077
 282   2.0000      -0.490025       -13.3343
 283   2.0000      -0.487801       -13.2737
 284   2.0000      -0.486061       -13.2264
 285   2.0000      -0.478000       -13.0070
 286   2.0000      -0.476388       -12.9632
 287   2.0000      -0.473562       -12.8863
 288   2.0000      -0.472985       -12.8706
 289   2.0000      -0.472816       -12.8660
 290   2.0000      -0.471492       -12.8299
 291   2.0000      -0.469810       -12.7842
 292   2.0000      -0.467953       -12.7337
 293   2.0000      -0.467478       -12.7207
 294   2.0000      -0.465903       -12.6779
 295   2.0000      -0.464847       -12.6491
 296   2.0000      -0.464452       -12.6384
 297   2.0000      -0.463228       -12.6051
 298   2.0000      -0.460482       -12.5304
 299   2.0000      -0.459268       -12.4973
 300   2.0000      -0.459031       -12.4909
 301   2.0000      -0.458640       -12.4802
 302   2.0000      -0.458062       -12.4645
 303   2.0000      -0.453616       -12.3435
 304   2.0000      -0.452720       -12.3191
 305   2.0000      -0.452392       -12.3102
 306   2.0000      -0.451526       -12.2866
 307   2.0000      -0.450876       -12.2690
 308   2.0000      -0.450658       -12.2630
 309   2.0000      -0.450045       -12.2463
 310   2.0000      -0.449158       -12.2222
 311   2.0000      -0.445639       -12.1264
 312   2.0000      -0.443015       -12.0551
 313   2.0000      -0.439987       -11.9726
 314   2.0000      -0.438618       -11.9354
 315   2.0000      -0.438167       -11.9231
 316   2.0000      -0.437388       -11.9019
 317   2.0000      -0.435583       -11.8528
 318   2.0000      -0.434372       -11.8199
 319   2.0000      -0.433597       -11.7988
 320   2.0000      -0.429724       -11.6934
 321   2.0000      -0.429035       -11.6746
 322   2.0000      -0.422066       -11.4850
 323   2.0000      -0.420198       -11.4342
 324   2.0000      -0.418208       -11.3800
 325   2.0000      -0.411601       -11.2002
 326   2.0000      -0.407355       -11.0847
 327   2.0000      -0.403351       -10.9757
 328   2.0000      -0.403037       -10.9672
 329   2.0000      -0.402877       -10.9629
 330   2.0000      -0.395391       -10.7591
 331   2.0000      -0.393078       -10.6962
 332   2.0000      -0.392732       -10.6868
 333   2.0000      -0.391078       -10.6418
 334   2.0000      -0.379939       -10.3387
 335   2.0000      -0.368472       -10.0266
 336   2.0000      -0.365791        -9.9537
 337   2.0000      -0.362555        -9.8656
 338   2.0000      -0.357624        -9.7314
 339   2.0000      -0.354407        -9.6439
 340   2.0000      -0.351762        -9.5719
 341   2.0000      -0.348441        -9.4816
 342   2.0000      -0.347413        -9.4536
 343   2.0000      -0.344591        -9.3768
 344   2.0000      -0.339082        -9.2269
 345   2.0000      -0.338256        -9.2044
 346   2.0000      -0.336754        -9.1635
 347   2.0000      -0.335301        -9.1240
 348   2.0000      -0.318525        -8.6675
 349   2.0000      -0.317845        -8.6490
 350   2.0000      -0.313850        -8.5403
 351   2.0000      -0.312367        -8.4999
 352   2.0000      -0.273743        -7.4489
 353   2.0000      -0.272274        -7.4089
 354   0.0000      -0.124946        -3.4000
 355   0.0000      -0.123164        -3.3515
 356   0.0000      -0.099395        -2.7047
 357   0.0000      -0.098225        -2.6728
 358   0.0000      -0.077288        -2.1031

MULLIKEN ATOMIC CHARGES
-----------------------
   0 C :    0.156880
   1 O :   -0.141290
   2 C :   -0.016272
   3 C :    0.035626
   4 C :   -0.008035
   5 C :   -0.025635
   6 C :   -0.014860
   7 C :   -0.019436
   8 Br:    0.018767
   9 Br:    0.024502
  10 C :    0.305728
  11 C :   -0.345259
  12 C :   -0.185563
  13 N :    0.159490
  14 C :   -0.195603
  15 N :    0.160954
  16 C :   -0.087759
  17 C :    0.035479
  18 C :   -0.114084
  19 C :   -0.000491
  20 C :   -0.006769
  21 C :   -0.080855
  22 S :    0.220888
  23 C :   -0.096506
  24 C :    0.040636
  25 C :    0.309520
  26 C :   -0.295669
  27 C :   -0.190549
  28 N :    0.173168
  29 C :   -0.190596
  30 N :    0.200085
  31 C :   -0.070954
  32 C :   -0.087057
  33 S :    0.239175
  34 C :   -0.078818
  35 C :    0.010496
  36 C :   -0.368857
  37 N :    0.229409
  38 C :    0.137980
  39 C :   -0.223225
  40 S :    0.184183
  41 S :    0.210596
  42 C :   -0.224743
  43 C :    0.134862
  44 C :    0.013642
  45 C :   -0.375128
  46 N :    0.228751
  47 C :   -0.075106
  48 S :    0.185411
  49 C :   -0.093905
  50 C :   -0.065957
  51 C :    0.037602
  52 C :   -0.095758
  53 S :    0.238732
  54 C :   -0.070573
  55 C :   -0.004452
  56 C :    0.302949
  57 C :   -0.284065
  58 C :   -0.183438
  59 N :    0.174527
  60 C :   -0.188194
  61 N :    0.177379
  62 C :   -0.002206
  63 C :   -0.110623
  64 S :    0.227574
  65 C :    0.081830
  66 C :   -0.136131
  67 C :    0.135511
  68 O :   -0.133675
  69 C :    0.006872
  70 C :    0.012657
  71 C :    0.263701
  72 C :   -0.325503
  73 C :   -0.201479
  74 N :    0.172056
  75 C :   -0.171319
  76 N :    0.172033
  77 C :   -0.005652
  78 C :   -0.023668
  79 C :   -0.016931
  80 C :   -0.021001
  81 Br:    0.017186
  82 Br:    0.025544
  83 H :    0.009159
  84 H :    0.010963
  85 H :    0.013368
  86 H :    0.038970
  87 H :    0.020956
  88 H :    0.020262
  89 H :    0.027029
  90 H :    0.025016
  91 H :    0.017178
  92 H :    0.008367
Sum of atomic charges:   -0.0000000

LOEWDIN ATOMIC CHARGES
----------------------
   0 C :    0.087008
   1 O :   -0.129272
   2 C :   -0.041713
   3 C :   -0.012996
   4 C :   -0.006742
   5 C :   -0.118380
   6 C :   -0.121856
   7 C :    0.008230
   8 Br:    0.141264
   9 Br:    0.143469
  10 C :    0.074847
  11 C :   -0.134208
  12 C :   -0.019787
  13 N :   -0.042599
  14 C :   -0.024421
  15 N :   -0.045566
  16 C :   -0.097301
  17 C :    0.044468
  18 C :   -0.175884
  19 C :    0.019814
  20 C :   -0.072848
  21 C :   -0.158201
  22 S :    0.507420
  23 C :   -0.186410
  24 C :   -0.053631
  25 C :    0.074766
  26 C :   -0.091500
  27 C :   -0.014636
  28 N :   -0.029974
  29 C :   -0.023424
  30 N :   -0.010851
  31 C :   -0.031911
  32 C :   -0.180131
  33 S :    0.530508
  34 C :   -0.141681
  35 C :   -0.102326
  36 C :   -0.058517
  37 N :   -0.022846
  38 C :   -0.061188
  39 C :   -0.330117
  40 S :    0.469528
  41 S :    0.439858
  42 C :   -0.331013
  43 C :   -0.061334
  44 C :   -0.104581
  45 C :   -0.058703
  46 N :   -0.024582
  47 C :   -0.139905
  48 S :    0.469407
  49 C :   -0.184316
  50 C :   -0.028950
  51 C :   -0.057799
  52 C :   -0.180535
  53 S :    0.531428
  54 C :   -0.159043
  55 C :   -0.064265
  56 C :    0.081579
  57 C :   -0.095120
  58 C :   -0.012830
  59 N :   -0.028454
  60 C :   -0.016518
  61 N :   -0.027911
  62 C :    0.011181
  63 C :   -0.180727
  64 S :    0.509717
  65 C :    0.044838
  66 C :   -0.092451
  67 C :    0.083797
  68 O :   -0.133887
  69 C :   -0.044980
  70 C :   -0.008795
  71 C :    0.063722
  72 C :   -0.129673
  73 C :   -0.015123
  74 N :   -0.040815
  75 C :   -0.021003
  76 N :   -0.035585
  77 C :   -0.006604
  78 C :   -0.117287
  79 C :   -0.123379
  80 C :    0.007880
  81 Br:    0.139820
  82 Br:    0.145442
  83 H :    0.044897
  84 H :    0.047989
  85 H :    0.043598
  86 H :    0.043921
  87 H :    0.036011
  88 H :    0.036506
  89 H :    0.042933
  90 H :    0.047541
  91 H :    0.046672
  92 H :    0.047027

  Mayer bond orders larger than 0.100000
B(  0-C ,  1-O ) :   2.1796 B(  0-C ,  2-C ) :   0.9515 B(  0-C , 16-C ) :   0.9432
B(  2-C ,  3-C ) :   1.3286 B(  2-C ,  7-C ) :   1.3710 B(  3-C ,  4-C ) :   1.3632
B(  3-C , 10-C ) :   0.9907 B(  4-C ,  5-C ) :   1.3710 B(  4-C , 83-H ) :   0.9792
B(  5-C ,  6-C ) :   1.4181 B(  5-C ,  9-Br) :   1.0601 B(  6-C ,  7-C ) :   1.3497
B(  6-C ,  8-Br) :   1.0378 B(  7-C , 84-H ) :   1.0091 B( 10-C , 11-C ) :   1.6347
B( 10-C , 16-C ) :   1.0833 B( 11-C , 12-C ) :   1.1433 B( 11-C , 14-C ) :   1.1392
B( 12-C , 13-N ) :   2.9700 B( 14-C , 15-N ) :   2.9784 B( 16-C , 17-C ) :   1.5902
B( 17-C , 18-C ) :   1.2181 B( 17-C , 85-H ) :   0.9130 B( 18-C , 19-C ) :   1.3956
B( 18-C , 22-S ) :   1.0781 B( 19-C , 20-C ) :   1.3217 B( 19-C , 86-H ) :   0.9690
B( 20-C , 21-C ) :   1.3771 B( 20-C , 25-C ) :   0.9973 B( 21-C , 22-S ) :   1.1738
B( 21-C , 23-C ) :   1.1977 B( 23-C , 24-C ) :   1.4250 B( 23-C , 33-S ) :   1.1189
B( 24-C , 25-C ) :   0.9909 B( 24-C , 31-C ) :   1.3175 B( 25-C , 26-C ) :   1.7172
B( 26-C , 27-C ) :   1.1379 B( 26-C , 29-C ) :   1.1360 B( 27-C , 28-N ) :   2.9848
B( 29-C , 30-N ) :   2.9976 B( 31-C , 32-C ) :   1.4269 B( 31-C , 87-H ) :   0.9833
B( 32-C , 33-S ) :   1.1226 B( 32-C , 34-C ) :   1.1921 B( 34-C , 35-C ) :   1.4935
B( 34-C , 40-S ) :   1.1476 B( 35-C , 36-C ) :   1.1544 B( 35-C , 38-C ) :   1.2541
B( 36-C , 37-N ) :   2.9670 B( 38-C , 39-C ) :   1.4200 B( 38-C , 43-C ) :   1.0687
B( 39-C , 40-S ) :   1.0861 B( 39-C , 41-S ) :   1.0895 B( 41-S , 42-C ) :   1.0880
B( 42-C , 43-C ) :   1.4225 B( 42-C , 48-S ) :   1.0856 B( 43-C , 44-C ) :   1.2522
B( 44-C , 45-C ) :   1.1546 B( 44-C , 47-C ) :   1.4928 B( 45-C , 46-N ) :   2.9693
B( 47-C , 48-S ) :   1.1480 B( 47-C , 49-C ) :   1.1887 B( 49-C , 50-C ) :   1.4312
B( 49-C , 53-S ) :   1.1195 B( 50-C , 51-C ) :   1.3198 B( 50-C , 88-H ) :   0.9832
B( 51-C , 52-C ) :   1.4278 B( 51-C , 56-C ) :   0.9890 B( 52-C , 53-S ) :   1.1270
B( 52-C , 54-C ) :   1.1893 B( 54-C , 55-C ) :   1.4094 B( 54-C , 64-S ) :   1.1594
B( 55-C , 56-C ) :   0.9979 B( 55-C , 62-C ) :   1.3625 B( 56-C , 57-C ) :   1.7232
B( 57-C , 58-C ) :   1.1333 B( 57-C , 60-C ) :   1.1323 B( 58-C , 59-N ) :   2.9822
B( 60-C , 61-N ) :   2.9894 B( 62-C , 63-C ) :   1.3892 B( 62-C , 89-H ) :   0.9778
B( 63-C , 64-S ) :   1.0922 B( 63-C , 65-C ) :   1.1437 B( 65-C , 66-C ) :   1.6682
B( 65-C , 90-H ) :   0.9267 B( 66-C , 67-C ) :   0.9462 B( 66-C , 71-C ) :   1.0370
B( 67-C , 68-O ) :   2.2711 B( 67-C , 69-C ) :   0.9208 B( 69-C , 70-C ) :   1.3297
B( 69-C , 80-C ) :   1.3719 B( 70-C , 71-C ) :   1.0007 B( 70-C , 77-C ) :   1.3715
B( 71-C , 72-C ) :   1.6600 B( 72-C , 73-C ) :   1.1739 B( 72-C , 75-C ) :   1.1220
B( 73-C , 74-N ) :   2.9949 B( 75-C , 76-N ) :   2.9968 B( 77-C , 78-C ) :   1.3674
B( 77-C , 91-H ) :   0.9835 B( 78-C , 79-C ) :   1.4208 B( 78-C , 82-Br) :   1.0545
B( 79-C , 80-C ) :   1.3553 B( 79-C , 81-Br) :   1.0353 B( 80-C , 92-H ) :   1.0093

-----------------------------------------------------------------------------
         ABSORPTION SPECTRUM VIA TRANSITION ELECTRIC DIPOLE MOMENTS
-----------------------------------------------------------------------------
State   Energy  Wavelength   fosc         T2         TX        TY        TZ
        (cm-1)    (nm)                  (au**2)     (au)      (au)      (au)
-----------------------------------------------------------------------------
   0   13986.1    715.0   0.391643200   9.21872  -1.28688  -2.36271   1.40722
   1   14518.9    688.8   0.235910524   5.34922  -0.44697  -2.17541  -0.64578
   2   20524.0    487.2   1.217214156  19.52452  -2.16389  -3.38710   1.83566
   3   21562.9    463.8   1.103107906  16.84169   0.74525   3.80661   1.34015
   4   22947.8    435.8   0.004995811   0.07167   0.01099   0.17580   0.20160
   5   23753.9    421.0   0.001074544   0.01489   0.03714  -0.04573  -0.10687
   6   25630.7    390.2   0.050439037   0.64786   0.17930  -0.09861   0.77845
   7   25712.9    388.9   0.009020728   0.11550  -0.11502  -0.04158   0.31708
   8   26457.3    378.0   0.501259053   6.23723   0.78423   1.71435  -1.63805
   9   26728.4    374.1   0.040720132   0.50155  -0.28573   0.27952   0.58461
  10   28055.6    356.4   0.521420858   6.11849  -0.50697  -1.33543   2.01943
  11   28448.3    351.5   0.181756739   2.10334   0.04067   1.34656  -0.53710
  12   29018.3    344.6   0.093575149   1.06161   0.23911   0.96776  -0.26052
  13   29649.4    337.3   0.243423339   2.70285   0.15251   1.51284  -0.62522
  14   29947.1    333.9   0.012255370   0.13472   0.04781   0.28675  -0.22408
  15   30179.5    331.4   0.059290149   0.64677  -0.37997  -0.35819   0.61163
  16   30280.4    330.2   0.086323370   0.93852  -0.32363   0.76726   0.49507
  17   30600.8    326.8   0.041075900   0.44191  -0.19790  -0.02560   0.63410
  18   30693.9    325.8   0.119154324   1.27801  -0.11886  -0.81331   0.77615
  19   30933.1    323.3   0.279641925   2.97615  -0.36307   0.93067   1.40647
  20   31153.7    321.0   0.083869247   0.88627   0.03273   0.07091  -0.93818
  21   31176.0    320.8   0.005688262   0.06007   0.18063   0.05225   0.15719
  22   31548.7    317.0   0.033522141   0.34980  -0.26341   0.24182   0.47111
  23   31891.8    313.6   0.166215120   1.71580   0.36734   1.18071  -0.43218
  24   32040.4    312.1   0.112354808   1.15443   0.68096   0.74718  -0.36393
  25   32427.7    308.4   0.225331035   2.28760  -0.07580  -0.17708  -1.50017
  26   32850.4    304.4   0.151843312   1.52170  -0.07821   1.13707  -0.47187
  27   32922.1    303.7   0.034295773   0.34295  -0.01449  -0.56135  -0.16622
  28   33169.2    301.5   0.182027689   1.80667   0.18867   1.32652  -0.10683
  29   33209.5    301.1   0.055478638   0.54997   0.33545   0.28509  -0.59679
  30   33550.4    298.1   0.145170182   1.42448  -0.12658  -0.42305   1.10882
  31   33565.2    297.9   0.095360180   0.93531  -0.15343   0.20025   0.93363
  32   33639.0    297.3   0.119183490   1.16640  -0.07539   0.99350  -0.41674
  33   33867.0    295.3   0.001067574   0.01038   0.01822   0.07407  -0.06752
  34   34351.9    291.1   0.120469164   1.15452  -0.02325  -0.02277   1.07399
  35   34851.7    286.9   0.328705945   3.10498   0.32315  -0.10229   1.72919
  36   35004.1    285.7   0.091100620   0.85680   0.07455   0.55167   0.73952
  37   35165.8    284.4   0.173707262   1.62620  -0.10850  -0.57133   1.13490
  38   35264.8    283.6   0.337660798   3.15221   0.15010  -0.56710   1.67573
  39   35631.9    280.6   0.201693943   1.86350   0.14540  -0.70271  -1.16127
  40   36129.9    276.8   0.018849330   0.17175  -0.06465  -0.22302  -0.34327
  41   36403.3    274.7   0.151368932   1.36890   0.09865  -0.26227  -1.13595
  42   36809.0    271.7   0.035872475   0.32084   0.05307  -0.40155  -0.39595
  43   37037.5    270.0   0.002074621   0.01844  -0.02415  -0.07644   0.10961
  44   37203.3    268.8   0.064202139   0.56812  -0.27433  -0.65530   0.25189
  45   37220.0    268.7   0.018740582   0.16576  -0.01256  -0.12623   0.38687
  46   37323.2    267.9   0.002505762   0.02210   0.02384  -0.05247  -0.13704
  47   37366.7    267.6   0.038222569   0.33675   0.15371   0.52030  -0.20595
  48   37591.2    266.0   0.038403245   0.33632   0.07619   0.57454  -0.02062
  49   37717.4    265.1   0.034324958   0.29960   0.01543   0.54685  -0.01789
  50   38004.8    263.1   0.008696065   0.07533  -0.07968   0.14374  -0.21981
  51   38091.8    262.5   0.022823542   0.19725   0.18017   0.24222   0.32576
  52   38211.9    261.7   0.051118837   0.44041  -0.02480   0.29681   0.59304
  53   38381.6    260.5   0.018649702   0.15996   0.03405   0.23047   0.32510
  54   38662.8    258.6   0.001276972   0.01087   0.04544   0.09182  -0.01941
  55   38762.5    258.0   0.005885297   0.04998  -0.02244   0.19303   0.11054
  56   38959.5    256.7   0.016319076   0.13790   0.13579   0.34361   0.03733
  57   39291.2    254.5   0.001412826   0.01184   0.10057   0.04143   0.00262
  58   39798.3    251.3   0.140316178   1.16070   0.26155   0.98120  -0.35991
  59   40033.9    249.8   0.081747746   0.67224  -0.16338  -0.73547   0.32346
  60   40058.7    249.6   0.089926225   0.73904   0.19463   0.77978  -0.30511
  61   40269.4    248.3   0.058320313   0.47678   0.22126  -0.63870  -0.14103

FINAL SINGLE POINT ENERGY    -16068.686765441635

DIPOLE MOMENT
-------------
                                X             Y             Z
Electronic contribution:    -14.96177      34.65099      67.86074
Nuclear contribution   :     15.32037     -35.25094     -68.70608
                        -----------------------------------------
Total Dipole Moment    :      0.35860      -0.59996      -0.84534
                        -----------------------------------------
Magnitude (a.u.)       :      1.09688
Magnitude (Debye)      :      2.78804

Rotational constants in cm-1:     0.001245     0.000081     0.000077
Rotational constants in MHz :    37.321225     2.425669     2.294128

                             ****ORCA TERMINATED NORMALLY****
TOTAL RUN TIME: 0 days 0 hours 11 minutes 26 seconds 344 msec
