                         Program Version 4.2.0 -  RELEASE  -
|  1> # ORCA input file
|  2> # SCF done       -184.457817055772          0.000774320274
|  3> ! CAM-B3LYP def2-SVP def2/J RIJCOSX Grid4 TightSCF
|  4> %maxcore 5000
|  5> %tddft
|  6>     Mode sTDDFT
|  7>     Ethresh 5.0
|  8>     maxcore 5000
|  9> end
| 10>
| 11> %pal
| 12>   nprocs 6
| 13>   end
| 14> * xyz 0 1
| 15>    C       -4.91255         1.60625        -6.81187
| 16>    C       -5.11189         2.13354        -8.06257
| 17>    C       -4.65399         1.53762        -9.25551
| 18>    N       -4.31235         1.09872       -10.25992
| 19>    C       -5.77289         3.35162        -8.32252
| 20>    N       -6.28470         4.34066        -8.60345
| 21>    C       -4.15474         0.40142        -6.50143
| 22>    C       -4.08038         0.25872        -5.09244
| 23>    C       -3.42257        -0.78547        -4.48885
| 24>    C       -2.80274        -1.73053        -5.31230
| 25>    C       -2.88531        -1.58193        -6.71784
| 26>    C       -3.55452        -0.52841        -7.32933
| 27>    S       -2.05614        -2.86857        -7.53539
| 28>    C       -1.61283        -3.57768        -6.02154
| 29>    C       -2.06144        -2.88980        -4.94878
| 30>    C       -4.81713         1.35812        -4.44576
| 31>    O       -5.05828         1.47431        -3.26330
| 32>    C       -5.33259         2.19785        -5.55853
| 33>    C       -6.21143         3.23078        -5.39264
| 34>    C       -6.41703         3.91439        -4.17741
| 35>    S       -7.92623         4.75721        -3.84172
| 36>    C       -7.41470         5.35622        -2.27887
| 37>    C       -6.11913         4.91925        -2.07805
| 38>    C       -5.57668         4.13893        -3.10333
| 39>    O       -4.28221         3.87733        -2.79118
| 40>    C       -4.04150         4.44255        -1.57996
| 41>    O       -3.01027         4.40350        -0.99922
| 42>    O       -5.15556         5.08716        -1.12413
| 43>    C       -8.25136         6.13743        -1.45111
| 44>    C       -7.83884         6.60938        -0.24409
| 45>    C       -8.61192         7.39191         0.64206
| 46>    N       -8.07213         7.83878         1.83283
| 47>    C       -9.01358         8.55624         2.49413
| 48>    C       -9.26464         9.28271         3.65047
| 49>    C      -10.59401         9.72081         3.55168
| 50>    N      -11.13632         9.27170         2.36372
| 51>    C      -10.19238         8.56060         1.69659
| 52>    C       -9.94000         7.83584         0.53961
| 53>    C      -11.36568        10.48930         4.45400
| 54>    C      -10.91095        11.00898         5.62462
| 55>    C      -11.73060        11.76231         6.49459
| 56>    S      -11.11856        12.47328         7.97507
| 57>    C      -12.65179        13.18983         8.44206
| 58>    C      -13.56945        12.85781         7.46470
| 59>    C      -13.06956        12.09018         6.40951
| 60>    O      -14.09668        11.85460         5.53852
| 61>    C      -15.19964        12.46302         6.05900
| 62>    O      -16.27321        12.44660         5.56102
| 63>    O      -14.89466        13.07810         7.23522
| 64>    C      -12.80304        13.99522         9.59000
| 65>    C      -13.98059        14.60213         9.89717
| 66>    C      -14.13669        15.47411        10.99525
| 67>    C      -15.20562        16.28356        11.23887
| 68>    C      -16.34887        16.63180        10.42189
| 69>    C      -16.38921        16.70844         9.05306
| 70>    C      -17.52242        17.13693         8.32963
| 71>    N      -18.41790        17.47419         7.69578
| 72>    C      -15.28529        16.49760         8.19997
| 73>    N      -14.41670        16.39632         7.45553
| 74>    C      -17.38734        17.11915        11.32506
| 75>    C      -16.82329        17.29317        12.61625
| 76>    C      -15.41605        16.85497        12.59649
| 77>    O      -14.60757        16.89662        13.49643
| 78>    C      -17.54883        17.77868        13.67735
| 79>    C      -18.89350        18.09443        13.46031
| 80>    C      -19.45058        17.90091        12.17328
| 81>    C      -18.71573        17.41912        11.09585
| 82>    S      -21.12851        18.34104        12.14233
| 83>    C      -21.07057        18.77638        13.81544
| 84>    C      -19.85552        18.60142        14.37899
| 85>    H       -3.38347        -0.86644        -3.41370
| 86>    H       -3.59569        -0.46230        -8.40379
| 87>    H       -1.03443        -4.48106        -6.02918
| 88>    H       -1.88270        -3.18012        -3.92934
| 89>    H       -6.82023         3.55968        -6.22464
| 90>    H       -9.24151         6.34889        -1.82291
| 91>    H       -6.83239         6.37530         0.07826
| 92>    H       -7.13093         7.65255         2.13462
| 93>    H       -8.59880         9.47769         4.46571
| 94>    H      -12.07683         9.46051         2.06134
| 95>    H      -10.60481         7.63843        -0.27600
| 96>    H      -12.39579        10.67094         4.17610
| 97>    H       -9.88723        10.86551         5.93299
| 98>    H      -11.92278        14.16296        10.19416
| 99>    H      -14.83692        14.40942         9.26777
|100>    H      -13.36486        15.47156        11.75743
|101>    H      -17.09216        17.90907        14.64616
|102>    H      -19.18452        17.28110        10.13556
|103>    H      -21.96540        19.14151        14.28087
|104>    H      -19.63171        18.81799        15.40785
|105> *
|106>
|107>                          ****END OF INPUT****

CARTESIAN COORDINATES (ANGSTROEM)
---------------------------------
  C     -4.912550    1.606250   -6.811870
  C     -5.111890    2.133540   -8.062570
  C     -4.653990    1.537620   -9.255510
  N     -4.312350    1.098720  -10.259920
  C     -5.772890    3.351620   -8.322520
  N     -6.284700    4.340660   -8.603450
  C     -4.154740    0.401420   -6.501430
  C     -4.080380    0.258720   -5.092440
  C     -3.422570   -0.785470   -4.488850
  C     -2.802740   -1.730530   -5.312300
  C     -2.885310   -1.581930   -6.717840
  C     -3.554520   -0.528410   -7.329330
  S     -2.056140   -2.868570   -7.535390
  C     -1.612830   -3.577680   -6.021540
  C     -2.061440   -2.889800   -4.948780
  C     -4.817130    1.358120   -4.445760
  O     -5.058280    1.474310   -3.263300
  C     -5.332590    2.197850   -5.558530
  C     -6.211430    3.230780   -5.392640
  C     -6.417030    3.914390   -4.177410
  S     -7.926230    4.757210   -3.841720
  C     -7.414700    5.356220   -2.278870
  C     -6.119130    4.919250   -2.078050
  C     -5.576680    4.138930   -3.103330
  O     -4.282210    3.877330   -2.791180
  C     -4.041500    4.442550   -1.579960
  O     -3.010270    4.403500   -0.999220
  O     -5.155560    5.087160   -1.124130
  C     -8.251360    6.137430   -1.451110
  C     -7.838840    6.609380   -0.244090
  C     -8.611920    7.391910    0.642060
  N     -8.072130    7.838780    1.832830
  C     -9.013580    8.556240    2.494130
  C     -9.264640    9.282710    3.650470
  C    -10.594010    9.720810    3.551680
  N    -11.136320    9.271700    2.363720
  C    -10.192380    8.560600    1.696590
  C     -9.940000    7.835840    0.539610
  C    -11.365680   10.489300    4.454000
  C    -10.910950   11.008980    5.624620
  C    -11.730600   11.762310    6.494590
  S    -11.118560   12.473280    7.975070
  C    -12.651790   13.189830    8.442060
  C    -13.569450   12.857810    7.464700
  C    -13.069560   12.090180    6.409510
  O    -14.096680   11.854600    5.538520
  C    -15.199640   12.463020    6.059000
  O    -16.273210   12.446600    5.561020
  O    -14.894660   13.078100    7.235220
  C    -12.803040   13.995220    9.590000
  C    -13.980590   14.602130    9.897170
  C    -14.136690   15.474110   10.995250
  C    -15.205620   16.283560   11.238870
  C    -16.348870   16.631800   10.421890
  C    -16.389210   16.708440    9.053060
  C    -17.522420   17.136930    8.329630
  N    -18.417900   17.474190    7.695780
  C    -15.285290   16.497600    8.199970
  N    -14.416700   16.396320    7.455530
  C    -17.387340   17.119150   11.325060
  C    -16.823290   17.293170   12.616250
  C    -15.416050   16.854970   12.596490
  O    -14.607570   16.896620   13.496430
  C    -17.548830   17.778680   13.677350
  C    -18.893500   18.094430   13.460310
  C    -19.450580   17.900910   12.173280
  C    -18.715730   17.419120   11.095850
  S    -21.128510   18.341040   12.142330
  C    -21.070570   18.776380   13.815440
  C    -19.855520   18.601420   14.378990
  H     -3.383470   -0.866440   -3.413700
  H     -3.595690   -0.462300   -8.403790
  H     -1.034430   -4.481060   -6.029180
  H     -1.882700   -3.180120   -3.929340
  H     -6.820230    3.559680   -6.224640
  H     -9.241510    6.348890   -1.822910
  H     -6.832390    6.375300    0.078260
  H     -7.130930    7.652550    2.134620
  H     -8.598800    9.477690    4.465710
  H    -12.076830    9.460510    2.061340
  H    -10.604810    7.638430   -0.276000
  H    -12.395790   10.670940    4.176100
  H     -9.887230   10.865510    5.932990
  H    -11.922780   14.162960   10.194160
  H    -14.836920   14.409420    9.267770
  H    -13.364860   15.471560   11.757430
  H    -17.092160   17.909070   14.646160
  H    -19.184520   17.281100   10.135560
  H    -21.965400   19.141510   14.280870
  H    -19.631710   18.817990   15.407850

 Total Charge           Charge          ....    0
 Multiplicity           Mult            ....    1
 Number of Electrons    NEL             ....  502
 Basis Dimension        Dim             .... 1096

ORBITAL ENERGIES
----------------

  NO   OCC          E(Eh)            E(eV)
   0   2.0000     -88.981803     -2421.3179
   1   2.0000     -88.979682     -2421.2602
   2   2.0000     -88.964227     -2420.8397
   3   2.0000     -88.963783     -2420.8276
   4   2.0000     -19.320484      -525.7371
   5   2.0000     -19.318750      -525.6899
   6   2.0000     -19.316337      -525.6243
   7   2.0000     -19.316062      -525.6168
   8   2.0000     -19.228083      -523.2227
   9   2.0000     -19.225981      -523.1655
  10   2.0000     -19.212724      -522.8048
  11   2.0000     -19.209865      -522.7270
  12   2.0000     -14.472527      -393.8175
  13   2.0000     -14.472389      -393.8137
  14   2.0000     -14.412806      -392.1924
  15   2.0000     -14.411661      -392.1612
  16   2.0000     -14.411050      -392.1446
  17   2.0000     -14.410495      -392.1295
  18   2.0000     -10.473656      -285.0027
  19   2.0000     -10.471134      -284.9340
  20   2.0000     -10.369070      -282.1567
  21   2.0000     -10.365590      -282.0620
  22   2.0000     -10.363436      -282.0034
  23   2.0000     -10.360681      -281.9285
  24   2.0000     -10.359294      -281.8907
  25   2.0000     -10.356775      -281.8222
  26   2.0000     -10.340859      -281.3891
  27   2.0000     -10.339938      -281.3640
  28   2.0000     -10.338677      -281.3297
  29   2.0000     -10.338048      -281.3126
  30   2.0000     -10.337874      -281.3078
  31   2.0000     -10.337836      -281.3068
  32   2.0000     -10.330425      -281.1052
  33   2.0000     -10.328761      -281.0599
  34   2.0000     -10.324769      -280.9512
  35   2.0000     -10.321960      -280.8748
  36   2.0000     -10.321005      -280.8488
  37   2.0000     -10.317734      -280.7598
  38   2.0000     -10.317613      -280.7565
  39   2.0000     -10.315826      -280.7079
  40   2.0000     -10.315341      -280.6947
  41   2.0000     -10.314635      -280.6755
  42   2.0000     -10.313662      -280.6490
  43   2.0000     -10.313573      -280.6466
  44   2.0000     -10.311919      -280.6016
  45   2.0000     -10.311363      -280.5865
  46   2.0000     -10.310970      -280.5758
  47   2.0000     -10.309755      -280.5427
  48   2.0000     -10.309110      -280.5251
  49   2.0000     -10.305291      -280.4212
  50   2.0000     -10.303525      -280.3732
  51   2.0000     -10.303237      -280.3653
  52   2.0000     -10.303109      -280.3618
  53   2.0000     -10.300766      -280.2981
  54   2.0000     -10.300475      -280.2902
  55   2.0000     -10.299793      -280.2716
  56   2.0000     -10.299711      -280.2694
  57   2.0000     -10.299048      -280.2514
  58   2.0000     -10.298444      -280.2349
  59   2.0000     -10.297237      -280.2021
  60   2.0000     -10.295843      -280.1641
  61   2.0000     -10.295719      -280.1608
  62   2.0000     -10.291923      -280.0575
  63   2.0000     -10.291655      -280.0502
  64   2.0000     -10.287447      -279.9357
  65   2.0000     -10.287241      -279.9300
  66   2.0000     -10.286802      -279.9181
  67   2.0000     -10.286491      -279.9097
  68   2.0000     -10.280954      -279.7590
  69   2.0000     -10.279379      -279.7161
  70   2.0000      -8.076823      -219.7815
  71   2.0000      -8.074857      -219.7280
  72   2.0000      -8.060469      -219.3365
  73   2.0000      -8.060083      -219.3260
  74   2.0000      -6.046378      -164.5303
  75   2.0000      -6.044461      -164.4781
  76   2.0000      -6.042548      -164.4261
  77   2.0000      -6.040563      -164.3721
  78   2.0000      -6.038118      -164.3055
  79   2.0000      -6.036060      -164.2495
  80   2.0000      -6.029963      -164.0836
  81   2.0000      -6.029582      -164.0733
  82   2.0000      -6.025693      -163.9675
  83   2.0000      -6.025303      -163.9568
  84   2.0000      -6.022152      -163.8711
  85   2.0000      -6.021737      -163.8598
  86   2.0000      -1.294855       -35.2348
  87   2.0000      -1.293248       -35.1911
  88   2.0000      -1.179438       -32.0941
  89   2.0000      -1.177620       -32.0447
  90   2.0000      -1.151662       -31.3383
  91   2.0000      -1.149501       -31.2795
  92   2.0000      -1.127730       -30.6871
  93   2.0000      -1.124521       -30.5998
  94   2.0000      -1.104850       -30.0645
  95   2.0000      -1.068481       -29.0749
  96   2.0000      -1.017469       -27.6867
  97   2.0000      -1.016195       -27.6521
  98   2.0000      -1.011712       -27.5301
  99   2.0000      -1.010340       -27.4928
 100   2.0000      -1.005407       -27.3585
 101   2.0000      -1.004432       -27.3320
 102   2.0000      -0.990939       -26.9648
 103   2.0000      -0.989270       -26.9194
 104   2.0000      -0.981963       -26.7206
 105   2.0000      -0.981178       -26.6992
 106   2.0000      -0.938945       -25.5500
 107   2.0000      -0.934209       -25.4211
 108   2.0000      -0.926231       -25.2040
 109   2.0000      -0.923235       -25.1225
 110   2.0000      -0.913768       -24.8649
 111   2.0000      -0.902826       -24.5671
 112   2.0000      -0.892610       -24.2891
 113   2.0000      -0.884058       -24.0564
 114   2.0000      -0.879847       -23.9418
 115   2.0000      -0.878418       -23.9030
 116   2.0000      -0.878017       -23.8920
 117   2.0000      -0.872908       -23.7530
 118   2.0000      -0.862330       -23.4652
 119   2.0000      -0.857731       -23.3401
 120   2.0000      -0.853815       -23.2335
 121   2.0000      -0.836853       -22.7719
 122   2.0000      -0.823847       -22.4180
 123   2.0000      -0.820334       -22.3224
 124   2.0000      -0.819819       -22.3084
 125   2.0000      -0.799223       -21.7480
 126   2.0000      -0.784786       -21.3551
 127   2.0000      -0.778436       -21.1823
 128   2.0000      -0.770955       -20.9788
 129   2.0000      -0.756074       -20.5738
 130   2.0000      -0.754462       -20.5300
 131   2.0000      -0.746346       -20.3091
 132   2.0000      -0.744629       -20.2624
 133   2.0000      -0.741441       -20.1756
 134   2.0000      -0.734239       -19.9796
 135   2.0000      -0.716308       -19.4917
 136   2.0000      -0.709173       -19.2976
 137   2.0000      -0.708288       -19.2735
 138   2.0000      -0.698207       -18.9992
 139   2.0000      -0.694638       -18.9021
 140   2.0000      -0.693515       -18.8715
 141   2.0000      -0.689402       -18.7596
 142   2.0000      -0.684972       -18.6390
 143   2.0000      -0.682813       -18.5803
 144   2.0000      -0.679091       -18.4790
 145   2.0000      -0.675020       -18.3682
 146   2.0000      -0.660632       -17.9767
 147   2.0000      -0.658862       -17.9285
 148   2.0000      -0.655685       -17.8421
 149   2.0000      -0.655323       -17.8322
 150   2.0000      -0.640392       -17.4260
 151   2.0000      -0.630622       -17.1601
 152   2.0000      -0.630340       -17.1524
 153   2.0000      -0.627004       -17.0616
 154   2.0000      -0.619454       -16.8562
 155   2.0000      -0.616593       -16.7784
 156   2.0000      -0.616014       -16.7626
 157   2.0000      -0.606205       -16.4957
 158   2.0000      -0.599914       -16.3245
 159   2.0000      -0.595272       -16.1982
 160   2.0000      -0.590006       -16.0549
 161   2.0000      -0.584738       -15.9115
 162   2.0000      -0.579016       -15.7558
 163   2.0000      -0.575799       -15.6683
 164   2.0000      -0.568950       -15.4819
 165   2.0000      -0.564470       -15.3600
 166   2.0000      -0.552266       -15.0279
 167   2.0000      -0.549592       -14.9552
 168   2.0000      -0.546629       -14.8745
 169   2.0000      -0.545575       -14.8459
 170   2.0000      -0.544031       -14.8038
 171   2.0000      -0.543848       -14.7988
 172   2.0000      -0.538748       -14.6601
 173   2.0000      -0.537293       -14.6205
 174   2.0000      -0.537010       -14.6128
 175   2.0000      -0.534394       -14.5416
 176   2.0000      -0.532404       -14.4874
 177   2.0000      -0.529174       -14.3996
 178   2.0000      -0.527497       -14.3539
 179   2.0000      -0.525073       -14.2880
 180   2.0000      -0.520690       -14.1687
 181   2.0000      -0.517233       -14.0746
 182   2.0000      -0.513557       -13.9746
 183   2.0000      -0.512529       -13.9466
 184   2.0000      -0.510597       -13.8940
 185   2.0000      -0.509908       -13.8753
 186   2.0000      -0.507849       -13.8193
 187   2.0000      -0.507226       -13.8023
 188   2.0000      -0.506057       -13.7705
 189   2.0000      -0.499069       -13.5804
 190   2.0000      -0.497356       -13.5337
 191   2.0000      -0.496704       -13.5160
 192   2.0000      -0.495084       -13.4719
 193   2.0000      -0.491661       -13.3788
 194   2.0000      -0.489638       -13.3237
 195   2.0000      -0.488600       -13.2955
 196   2.0000      -0.488252       -13.2860
 197   2.0000      -0.487409       -13.2631
 198   2.0000      -0.484763       -13.1911
 199   2.0000      -0.483564       -13.1584
 200   2.0000      -0.481297       -13.0967
 201   2.0000      -0.473160       -12.8753
 202   2.0000      -0.468554       -12.7500
 203   2.0000      -0.464547       -12.6410
 204   2.0000      -0.460796       -12.5389
 205   2.0000      -0.455320       -12.3899
 206   2.0000      -0.453718       -12.3463
 207   2.0000      -0.452325       -12.3084
 208   2.0000      -0.450634       -12.2624
 209   2.0000      -0.447925       -12.1887
 210   2.0000      -0.447756       -12.1841
 211   2.0000      -0.445769       -12.1300
 212   2.0000      -0.445511       -12.1230
 213   2.0000      -0.444175       -12.0866
 214   2.0000      -0.440550       -11.9880
 215   2.0000      -0.439111       -11.9488
 216   2.0000      -0.437791       -11.9129
 217   2.0000      -0.436292       -11.8721
 218   2.0000      -0.430379       -11.7112
 219   2.0000      -0.430197       -11.7063
 220   2.0000      -0.429134       -11.6773
 221   2.0000      -0.428508       -11.6603
 222   2.0000      -0.424329       -11.5466
 223   2.0000      -0.420793       -11.4504
 224   2.0000      -0.420610       -11.4454
 225   2.0000      -0.417936       -11.3726
 226   2.0000      -0.416542       -11.3347
 227   2.0000      -0.410132       -11.1602
 228   2.0000      -0.406799       -11.0696
 229   2.0000      -0.401293       -10.9198
 230   2.0000      -0.399798       -10.8791
 231   2.0000      -0.398527       -10.8445
 232   2.0000      -0.395318       -10.7571
 233   2.0000      -0.383703       -10.4411
 234   2.0000      -0.375881       -10.2282
 235   2.0000      -0.371901       -10.1199
 236   2.0000      -0.364067        -9.9068
 237   2.0000      -0.349498        -9.5103
 238   2.0000      -0.338465        -9.2101
 239   2.0000      -0.334369        -9.0987
 240   2.0000      -0.327774        -8.9192
 241   2.0000      -0.322247        -8.7688
 242   2.0000      -0.317740        -8.6461
 243   2.0000      -0.311068        -8.4646
 244   2.0000      -0.310310        -8.4440
 245   2.0000      -0.305193        -8.3047
 246   2.0000      -0.297567        -8.0972
 247   2.0000      -0.292482        -7.9588
 248   2.0000      -0.289539        -7.8788
 249   2.0000      -0.271260        -7.3814
 250   2.0000      -0.228380        -6.2145
 251   0.0000      -0.102382        -2.7859
 252   0.0000      -0.091300        -2.4844
 253   0.0000      -0.064351        -1.7511
 254   0.0000      -0.057369        -1.5611
 255   0.0000      -0.043077        -1.1722

MULLIKEN ATOMIC CHARGES
-----------------------
   0 C :    0.303367
   1 C :   -0.345019
   2 C :   -0.185286
   3 N :    0.151586
   4 C :   -0.204558
   5 N :    0.157048
   6 C :    0.018422
   7 C :   -0.018573
   8 C :   -0.066760
   9 C :    0.114966
  10 C :   -0.094908
  11 C :   -0.026956
  12 S :    0.140015
  13 C :   -0.048241
  14 C :    0.024134
  15 C :    0.145400
  16 O :   -0.153638
  17 C :   -0.102296
  18 C :    0.050244
  19 C :   -0.211292
  20 S :    0.162015
  21 C :   -0.151325
  22 C :    0.137510
  23 C :    0.242062
  24 O :   -0.186916
  25 C :    0.296286
  26 O :   -0.127058
  27 O :   -0.224900
  28 C :    0.043684
  29 C :    0.005820
  30 C :    0.102558
  31 N :   -0.029557
  32 C :    0.121304
  33 C :   -0.170846
  34 C :    0.104323
  35 N :   -0.030058
  36 C :    0.119109
  37 C :   -0.165289
  38 C :    0.002000
  39 C :    0.049301
  40 C :   -0.166750
  41 S :    0.156282
  42 C :   -0.189550
  43 C :    0.211590
  44 C :    0.164520
  45 O :   -0.222245
  46 C :    0.298804
  47 O :   -0.121975
  48 O :   -0.210247
  49 C :    0.080561
  50 C :   -0.008222
  51 C :    0.026707
  52 C :   -0.108311
  53 C :    0.272455
  54 C :   -0.326801
  55 C :   -0.182468
  56 N :    0.151013
  57 C :   -0.208458
  58 N :    0.158702
  59 C :    0.008347
  60 C :   -0.003744
  61 C :    0.136891
  62 O :   -0.146304
  63 C :   -0.071579
  64 C :    0.113302
  65 C :   -0.093492
  66 C :   -0.024477
  67 S :    0.139930
  68 C :   -0.051219
  69 C :    0.026414
  70 H :   -0.011184
  71 H :   -0.006308
  72 H :    0.038103
  73 H :   -0.007090
  74 H :    0.023891
  75 H :   -0.022786
  76 H :   -0.002861
  77 H :    0.127484
  78 H :   -0.029607
  79 H :    0.127767
  80 H :   -0.027622
  81 H :   -0.003966
  82 H :   -0.023924
  83 H :   -0.006908
  84 H :    0.039194
  85 H :    0.014773
  86 H :   -0.012724
  87 H :   -0.003517
  88 H :    0.037559
  89 H :   -0.007627
Sum of atomic charges:   -0.0000000

LOEWDIN ATOMIC CHARGES
----------------------
   0 C :    0.074936
   1 C :   -0.142315
   2 C :   -0.018804
   3 N :   -0.054493
   4 C :   -0.023007
   5 N :   -0.054498
   6 C :   -0.022699
   7 C :   -0.050940
   8 C :    0.023047
   9 C :   -0.034671
  10 C :   -0.146135
  11 C :   -0.009100
  12 S :    0.428967
  13 C :   -0.149911
  14 C :   -0.057654
  15 C :    0.079710
  16 O :   -0.143498
  17 C :   -0.094098
  18 C :    0.045811
  19 C :   -0.206076
  20 S :    0.452602
  21 C :   -0.159542
  22 C :   -0.022212
  23 C :    0.031948
  24 O :   -0.003617
  25 C :    0.110062
  26 O :   -0.122051
  27 O :   -0.037898
  28 C :   -0.058846
  29 C :   -0.003075
  30 C :   -0.005470
  31 N :    0.074567
  32 C :   -0.012029
  33 C :   -0.086239
  34 C :    0.000195
  35 N :    0.073899
  36 C :   -0.014707
  37 C :   -0.079876
  38 C :   -0.011532
  39 C :   -0.052533
  40 C :   -0.171405
  41 S :    0.449577
  42 C :   -0.201803
  43 C :    0.016717
  44 C :   -0.015319
  45 O :   -0.034774
  46 C :    0.110133
  47 O :   -0.117474
  48 O :   -0.020576
  49 C :    0.010448
  50 C :   -0.029413
  51 C :    0.062128
  52 C :   -0.091524
  53 C :    0.070446
  54 C :   -0.138754
  55 C :   -0.018690
  56 N :   -0.051138
  57 C :   -0.020130
  58 N :   -0.057086
  59 C :   -0.019090
  60 C :   -0.055161
  61 C :    0.081328
  62 O :   -0.147162
  63 C :    0.022785
  64 C :   -0.036340
  65 C :   -0.145182
  66 C :   -0.011266
  67 S :    0.428742
  68 C :   -0.150822
  69 C :   -0.057866
  70 H :    0.040629
  71 H :    0.040659
  72 H :    0.029165
  73 H :    0.035173
  74 H :    0.046165
  75 H :    0.031034
  76 H :    0.034050
  77 H :    0.093132
  78 H :    0.025406
  79 H :    0.093310
  80 H :    0.026411
  81 H :    0.033666
  82 H :    0.030615
  83 H :    0.037258
  84 H :    0.034840
  85 H :    0.044305
  86 H :    0.040118
  87 H :    0.040675
  88 H :    0.028924
  89 H :    0.034919

  Mayer bond orders larger than 0.100000
B(  0-C ,  1-C ) :   1.6328 B(  0-C ,  6-C ) :   1.0067 B(  0-C , 17-C ) :   1.0792
B(  1-C ,  2-C ) :   1.1409 B(  1-C ,  4-C ) :   1.1460 B(  2-C ,  3-N ) :   2.9726
B(  4-C ,  5-N ) :   2.9876 B(  6-C ,  7-C ) :   1.2701 B(  6-C , 11-C ) :   1.4093
B(  7-C ,  8-C ) :   1.4290 B(  7-C , 15-C ) :   0.9443 B(  8-C ,  9-C ) :   1.2427
B(  8-C , 70-H ) :   1.0171 B(  9-C , 10-C ) :   1.3030 B(  9-C , 14-C ) :   1.1726
B( 10-C , 11-C ) :   1.3228 B( 10-C , 12-S ) :   1.0982 B( 11-C , 71-H ) :   0.9837
B( 12-S , 13-C ) :   1.1268 B( 13-C , 14-C ) :   1.6269 B( 13-C , 72-H ) :   0.9685
B( 14-C , 73-H ) :   0.9999 B( 15-C , 16-O ) :   2.2088 B( 15-C , 17-C ) :   0.9512
B( 17-C , 18-C ) :   1.5856 B( 18-C , 19-C ) :   1.1975 B( 18-C , 74-H ) :   0.9345
B( 19-C , 20-S ) :   1.0602 B( 19-C , 23-C ) :   1.4447 B( 20-S , 21-C ) :   1.1074
B( 21-C , 22-C ) :   1.4465 B( 21-C , 28-C ) :   1.1587 B( 22-C , 23-C ) :   1.2958
B( 22-C , 27-O ) :   1.0613 B( 23-C , 24-O ) :   1.0988 B( 24-O , 25-C ) :   1.0715
B( 25-C , 26-O ) :   2.2613 B( 25-C , 27-O ) :   1.0586 B( 28-C , 29-C ) :   1.6300
B( 28-C , 75-H ) :   0.9641 B( 29-C , 30-C ) :   1.1356 B( 29-C , 76-H ) :   0.9596
B( 30-C , 31-N ) :   1.1658 B( 30-C , 37-C ) :   1.3826 B( 31-N , 32-C ) :   1.1779
B( 31-N , 77-H ) :   0.9348 B( 32-C , 33-C ) :   1.2703 B( 32-C , 36-C ) :   1.2901
B( 33-C , 34-C ) :   1.3904 B( 33-C , 78-H ) :   1.0308 B( 34-C , 35-N ) :   1.1719
B( 34-C , 38-C ) :   1.1263 B( 35-N , 36-C ) :   1.1714 B( 35-N , 79-H ) :   0.9348
B( 36-C , 37-C ) :   1.2780 B( 37-C , 80-H ) :   1.0309 B( 38-C , 39-C ) :   1.6472
B( 38-C , 81-H ) :   0.9616 B( 39-C , 40-C ) :   1.1515 B( 39-C , 82-H ) :   0.9615
B( 40-C , 41-S ) :   1.1016 B( 40-C , 44-C ) :   1.4586 B( 41-S , 42-C ) :   1.0652
B( 42-C , 43-C ) :   1.4566 B( 42-C , 49-C ) :   1.1570 B( 43-C , 44-C ) :   1.2930
B( 43-C , 48-O ) :   1.0717 B( 44-C , 45-O ) :   1.0592 B( 45-O , 46-C ) :   1.0652
B( 46-C , 47-O ) :   2.2662 B( 46-C , 48-O ) :   1.0607 B( 49-C , 50-C ) :   1.6389
B( 49-C , 83-H ) :   0.9688 B( 50-C , 51-C ) :   1.1443 B( 50-C , 84-H ) :   0.9493
B( 51-C , 52-C ) :   1.6075 B( 51-C , 85-H ) :   0.9597 B( 52-C , 53-C ) :   1.0423
B( 52-C , 61-C ) :   0.9407 B( 53-C , 54-C ) :   1.6365 B( 53-C , 59-C ) :   1.0137
B( 54-C , 55-C ) :   1.1331 B( 54-C , 57-C ) :   1.1589 B( 55-C , 56-N ) :   2.9866
B( 57-C , 58-N ) :   3.0019 B( 59-C , 60-C ) :   1.2699 B( 59-C , 66-C ) :   1.4152
B( 60-C , 61-C ) :   0.9248 B( 60-C , 63-C ) :   1.4278 B( 61-C , 62-O ) :   2.2666
B( 63-C , 64-C ) :   1.2486 B( 63-C , 86-H ) :   1.0165 B( 64-C , 65-C ) :   1.3054
B( 64-C , 69-C ) :   1.1718 B( 65-C , 66-C ) :   1.3191 B( 65-C , 67-S ) :   1.0978
B( 66-C , 87-H ) :   0.9852 B( 67-S , 68-C ) :   1.1268 B( 68-C , 69-C ) :   1.6301
B( 68-C , 88-H ) :   0.9681 B( 69-C , 89-H ) :   0.9992

-----------------------------------------------------------------------------
         ABSORPTION SPECTRUM VIA TRANSITION ELECTRIC DIPOLE MOMENTS
-----------------------------------------------------------------------------
State   Energy  Wavelength   fosc         T2         TX        TY        TZ
        (cm-1)    (nm)                  (au**2)     (au)      (au)      (au)
-----------------------------------------------------------------------------
   0   14181.7    705.1   3.131300183  72.68981   3.82659  -5.00805  -5.74165
   1   18106.7    552.3   0.026565491   0.48301  -0.46004   0.12544  -0.50560
   2   23728.8    421.4   0.100637166   1.39623  -0.02842   0.33294   1.13339
   3   24422.0    409.5   0.080305794   1.08253   0.74740  -0.72296  -0.03552
   4   25183.9    397.1   0.005267476   0.06886   0.06511  -0.11588   0.22625
   5   26098.9    383.2   0.074382767   0.93826  -0.15809   0.63216   0.71669
   6   26970.1    370.8   0.252377178   3.08065   0.96512  -1.41455  -0.38504
   7   27134.3    368.5   0.300569217   3.64671  -0.91692   0.40349   1.62578
   8   28183.6    354.8   0.022502548   0.26285   0.19097  -0.35074  -0.32151
   9   28903.9    346.0   0.098183441   1.11830   0.77077  -0.71055   0.13903
  10   29079.4    343.9   0.062511006   0.70770   0.38120  -0.55787  -0.50116
  11   29411.6    340.0   0.038998987   0.43653  -0.08905   0.43291  -0.49110
  12   30178.6    331.4   0.005764082   0.06288   0.22058   0.09141  -0.07661
  13   30329.2    329.7   0.087949648   0.95466   0.30118   0.32705   0.87005
  14   31117.1    321.4   0.080409888   0.85072  -0.21997  -0.30534  -0.84208
  15   31332.9    319.2   0.046378836   0.48730   0.26022   0.63241   0.14014
  16   31489.3    317.6   0.037767894   0.39485   0.34549   0.07613  -0.51932
  17   32325.4    309.4   0.032980477   0.33588   0.26470   0.17172  -0.48614
  18   32726.3    305.6   0.531250068   5.34414  -1.65843   1.60944  -0.05879
  19   33096.5    302.1   0.228506416   2.27296  -0.28417   0.62758   1.34103
  20   33454.5    298.9   0.075077579   0.73881  -0.68091   0.52456   0.00315
  21   33590.7    297.7   0.358418971   3.51275  -0.83775   1.47376  -0.79936
  22   34000.1    294.1   0.149697030   1.44947  -0.75427   0.07649   0.93526
  23   34252.8    291.9   0.304222362   2.92396   1.12641  -0.32656  -1.24440
  24   34835.7    287.1   0.040420553   0.38199  -0.34452   0.06729   0.50869
  25   35377.9    282.7   0.018491686   0.17208  -0.25478  -0.25240  -0.20847
  26   36207.1    276.2   0.003583876   0.03259  -0.15104  -0.07037  -0.06943
  27   37269.6    268.3   0.004937049   0.04361   0.07522   0.17780  -0.07962
  28   37381.6    267.5   0.017024883   0.14993  -0.37692   0.01446  -0.08750
  29   37777.5    264.7   0.001413493   0.01232  -0.04942   0.09921   0.00571
  30   38366.4    260.6   0.019223537   0.16495  -0.05638  -0.07778  -0.39462
  31   38551.6    259.4   0.409821281   3.49967  -0.18781  -0.04790  -1.86067
  32   38587.0    259.2   0.010341320   0.08823   0.16365   0.24027  -0.06099
  33   39094.3    255.8   0.005311892   0.04473   0.20852   0.03364  -0.01096
  34   39590.7    252.6   0.152976693   1.27206   0.74867  -0.30174   0.78773
  35   39868.0    250.8   0.099219776   0.81931  -0.59572   0.33486  -0.59355
  36   40102.0    249.4   0.017268240   0.14176  -0.32977  -0.13942   0.11651
  37   40184.9    248.8   0.108261892   0.88693  -0.01774   0.06601  -0.93929

FINAL SINGLE POINT ENERGY     -4512.436279263391

DIPOLE MOMENT
-------------
                                X             Y             Z
Electronic contribution:      4.54500      -5.24225     -19.81485
Nuclear contribution   :     -4.61093       3.72327      23.43396
                        -----------------------------------------
Total Dipole Moment    :     -0.06593      -1.51897       3.61910
                        -----------------------------------------
Magnitude (a.u.)       :      3.92550
Magnitude (Debye)      :      9.97782

Rotational constants in cm-1:     0.004092     0.000133     0.000131
Rotational constants in MHz :   122.670961     3.996658     3.928177

                             ****ORCA TERMINATED NORMALLY****
TOTAL RUN TIME: 0 days 0 hours 8 minutes 46 seconds 242 msec
