                         Program Version 4.2.0 -  RELEASE  -
|  1> # ORCA input file
|  2> # SCF done       -204.915055629108          0.000576787793
|  3> ! CAM-B3LYP def2-SVP def2/J RIJCOSX Grid4 TightSCF
|  4> %maxcore 5000
|  5> %tddft
|  6>     Mode sTDDFT
|  7>     Ethresh 5.0
|  8>     maxcore 5000
|  9> end
| 10>
| 11> %pal
| 12>   nprocs 6
| 13>   end
| 14> * xyz 0 1
| 15>    C        7.59386         7.75671        -8.42888
| 16>    C        7.27312         8.32804        -9.62921
| 17>    F        7.47551         9.64345        -9.81058
| 18>    C        6.73399         7.59061       -10.69335
| 19>    C        6.52280         6.25025       -10.52989
| 20>    C        6.83978         5.60848        -9.31428
| 21>    C        7.38177         6.37709        -8.24124
| 22>    C        7.69312         5.75909        -7.00801
| 23>    C        7.47694         4.41567        -6.85706
| 24>    C        6.96046         3.64655        -7.94368
| 25>    C        6.63850         4.22227        -9.14089
| 26>    C        6.87173         2.23468        -7.54480
| 27>    O        6.41026         1.29716        -8.15274
| 28>    C        7.51841         2.17639        -6.19703
| 29>    C        7.65965         3.53795        -5.70647
| 30>    C        7.73122         3.92034        -4.39877
| 31>    C        7.61903         3.01286        -3.32273
| 32>    N        7.43821         2.31726        -2.42837
| 33>    C        7.80080         5.26692        -3.98127
| 34>    N        7.85622         6.34877        -3.60477
| 35>    C        7.97171         1.00068        -5.71346
| 36>    C        8.83635         0.80435        -4.58838
| 37>    N        9.81291         1.64506        -4.31046
| 38>    C       10.49380         1.09211        -3.27645
| 39>    C        9.92146        -0.20076        -2.90129
| 40>    C       10.65876        -0.79365        -1.77466
| 41>    O       10.48448        -1.86112        -1.23393
| 42>    C       11.67139         0.24609        -1.48101
| 43>    C       11.53976         1.37244        -2.43442
| 44>    N       12.44778         2.34167        -2.15883
| 45>    C       13.10392         1.90758        -1.11306
| 46>    C       12.66085         0.60952        -0.62979
| 47>    C        8.82729        -0.38929        -3.70988
| 48>    C        7.89520        -1.45887        -3.71490
| 49>    C        6.65733        -1.38915        -4.26345
| 50>    C        5.73395        -2.45856        -4.36380
| 51>    N        4.53374        -2.27085        -5.01248
| 52>    C        3.87153        -3.45316        -5.04469
| 53>    C        2.72844        -4.07249        -5.50789
| 54>    C        2.83053        -5.42408        -5.11467
| 55>    N        4.01585        -5.60661        -4.42427
| 56>    C        4.67711        -4.42374        -4.37528
| 57>    C        5.84108        -3.79832        -3.95068
| 58>    C        1.93543        -6.47911        -5.35242
| 59>    C        0.79932        -6.36537        -6.10672
| 60>    C       -0.09560        -7.43094        -6.29880
| 61>    N        0.07150        -8.62987        -5.73183
| 62>    C       -1.00426        -9.34874        -6.06309
| 63>    C       -1.94707        -8.57085        -6.88589
| 64>    C       -3.12250        -9.38921        -7.24526
| 65>    O       -4.09013        -9.06089        -7.89920
| 66>    C       -2.81819       -10.67861        -6.61473
| 67>    C       -1.52784       -10.61706        -5.90058
| 68>    N       -1.23995       -11.80443        -5.32859
| 69>    C       -2.25120       -12.58999        -5.63982
| 70>    C       -3.26500       -11.95426        -6.44202
| 71>    C       -1.35806        -7.34828        -7.07651
| 72>    C       -1.78369        -6.21364        -7.82022
| 73>    C       -3.04686        -6.03799        -8.28422
| 74>    C       -3.48890        -4.93026        -9.05148
| 75>    C       -2.95680        -3.68562        -9.23393
| 76>    C       -3.42103        -2.89474       -10.41228
| 77>    O       -4.39451        -3.11751       -11.09270
| 78>    C       -2.41475        -1.82996       -10.59252
| 79>    C       -2.30563        -0.90876       -11.59355
| 80>    C       -1.22714         0.00436       -11.57579
| 81>    C       -0.27227        -0.06474       -10.52015
| 82>    C        0.80757         0.83978       -10.51373
| 83>    C        0.91197         1.76632       -11.51313
| 84>    C       -0.01845         1.85383       -12.55729
| 85>    C       -1.07020         0.98047       -12.58106
| 86>    F        1.94232         2.63363       -11.50617
| 87>    C       -0.41644        -1.02480        -9.49176
| 88>    C       -1.47820        -1.88805        -9.52170
| 89>    C       -1.90146        -2.93463        -8.59208
| 90>    C       -1.50143        -3.01181        -7.28109
| 91>    C       -2.09311        -3.85817        -6.32197
| 92>    N       -2.54408        -4.51418        -5.49554
| 93>    C       -0.45111        -2.25278        -6.73506
| 94>    N        0.44489        -1.71937        -6.25096
| 95>    H        8.00291         8.35619        -7.63077
| 96>    H        6.49883         8.09690       -11.61605
| 97>    H        6.10782         5.66134       -11.33381
| 98>    H        8.10558         6.36042        -6.21330
| 99>    H        6.23676         3.62606        -9.94651
|100>    H        7.71066         0.11325        -6.28146
|101>    H       13.90044         2.49407        -0.68897
|102>    H       13.06493         0.08999         0.21635
|103>    H        8.21765        -2.36051        -3.21338
|104>    H        6.31656        -0.44513        -4.67066
|105>    H        4.21402        -1.39813        -5.39780
|106>    H        1.91249        -3.62089        -6.03249
|107>    H        4.31727        -6.48585        -4.03946
|108>    H        6.66659        -4.22295        -3.41740
|109>    H        2.15065        -7.44838        -4.92335
|110>    H        0.55956        -5.41700        -6.56244
|111>    H       -2.26798       -13.60988        -5.29665
|112>    H       -4.16148       -12.41866        -6.80239
|113>    H       -1.02094        -5.48180        -8.05320
|114>    H       -3.76875        -6.82856        -8.12449
|115>    H       -4.37287        -5.11194        -9.65739
|116>    H       -3.03355        -0.87627       -12.39013
|117>    H        1.54225         0.80347        -9.72447
|118>    H        0.11484         2.60605       -13.31847
|119>    H       -1.79916         1.02781       -13.37581
|120>    H        0.32576        -1.05567        -8.71003
|121> *
|122>
|123>                          ****END OF INPUT****

CARTESIAN COORDINATES (ANGSTROEM)
---------------------------------
  C      7.593860    7.756710   -8.428880
  C      7.273120    8.328040   -9.629210
  F      7.475510    9.643450   -9.810580
  C      6.733990    7.590610  -10.693350
  C      6.522800    6.250250  -10.529890
  C      6.839780    5.608480   -9.314280
  C      7.381770    6.377090   -8.241240
  C      7.693120    5.759090   -7.008010
  C      7.476940    4.415670   -6.857060
  C      6.960460    3.646550   -7.943680
  C      6.638500    4.222270   -9.140890
  C      6.871730    2.234680   -7.544800
  O      6.410260    1.297160   -8.152740
  C      7.518410    2.176390   -6.197030
  C      7.659650    3.537950   -5.706470
  C      7.731220    3.920340   -4.398770
  C      7.619030    3.012860   -3.322730
  N      7.438210    2.317260   -2.428370
  C      7.800800    5.266920   -3.981270
  N      7.856220    6.348770   -3.604770
  C      7.971710    1.000680   -5.713460
  C      8.836350    0.804350   -4.588380
  N      9.812910    1.645060   -4.310460
  C     10.493800    1.092110   -3.276450
  C      9.921460   -0.200760   -2.901290
  C     10.658760   -0.793650   -1.774660
  O     10.484480   -1.861120   -1.233930
  C     11.671390    0.246090   -1.481010
  C     11.539760    1.372440   -2.434420
  N     12.447780    2.341670   -2.158830
  C     13.103920    1.907580   -1.113060
  C     12.660850    0.609520   -0.629790
  C      8.827290   -0.389290   -3.709880
  C      7.895200   -1.458870   -3.714900
  C      6.657330   -1.389150   -4.263450
  C      5.733950   -2.458560   -4.363800
  N      4.533740   -2.270850   -5.012480
  C      3.871530   -3.453160   -5.044690
  C      2.728440   -4.072490   -5.507890
  C      2.830530   -5.424080   -5.114670
  N      4.015850   -5.606610   -4.424270
  C      4.677110   -4.423740   -4.375280
  C      5.841080   -3.798320   -3.950680
  C      1.935430   -6.479110   -5.352420
  C      0.799320   -6.365370   -6.106720
  C     -0.095600   -7.430940   -6.298800
  N      0.071500   -8.629870   -5.731830
  C     -1.004260   -9.348740   -6.063090
  C     -1.947070   -8.570850   -6.885890
  C     -3.122500   -9.389210   -7.245260
  O     -4.090130   -9.060890   -7.899200
  C     -2.818190  -10.678610   -6.614730
  C     -1.527840  -10.617060   -5.900580
  N     -1.239950  -11.804430   -5.328590
  C     -2.251200  -12.589990   -5.639820
  C     -3.265000  -11.954260   -6.442020
  C     -1.358060   -7.348280   -7.076510
  C     -1.783690   -6.213640   -7.820220
  C     -3.046860   -6.037990   -8.284220
  C     -3.488900   -4.930260   -9.051480
  C     -2.956800   -3.685620   -9.233930
  C     -3.421030   -2.894740  -10.412280
  O     -4.394510   -3.117510  -11.092700
  C     -2.414750   -1.829960  -10.592520
  C     -2.305630   -0.908760  -11.593550
  C     -1.227140    0.004360  -11.575790
  C     -0.272270   -0.064740  -10.520150
  C      0.807570    0.839780  -10.513730
  C      0.911970    1.766320  -11.513130
  C     -0.018450    1.853830  -12.557290
  C     -1.070200    0.980470  -12.581060
  F      1.942320    2.633630  -11.506170
  C     -0.416440   -1.024800   -9.491760
  C     -1.478200   -1.888050   -9.521700
  C     -1.901460   -2.934630   -8.592080
  C     -1.501430   -3.011810   -7.281090
  C     -2.093110   -3.858170   -6.321970
  N     -2.544080   -4.514180   -5.495540
  C     -0.451110   -2.252780   -6.735060
  N      0.444890   -1.719370   -6.250960
  H      8.002910    8.356190   -7.630770
  H      6.498830    8.096900  -11.616050
  H      6.107820    5.661340  -11.333810
  H      8.105580    6.360420   -6.213300
  H      6.236760    3.626060   -9.946510
  H      7.710660    0.113250   -6.281460
  H     13.900440    2.494070   -0.688970
  H     13.064930    0.089990    0.216350
  H      8.217650   -2.360510   -3.213380
  H      6.316560   -0.445130   -4.670660
  H      4.214020   -1.398130   -5.397800
  H      1.912490   -3.620890   -6.032490
  H      4.317270   -6.485850   -4.039460
  H      6.666590   -4.222950   -3.417400
  H      2.150650   -7.448380   -4.923350
  H      0.559560   -5.417000   -6.562440
  H     -2.267980  -13.609880   -5.296650
  H     -4.161480  -12.418660   -6.802390
  H     -1.020940   -5.481800   -8.053200
  H     -3.768750   -6.828560   -8.124490
  H     -4.372870   -5.111940   -9.657390
  H     -3.033550   -0.876270  -12.390130
  H      1.542250    0.803470   -9.724470
  H      0.114840    2.606050  -13.318470
  H     -1.799160    1.027810  -13.375810
  H      0.325760   -1.055670   -8.710030

 Total Charge           Charge          ....    0
 Multiplicity           Mult            ....    1
 Number of Electrons    NEL             ....  530
 Basis Dimension        Dim             .... 1250

ORBITAL ENERGIES
----------------

  NO   OCC          E(Eh)            E(eV)
   0   2.0000     -24.795421      -674.7177
   1   2.0000     -24.793577      -674.6675
   2   2.0000     -19.235755      -523.4315
   3   2.0000     -19.215804      -522.8886
   4   2.0000     -19.213909      -522.8371
   5   2.0000     -19.201124      -522.4891
   6   2.0000     -14.473444      -393.8424
   7   2.0000     -14.472928      -393.8284
   8   2.0000     -14.430827      -392.6828
   9   2.0000     -14.428277      -392.6134
  10   2.0000     -14.427179      -392.5835
  11   2.0000     -14.425888      -392.5484
  12   2.0000     -14.421045      -392.4166
  13   2.0000     -14.413701      -392.2167
  14   2.0000     -14.391404      -391.6100
  15   2.0000     -14.387298      -391.4983
  16   2.0000     -10.385538      -282.6049
  17   2.0000     -10.380364      -282.4641
  18   2.0000     -10.376327      -282.3542
  19   2.0000     -10.374728      -282.3107
  20   2.0000     -10.367065      -282.1022
  21   2.0000     -10.361330      -281.9461
  22   2.0000     -10.360327      -281.9188
  23   2.0000     -10.356433      -281.8129
  24   2.0000     -10.353920      -281.7445
  25   2.0000     -10.349895      -281.6350
  26   2.0000     -10.348907      -281.6081
  27   2.0000     -10.339213      -281.3443
  28   2.0000     -10.335316      -281.2382
  29   2.0000     -10.335088      -281.2321
  30   2.0000     -10.334902      -281.2270
  31   2.0000     -10.330685      -281.1122
  32   2.0000     -10.330214      -281.0994
  33   2.0000     -10.329173      -281.0711
  34   2.0000     -10.329129      -281.0699
  35   2.0000     -10.328455      -281.0515
  36   2.0000     -10.325925      -280.9827
  37   2.0000     -10.321229      -280.8549
  38   2.0000     -10.320345      -280.8309
  39   2.0000     -10.320252      -280.8283
  40   2.0000     -10.320112      -280.8245
  41   2.0000     -10.318276      -280.7746
  42   2.0000     -10.316296      -280.7207
  43   2.0000     -10.315841      -280.7083
  44   2.0000     -10.314288      -280.6660
  45   2.0000     -10.313103      -280.6338
  46   2.0000     -10.312514      -280.6178
  47   2.0000     -10.312208      -280.6094
  48   2.0000     -10.311679      -280.5951
  49   2.0000     -10.310183      -280.5544
  50   2.0000     -10.310168      -280.5539
  51   2.0000     -10.308331      -280.5040
  52   2.0000     -10.307152      -280.4719
  53   2.0000     -10.307042      -280.4689
  54   2.0000     -10.306248      -280.4473
  55   2.0000     -10.305153      -280.4175
  56   2.0000     -10.305030      -280.4141
  57   2.0000     -10.304870      -280.4098
  58   2.0000     -10.304823      -280.4085
  59   2.0000     -10.304543      -280.4009
  60   2.0000     -10.303848      -280.3820
  61   2.0000     -10.303545      -280.3737
  62   2.0000     -10.302790      -280.3532
  63   2.0000     -10.300967      -280.3036
  64   2.0000     -10.299115      -280.2532
  65   2.0000     -10.299002      -280.2501
  66   2.0000     -10.297908      -280.2203
  67   2.0000     -10.297385      -280.2061
  68   2.0000     -10.296929      -280.1937
  69   2.0000     -10.296215      -280.1742
  70   2.0000     -10.295636      -280.1585
  71   2.0000     -10.294665      -280.1321
  72   2.0000     -10.293082      -280.0890
  73   2.0000     -10.288648      -279.9683
  74   2.0000     -10.284755      -279.8624
  75   2.0000     -10.282136      -279.7911
  76   2.0000     -10.281120      -279.7635
  77   2.0000     -10.280722      -279.7527
  78   2.0000     -10.271143      -279.4920
  79   2.0000     -10.270405      -279.4719
  80   2.0000      -1.311022       -35.6747
  81   2.0000      -1.308003       -35.5926
  82   2.0000      -1.150307       -31.3014
  83   2.0000      -1.131688       -30.7948
  84   2.0000      -1.128820       -30.7167
  85   2.0000      -1.115404       -30.3517
  86   2.0000      -1.106907       -30.1205
  87   2.0000      -1.089510       -29.6471
  88   2.0000      -1.070179       -29.1211
  89   2.0000      -1.069468       -29.1017
  90   2.0000      -1.063230       -28.9320
  91   2.0000      -1.040995       -28.3269
  92   2.0000      -1.031357       -28.0646
  93   2.0000      -1.028257       -27.9803
  94   2.0000      -1.013321       -27.5739
  95   2.0000      -1.008563       -27.4444
  96   2.0000      -1.005870       -27.3711
  97   2.0000      -1.003173       -27.2977
  98   2.0000      -0.989517       -26.9261
  99   2.0000      -0.982100       -26.7243
 100   2.0000      -0.949019       -25.8241
 101   2.0000      -0.937829       -25.5196
 102   2.0000      -0.937267       -25.5043
 103   2.0000      -0.932186       -25.3661
 104   2.0000      -0.928229       -25.2584
 105   2.0000      -0.924595       -25.1595
 106   2.0000      -0.915758       -24.9191
 107   2.0000      -0.908034       -24.7089
 108   2.0000      -0.902053       -24.5461
 109   2.0000      -0.899108       -24.4660
 110   2.0000      -0.892645       -24.2901
 111   2.0000      -0.889838       -24.2137
 112   2.0000      -0.884703       -24.0740
 113   2.0000      -0.880197       -23.9514
 114   2.0000      -0.874221       -23.7888
 115   2.0000      -0.865005       -23.5380
 116   2.0000      -0.858070       -23.3493
 117   2.0000      -0.846892       -23.0451
 118   2.0000      -0.841590       -22.9008
 119   2.0000      -0.840869       -22.8812
 120   2.0000      -0.831662       -22.6307
 121   2.0000      -0.823731       -22.4149
 122   2.0000      -0.810699       -22.0603
 123   2.0000      -0.794726       -21.6256
 124   2.0000      -0.784506       -21.3475
 125   2.0000      -0.779600       -21.2140
 126   2.0000      -0.767712       -20.8905
 127   2.0000      -0.765898       -20.8411
 128   2.0000      -0.755083       -20.5469
 129   2.0000      -0.749200       -20.3868
 130   2.0000      -0.739900       -20.1337
 131   2.0000      -0.733225       -19.9521
 132   2.0000      -0.730862       -19.8878
 133   2.0000      -0.722321       -19.6553
 134   2.0000      -0.720804       -19.6141
 135   2.0000      -0.715917       -19.4811
 136   2.0000      -0.712230       -19.3808
 137   2.0000      -0.709478       -19.3059
 138   2.0000      -0.701343       -19.0845
 139   2.0000      -0.695658       -18.9298
 140   2.0000      -0.693540       -18.8722
 141   2.0000      -0.687421       -18.7057
 142   2.0000      -0.685769       -18.6607
 143   2.0000      -0.677685       -18.4407
 144   2.0000      -0.667414       -18.1613
 145   2.0000      -0.662290       -18.0218
 146   2.0000      -0.653295       -17.7771
 147   2.0000      -0.649181       -17.6651
 148   2.0000      -0.644610       -17.5407
 149   2.0000      -0.641455       -17.4549
 150   2.0000      -0.640570       -17.4308
 151   2.0000      -0.638637       -17.3782
 152   2.0000      -0.636088       -17.3088
 153   2.0000      -0.627791       -17.0831
 154   2.0000      -0.625758       -17.0277
 155   2.0000      -0.624405       -16.9909
 156   2.0000      -0.615765       -16.7558
 157   2.0000      -0.614590       -16.7238
 158   2.0000      -0.607353       -16.5269
 159   2.0000      -0.602634       -16.3985
 160   2.0000      -0.596582       -16.2338
 161   2.0000      -0.593898       -16.1608
 162   2.0000      -0.584334       -15.9005
 163   2.0000      -0.582302       -15.8452
 164   2.0000      -0.578602       -15.7446
 165   2.0000      -0.576808       -15.6957
 166   2.0000      -0.571923       -15.5628
 167   2.0000      -0.569820       -15.5056
 168   2.0000      -0.568230       -15.4623
 169   2.0000      -0.565690       -15.3932
 170   2.0000      -0.562553       -15.3078
 171   2.0000      -0.561560       -15.2808
 172   2.0000      -0.560243       -15.2450
 173   2.0000      -0.556466       -15.1422
 174   2.0000      -0.554554       -15.0902
 175   2.0000      -0.553493       -15.0613
 176   2.0000      -0.552404       -15.0317
 177   2.0000      -0.550759       -14.9869
 178   2.0000      -0.548443       -14.9239
 179   2.0000      -0.543756       -14.7964
 180   2.0000      -0.540296       -14.7022
 181   2.0000      -0.537718       -14.6320
 182   2.0000      -0.535700       -14.5771
 183   2.0000      -0.534512       -14.5448
 184   2.0000      -0.534117       -14.5341
 185   2.0000      -0.531819       -14.4715
 186   2.0000      -0.530345       -14.4314
 187   2.0000      -0.529320       -14.4035
 188   2.0000      -0.526668       -14.3314
 189   2.0000      -0.524897       -14.2832
 190   2.0000      -0.521627       -14.1942
 191   2.0000      -0.516829       -14.0636
 192   2.0000      -0.515516       -14.0279
 193   2.0000      -0.510803       -13.8997
 194   2.0000      -0.509711       -13.8699
 195   2.0000      -0.506250       -13.7758
 196   2.0000      -0.505263       -13.7489
 197   2.0000      -0.503377       -13.6976
 198   2.0000      -0.501775       -13.6540
 199   2.0000      -0.500224       -13.6118
 200   2.0000      -0.498031       -13.5521
 201   2.0000      -0.492538       -13.4026
 202   2.0000      -0.491141       -13.3646
 203   2.0000      -0.489672       -13.3247
 204   2.0000      -0.488377       -13.2894
 205   2.0000      -0.483987       -13.1700
 206   2.0000      -0.482993       -13.1429
 207   2.0000      -0.481334       -13.0978
 208   2.0000      -0.477883       -13.0039
 209   2.0000      -0.477408       -12.9909
 210   2.0000      -0.474762       -12.9189
 211   2.0000      -0.469615       -12.7789
 212   2.0000      -0.468546       -12.7498
 213   2.0000      -0.467528       -12.7221
 214   2.0000      -0.466954       -12.7065
 215   2.0000      -0.464175       -12.6308
 216   2.0000      -0.462449       -12.5839
 217   2.0000      -0.460953       -12.5432
 218   2.0000      -0.460497       -12.5308
 219   2.0000      -0.458906       -12.4875
 220   2.0000      -0.455751       -12.4016
 221   2.0000      -0.454280       -12.3616
 222   2.0000      -0.450368       -12.2551
 223   2.0000      -0.448859       -12.2141
 224   2.0000      -0.448534       -12.2052
 225   2.0000      -0.447450       -12.1757
 226   2.0000      -0.442848       -12.0505
 227   2.0000      -0.441950       -12.0261
 228   2.0000      -0.441239       -12.0067
 229   2.0000      -0.438011       -11.9189
 230   2.0000      -0.434371       -11.8198
 231   2.0000      -0.432869       -11.7790
 232   2.0000      -0.432521       -11.7695
 233   2.0000      -0.425600       -11.5812
 234   2.0000      -0.424667       -11.5558
 235   2.0000      -0.415343       -11.3021
 236   2.0000      -0.409999       -11.1566
 237   2.0000      -0.408233       -11.1086
 238   2.0000      -0.401286       -10.9195
 239   2.0000      -0.393029       -10.6949
 240   2.0000      -0.388734       -10.5780
 241   2.0000      -0.380796       -10.3620
 242   2.0000      -0.376803       -10.2533
 243   2.0000      -0.369207       -10.0466
 244   2.0000      -0.364420        -9.9164
 245   2.0000      -0.361199        -9.8287
 246   2.0000      -0.353149        -9.6097
 247   2.0000      -0.352588        -9.5944
 248   2.0000      -0.346936        -9.4406
 249   2.0000      -0.342248        -9.3130
 250   2.0000      -0.338048        -9.1987
 251   2.0000      -0.336907        -9.1677
 252   2.0000      -0.334301        -9.0968
 253   2.0000      -0.331960        -9.0331
 254   2.0000      -0.327268        -8.9054
 255   2.0000      -0.321948        -8.7606
 256   2.0000      -0.320765        -8.7285
 257   2.0000      -0.317863        -8.6495
 258   2.0000      -0.316149        -8.6029
 259   2.0000      -0.308060        -8.3827
 260   2.0000      -0.305560        -8.3147
 261   2.0000      -0.304659        -8.2902
 262   2.0000      -0.294849        -8.0233
 263   2.0000      -0.280594        -7.6353
 264   2.0000      -0.235436        -6.4066
 265   0.0000      -0.131319        -3.5734
 266   0.0000      -0.112884        -3.0717
 267   0.0000      -0.097667        -2.6577
 268   0.0000      -0.087082        -2.3696
 269   0.0000      -0.067080        -1.8253

MULLIKEN ATOMIC CHARGES
-----------------------
   0 C :   -0.094730
   1 C :    0.303802
   2 F :   -0.185239
   3 C :   -0.026227
   4 C :   -0.006230
   5 C :    0.097945
   6 C :    0.102211
   7 C :   -0.081313
   8 C :    0.048251
   9 C :    0.002481
  10 C :   -0.071671
  11 C :    0.135160
  12 O :   -0.136509
  13 C :   -0.085569
  14 C :    0.279516
  15 C :   -0.278893
  16 C :   -0.181268
  17 N :    0.167974
  18 C :   -0.187382
  19 N :    0.164339
  20 C :   -0.027295
  21 C :   -0.019987
  22 N :   -0.036730
  23 C :    0.084596
  24 C :   -0.120250
  25 C :    0.207830
  26 O :   -0.124082
  27 C :   -0.035708
  28 C :   -0.020328
  29 N :   -0.055945
  30 C :    0.097814
  31 C :   -0.089820
  32 C :    0.074918
  33 C :   -0.026015
  34 C :   -0.006145
  35 C :    0.108302
  36 N :   -0.028868
  37 C :    0.125044
  38 C :   -0.121970
  39 C :    0.112316
  40 N :   -0.030649
  41 C :    0.136220
  42 C :   -0.169711
  43 C :    0.055202
  44 C :   -0.077766
  45 C :    0.076346
  46 N :   -0.055242
  47 C :    0.066706
  48 C :   -0.148388
  49 C :    0.211376
  50 O :   -0.147409
  51 C :   -0.023343
  52 C :   -0.050009
  53 N :   -0.061040
  54 C :    0.080731
  55 C :   -0.096038
  56 C :    0.038059
  57 C :   -0.003764
  58 C :    0.026262
  59 C :    0.046839
  60 C :   -0.124159
  61 C :    0.135055
  62 O :   -0.138491
  63 C :    0.012509
  64 C :   -0.078515
  65 C :    0.100287
  66 C :    0.103527
  67 C :   -0.097462
  68 C :    0.301432
  69 C :   -0.030831
  70 C :   -0.008550
  71 F :   -0.195517
  72 C :   -0.090416
  73 C :    0.040810
  74 C :    0.274134
  75 C :   -0.359693
  76 C :   -0.221286
  77 N :    0.194135
  78 C :   -0.107972
  79 N :    0.097705
  80 H :    0.000960
  81 H :    0.006846
  82 H :   -0.004662
  83 H :    0.001905
  84 H :   -0.006387
  85 H :    0.042692
  86 H :    0.015696
  87 H :    0.000116
  88 H :    0.010453
  89 H :   -0.006167
  90 H :    0.136471
  91 H :   -0.047418
  92 H :    0.130333
  93 H :   -0.019257
  94 H :    0.007020
  95 H :   -0.032216
  96 H :   -0.001281
  97 H :   -0.014879
  98 H :   -0.002342
  99 H :    0.024967
 100 H :    0.036701
 101 H :   -0.007839
 102 H :   -0.004251
 103 H :    0.004039
 104 H :   -0.005407
 105 H :   -0.011505
Sum of atomic charges:   -0.0000000

LOEWDIN ATOMIC CHARGES
----------------------
   0 C :   -0.040487
   1 C :    0.096599
   2 F :   -0.059968
   3 C :   -0.033235
   4 C :    0.007117
   5 C :   -0.017778
   6 C :    0.006815
   7 C :    0.015543
   8 C :   -0.014424
   9 C :   -0.064395
  10 C :    0.041051
  11 C :    0.084433
  12 O :   -0.137197
  13 C :   -0.037351
  14 C :    0.069982
  15 C :   -0.102600
  16 C :   -0.015430
  17 N :   -0.041923
  18 C :   -0.016284
  19 N :   -0.035622
  20 C :    0.034183
  21 C :    0.058417
  22 N :   -0.086097
  23 C :    0.043570
  24 C :   -0.045584
  25 C :    0.067371
  26 O :   -0.135685
  27 C :   -0.035363
  28 C :    0.039023
  29 N :   -0.095581
  30 C :    0.086022
  31 C :   -0.029170
  32 C :   -0.019726
  33 C :   -0.011402
  34 C :   -0.018638
  35 C :    0.017116
  36 N :    0.079087
  37 C :   -0.010149
  38 C :   -0.047271
  39 C :   -0.010967
  40 N :    0.075139
  41 C :    0.004872
  42 C :   -0.086350
  43 C :    0.055996
  44 C :   -0.069532
  45 C :    0.071224
  46 N :   -0.127385
  47 C :    0.045423
  48 C :   -0.015108
  49 C :    0.065641
  50 O :   -0.148588
  51 C :   -0.049778
  52 C :    0.004017
  53 N :   -0.102303
  54 C :    0.057351
  55 C :   -0.047574
  56 C :   -0.036618
  57 C :    0.037270
  58 C :   -0.018998
  59 C :    0.079900
  60 C :   -0.096680
  61 C :    0.082790
  62 O :   -0.138680
  63 C :   -0.057241
  64 C :    0.035281
  65 C :   -0.017869
  66 C :    0.002910
  67 C :   -0.043289
  68 C :    0.092694
  69 C :   -0.037183
  70 C :    0.006173
  71 F :   -0.068938
  72 C :    0.006702
  73 C :   -0.017495
  74 C :    0.072184
  75 C :   -0.152827
  76 C :   -0.024022
  77 N :   -0.029968
  78 C :   -0.004758
  79 N :   -0.073399
  80 H :    0.044747
  81 H :    0.043471
  82 H :    0.037457
  83 H :    0.041530
  84 H :    0.041852
  85 H :    0.052120
  86 H :    0.026159
  87 H :    0.036463
  88 H :    0.041938
  89 H :    0.031585
  90 H :    0.097682
  91 H :    0.026315
  92 H :    0.095433
  93 H :    0.029835
  94 H :    0.043272
  95 H :    0.024325
  96 H :    0.019335
  97 H :    0.030634
  98 H :    0.029847
  99 H :    0.041182
 100 H :    0.051934
 101 H :    0.040968
 102 H :    0.041893
 103 H :    0.041979
 104 H :    0.036905
 105 H :    0.036157

  Mayer bond orders larger than 0.100000
B(  0-C ,  1-C ) :   1.4399 B(  0-C ,  6-C ) :   1.2053 B(  0-C , 80-H ) :   1.0058
B(  1-C ,  2-F ) :   1.0941 B(  1-C ,  3-C ) :   1.2530 B(  3-C ,  4-C ) :   1.4654
B(  3-C , 81-H ) :   0.9920 B(  4-C ,  5-C ) :   1.2298 B(  4-C , 82-H ) :   0.9969
B(  5-C ,  6-C ) :   1.2495 B(  5-C , 10-C ) :   1.2063 B(  6-C ,  7-C ) :   1.2065
B(  7-C ,  8-C ) :   1.4617 B(  7-C , 83-H ) :   0.9938 B(  8-C ,  9-C ) :   1.2115
B(  8-C , 14-C ) :   1.0018 B(  9-C , 10-C ) :   1.4568 B(  9-C , 11-C ) :   0.9278
B( 10-C , 84-H ) :   1.0146 B( 11-C , 12-O ) :   2.2791 B( 11-C , 13-C ) :   0.9152
B( 13-C , 14-C ) :   1.0010 B( 13-C , 20-C ) :   1.7725 B( 14-C , 15-C ) :   1.7100
B( 15-C , 16-C ) :   1.1533 B( 15-C , 18-C ) :   1.1332 B( 16-C , 17-N ) :   2.9849
B( 18-C , 19-N ) :   2.9885 B( 20-C , 21-C ) :   1.0021 B( 20-C , 85-H ) :   0.9342
B( 21-C , 22-N ) :   1.6217 B( 21-C , 23-C ) :   0.1094 B( 21-C , 32-C ) :   1.0165
B( 22-N , 23-C ) :   1.2832 B( 23-C , 24-C ) :   1.0635 B( 23-C , 28-C ) :   1.4450
B( 24-C , 25-C ) :   0.8962 B( 24-C , 32-C ) :   1.5271 B( 25-C , 26-O ) :   2.2952
B( 25-C , 27-C ) :   0.8922 B( 27-C , 28-C ) :   1.0461 B( 27-C , 31-C ) :   1.6401
B( 28-C , 29-N ) :   1.3010 B( 29-N , 30-C ) :   1.6697 B( 30-C , 31-C ) :   1.0515
B( 30-C , 86-H ) :   0.9891 B( 31-C , 87-H ) :   1.0095 B( 32-C , 33-C ) :   1.1454
B( 33-C , 34-C ) :   1.6319 B( 33-C , 88-H ) :   0.9666 B( 34-C , 35-C ) :   1.1112
B( 34-C , 89-H ) :   0.9572 B( 35-C , 36-N ) :   1.1872 B( 35-C , 42-C ) :   1.3876
B( 36-N , 37-C ) :   1.1662 B( 36-N , 90-H ) :   0.9315 B( 37-C , 38-C ) :   1.3253
B( 37-C , 41-C ) :   1.2576 B( 38-C , 39-C ) :   1.3121 B( 38-C , 91-H ) :   1.0230
B( 39-C , 40-N ) :   1.1435 B( 39-C , 43-C ) :   1.1648 B( 40-N , 41-C ) :   1.1925
B( 40-N , 92-H ) :   0.9354 B( 41-C , 42-C ) :   1.2666 B( 42-C , 93-H ) :   1.0336
B( 43-C , 44-C ) :   1.5200 B( 43-C , 94-H ) :   0.9808 B( 44-C , 45-C ) :   1.2325
B( 44-C , 95-H ) :   0.9578 B( 45-C , 46-N ) :   1.5074 B( 45-C , 47-C ) :   0.1109
B( 45-C , 56-C ) :   0.9980 B( 46-N , 47-C ) :   1.4335 B( 47-C , 48-C ) :   1.0513
B( 47-C , 52-C ) :   1.3322 B( 48-C , 49-C ) :   0.8845 B( 48-C , 56-C ) :   1.5630
B( 49-C , 50-O ) :   2.1976 B( 49-C , 51-C ) :   0.9385 B( 51-C , 52-C ) :   1.0889
B( 51-C , 55-C ) :   1.5486 B( 52-C , 53-N ) :   1.3598 B( 53-N , 54-C ) :   1.6067
B( 54-C , 55-C ) :   1.1186 B( 54-C , 96-H ) :   0.9896 B( 55-C , 97-H ) :   1.0112
B( 56-C , 57-C ) :   1.1483 B( 57-C , 58-C ) :   1.6337 B( 57-C , 98-H ) :   0.9415
B( 58-C , 59-C ) :   1.1705 B( 58-C , 99-H ) :   0.9427 B( 59-C , 60-C ) :   1.6207
B( 59-C ,100-H ) :   0.9328 B( 60-C , 61-C ) :   0.9425 B( 60-C , 74-C ) :   1.0512
B( 61-C , 62-O ) :   2.2680 B( 61-C , 63-C ) :   0.9175 B( 63-C , 64-C ) :   1.4772
B( 63-C , 73-C ) :   1.2184 B( 64-C , 65-C ) :   1.1905 B( 64-C ,101-H ) :   1.0146
B( 65-C , 66-C ) :   1.2566 B( 65-C , 70-C ) :   1.2361 B( 66-C , 67-C ) :   1.2026
B( 66-C , 72-C ) :   1.2063 B( 67-C , 68-C ) :   1.4446 B( 67-C ,102-H ) :   1.0051
B( 68-C , 69-C ) :   1.2547 B( 68-C , 71-F ) :   1.0829 B( 69-C , 70-C ) :   1.4622
B( 69-C ,103-H ) :   0.9929 B( 70-C ,104-H ) :   0.9967 B( 72-C , 73-C ) :   1.4598
B( 72-C ,105-H ) :   0.9921 B( 73-C , 74-C ) :   1.0037 B( 74-C , 75-C ) :   1.6202
B( 75-C , 76-C ) :   1.1705 B( 75-C , 78-C ) :   1.1402 B( 76-C , 77-N ) :   2.9948
B( 78-C , 79-N ) :   2.8589

-----------------------------------------------------------------------------
         ABSORPTION SPECTRUM VIA TRANSITION ELECTRIC DIPOLE MOMENTS
-----------------------------------------------------------------------------
State   Energy  Wavelength   fosc         T2         TX        TY        TZ
        (cm-1)    (nm)                  (au**2)     (au)      (au)      (au)
-----------------------------------------------------------------------------
   0    9629.3   1038.5   0.194107486   6.63623  -2.06159  -1.29761  -0.83802
   1   13218.9    756.5   0.805303833  20.05576  -3.05932  -3.20473  -0.65270
   2   15525.7    644.1   0.679242557  14.40287  -3.05944  -1.98082  -1.05784
   3   19337.4    517.1   0.422890717   7.19955  -0.86855  -2.52791   0.23415
   4   20087.1    497.8   0.277834329   4.55349   0.83108   1.95923  -0.15561
   5   20539.1    486.9   0.000651977   0.01045  -0.02904  -0.08128  -0.05478
   6   21085.2    474.3   0.003960882   0.06184   0.04554   0.19157   0.15189
   7   21713.2    460.5   0.004401196   0.06673   0.05148   0.25275  -0.01400
   8   21885.1    456.9   0.424590915   6.38702   0.61675   2.43690  -0.26112
   9   22139.9    451.7   0.081685303   1.21463   0.75233  -0.75407   0.28285
  10   23927.7    417.9   0.124563835   1.71382  -1.12908  -0.48022  -0.45649
  11   24112.7    414.7   0.008042726   0.10981  -0.23898  -0.22917  -0.01340
  12   24372.2    410.3   0.092171447   1.24502  -0.95239  -0.17689  -0.55379
  13   24511.8    408.0   0.006877271   0.09237   0.27916   0.04152   0.11276
  14   24745.0    404.1   0.003144715   0.04184   0.16903   0.05257  -0.10248
  15   25061.4    399.0   0.074809803   0.98272  -0.80931  -0.18294  -0.54247
  16   25343.0    394.6   0.042565167   0.55293  -0.55952   0.27205  -0.40725
  17   25466.6    392.7   0.002339915   0.03025   0.13723  -0.08750   0.06133
  18   25543.9    391.5   0.001298271   0.01673   0.12343  -0.03869   0.00065
  19   26007.0    384.5   0.004253939   0.05385  -0.08068  -0.16459   0.14230
  20   26124.1    382.8   0.149290431   1.88133   1.00336  -0.47489   0.80566
  21   26372.3    379.2   0.185430050   2.31477  -1.12128   0.46290  -0.91828
  22   26787.8    373.3   0.021037092   0.25854  -0.28589  -0.15273   0.39176
  23   26994.0    370.5   0.026118033   0.31853   0.45039   0.25710   0.22266
  24   27077.1    369.3   0.007645374   0.09295  -0.20691  -0.01785   0.22321
  25   27248.4    367.0   0.291252129   3.51888  -1.13566   0.58729  -1.37268
  26   27692.4    361.1   0.024437850   0.29052  -0.22664   0.36593  -0.32442
  27   27824.3    359.4   0.021051681   0.24908  -0.16443  -0.18951  -0.43143
  28   29055.0    344.2   0.001573950   0.01783  -0.10194   0.06698  -0.05437
  29   29163.3    342.9   0.038923050   0.43939   0.07388  -0.53588   0.38309
  30   29507.2    338.9   0.020243750   0.22586   0.03638  -0.46975  -0.06219
  31   29661.1    337.1   0.002033826   0.02257   0.00188   0.13804   0.05929
  32   30114.8    332.1   0.055818224   0.61020  -0.47339  -0.61979   0.04431
  33   30220.5    330.9   0.030780612   0.33531   0.53519   0.21002   0.06909
  34   30428.0    328.6   0.098110536   1.06149   0.79797  -0.31816   0.56878
  35   30681.8    325.9   0.316608743   3.39717  -0.27047   1.48729  -1.05451
  36   30999.2    322.6   0.239949173   2.54826   0.44600  -0.44775   1.46590
  37   31437.2    318.1   0.174370282   1.82601  -0.14996   0.95033  -0.94889
  38   31543.6    317.0   0.280707601   2.92967  -0.35940  -1.29251   1.06297
  39   31766.6    314.8   0.115857988   1.20069   0.17467  -0.52525   0.94567
  40   31804.9    314.4   0.002306594   0.02388   0.06035  -0.11311   0.08625
  41   32197.7    310.6   0.096678289   0.98851  -0.28936  -0.90799   0.28343
  42   32478.2    307.9   0.053711914   0.54445   0.30379   0.52525  -0.41985
  43   32965.4    303.3   0.105292097   1.05151   0.09368   0.61588  -0.81451
  44   33242.4    300.8   0.021054703   0.20851   0.00265  -0.24461   0.38558
  45   33266.7    300.6   0.020051164   0.19843  -0.40809   0.01119  -0.17824
  46   33373.2    299.6   0.044355172   0.43754  -0.40655  -0.43513  -0.28796
  47   33730.0    296.5   0.010507601   0.10256  -0.13510   0.21404  -0.19620
  48   34052.2    293.7   0.012338010   0.11928  -0.12548   0.18278  -0.26481
  49   34154.1    292.8   0.001845843   0.01779   0.09595   0.04636   0.08023
  50   34374.6    290.9   0.077812162   0.74522  -0.03269  -0.62300   0.59668
  51   34406.7    290.6   0.168412995   1.61142  -0.07192  -0.97167   0.81370
  52   34520.5    289.7   0.020038122   0.19110   0.23630  -0.04922   0.36447
  53   34691.2    288.3   0.047417560   0.44998   0.06575   0.55513  -0.37080
  54   34840.7    287.0   0.108780876   1.02788   0.64646   0.02866   0.78048
  55   35031.8    285.5   0.105564924   0.99205  -0.18257  -0.70213   0.68244
  56   35263.4    283.6   0.123725002   1.15507  -0.19080  -0.19069  -1.04034
  57   35570.6    281.1   0.332992328   3.08190  -0.33412  -1.18697   1.24955
  58   35684.8    280.2   0.001468659   0.01355   0.09657  -0.03297  -0.05600
  59   35757.8    279.7   0.030427873   0.28014  -0.10073  -0.23309  -0.46439
  60   35977.8    277.9   0.000977952   0.00895   0.00080  -0.09440  -0.00612
  61   36068.7    277.2   0.192180251   1.75410  -0.17673   0.88460  -0.96971
  62   36329.2    275.3   0.029282823   0.26536  -0.06675  -0.17601   0.47950
  63   36558.0    273.5   0.257076995   2.31503   0.17115  -0.41340   1.45425
  64   36603.5    273.2   0.053464681   0.48086  -0.26480   0.57393  -0.28521
  65   36715.8    272.4   0.009922564   0.08897   0.13209  -0.26524   0.03422
  66   36938.2    270.7   0.113900338   1.01514  -0.64093  -0.13403  -0.76575
  67   37193.3    268.9   0.000776230   0.00687   0.06628   0.02921   0.04030
  68   37341.1    267.8   0.029548579   0.26051  -0.26656  -0.31050   0.30504
  69   37519.5    266.5   0.015282592   0.13410  -0.10062  -0.16627   0.31036
  70   37701.9    265.2   0.069246723   0.60466   0.48844  -0.31455   0.51686
  71   37879.5    264.0   0.072719930   0.63201   0.04520  -0.13763  -0.78168
  72   37963.9    263.4   0.053443729   0.46345  -0.28945   0.25509  -0.56088
  73   38005.1    263.1   0.010369523   0.08982  -0.21040  -0.05995  -0.20484
  74   38124.1    262.3   0.003991512   0.03447   0.05791  -0.10491  -0.14180
  75   38303.6    261.1   0.057578902   0.49488   0.57796   0.33153   0.22568
  76   38474.0    259.9   0.051825115   0.44345  -0.15059   0.35925  -0.54011
  77   38563.5    259.3   0.011218404   0.09577  -0.14403   0.00673  -0.27382
  78   38581.9    259.2   0.025677655   0.21910  -0.18895   0.42722  -0.02974
  79   38615.3    259.0   0.008494244   0.07242   0.18390   0.19508   0.02329
  80   38884.6    257.2   0.004704494   0.03983   0.00832  -0.07342   0.18539
  81   39164.1    255.3   0.006182583   0.05197  -0.01360  -0.03603  -0.22469
  82   39190.7    255.2   0.021967126   0.18453  -0.01116  -0.40325   0.14764
  83   39373.6    254.0   0.038599004   0.32274   0.13760  -0.49146   0.24953
  84   39642.4    252.3   0.026666441   0.22145   0.32855   0.07335   0.32883
  85   39708.4    251.8   0.035433246   0.29377   0.11717   0.30000   0.43593
  86   39970.9    250.2   0.019106796   0.15737  -0.12512  -0.36637  -0.08651
  87   40049.1    249.7   0.062548653   0.51416   0.61687   0.08807   0.35480
  88   40141.0    249.1   0.233970643   1.91888  -0.37400  -1.31334   0.23268
  89   40162.9    249.0   0.130926083   1.07319   0.60480  -0.38926   0.74557

FINAL SINGLE POINT ENERGY     -3497.941741040044

DIPOLE MOMENT
-------------
                                X             Y             Z
Electronic contribution:      9.83493      21.78268       2.57754
Nuclear contribution   :     -7.53583     -19.66608      -5.37542
                        -----------------------------------------
Total Dipole Moment    :      2.29909       2.11660      -2.79789
                        -----------------------------------------
Magnitude (a.u.)       :      4.19452
Magnitude (Debye)      :     10.66162

Rotational constants in cm-1:     0.000938     0.000364     0.000270
Rotational constants in MHz :    28.114941    10.904356     8.089851

                             ****ORCA TERMINATED NORMALLY****
TOTAL RUN TIME: 0 days 0 hours 12 minutes 26 seconds 329 msec
