                         Program Version 4.2.0 -  RELEASE  -
|  1> # ORCA input file
|  2> # SCF done       -198.719189043577          0.000482596245
|  3> ! CAM-B3LYP def2-SVP def2/J RIJCOSX Grid4 TightSCF
|  4> %maxcore 5000
|  5> %tddft
|  6>     Mode sTDDFT
|  7>     Ethresh 5.0
|  8>     maxcore 5000
|  9> end
| 10>
| 11> %pal
| 12>   nprocs 6
| 13>   end
| 14> * xyz 0 1
| 15>    C       11.39083        15.63590        -2.53075
| 16>    C       11.96075        16.87656        -2.45528
| 17>    F       11.75860        17.75892        -3.44800
| 18>    C       12.75685        17.27328        -1.37140
| 19>    C       12.97404        16.39002        -0.35101
| 20>    C       12.40975        15.09770        -0.37637
| 21>    C       11.60386        14.71301        -1.48845
| 22>    C       11.03089        13.42123        -1.53916
| 23>    C       11.25445        12.54780        -0.50901
| 24>    C       12.04969        12.94188         0.60734
| 25>    C       12.62071        14.18065         0.67692
| 26>    C       12.10340        11.84121         1.58797
| 27>    O       12.73039        11.78445         2.61765
| 28>    C       11.14972        10.81626         1.06384
| 29>    C       10.82083        11.17033        -0.30446
| 30>    C       10.39781        10.30474        -1.27695
| 31>    C       10.25338         8.91520        -1.07127
| 32>    N       10.19112         7.77450        -0.96306
| 33>    C       10.15644        10.69041        -2.61241
| 34>    N        9.93604        10.97073        -3.70275
| 35>    C       10.65077         9.85209         1.87585
| 36>    C        9.48430         9.07172         1.64310
| 37>    C        8.29240         9.49267         0.88500
| 38>    N        7.34108         8.61343         0.84932
| 39>    C        7.80658         7.53545         1.54480
| 40>    C        9.15042         7.81915         2.09507
| 41>    C        9.63030         6.68767         2.84846
| 42>    S       11.05365         6.53141         3.64844
| 43>    C        8.56028         5.72408         2.74590
| 44>    C        7.45268         6.27319         1.92065
| 45>    N        6.44186         5.36469         1.82360
| 46>    C        6.83467         4.33341         2.51614
| 47>    C        8.15660         4.48425         3.12490
| 48>    C        8.81541         3.51996         4.04231
| 49>    C        8.22148         3.63176         5.41806
| 50>    N        7.62565         4.70715         5.87957
| 51>    S        7.14694         4.42924         7.40482
| 52>    N        7.66017         2.89136         7.48972
| 53>    C        8.23373         2.56594         6.35404
| 54>    C        8.76203         1.20577         6.03861
| 55>    C        8.64393         1.01467         4.55171
| 56>    C        8.68220         2.08983         3.62582
| 57>    N        8.57561         1.68159         2.38185
| 58>    S        8.45240         0.06374         2.35614
| 59>    N        8.52249        -0.15389         3.96446
| 60>    C       10.20805         1.00509         6.36510
| 61>    C       10.81918        -0.32544         6.28735
| 62>    N       12.10325        -0.33816         6.49393
| 63>    C       12.44600         0.95879         6.71684
| 64>    C       11.24263         1.84050         6.65624
| 65>    C       11.64885         3.21434         6.88030
| 66>    S       10.74686         4.57799         7.00278
| 67>    C       13.07874         3.14280         7.01384
| 68>    C       13.54136         1.74697         6.91563
| 69>    N       14.90258         1.69137         6.99785
| 70>    C       15.29958         2.92423         7.07416
| 71>    C       14.21043         3.91479         7.08201
| 72>    C       14.36178         5.32656         7.18373
| 73>    C       15.37855         6.05089         6.65798
| 74>    C       15.70639         7.41537         7.17253
| 75>    O       15.00833         8.11325         7.86580
| 76>    C       17.08755         7.66411         6.71664
| 77>    C       17.91728         8.70247         7.03012
| 78>    C       19.22915         8.71931         6.50681
| 79>    C       19.66044         7.65238         5.66436
| 80>    C       20.97378         7.67044         5.15601
| 81>    C       21.80393         8.70792         5.47879
| 82>    C       21.39836         9.76653         6.30377
| 83>    C       20.12682         9.76515         6.80561
| 84>    F       23.05790         8.72669         4.99606
| 85>    C       18.77761         6.59413         5.34746
| 86>    C       17.50927         6.60206         5.86279
| 87>    C       16.39795         5.67221         5.69836
| 88>    C       16.24631         4.75829         4.68979
| 89>    C       15.03697         4.08127         4.42234
| 90>    N       14.05940         3.55376         4.13360
| 91>    C       17.25520         4.46575         3.74763
| 92>    N       18.05802         4.18966         2.97610
| 93>    H       10.78628        15.36349        -3.38168
| 94>    H       13.17938        18.26548        -1.36662
| 95>    H       13.58345        16.67302         0.49392
| 96>    H       10.41828        13.15757        -2.38693
| 97>    H       13.22480        14.45846         1.52759
| 98>    H       11.15823         9.70302         2.82371
| 99>    H        8.15668        10.46156         0.43527
|100>    H        6.20673         3.46431         2.60790
|101>    H        9.88435         3.77640         4.10854
|102>    H        8.17889         0.44137         6.56363
|103>    H       10.27906        -1.23040         6.06982
|104>    H       16.34598         3.15848         7.17362
|105>    H       13.63136         5.86215         7.78139
|106>    H       17.57722         9.50048         7.67294
|107>    H       21.31888         6.87374         4.51570
|108>    H       22.09787        10.55711         6.52443
|109>    H       19.79184        10.56935         7.44312
|110>    H       19.13040         5.79460         4.71505
|111> *
|112>
|113>                          ****END OF INPUT****

CARTESIAN COORDINATES (ANGSTROEM)
---------------------------------
  C     11.390830   15.635900   -2.530750
  C     11.960750   16.876560   -2.455280
  F     11.758600   17.758920   -3.448000
  C     12.756850   17.273280   -1.371400
  C     12.974040   16.390020   -0.351010
  C     12.409750   15.097700   -0.376370
  C     11.603860   14.713010   -1.488450
  C     11.030890   13.421230   -1.539160
  C     11.254450   12.547800   -0.509010
  C     12.049690   12.941880    0.607340
  C     12.620710   14.180650    0.676920
  C     12.103400   11.841210    1.587970
  O     12.730390   11.784450    2.617650
  C     11.149720   10.816260    1.063840
  C     10.820830   11.170330   -0.304460
  C     10.397810   10.304740   -1.276950
  C     10.253380    8.915200   -1.071270
  N     10.191120    7.774500   -0.963060
  C     10.156440   10.690410   -2.612410
  N      9.936040   10.970730   -3.702750
  C     10.650770    9.852090    1.875850
  C      9.484300    9.071720    1.643100
  C      8.292400    9.492670    0.885000
  N      7.341080    8.613430    0.849320
  C      7.806580    7.535450    1.544800
  C      9.150420    7.819150    2.095070
  C      9.630300    6.687670    2.848460
  S     11.053650    6.531410    3.648440
  C      8.560280    5.724080    2.745900
  C      7.452680    6.273190    1.920650
  N      6.441860    5.364690    1.823600
  C      6.834670    4.333410    2.516140
  C      8.156600    4.484250    3.124900
  C      8.815410    3.519960    4.042310
  C      8.221480    3.631760    5.418060
  N      7.625650    4.707150    5.879570
  S      7.146940    4.429240    7.404820
  N      7.660170    2.891360    7.489720
  C      8.233730    2.565940    6.354040
  C      8.762030    1.205770    6.038610
  C      8.643930    1.014670    4.551710
  C      8.682200    2.089830    3.625820
  N      8.575610    1.681590    2.381850
  S      8.452400    0.063740    2.356140
  N      8.522490   -0.153890    3.964460
  C     10.208050    1.005090    6.365100
  C     10.819180   -0.325440    6.287350
  N     12.103250   -0.338160    6.493930
  C     12.446000    0.958790    6.716840
  C     11.242630    1.840500    6.656240
  C     11.648850    3.214340    6.880300
  S     10.746860    4.577990    7.002780
  C     13.078740    3.142800    7.013840
  C     13.541360    1.746970    6.915630
  N     14.902580    1.691370    6.997850
  C     15.299580    2.924230    7.074160
  C     14.210430    3.914790    7.082010
  C     14.361780    5.326560    7.183730
  C     15.378550    6.050890    6.657980
  C     15.706390    7.415370    7.172530
  O     15.008330    8.113250    7.865800
  C     17.087550    7.664110    6.716640
  C     17.917280    8.702470    7.030120
  C     19.229150    8.719310    6.506810
  C     19.660440    7.652380    5.664360
  C     20.973780    7.670440    5.156010
  C     21.803930    8.707920    5.478790
  C     21.398360    9.766530    6.303770
  C     20.126820    9.765150    6.805610
  F     23.057900    8.726690    4.996060
  C     18.777610    6.594130    5.347460
  C     17.509270    6.602060    5.862790
  C     16.397950    5.672210    5.698360
  C     16.246310    4.758290    4.689790
  C     15.036970    4.081270    4.422340
  N     14.059400    3.553760    4.133600
  C     17.255200    4.465750    3.747630
  N     18.058020    4.189660    2.976100
  H     10.786280   15.363490   -3.381680
  H     13.179380   18.265480   -1.366620
  H     13.583450   16.673020    0.493920
  H     10.418280   13.157570   -2.386930
  H     13.224800   14.458460    1.527590
  H     11.158230    9.703020    2.823710
  H      8.156680   10.461560    0.435270
  H      6.206730    3.464310    2.607900
  H      9.884350    3.776400    4.108540
  H      8.178890    0.441370    6.563630
  H     10.279060   -1.230400    6.069820
  H     16.345980    3.158480    7.173620
  H     13.631360    5.862150    7.781390
  H     17.577220    9.500480    7.672940
  H     21.318880    6.873740    4.515700
  H     22.097870   10.557110    6.524430
  H     19.791840   10.569350    7.443120
  H     19.130400    5.794600    4.715050

 Total Charge           Charge          ....    0
 Multiplicity           Mult            ....    1
 Number of Electrons    NEL             ....  548
 Basis Dimension        Dim             .... 1198

ORBITAL ENERGIES
----------------

  NO   OCC          E(Eh)            E(eV)
   0   2.0000     -89.020244     -2422.3640
   1   2.0000     -89.012028     -2422.1404
   2   2.0000     -88.917542     -2419.5693
   3   2.0000     -88.909604     -2419.3533
   4   2.0000     -24.792023      -674.6252
   5   2.0000     -24.790789      -674.5917
   6   2.0000     -19.224022      -523.1122
   7   2.0000     -19.221690      -523.0488
   8   2.0000     -14.451097      -393.2343
   9   2.0000     -14.449409      -393.1884
  10   2.0000     -14.440738      -392.9524
  11   2.0000     -14.438596      -392.8942
  12   2.0000     -14.426044      -392.5526
  13   2.0000     -14.425735      -392.5442
  14   2.0000     -14.425120      -392.5275
  15   2.0000     -14.424930      -392.5223
  16   2.0000     -14.423231      -392.4761
  17   2.0000     -14.420973      -392.4146
  18   2.0000     -14.419421      -392.3724
  19   2.0000     -14.415476      -392.2651
  20   2.0000     -10.376400      -282.3562
  21   2.0000     -10.375381      -282.3285
  22   2.0000     -10.375086      -282.3205
  23   2.0000     -10.373140      -282.2675
  24   2.0000     -10.357653      -281.8461
  25   2.0000     -10.355651      -281.7916
  26   2.0000     -10.354322      -281.7554
  27   2.0000     -10.352420      -281.7037
  28   2.0000     -10.349574      -281.6262
  29   2.0000     -10.347769      -281.5771
  30   2.0000     -10.346703      -281.5481
  31   2.0000     -10.344094      -281.4771
  32   2.0000     -10.343813      -281.4695
  33   2.0000     -10.342328      -281.4290
  34   2.0000     -10.341823      -281.4153
  35   2.0000     -10.339808      -281.3605
  36   2.0000     -10.339485      -281.3517
  37   2.0000     -10.337965      -281.3103
  38   2.0000     -10.335819      -281.2519
  39   2.0000     -10.334689      -281.2212
  40   2.0000     -10.332768      -281.1689
  41   2.0000     -10.332197      -281.1534
  42   2.0000     -10.327569      -281.0274
  43   2.0000     -10.327203      -281.0175
  44   2.0000     -10.326701      -281.0038
  45   2.0000     -10.326645      -281.0023
  46   2.0000     -10.324825      -280.9528
  47   2.0000     -10.324003      -280.9304
  48   2.0000     -10.322646      -280.8935
  49   2.0000     -10.322144      -280.8798
  50   2.0000     -10.317803      -280.7617
  51   2.0000     -10.317133      -280.7435
  52   2.0000     -10.315347      -280.6949
  53   2.0000     -10.313849      -280.6541
  54   2.0000     -10.313391      -280.6416
  55   2.0000     -10.313343      -280.6403
  56   2.0000     -10.312663      -280.6218
  57   2.0000     -10.312343      -280.6131
  58   2.0000     -10.311985      -280.6034
  59   2.0000     -10.311819      -280.5989
  60   2.0000     -10.309539      -280.5368
  61   2.0000     -10.308845      -280.5179
  62   2.0000     -10.308716      -280.5144
  63   2.0000     -10.308377      -280.5052
  64   2.0000     -10.307977      -280.4943
  65   2.0000     -10.307431      -280.4795
  66   2.0000     -10.307123      -280.4711
  67   2.0000     -10.306645      -280.4581
  68   2.0000     -10.305174      -280.4180
  69   2.0000     -10.304372      -280.3962
  70   2.0000     -10.303170      -280.3635
  71   2.0000     -10.301234      -280.3108
  72   2.0000     -10.299857      -280.2734
  73   2.0000     -10.298612      -280.2395
  74   2.0000     -10.298001      -280.2228
  75   2.0000     -10.297036      -280.1966
  76   2.0000     -10.295695      -280.1601
  77   2.0000     -10.294296      -280.1220
  78   2.0000      -8.113032      -220.7668
  79   2.0000      -8.104537      -220.5357
  80   2.0000      -8.012593      -218.0337
  81   2.0000      -8.004953      -217.8258
  82   2.0000      -6.084696      -165.5730
  83   2.0000      -6.077059      -165.3652
  84   2.0000      -6.076197      -165.3417
  85   2.0000      -6.074106      -165.2848
  86   2.0000      -6.068543      -165.1335
  87   2.0000      -6.065729      -165.0569
  88   2.0000      -5.981581      -162.7671
  89   2.0000      -5.981185      -162.7563
  90   2.0000      -5.973732      -162.5535
  91   2.0000      -5.973503      -162.5473
  92   2.0000      -5.971676      -162.4976
  93   2.0000      -5.964251      -162.2955
  94   2.0000      -1.307397       -35.5761
  95   2.0000      -1.306303       -35.5463
  96   2.0000      -1.139794       -31.0154
  97   2.0000      -1.137420       -30.9508
  98   2.0000      -1.134491       -30.8711
  99   2.0000      -1.123178       -30.5632
 100   2.0000      -1.095738       -29.8165
 101   2.0000      -1.087571       -29.5943
 102   2.0000      -1.076571       -29.2950
 103   2.0000      -1.068070       -29.0637
 104   2.0000      -1.028873       -27.9971
 105   2.0000      -1.026003       -27.9190
 106   2.0000      -1.009302       -27.4645
 107   2.0000      -1.006975       -27.4012
 108   2.0000      -1.003589       -27.3090
 109   2.0000      -1.000459       -27.2239
 110   2.0000      -0.995587       -27.0913
 111   2.0000      -0.985473       -26.8161
 112   2.0000      -0.983236       -26.7552
 113   2.0000      -0.979129       -26.6435
 114   2.0000      -0.976618       -26.5751
 115   2.0000      -0.969763       -26.3886
 116   2.0000      -0.966835       -26.3089
 117   2.0000      -0.940174       -25.5834
 118   2.0000      -0.937404       -25.5081
 119   2.0000      -0.922311       -25.0974
 120   2.0000      -0.918607       -24.9966
 121   2.0000      -0.909950       -24.7610
 122   2.0000      -0.899154       -24.4672
 123   2.0000      -0.896762       -24.4021
 124   2.0000      -0.892491       -24.2859
 125   2.0000      -0.890272       -24.2255
 126   2.0000      -0.878883       -23.9156
 127   2.0000      -0.869237       -23.6531
 128   2.0000      -0.868291       -23.6274
 129   2.0000      -0.860908       -23.4265
 130   2.0000      -0.852732       -23.2040
 131   2.0000      -0.848117       -23.0784
 132   2.0000      -0.841566       -22.9002
 133   2.0000      -0.839698       -22.8494
 134   2.0000      -0.829582       -22.5741
 135   2.0000      -0.806230       -21.9386
 136   2.0000      -0.801972       -21.8228
 137   2.0000      -0.795881       -21.6570
 138   2.0000      -0.780336       -21.2340
 139   2.0000      -0.776371       -21.1261
 140   2.0000      -0.769804       -20.9474
 141   2.0000      -0.766928       -20.8692
 142   2.0000      -0.752008       -20.4632
 143   2.0000      -0.747648       -20.3445
 144   2.0000      -0.733249       -19.9527
 145   2.0000      -0.731376       -19.9017
 146   2.0000      -0.724432       -19.7128
 147   2.0000      -0.717159       -19.5149
 148   2.0000      -0.715952       -19.4820
 149   2.0000      -0.712040       -19.3756
 150   2.0000      -0.708483       -19.2788
 151   2.0000      -0.705566       -19.1994
 152   2.0000      -0.702192       -19.1076
 153   2.0000      -0.696156       -18.9434
 154   2.0000      -0.690463       -18.7885
 155   2.0000      -0.687419       -18.7056
 156   2.0000      -0.676459       -18.4074
 157   2.0000      -0.663186       -18.0462
 158   2.0000      -0.659587       -17.9483
 159   2.0000      -0.658053       -17.9065
 160   2.0000      -0.654662       -17.8143
 161   2.0000      -0.648483       -17.6461
 162   2.0000      -0.642876       -17.4935
 163   2.0000      -0.640804       -17.4372
 164   2.0000      -0.636719       -17.3260
 165   2.0000      -0.635011       -17.2795
 166   2.0000      -0.623997       -16.9798
 167   2.0000      -0.617090       -16.7919
 168   2.0000      -0.616134       -16.7659
 169   2.0000      -0.610851       -16.6221
 170   2.0000      -0.605140       -16.4667
 171   2.0000      -0.604521       -16.4498
 172   2.0000      -0.597701       -16.2643
 173   2.0000      -0.591863       -16.1054
 174   2.0000      -0.586415       -15.9572
 175   2.0000      -0.584043       -15.8926
 176   2.0000      -0.579610       -15.7720
 177   2.0000      -0.574623       -15.6363
 178   2.0000      -0.572115       -15.5680
 179   2.0000      -0.567667       -15.4470
 180   2.0000      -0.564736       -15.3672
 181   2.0000      -0.564360       -15.3570
 182   2.0000      -0.563476       -15.3330
 183   2.0000      -0.560508       -15.2522
 184   2.0000      -0.558436       -15.1958
 185   2.0000      -0.554748       -15.0955
 186   2.0000      -0.553663       -15.0659
 187   2.0000      -0.552202       -15.0262
 188   2.0000      -0.548234       -14.9182
 189   2.0000      -0.545344       -14.8396
 190   2.0000      -0.543674       -14.7941
 191   2.0000      -0.542449       -14.7608
 192   2.0000      -0.540446       -14.7063
 193   2.0000      -0.537305       -14.6208
 194   2.0000      -0.534045       -14.5321
 195   2.0000      -0.530622       -14.4390
 196   2.0000      -0.529639       -14.4122
 197   2.0000      -0.528927       -14.3928
 198   2.0000      -0.524422       -14.2702
 199   2.0000      -0.521985       -14.2039
 200   2.0000      -0.519531       -14.1372
 201   2.0000      -0.518695       -14.1144
 202   2.0000      -0.513934       -13.9848
 203   2.0000      -0.510103       -13.8806
 204   2.0000      -0.506843       -13.7919
 205   2.0000      -0.505581       -13.7575
 206   2.0000      -0.501029       -13.6337
 207   2.0000      -0.499026       -13.5792
 208   2.0000      -0.497449       -13.5363
 209   2.0000      -0.494726       -13.4622
 210   2.0000      -0.492761       -13.4087
 211   2.0000      -0.491469       -13.3736
 212   2.0000      -0.490577       -13.3493
 213   2.0000      -0.489592       -13.3225
 214   2.0000      -0.487591       -13.2680
 215   2.0000      -0.485255       -13.2045
 216   2.0000      -0.483847       -13.1661
 217   2.0000      -0.480518       -13.0756
 218   2.0000      -0.477085       -12.9821
 219   2.0000      -0.474602       -12.9146
 220   2.0000      -0.471969       -12.8429
 221   2.0000      -0.464637       -12.6434
 222   2.0000      -0.462986       -12.5985
 223   2.0000      -0.459600       -12.5063
 224   2.0000      -0.459156       -12.4943
 225   2.0000      -0.455307       -12.3895
 226   2.0000      -0.454961       -12.3801
 227   2.0000      -0.453153       -12.3309
 228   2.0000      -0.448957       -12.2167
 229   2.0000      -0.447960       -12.1896
 230   2.0000      -0.445873       -12.1328
 231   2.0000      -0.443980       -12.0813
 232   2.0000      -0.439756       -11.9664
 233   2.0000      -0.437194       -11.8967
 234   2.0000      -0.436062       -11.8659
 235   2.0000      -0.434609       -11.8263
 236   2.0000      -0.433439       -11.7945
 237   2.0000      -0.431134       -11.7317
 238   2.0000      -0.428913       -11.6713
 239   2.0000      -0.427208       -11.6249
 240   2.0000      -0.423377       -11.5207
 241   2.0000      -0.421018       -11.4565
 242   2.0000      -0.417817       -11.3694
 243   2.0000      -0.407845       -11.0980
 244   2.0000      -0.405761       -11.0413
 245   2.0000      -0.401372       -10.9219
 246   2.0000      -0.399200       -10.8628
 247   2.0000      -0.388689       -10.5768
 248   2.0000      -0.387300       -10.5390
 249   2.0000      -0.385934       -10.5018
 250   2.0000      -0.377806       -10.2806
 251   2.0000      -0.375241       -10.2108
 252   2.0000      -0.371647       -10.1130
 253   2.0000      -0.370012       -10.0685
 254   2.0000      -0.365248        -9.9389
 255   2.0000      -0.362194        -9.8558
 256   2.0000      -0.358274        -9.7491
 257   2.0000      -0.356765        -9.7081
 258   2.0000      -0.352191        -9.5836
 259   2.0000      -0.343937        -9.3590
 260   2.0000      -0.341756        -9.2996
 261   2.0000      -0.340304        -9.2601
 262   2.0000      -0.337692        -9.1891
 263   2.0000      -0.331727        -9.0268
 264   2.0000      -0.327463        -8.9107
 265   2.0000      -0.322352        -8.7717
 266   2.0000      -0.320923        -8.7328
 267   2.0000      -0.316172        -8.6035
 268   2.0000      -0.311806        -8.4847
 269   2.0000      -0.307683        -8.3725
 270   2.0000      -0.303709        -8.2643
 271   2.0000      -0.299978        -8.1628
 272   2.0000      -0.297582        -8.0976
 273   2.0000      -0.292186        -7.9508
 274   0.0000      -0.122528        -3.3342
 275   0.0000      -0.116582        -3.1724
 276   0.0000      -0.103368        -2.8128
 277   0.0000      -0.096544        -2.6271
 278   0.0000      -0.078833        -2.1452

MULLIKEN ATOMIC CHARGES
-----------------------
   0 C :   -0.096818
   1 C :    0.303123
   2 F :   -0.187319
   3 C :   -0.025865
   4 C :   -0.008252
   5 C :    0.100113
   6 C :    0.103178
   7 C :   -0.088818
   8 C :    0.048854
   9 C :    0.007034
  10 C :   -0.078746
  11 C :    0.142353
  12 O :   -0.130272
  13 C :   -0.126317
  14 C :    0.256394
  15 C :   -0.336951
  16 C :   -0.190501
  17 N :    0.179095
  18 C :   -0.170733
  19 N :    0.163114
  20 C :    0.038513
  21 C :   -0.074269
  22 C :    0.059582
  23 N :   -0.012114
  24 C :   -0.000335
  25 C :    0.060824
  26 C :    0.007343
  27 S :   -0.090822
  28 C :   -0.007053
  29 C :    0.042134
  30 N :   -0.024731
  31 C :    0.069456
  32 C :   -0.086752
  33 C :    0.424500
  34 C :   -0.158954
  35 N :   -0.257341
  36 S :    0.462415
  37 N :   -0.249612
  38 C :   -0.061781
  39 C :    0.278577
  40 C :   -0.079972
  41 C :   -0.170224
  42 N :   -0.267250
  43 S :    0.473535
  44 N :   -0.274530
  45 C :   -0.143804
  46 C :    0.078883
  47 N :   -0.022063
  48 C :   -0.003524
  49 C :    0.038169
  50 C :   -0.011949
  51 S :   -0.078359
  52 C :    0.059830
  53 C :    0.045010
  54 N :   -0.012054
  55 C :    0.071548
  56 C :   -0.089148
  57 C :    0.040075
  58 C :   -0.125495
  59 C :    0.145044
  60 O :   -0.125593
  61 C :    0.005128
  62 C :   -0.076775
  63 C :    0.102222
  64 C :    0.103056
  65 C :   -0.097526
  66 C :    0.304646
  67 C :   -0.027912
  68 C :   -0.008654
  69 F :   -0.187062
  70 C :   -0.085194
  71 C :    0.046785
  72 C :    0.257926
  73 C :   -0.335526
  74 C :   -0.174781
  75 N :    0.171270
  76 C :   -0.174658
  77 N :    0.161816
  78 H :   -0.000209
  79 H :    0.005122
  80 H :   -0.007660
  81 H :   -0.002338
  82 H :   -0.009264
  83 H :    0.032829
  84 H :    0.020611
  85 H :    0.009162
  86 H :    0.045538
  87 H :    0.023261
  88 H :    0.019708
  89 H :    0.021120
  90 H :    0.037135
  91 H :   -0.007384
  92 H :   -0.000112
  93 H :    0.006567
  94 H :   -0.006444
  95 H :   -0.002773
Sum of atomic charges:   -0.0000000

LOEWDIN ATOMIC CHARGES
----------------------
   0 C :   -0.041115
   1 C :    0.094354
   2 F :   -0.061625
   3 C :   -0.034295
   4 C :    0.005396
   5 C :   -0.017601
   6 C :    0.004218
   7 C :    0.013083
   8 C :   -0.019204
   9 C :   -0.060903
  10 C :    0.036974
  11 C :    0.083380
  12 O :   -0.131920
  13 C :   -0.075751
  14 C :    0.063978
  15 C :   -0.127359
  16 C :   -0.021635
  17 N :   -0.033992
  18 C :   -0.018482
  19 N :   -0.040924
  20 C :    0.076276
  21 C :   -0.061692
  22 C :    0.085226
  23 N :   -0.069649
  24 C :    0.039445
  25 C :    0.008152
  26 C :   -0.140685
  27 S :    0.084823
  28 C :   -0.021844
  29 C :    0.057045
  30 N :   -0.081849
  31 C :    0.106707
  32 C :   -0.012210
  33 C :   -0.026288
  34 C :   -0.058087
  35 N :   -0.266164
  36 S :    0.595821
  37 N :   -0.260453
  38 C :   -0.060352
  39 C :   -0.019250
  40 C :   -0.049082
  41 C :   -0.048696
  42 N :   -0.261244
  43 S :    0.599753
  44 N :   -0.271386
  45 C :   -0.025701
  46 C :    0.097074
  47 N :   -0.074204
  48 C :    0.051081
  49 C :   -0.032994
  50 C :   -0.145742
  51 S :    0.111382
  52 C :    0.002244
  53 C :    0.042778
  54 N :   -0.070620
  55 C :    0.089928
  56 C :   -0.060008
  57 C :    0.074448
  58 C :   -0.071214
  59 C :    0.083840
  60 O :   -0.127787
  61 C :   -0.060755
  62 C :    0.038731
  63 C :   -0.016982
  64 C :    0.004280
  65 C :   -0.040952
  66 C :    0.094823
  67 C :   -0.033936
  68 C :    0.006078
  69 F :   -0.061805
  70 C :    0.014031
  71 C :   -0.020018
  72 C :    0.064964
  73 C :   -0.126064
  74 C :   -0.017361
  75 N :   -0.040936
  76 C :   -0.018264
  77 N :   -0.038948
  78 H :    0.044049
  79 H :    0.042817
  80 H :    0.036354
  81 H :    0.039951
  82 H :    0.040659
  83 H :    0.052549
  84 H :    0.025954
  85 H :    0.025870
  86 H :    0.060664
  87 H :    0.062304
  88 H :    0.030410
  89 H :    0.027438
  90 H :    0.053006
  91 H :    0.041516
  92 H :    0.044105
  93 H :    0.043152
  94 H :    0.036882
  95 H :    0.040036

  Mayer bond orders larger than 0.100000
B(  0-C ,  1-C ) :   1.4415 B(  0-C ,  6-C ) :   1.2020 B(  0-C , 78-H ) :   1.0063
B(  1-C ,  2-F ) :   1.0918 B(  1-C ,  3-C ) :   1.2535 B(  3-C ,  4-C ) :   1.4632
B(  3-C , 79-H ) :   0.9920 B(  4-C ,  5-C ) :   1.2339 B(  4-C , 80-H ) :   0.9969
B(  5-C ,  6-C ) :   1.2536 B(  5-C , 10-C ) :   1.1964 B(  6-C ,  7-C ) :   1.2050
B(  7-C ,  8-C ) :   1.4573 B(  7-C , 81-H ) :   0.9956 B(  8-C ,  9-C ) :   1.2160
B(  8-C , 14-C ) :   1.0049 B(  9-C , 10-C ) :   1.4681 B(  9-C , 11-C ) :   0.9182
B( 10-C , 82-H ) :   1.0149 B( 11-C , 12-O ) :   2.2892 B( 11-C , 13-C ) :   0.9220
B( 13-C , 14-C ) :   1.0237 B( 13-C , 20-C ) :   1.6949 B( 14-C , 15-C ) :   1.6654
B( 15-C , 16-C ) :   1.1509 B( 15-C , 18-C ) :   1.1335 B( 16-C , 17-N ) :   3.0080
B( 18-C , 19-N ) :   2.9874 B( 20-C , 21-C ) :   1.0389 B( 20-C , 83-H ) :   0.9545
B( 21-C , 22-C ) :   1.0089 B( 21-C , 25-C ) :   1.5431 B( 22-C , 23-N ) :   1.7462
B( 22-C , 84-H ) :   0.9862 B( 23-N , 24-C ) :   1.2557 B( 24-C , 25-C ) :   1.0792
B( 24-C , 29-C ) :   1.5257 B( 25-C , 26-C ) :   1.0143 B( 26-C , 27-S ) :   1.7134
B( 26-C , 28-C ) :   1.0057 B( 28-C , 29-C ) :   1.0534 B( 28-C , 32-C ) :   1.6668
B( 29-C , 30-N ) :   1.2793 B( 30-N , 31-C ) :   1.7032 B( 31-C , 32-C ) :   1.0320
B( 31-C , 85-H ) :   0.9920 B( 32-C , 33-C ) :   1.0289 B( 33-C , 34-C ) :   0.9740
B( 33-C , 41-C ) :   0.9261 B( 33-C , 86-H ) :   0.7754 B( 34-C , 35-N ) :   1.6982
B( 34-C , 38-C ) :   1.2048 B( 35-N , 36-S ) :   1.2039 B( 35-N , 37-N ) :   0.1142
B( 36-S , 37-N ) :   1.2113 B( 37-N , 38-C ) :   1.7056 B( 38-C , 39-C ) :   0.9858
B( 39-C , 40-C ) :   0.9898 B( 39-C , 45-C ) :   1.0293 B( 39-C , 87-H ) :   0.8237
B( 40-C , 41-C ) :   1.2077 B( 40-C , 44-N ) :   1.6791 B( 41-C , 42-N ) :   1.6917
B( 42-N , 43-S ) :   1.2055 B( 42-N , 44-N ) :   0.1191 B( 43-S , 44-N ) :   1.2061
B( 45-C , 46-C ) :   1.0350 B( 45-C , 49-C ) :   1.6558 B( 46-C , 47-N ) :   1.7089
B( 46-C , 88-H ) :   0.9922 B( 47-N , 48-C ) :   1.2788 B( 48-C , 49-C ) :   1.0623
B( 48-C , 53-C ) :   1.5283 B( 49-C , 50-C ) :   0.9887 B( 50-C , 51-S ) :   1.7314
B( 50-C , 52-C ) :   1.0218 B( 52-C , 53-C ) :   1.0629 B( 52-C , 56-C ) :   1.5535
B( 53-C , 54-N ) :   1.2606 B( 54-N , 55-C ) :   1.7394 B( 55-C , 56-C ) :   1.0146
B( 55-C , 89-H ) :   0.9889 B( 56-C , 57-C ) :   1.0312 B( 57-C , 58-C ) :   1.7063
B( 57-C , 90-H ) :   0.9544 B( 58-C , 59-C ) :   0.9187 B( 58-C , 72-C ) :   1.0251
B( 59-C , 60-O ) :   2.2959 B( 59-C , 61-C ) :   0.9195 B( 61-C , 62-C ) :   1.4679
B( 61-C , 71-C ) :   1.2148 B( 62-C , 63-C ) :   1.1952 B( 62-C , 91-H ) :   1.0154
B( 63-C , 64-C ) :   1.2532 B( 63-C , 68-C ) :   1.2334 B( 64-C , 65-C ) :   1.2010
B( 64-C , 70-C ) :   1.2051 B( 65-C , 66-C ) :   1.4403 B( 65-C , 92-H ) :   1.0071
B( 66-C , 67-C ) :   1.2545 B( 66-C , 69-F ) :   1.0922 B( 67-C , 68-C ) :   1.4620
B( 67-C , 93-H ) :   0.9924 B( 68-C , 94-H ) :   0.9974 B( 70-C , 71-C ) :   1.4571
B( 70-C , 95-H ) :   0.9953 B( 71-C , 72-C ) :   1.0050 B( 72-C , 73-C ) :   1.6599
B( 73-C , 74-C ) :   1.1547 B( 73-C , 76-C ) :   1.1336 B( 74-C , 75-N ) :   2.9963
B( 76-C , 77-N ) :   2.9858

-----------------------------------------------------------------------------
         ABSORPTION SPECTRUM VIA TRANSITION ELECTRIC DIPOLE MOMENTS
-----------------------------------------------------------------------------
State   Energy  Wavelength   fosc         T2         TX        TY        TZ
        (cm-1)    (nm)                  (au**2)     (au)      (au)      (au)
-----------------------------------------------------------------------------
   0   16494.5    606.3   0.000125615   0.00251   0.04611   0.00628  -0.01848
   1   16524.5    605.2   0.001665993   0.03319  -0.17294  -0.05726   0.00166
   2   18826.3    531.2   0.000359033   0.00628   0.05163   0.03048  -0.05180
   3   19244.2    519.6   0.008708213   0.14897   0.38192   0.03492   0.04345
   4   19658.2    508.7   0.034280089   0.57408  -0.72139  -0.22417  -0.05858
   5   20690.8    483.3   0.063224213   1.00596  -0.17500  -0.82810   0.53813
   6   21987.4    454.8   0.034947928   0.52327   0.28476   0.61560  -0.25142
   7   23530.9    425.0   0.029205044   0.40860   0.12268  -0.46062   0.42589
   8   23584.1    424.0   0.104676096   1.46118   0.81316   0.75807  -0.47464
   9   24426.6    409.4   0.101355200   1.36603  -1.14372   0.11669  -0.21050
  10   24755.0    404.0   0.040020155   0.53222  -0.30034  -0.46819   0.47203
  11   24954.7    400.7   0.107438583   1.41737   0.07505   0.69440  -0.96413
  12   25169.6    397.3   0.162863143   2.13021  -0.92729  -0.81799   0.77539
  13   25545.4    391.5   0.005366485   0.06916  -0.03131  -0.20728   0.15879
  14   25565.3    391.2   0.020205505   0.26019   0.04555   0.48529  -0.15037
  15   25812.1    387.4   0.153557276   1.95849  -0.41389  -1.10479   0.75274
  16   25874.1    386.5   0.167637721   2.13296  -0.94623  -0.85228   0.71501
  17   26024.2    384.3   0.083796206   1.06004   0.74495   0.55608  -0.44257
  18   26171.1    382.1   0.003675498   0.04623   0.14727   0.06562  -0.14227
  19   26330.9    379.8   0.026099563   0.32632  -0.14402  -0.37517   0.40598
  20   26744.2    373.9   0.012999948   0.16002   0.23079   0.31613   0.08260
  21   27127.4    368.6   0.020021380   0.24297  -0.18208  -0.45755   0.02165
  22   27823.8    359.4   0.048011393   0.56807  -0.09587  -0.69082   0.28574
  23   27867.9    358.8   0.132083674   1.56034   0.83247   0.90454  -0.22168
  24   28108.2    355.8   0.045227450   0.52972   0.36088   0.56942  -0.27431
  25   28451.7    351.5   0.010421895   0.12059   0.13097   0.32064   0.02502
  26   28510.1    350.8   0.186692325   2.15577   1.04935   1.02679  -0.01849
  27   28931.8    345.6   0.001543786   0.01757  -0.06159   0.11347  -0.02999
  28   29035.4    344.4   0.002199995   0.02494  -0.13936  -0.03357  -0.06631
  29   29103.7    343.6   0.016876500   0.19090  -0.27438  -0.22890   0.25144
  30   29351.2    340.7   0.034629627   0.38842   0.61425   0.10443  -0.01434
  31   29428.0    339.8   0.023891375   0.26727   0.46706   0.20920   0.07324
  32   29706.2    336.6   0.017484391   0.19377  -0.14658   0.31086  -0.27504
  33   30076.1    332.5   0.201588158   2.20658   1.37036   0.03248   0.57240
  34   30305.8    330.0   0.141861438   1.54104   0.81281   0.93579  -0.06831
  35   30552.1    327.3   0.003512099   0.03784   0.07784   0.04932  -0.17133
  36   30885.7    323.8   0.018147922   0.19344   0.14294   0.38129   0.16620
  37   31174.5    320.8   0.116436526   1.22961  -0.20276  -1.03743   0.33501
  38   31248.8    320.0   0.378248454   3.98492   0.69774   1.86321  -0.16284
  39   31389.0    318.6   0.239122528   2.50795  -0.64454  -1.41535  -0.29880
  40   31643.4    316.0   0.008319853   0.08656  -0.16953  -0.23879  -0.02822
  41   31716.6    315.3   0.017499756   0.18164  -0.26344  -0.08464  -0.32416
  42   32162.6    310.9   0.065345041   0.66886   0.26389  -0.70972   0.30907
  43   32288.5    309.7   0.011018514   0.11234  -0.05716   0.29279  -0.15280
  44   32517.9    307.5   0.050078731   0.50700   0.08347   0.70247   0.08106
  45   32710.4    305.7   0.019011517   0.19134  -0.35294  -0.16489   0.19897
  46   32853.8    304.4   0.092763399   0.92954   0.51542   0.69067   0.43227
  47   33054.5    302.5   0.001898041   0.01890  -0.09763  -0.09529  -0.01711
  48   33117.9    302.0   0.057193207   0.56854   0.64387   0.32398   0.22135
  49   33225.2    301.0   0.023876815   0.23658  -0.21548  -0.42102   0.11356
  50   33261.8    300.6   0.072566054   0.71823  -0.54587  -0.51664  -0.39158
  51   33411.4    299.3   0.091624092   0.90280  -0.93625  -0.05736  -0.15144
  52   33559.3    298.0   0.009892236   0.09704   0.27067   0.15089  -0.03183
  53   33625.0    297.4   0.014700868   0.14393  -0.11739  -0.35338  -0.07263
  54   33884.9    295.1   0.126449971   1.22854  -0.52442   0.81742  -0.53417
  55   33976.3    294.3   0.190142345   1.84237  -0.07290  -1.26860   0.47719
  56   34193.7    292.5   0.594720925   5.72589  -1.66408  -1.70855   0.19382
  57   34293.3    291.6   0.104006324   0.99845  -0.66020  -0.70195   0.26430
  58   34438.8    290.4   0.364577923   3.48512  -0.75358  -1.61540   0.55471
  59   34776.5    287.6   0.001092867   0.01035   0.08609   0.04227  -0.03388
  60   34852.1    286.9   0.269042933   2.54137   0.92080   1.23010   0.42468
  61   35167.5    284.4   0.063635206   0.59570  -0.54174  -0.54424  -0.07757
  62   35313.3    283.2   0.010415773   0.09710  -0.04331   0.25416  -0.17501
  63   35422.0    282.3   0.186845428   1.73654   0.80286   1.04110   0.08977
  64   35491.7    281.8   0.046371168   0.43013  -0.32277  -0.54827  -0.15919
  65   35528.7    281.5   0.016891971   0.15652   0.37523   0.10128   0.07396
  66   35577.9    281.1   0.126723556   1.17261   0.38454   0.99293   0.19704
  67   35702.6    280.1   0.015827175   0.14594   0.21910   0.30916  -0.04853
  68   35923.6    278.4   0.021392516   0.19605  -0.41796   0.14067  -0.03955
  69   36002.3    277.8   0.124559700   1.13900  -0.55813  -0.83764  -0.35474
  70   36219.4    276.1   0.009454738   0.08594   0.24352   0.15907  -0.03651
  71   36311.5    275.4   0.004588779   0.04160  -0.01814   0.19751   0.04757
  72   36452.7    274.3   0.043382783   0.39180   0.23872   0.57810   0.02476
  73   36608.2    273.2   0.095796479   0.86148  -0.37060  -0.85025  -0.03488
  74   36720.6    272.3   0.037037911   0.33206   0.17703  -0.49619  -0.23347
  75   36947.6    270.7   0.069887031   0.62271  -0.25818  -0.70492  -0.24320
  76   37096.1    269.6   0.034453229   0.30576  -0.34724   0.38336   0.19550
  77   37202.0    268.8   0.014959242   0.13238  -0.29077   0.21261   0.05124
  78   37465.5    266.9   0.006426209   0.05647   0.21225   0.07896   0.07199
  79   37496.0    266.7   0.054244526   0.47626   0.25625   0.50064   0.39995
  80   37597.4    266.0   0.006210625   0.05438  -0.09739  -0.19313  -0.08715
  81   37765.7    264.8   0.007312003   0.06374  -0.15866   0.19616  -0.00942
  82   37894.3    263.9   0.010439293   0.09069  -0.17604  -0.21466   0.11672
  83   37952.8    263.5   0.007961409   0.06906  -0.13360  -0.10387  -0.20105
  84   38015.2    263.1   0.031743350   0.27490  -0.34988  -0.21839  -0.32371
  85   38066.1    262.7   0.005300121   0.04584   0.11381   0.17146   0.05905
  86   38133.8    262.2   0.005661936   0.04888   0.21896   0.02893  -0.00990
  87   38169.9    262.0   0.140119403   1.20852   0.07102   0.90932   0.61368
  88   38285.2    261.2   0.027379771   0.23544   0.06526   0.42909   0.21693
  89   38352.5    260.7   0.007125429   0.06116  -0.13300   0.19471  -0.07457
  90   38463.3    260.0   0.030798405   0.26361  -0.33922  -0.27411  -0.27093
  91   38528.4    259.5   0.020671649   0.17663   0.41438  -0.03422   0.06121
  92   38611.8    259.0   0.011576459   0.09870  -0.29308  -0.07510  -0.08465
  93   38850.4    257.4   0.001310631   0.01111  -0.01250  -0.06289   0.08364
  94   38896.4    257.1   0.003258011   0.02758  -0.04538  -0.14642   0.06386
  95   38988.8    256.5   0.009660754   0.08157   0.28125  -0.00793  -0.04908
  96   39099.4    255.8   0.154866503   1.30396   0.45934  -0.08266   1.04218
  97   39237.2    254.9   0.023030043   0.19323   0.42637  -0.01368   0.10607
  98   39382.7    253.9   0.126601422   1.05830  -0.55026  -0.86197  -0.11191
  99   39635.2    252.3   0.078152724   0.64914  -0.61150   0.48201  -0.20706
 100   39646.8    252.2   0.086865792   0.72130  -0.54073  -0.65348  -0.04340
 101   39836.0    251.0   0.053703644   0.44382  -0.09656  -0.63921  -0.16093
 102   39976.5    250.1   0.030157351   0.24835  -0.46231  -0.00293  -0.18604
 103   40065.8    249.6   0.215706900   1.77242   1.06112  -0.76399   0.25053
 104   40235.8    248.5   0.313068228   2.56155   0.99694   1.22805   0.24403
 105   40296.2    248.2   0.040404917   0.33010   0.44080  -0.25033  -0.27043

FINAL SINGLE POINT ENERGY     -4816.152731947465

DIPOLE MOMENT
-------------
                                X             Y             Z
Electronic contribution:    -13.23455     -17.33902      -1.68933
Nuclear contribution   :     14.35759      19.52198       4.09957
                        -----------------------------------------
Total Dipole Moment    :      1.12304       2.18295       2.41024
                        -----------------------------------------
Magnitude (a.u.)       :      3.44032
Magnitude (Debye)      :      8.74459

Rotational constants in cm-1:     0.000762     0.000531     0.000347
Rotational constants in MHz :    22.829566    15.910585    10.398562

                             ****ORCA TERMINATED NORMALLY****
TOTAL RUN TIME: 0 days 0 hours 11 minutes 32 seconds 132 msec
