                         Program Version 4.2.0 -  RELEASE  -
|  1> # ORCA input file
|  2> # SCF done       -201.005414982974          0.000580287445
|  3> ! CAM-B3LYP def2-SVP def2/J RIJCOSX Grid4 TightSCF
|  4> %maxcore 5000
|  5> %tddft
|  6>     Mode sTDDFT
|  7>     Ethresh 5.0
|  8>     maxcore 5000
|  9> end
| 10>
| 11> %pal
| 12>   nprocs 6
| 13>   end
| 14> * xyz 0 1
| 15>    C       -9.81438        -7.50770         7.97684
| 16>    C      -10.93660        -8.27957         7.71809
| 17>    C      -11.04466        -9.01578         6.54496
| 18>    C      -10.03623        -9.00277         5.59186
| 19>    C       -8.91004        -8.23452         5.83522
| 20>    C       -8.79923        -7.48603         7.03282
| 21>    C       -7.54160        -6.76421         7.01483
| 22>    C       -6.93116        -6.13397         8.05975
| 23>    C       -7.45690        -6.07174         9.36770
| 24>    N       -7.80748        -5.95826        10.45456
| 25>    C       -5.67959        -5.47957         8.00007
| 26>    N       -4.67361        -4.92730         8.03769
| 27>    C       -6.99969        -6.90908         5.66116
| 28>    C       -7.69811        -8.04128         5.05025
| 29>    C       -7.20883        -8.87528         4.09072
| 30>    C       -5.88336        -8.81925         3.60249
| 31>    N       -4.78696        -8.89671         3.27303
| 32>    C       -7.92154        -9.98746         3.58946
| 33>    N       -8.46633       -10.89924         3.15823
| 34>    C       -6.14833        -6.00811         5.11299
| 35>    C       -5.68719        -5.91182         3.77034
| 36>    N       -6.27515        -6.47690         2.73158
| 37>    C       -5.52808        -6.14126         1.65565
| 38>    C       -4.37943        -5.31322         2.04204
| 39>    C       -3.55944        -4.97943         0.86782
| 40>    O       -2.54662        -4.31522         0.82411
| 41>    C       -4.28123        -5.65461        -0.22864
| 42>    C       -5.48318        -6.34574         0.30014
| 43>    N       -6.15606        -6.96574        -0.69968
| 44>    C       -5.46532        -6.71844        -1.78299
| 45>    C       -4.27980        -5.90389        -1.56018
| 46>    C       -4.47495        -5.13958         3.40002
| 47>    C       -3.65626        -4.43899         4.31858
| 48>    C       -2.50493        -3.79521         4.00008
| 49>    C       -1.77249        -3.07422         4.97582
| 50>    S       -2.42176        -2.86341         6.56795
| 51>    C       -1.05314        -1.92319         7.07224
| 52>    C       -0.11952        -1.81386         6.03035
| 53>    C       -0.53772        -2.43904         4.85316
| 54>    C        0.27142        -2.43878         3.59567
| 55>    C        1.32629        -1.32451         3.63665
| 56>    C        2.22872        -1.47124         2.51556
| 57>    N        2.94095        -1.61938         1.63549
| 58>    C        2.10547        -1.39941         4.96790
| 59>    C        3.20550        -0.45965         4.95301
| 60>    N        4.05568         0.30202         4.93361
| 61>    C        1.17332        -1.08212         6.14555
| 62>    C       -0.94106        -1.38222         8.37182
| 63>    N        0.19081        -0.79310         8.75508
| 64>    C        0.00503        -0.41079        10.02713
| 65>    C       -1.33468        -0.77304        10.50753
| 66>    C       -1.51966        -0.31868        11.89998
| 67>    O       -2.48533        -0.46945        12.62071
| 68>    C       -0.24430         0.34370        12.19677
| 69>    C        0.66619         0.25432        11.03462
| 70>    N        1.84025         0.86842        11.29820
| 71>    C        1.71690         1.33539        12.52008
| 72>    C        0.43933         1.04947        13.13623
| 73>    C       -1.96957        -1.38045         9.45055
| 74>    C       -3.32019        -1.81022         9.35300
| 75>    C       -4.19835        -1.75409        10.38585
| 76>    C       -5.55962        -2.10436        10.21667
| 77>    C       -6.56323        -1.82509        11.09683
| 78>    C       -7.87728        -2.45499        11.10261
| 79>    C       -8.49487        -3.07768        10.05191
| 80>    C       -7.96899        -3.20016         8.75279
| 81>    N       -7.62014        -3.38477         7.67225
| 82>    C       -9.75947        -3.70310        10.11144
| 83>    N      -10.77196        -4.24095        10.05968
| 84>    C       -8.41472        -2.28424        12.44209
| 85>    C       -7.55054        -1.44165        13.18075
| 86>    C       -7.82939        -1.13345        14.50160
| 87>    C       -8.97220        -1.66826        15.07821
| 88>    C       -9.82446        -2.48935        14.35223
| 89>    C       -9.55705        -2.80568        13.02916
| 90>    C       -6.47238        -1.00757        12.30452
| 91>    C       -5.68915         0.09943        12.47238
| 92>    C       -5.66951         0.87177        13.65420
| 93>    N       -5.62136         1.52687        14.59434
| 94>    C       -4.92514         0.69248        11.44119
| 95>    N       -4.37352         1.26492        10.61397
| 96>    H       -9.75002        -6.92581         8.88264
| 97>    H      -11.73984        -8.30013         8.43802
| 98>    H      -11.93105        -9.60483         6.36626
| 99>    H      -10.13967        -9.56738         4.67941
|100>    H       -5.80155        -5.21721         5.76325
|101>    H       -5.78765        -7.10586        -2.73383
|102>    H       -3.58706        -5.59430        -2.31736
|103>    H       -3.97720        -4.42292         5.35251
|104>    H       -2.12898        -3.81943         2.98607
|105>    H       -0.37557        -2.30648         2.72555
|106>    H        0.76857        -3.40872         3.48159
|107>    H        0.84025        -0.34380         3.56115
|108>    H        2.52079        -2.40894         5.07939
|109>    H        0.97000        -0.00667         6.18743
|110>    H        1.65268        -1.33003         7.09453
|111>    H        2.52769         1.87501        12.97759
|112>    H        0.13951         1.34738        14.12129
|113>    H       -3.69094        -2.12732         8.39027
|114>    H       -3.85441        -1.44407        11.36255
|115>    H       -5.79475        -2.68970         9.33725
|116>    H       -7.17137        -0.50351        15.07791
|117>    H       -9.19922        -1.44218        16.10881
|118>    H      -10.70730        -2.89230        14.82440
|119>    H      -10.22147        -3.45147        12.47844
|120> *
|121>
|122>                          ****END OF INPUT****

CARTESIAN COORDINATES (ANGSTROEM)
---------------------------------
  C     -9.814380   -7.507700    7.976840
  C    -10.936600   -8.279570    7.718090
  C    -11.044660   -9.015780    6.544960
  C    -10.036230   -9.002770    5.591860
  C     -8.910040   -8.234520    5.835220
  C     -8.799230   -7.486030    7.032820
  C     -7.541600   -6.764210    7.014830
  C     -6.931160   -6.133970    8.059750
  C     -7.456900   -6.071740    9.367700
  N     -7.807480   -5.958260   10.454560
  C     -5.679590   -5.479570    8.000070
  N     -4.673610   -4.927300    8.037690
  C     -6.999690   -6.909080    5.661160
  C     -7.698110   -8.041280    5.050250
  C     -7.208830   -8.875280    4.090720
  C     -5.883360   -8.819250    3.602490
  N     -4.786960   -8.896710    3.273030
  C     -7.921540   -9.987460    3.589460
  N     -8.466330  -10.899240    3.158230
  C     -6.148330   -6.008110    5.112990
  C     -5.687190   -5.911820    3.770340
  N     -6.275150   -6.476900    2.731580
  C     -5.528080   -6.141260    1.655650
  C     -4.379430   -5.313220    2.042040
  C     -3.559440   -4.979430    0.867820
  O     -2.546620   -4.315220    0.824110
  C     -4.281230   -5.654610   -0.228640
  C     -5.483180   -6.345740    0.300140
  N     -6.156060   -6.965740   -0.699680
  C     -5.465320   -6.718440   -1.782990
  C     -4.279800   -5.903890   -1.560180
  C     -4.474950   -5.139580    3.400020
  C     -3.656260   -4.438990    4.318580
  C     -2.504930   -3.795210    4.000080
  C     -1.772490   -3.074220    4.975820
  S     -2.421760   -2.863410    6.567950
  C     -1.053140   -1.923190    7.072240
  C     -0.119520   -1.813860    6.030350
  C     -0.537720   -2.439040    4.853160
  C      0.271420   -2.438780    3.595670
  C      1.326290   -1.324510    3.636650
  C      2.228720   -1.471240    2.515560
  N      2.940950   -1.619380    1.635490
  C      2.105470   -1.399410    4.967900
  C      3.205500   -0.459650    4.953010
  N      4.055680    0.302020    4.933610
  C      1.173320   -1.082120    6.145550
  C     -0.941060   -1.382220    8.371820
  N      0.190810   -0.793100    8.755080
  C      0.005030   -0.410790   10.027130
  C     -1.334680   -0.773040   10.507530
  C     -1.519660   -0.318680   11.899980
  O     -2.485330   -0.469450   12.620710
  C     -0.244300    0.343700   12.196770
  C      0.666190    0.254320   11.034620
  N      1.840250    0.868420   11.298200
  C      1.716900    1.335390   12.520080
  C      0.439330    1.049470   13.136230
  C     -1.969570   -1.380450    9.450550
  C     -3.320190   -1.810220    9.353000
  C     -4.198350   -1.754090   10.385850
  C     -5.559620   -2.104360   10.216670
  C     -6.563230   -1.825090   11.096830
  C     -7.877280   -2.454990   11.102610
  C     -8.494870   -3.077680   10.051910
  C     -7.968990   -3.200160    8.752790
  N     -7.620140   -3.384770    7.672250
  C     -9.759470   -3.703100   10.111440
  N    -10.771960   -4.240950   10.059680
  C     -8.414720   -2.284240   12.442090
  C     -7.550540   -1.441650   13.180750
  C     -7.829390   -1.133450   14.501600
  C     -8.972200   -1.668260   15.078210
  C     -9.824460   -2.489350   14.352230
  C     -9.557050   -2.805680   13.029160
  C     -6.472380   -1.007570   12.304520
  C     -5.689150    0.099430   12.472380
  C     -5.669510    0.871770   13.654200
  N     -5.621360    1.526870   14.594340
  C     -4.925140    0.692480   11.441190
  N     -4.373520    1.264920   10.613970
  H     -9.750020   -6.925810    8.882640
  H    -11.739840   -8.300130    8.438020
  H    -11.931050   -9.604830    6.366260
  H    -10.139670   -9.567380    4.679410
  H     -5.801550   -5.217210    5.763250
  H     -5.787650   -7.105860   -2.733830
  H     -3.587060   -5.594300   -2.317360
  H     -3.977200   -4.422920    5.352510
  H     -2.128980   -3.819430    2.986070
  H     -0.375570   -2.306480    2.725550
  H      0.768570   -3.408720    3.481590
  H      0.840250   -0.343800    3.561150
  H      2.520790   -2.408940    5.079390
  H      0.970000   -0.006670    6.187430
  H      1.652680   -1.330030    7.094530
  H      2.527690    1.875010   12.977590
  H      0.139510    1.347380   14.121290
  H     -3.690940   -2.127320    8.390270
  H     -3.854410   -1.444070   11.362550
  H     -5.794750   -2.689700    9.337250
  H     -7.171370   -0.503510   15.077910
  H     -9.199220   -1.442180   16.108810
  H    -10.707300   -2.892300   14.824400
  H    -10.221470   -3.451470   12.478440

 Total Charge           Charge          ....    0
 Multiplicity           Mult            ....    1
 Number of Electrons    NEL             ....  538
 Basis Dimension        Dim             .... 1258

ORBITAL ENERGIES
----------------

  NO   OCC          E(Eh)            E(eV)
   0   2.0000     -88.984126     -2421.3812
   1   2.0000     -19.231500      -523.3157
   2   2.0000     -19.224360      -523.1214
   3   2.0000     -14.447316      -393.1315
   4   2.0000     -14.444935      -393.0667
   5   2.0000     -14.440458      -392.9448
   6   2.0000     -14.438146      -392.8819
   7   2.0000     -14.434389      -392.7797
   8   2.0000     -14.429938      -392.6586
   9   2.0000     -14.428544      -392.6206
  10   2.0000     -14.424181      -392.5019
  11   2.0000     -14.422516      -392.4566
  12   2.0000     -14.419355      -392.3706
  13   2.0000     -14.419232      -392.3673
  14   2.0000     -14.410697      -392.1350
  15   2.0000     -14.408325      -392.0705
  16   2.0000     -14.405091      -391.9825
  17   2.0000     -10.390525      -282.7405
  18   2.0000     -10.384046      -282.5642
  19   2.0000     -10.374324      -282.2997
  20   2.0000     -10.369853      -282.1781
  21   2.0000     -10.366657      -282.0911
  22   2.0000     -10.365030      -282.0468
  23   2.0000     -10.361675      -281.9555
  24   2.0000     -10.360486      -281.9232
  25   2.0000     -10.357083      -281.8306
  26   2.0000     -10.355936      -281.7993
  27   2.0000     -10.355000      -281.7739
  28   2.0000     -10.352482      -281.7054
  29   2.0000     -10.351456      -281.6775
  30   2.0000     -10.351118      -281.6682
  31   2.0000     -10.348603      -281.5998
  32   2.0000     -10.346505      -281.5427
  33   2.0000     -10.346212      -281.5347
  34   2.0000     -10.345625      -281.5188
  35   2.0000     -10.344095      -281.4771
  36   2.0000     -10.342090      -281.4226
  37   2.0000     -10.340459      -281.3782
  38   2.0000     -10.338496      -281.3248
  39   2.0000     -10.336770      -281.2778
  40   2.0000     -10.335269      -281.2370
  41   2.0000     -10.334629      -281.2196
  42   2.0000     -10.333231      -281.1815
  43   2.0000     -10.332308      -281.1564
  44   2.0000     -10.330175      -281.0983
  45   2.0000     -10.329550      -281.0813
  46   2.0000     -10.329361      -281.0762
  47   2.0000     -10.328221      -281.0452
  48   2.0000     -10.327015      -281.0124
  49   2.0000     -10.325757      -280.9781
  50   2.0000     -10.323974      -280.9296
  51   2.0000     -10.323918      -280.9281
  52   2.0000     -10.322738      -280.8960
  53   2.0000     -10.322238      -280.8824
  54   2.0000     -10.319448      -280.8064
  55   2.0000     -10.318655      -280.7849
  56   2.0000     -10.317227      -280.7460
  57   2.0000     -10.316604      -280.7291
  58   2.0000     -10.313899      -280.6555
  59   2.0000     -10.312696      -280.6227
  60   2.0000     -10.312106      -280.6067
  61   2.0000     -10.312097      -280.6064
  62   2.0000     -10.311456      -280.5890
  63   2.0000     -10.311343      -280.5859
  64   2.0000     -10.311006      -280.5767
  65   2.0000     -10.310838      -280.5722
  66   2.0000     -10.310197      -280.5547
  67   2.0000     -10.309492      -280.5355
  68   2.0000     -10.308014      -280.4953
  69   2.0000     -10.307476      -280.4807
  70   2.0000     -10.307376      -280.4780
  71   2.0000     -10.306428      -280.4522
  72   2.0000     -10.305728      -280.4331
  73   2.0000     -10.304287      -280.3939
  74   2.0000     -10.303857      -280.3822
  75   2.0000     -10.303250      -280.3657
  76   2.0000     -10.302802      -280.3535
  77   2.0000     -10.297434      -280.2074
  78   2.0000     -10.297145      -280.1996
  79   2.0000     -10.295185      -280.1462
  80   2.0000     -10.294575      -280.1296
  81   2.0000      -8.078888      -219.8377
  82   2.0000      -6.048033      -164.5754
  83   2.0000      -6.043942      -164.4640
  84   2.0000      -6.041184      -164.3890
  85   2.0000      -1.145293       -31.1650
  86   2.0000      -1.138169       -30.9712
  87   2.0000      -1.101085       -29.9620
  88   2.0000      -1.089280       -29.6408
  89   2.0000      -1.080487       -29.4016
  90   2.0000      -1.066620       -29.0242
  91   2.0000      -1.055158       -28.7123
  92   2.0000      -1.043374       -28.3917
  93   2.0000      -1.037629       -28.2353
  94   2.0000      -1.028005       -27.9734
  95   2.0000      -1.024765       -27.8853
  96   2.0000      -1.024472       -27.8773
  97   2.0000      -1.022578       -27.8258
  98   2.0000      -1.013290       -27.5730
  99   2.0000      -1.009956       -27.4823
 100   2.0000      -1.009434       -27.4681
 101   2.0000      -1.004347       -27.3297
 102   2.0000      -0.999222       -27.1902
 103   2.0000      -0.989599       -26.9284
 104   2.0000      -0.975375       -26.5413
 105   2.0000      -0.965404       -26.2700
 106   2.0000      -0.959940       -26.1213
 107   2.0000      -0.959117       -26.0989
 108   2.0000      -0.954953       -25.9856
 109   2.0000      -0.949699       -25.8426
 110   2.0000      -0.946222       -25.7480
 111   2.0000      -0.942053       -25.6346
 112   2.0000      -0.935473       -25.4555
 113   2.0000      -0.918008       -24.9803
 114   2.0000      -0.908617       -24.7247
 115   2.0000      -0.902897       -24.5691
 116   2.0000      -0.900350       -24.4998
 117   2.0000      -0.894761       -24.3477
 118   2.0000      -0.879791       -23.9403
 119   2.0000      -0.879059       -23.9204
 120   2.0000      -0.876277       -23.8447
 121   2.0000      -0.871559       -23.7163
 122   2.0000      -0.870617       -23.6907
 123   2.0000      -0.864785       -23.5320
 124   2.0000      -0.845724       -23.0133
 125   2.0000      -0.834462       -22.7069
 126   2.0000      -0.830743       -22.6057
 127   2.0000      -0.807978       -21.9862
 128   2.0000      -0.798635       -21.7320
 129   2.0000      -0.796114       -21.6634
 130   2.0000      -0.794128       -21.6093
 131   2.0000      -0.778267       -21.1777
 132   2.0000      -0.773348       -21.0439
 133   2.0000      -0.768150       -20.9024
 134   2.0000      -0.763121       -20.7656
 135   2.0000      -0.748283       -20.3618
 136   2.0000      -0.737236       -20.0612
 137   2.0000      -0.736400       -20.0385
 138   2.0000      -0.731269       -19.8988
 139   2.0000      -0.728768       -19.8308
 140   2.0000      -0.726051       -19.7569
 141   2.0000      -0.721329       -19.6284
 142   2.0000      -0.712441       -19.3865
 143   2.0000      -0.698075       -18.9956
 144   2.0000      -0.694009       -18.8849
 145   2.0000      -0.688289       -18.7293
 146   2.0000      -0.683596       -18.6016
 147   2.0000      -0.677194       -18.4274
 148   2.0000      -0.675232       -18.3740
 149   2.0000      -0.672694       -18.3049
 150   2.0000      -0.664852       -18.0916
 151   2.0000      -0.664420       -18.0798
 152   2.0000      -0.654361       -17.8061
 153   2.0000      -0.652510       -17.7557
 154   2.0000      -0.649135       -17.6639
 155   2.0000      -0.640844       -17.4383
 156   2.0000      -0.636182       -17.3114
 157   2.0000      -0.633044       -17.2260
 158   2.0000      -0.630166       -17.1477
 159   2.0000      -0.618209       -16.8223
 160   2.0000      -0.614136       -16.7115
 161   2.0000      -0.608409       -16.5557
 162   2.0000      -0.605850       -16.4860
 163   2.0000      -0.603904       -16.4331
 164   2.0000      -0.593899       -16.1608
 165   2.0000      -0.591988       -16.1088
 166   2.0000      -0.587732       -15.9930
 167   2.0000      -0.584000       -15.8914
 168   2.0000      -0.579948       -15.7812
 169   2.0000      -0.573347       -15.6016
 170   2.0000      -0.572411       -15.5761
 171   2.0000      -0.568682       -15.4746
 172   2.0000      -0.565236       -15.3809
 173   2.0000      -0.563635       -15.3373
 174   2.0000      -0.561557       -15.2807
 175   2.0000      -0.559732       -15.2311
 176   2.0000      -0.556850       -15.1527
 177   2.0000      -0.555628       -15.1194
 178   2.0000      -0.551989       -15.0204
 179   2.0000      -0.548488       -14.9251
 180   2.0000      -0.546680       -14.8759
 181   2.0000      -0.544684       -14.8216
 182   2.0000      -0.542133       -14.7522
 183   2.0000      -0.541490       -14.7347
 184   2.0000      -0.536032       -14.5862
 185   2.0000      -0.533224       -14.5098
 186   2.0000      -0.530830       -14.4446
 187   2.0000      -0.529537       -14.4094
 188   2.0000      -0.526366       -14.3232
 189   2.0000      -0.521999       -14.2043
 190   2.0000      -0.520691       -14.1687
 191   2.0000      -0.518609       -14.1121
 192   2.0000      -0.517035       -14.0692
 193   2.0000      -0.514251       -13.9935
 194   2.0000      -0.510580       -13.8936
 195   2.0000      -0.508406       -13.8344
 196   2.0000      -0.503725       -13.7071
 197   2.0000      -0.502615       -13.6769
 198   2.0000      -0.498470       -13.5640
 199   2.0000      -0.496723       -13.5165
 200   2.0000      -0.493202       -13.4207
 201   2.0000      -0.491579       -13.3766
 202   2.0000      -0.490362       -13.3434
 203   2.0000      -0.486154       -13.2289
 204   2.0000      -0.482700       -13.1349
 205   2.0000      -0.480406       -13.0725
 206   2.0000      -0.478828       -13.0296
 207   2.0000      -0.478035       -13.0080
 208   2.0000      -0.477125       -12.9832
 209   2.0000      -0.476144       -12.9566
 210   2.0000      -0.475896       -12.9498
 211   2.0000      -0.474141       -12.9020
 212   2.0000      -0.472666       -12.8619
 213   2.0000      -0.470266       -12.7966
 214   2.0000      -0.469501       -12.7758
 215   2.0000      -0.467663       -12.7258
 216   2.0000      -0.465640       -12.6707
 217   2.0000      -0.464065       -12.6278
 218   2.0000      -0.462324       -12.5805
 219   2.0000      -0.460465       -12.5299
 220   2.0000      -0.459217       -12.4959
 221   2.0000      -0.458452       -12.4751
 222   2.0000      -0.457951       -12.4615
 223   2.0000      -0.454382       -12.3644
 224   2.0000      -0.453046       -12.3280
 225   2.0000      -0.451691       -12.2911
 226   2.0000      -0.449645       -12.2355
 227   2.0000      -0.447759       -12.1841
 228   2.0000      -0.443402       -12.0656
 229   2.0000      -0.441915       -12.0251
 230   2.0000      -0.441204       -12.0058
 231   2.0000      -0.438312       -11.9271
 232   2.0000      -0.437200       -11.8968
 233   2.0000      -0.435371       -11.8470
 234   2.0000      -0.434293       -11.8177
 235   2.0000      -0.432126       -11.7587
 236   2.0000      -0.430521       -11.7151
 237   2.0000      -0.427501       -11.6329
 238   2.0000      -0.425195       -11.5702
 239   2.0000      -0.423243       -11.5170
 240   2.0000      -0.422167       -11.4878
 241   2.0000      -0.417613       -11.3638
 242   2.0000      -0.416938       -11.3455
 243   2.0000      -0.406095       -11.0504
 244   2.0000      -0.406034       -11.0487
 245   2.0000      -0.402974       -10.9655
 246   2.0000      -0.399624       -10.8743
 247   2.0000      -0.398020       -10.8307
 248   2.0000      -0.390844       -10.6354
 249   2.0000      -0.389429       -10.5969
 250   2.0000      -0.382220       -10.4007
 251   2.0000      -0.375683       -10.2229
 252   2.0000      -0.372092       -10.1251
 253   2.0000      -0.367391        -9.9972
 254   2.0000      -0.366152        -9.9635
 255   2.0000      -0.359721        -9.7885
 256   2.0000      -0.353970        -9.6320
 257   2.0000      -0.350186        -9.5290
 258   2.0000      -0.347686        -9.4610
 259   2.0000      -0.341494        -9.2925
 260   2.0000      -0.340398        -9.2627
 261   2.0000      -0.339840        -9.2475
 262   2.0000      -0.338648        -9.2151
 263   2.0000      -0.338329        -9.2064
 264   2.0000      -0.331451        -9.0192
 265   2.0000      -0.322231        -8.7684
 266   2.0000      -0.314885        -8.5685
 267   2.0000      -0.290789        -7.9128
 268   2.0000      -0.274973        -7.4824
 269   0.0000      -0.146708        -3.9921
 270   0.0000      -0.128650        -3.5008
 271   0.0000      -0.108575        -2.9545
 272   0.0000      -0.098676        -2.6851
 273   0.0000      -0.089974        -2.4483

MULLIKEN ATOMIC CHARGES
-----------------------
   0 C :   -0.027210
   1 C :    0.049380
   2 C :    0.051227
   3 C :   -0.031747
   4 C :    0.022230
   5 C :    0.016822
   6 C :    0.279674
   7 C :   -0.334920
   8 C :   -0.190096
   9 N :    0.166414
  10 C :   -0.151272
  11 N :    0.153070
  12 C :   -0.010078
  13 C :    0.211518
  14 C :   -0.249140
  15 C :   -0.170745
  16 N :    0.166577
  17 C :   -0.198476
  18 N :    0.176327
  19 C :   -0.017428
  20 C :    0.027968
  21 N :   -0.050008
  22 C :    0.091405
  23 C :   -0.160416
  24 C :    0.228166
  25 O :   -0.137681
  26 C :   -0.011655
  27 C :   -0.020084
  28 N :   -0.045418
  29 C :    0.103863
  30 C :   -0.092432
  31 C :    0.090814
  32 C :   -0.055252
  33 C :    0.011386
  34 C :   -0.063304
  35 S :    0.123843
  36 C :   -0.136474
  37 C :   -0.072901
  38 C :   -0.093091
  39 C :    0.211035
  40 C :   -0.114602
  41 C :   -0.253224
  42 N :    0.163858
  43 C :   -0.089229
  44 C :   -0.257361
  45 N :    0.164480
  46 C :    0.248768
  47 C :    0.062776
  48 N :   -0.071381
  49 C :    0.073055
  50 C :   -0.152158
  51 C :    0.242557
  52 O :   -0.153872
  53 C :   -0.012783
  54 C :   -0.032466
  55 N :   -0.052547
  56 C :    0.094282
  57 C :   -0.089921
  58 C :    0.045373
  59 C :   -0.027968
  60 C :    0.009106
  61 C :    0.023313
  62 C :   -0.041339
  63 C :    0.319384
  64 C :   -0.358545
  65 C :   -0.172374
  66 N :    0.129748
  67 C :   -0.174117
  68 N :    0.152889
  69 C :    0.009665
  70 C :    0.014315
  71 C :   -0.034565
  72 C :    0.051039
  73 C :    0.047286
  74 C :   -0.028644
  75 C :    0.221761
  76 C :   -0.292230
  77 C :   -0.182574
  78 N :    0.165346
  79 C :   -0.198995
  80 N :    0.168342
  81 H :    0.011445
  82 H :    0.013411
  83 H :    0.010887
  84 H :    0.012387
  85 H :    0.034527
  86 H :    0.019989
  87 H :    0.005582
  88 H :    0.003678
  89 H :    0.016620
  90 H :    0.056253
  91 H :    0.038359
  92 H :    0.050816
  93 H :    0.047407
  94 H :    0.034367
  95 H :    0.058827
  96 H :    0.013832
  97 H :   -0.000544
  98 H :    0.014377
  99 H :    0.044091
 100 H :    0.006988
 101 H :    0.010430
 102 H :    0.006633
 103 H :    0.003865
 104 H :    0.007436
Sum of atomic charges:   -0.0000000

LOEWDIN ATOMIC CHARGES
----------------------
   0 C :    0.013040
   1 C :    0.008195
   2 C :    0.012773
   3 C :    0.003842
   4 C :   -0.003607
   5 C :   -0.016192
   6 C :    0.082717
   7 C :   -0.116551
   8 C :   -0.013331
   9 N :   -0.035877
  10 C :   -0.008115
  11 N :   -0.058828
  12 C :    0.016905
  13 C :    0.063801
  14 C :   -0.087575
  15 C :   -0.015230
  16 N :   -0.040906
  17 C :   -0.016235
  18 N :   -0.027439
  19 C :    0.022212
  20 C :    0.058091
  21 N :   -0.073650
  22 C :    0.047675
  23 C :   -0.039841
  24 C :    0.073472
  25 O :   -0.137523
  26 C :   -0.036085
  27 C :    0.044367
  28 N :   -0.090367
  29 C :    0.092212
  30 C :   -0.021366
  31 C :   -0.019120
  32 C :   -0.026363
  33 C :   -0.002277
  34 C :   -0.145348
  35 S :    0.504867
  36 C :   -0.191799
  37 C :   -0.007497
  38 C :   -0.057533
  39 C :   -0.004089
  40 C :   -0.032901
  41 C :   -0.037706
  42 N :   -0.043223
  43 C :   -0.034488
  44 C :   -0.036525
  45 N :   -0.042462
  46 C :   -0.008234
  47 C :    0.059637
  48 N :   -0.103031
  49 C :    0.044043
  50 C :   -0.016855
  51 C :    0.079086
  52 O :   -0.142248
  53 C :   -0.040427
  54 C :    0.024496
  55 N :   -0.093366
  56 C :    0.078952
  57 C :   -0.029769
  58 C :   -0.034749
  59 C :    0.013962
  60 C :   -0.000830
  61 C :    0.060572
  62 C :   -0.047608
  63 C :    0.088964
  64 C :   -0.137568
  65 C :   -0.003836
  66 N :   -0.067671
  67 C :   -0.015173
  68 N :   -0.057719
  69 C :   -0.013999
  70 C :   -0.005313
  71 C :    0.002691
  72 C :    0.008135
  73 C :    0.001081
  74 C :    0.009337
  75 C :    0.067838
  76 C :   -0.109374
  77 C :   -0.013990
  78 N :   -0.039483
  79 C :   -0.017485
  80 N :   -0.046123
  81 H :    0.043665
  82 H :    0.041686
  83 H :    0.040373
  84 H :    0.043163
  85 H :    0.049810
  86 H :    0.028403
  87 H :    0.038989
  88 H :    0.022912
  89 H :    0.038558
  90 H :    0.049747
  91 H :    0.047796
  92 H :    0.059257
  93 H :    0.057933
  94 H :    0.052384
  95 H :    0.051577
  96 H :    0.025780
  97 H :    0.036658
  98 H :    0.016306
  99 H :    0.033637
 100 H :    0.042624
 101 H :    0.042355
 102 H :    0.038481
 103 H :    0.037649
 104 H :    0.042195

  Mayer bond orders larger than 0.100000
B(  0-C ,  1-C ) :   1.3805 B(  0-C ,  5-C ) :   1.3694 B(  0-C , 81-H ) :   0.9872
B(  1-C ,  2-C ) :   1.3707 B(  1-C , 82-H ) :   0.9860 B(  2-C ,  3-C ) :   1.3673
B(  2-C , 83-H ) :   0.9860 B(  3-C ,  4-C ) :   1.3861 B(  3-C , 84-H ) :   0.9871
B(  4-C ,  5-C ) :   1.2961 B(  4-C , 13-C ) :   1.0105 B(  5-C ,  6-C ) :   1.0164
B(  6-C ,  7-C ) :   1.6757 B(  6-C , 12-C ) :   1.0074 B(  7-C ,  8-C ) :   1.1639
B(  7-C , 10-C ) :   1.1286 B(  8-C ,  9-N ) :   2.9180 B( 10-C , 11-N ) :   2.9345
B( 12-C , 13-C ) :   0.9915 B( 12-C , 19-C ) :   1.7052 B( 13-C , 14-C ) :   1.7231
B( 14-C , 15-C ) :   1.1431 B( 14-C , 17-C ) :   1.1442 B( 15-C , 16-N ) :   2.9761
B( 17-C , 18-N ) :   2.9960 B( 19-C , 20-C ) :   1.0952 B( 19-C , 85-H ) :   0.9198
B( 20-C , 21-N ) :   1.5817 B( 20-C , 22-C ) :   0.1145 B( 20-C , 31-C ) :   1.0217
B( 21-N , 22-C ) :   1.2901 B( 22-C , 23-C ) :   1.0634 B( 22-C , 27-C ) :   1.4350
B( 23-C , 24-C ) :   0.9002 B( 23-C , 31-C ) :   1.5362 B( 24-C , 25-O ) :   2.1964
B( 24-C , 26-C ) :   0.9205 B( 26-C , 27-C ) :   1.0574 B( 26-C , 30-C ) :   1.6277
B( 27-C , 28-N ) :   1.3045 B( 28-N , 29-C ) :   1.6646 B( 29-C , 30-C ) :   1.0470
B( 29-C , 86-H ) :   0.9886 B( 30-C , 87-H ) :   1.0104 B( 31-C , 32-C ) :   1.1348
B( 32-C , 33-C ) :   1.6365 B( 32-C , 88-H ) :   0.9479 B( 33-C , 34-C ) :   1.1536
B( 33-C , 89-H ) :   0.9567 B( 34-C , 35-S ) :   1.1458 B( 34-C , 36-C ) :   0.1043
B( 34-C , 38-C ) :   1.4228 B( 35-S , 36-C ) :   1.1242 B( 36-C , 37-C ) :   1.4288
B( 36-C , 47-C ) :   1.1625 B( 37-C , 38-C ) :   1.3572 B( 37-C , 46-C ) :   1.0793
B( 38-C , 39-C ) :   1.0540 B( 39-C , 40-C ) :   1.0921 B( 39-C , 90-H ) :   0.9091
B( 39-C , 91-H ) :   0.8844 B( 40-C , 41-C ) :   1.0845 B( 40-C , 43-C ) :   1.0563
B( 40-C , 92-H ) :   0.8605 B( 41-C , 42-N ) :   3.1257 B( 43-C , 44-C ) :   1.0855
B( 43-C , 46-C ) :   1.0551 B( 43-C , 93-H ) :   0.8554 B( 44-C , 45-N ) :   3.1246
B( 46-C , 94-H ) :   0.8789 B( 46-C , 95-H ) :   0.8842 B( 47-C , 48-N ) :   1.5531
B( 47-C , 49-C ) :   0.1191 B( 47-C , 58-C ) :   1.0230 B( 48-N , 49-C ) :   1.3803
B( 49-C , 50-C ) :   1.0612 B( 49-C , 54-C ) :   1.3841 B( 50-C , 51-C ) :   0.8877
B( 50-C , 58-C ) :   1.5614 B( 51-C , 52-O ) :   2.1378 B( 51-C , 53-C ) :   0.9460
B( 52-O , 99-H ) :   0.1037 B( 53-C , 54-C ) :   1.0680 B( 53-C , 57-C ) :   1.5844
B( 54-C , 55-N ) :   1.3339 B( 55-N , 56-C ) :   1.6303 B( 56-C , 57-C ) :   1.0829
B( 56-C , 96-H ) :   0.9894 B( 57-C , 97-H ) :   1.0117 B( 58-C , 59-C ) :   1.0833
B( 59-C , 60-C ) :   1.6611 B( 59-C , 98-H ) :   0.9614 B( 60-C , 61-C ) :   1.1304
B( 60-C , 99-H ) :   0.9345 B( 61-C , 62-C ) :   1.5822 B( 61-C ,100-H ) :   0.9552
B( 62-C , 63-C ) :   1.0465 B( 62-C , 75-C ) :   1.0049 B( 63-C , 64-C ) :   1.6295
B( 63-C , 69-C ) :   1.0125 B( 64-C , 65-C ) :   1.1566 B( 64-C , 67-C ) :   1.1433
B( 65-C , 66-N ) :   2.9032 B( 67-C , 68-N ) :   2.9421 B( 69-C , 70-C ) :   1.3022
B( 69-C , 74-C ) :   1.3802 B( 70-C , 71-C ) :   1.3853 B( 70-C , 75-C ) :   1.0128
B( 71-C , 72-C ) :   1.3647 B( 71-C ,101-H ) :   0.9868 B( 72-C , 73-C ) :   1.3751
B( 72-C ,102-H ) :   0.9862 B( 73-C , 74-C ) :   1.3729 B( 73-C ,103-H ) :   0.9863
B( 74-C ,104-H ) :   0.9844 B( 75-C , 76-C ) :   1.6738 B( 76-C , 77-C ) :   1.1444
B( 76-C , 79-C ) :   1.1503 B( 77-C , 78-N ) :   2.9941 B( 79-C , 80-N ) :   2.9947

-----------------------------------------------------------------------------
         ABSORPTION SPECTRUM VIA TRANSITION ELECTRIC DIPOLE MOMENTS
-----------------------------------------------------------------------------
State   Energy  Wavelength   fosc         T2         TX        TY        TZ
        (cm-1)    (nm)                  (au**2)     (au)      (au)      (au)
-----------------------------------------------------------------------------
   0   13068.8    765.2   0.148380968   3.73781  -0.46066  -0.65603  -1.75933
   1   17369.4    575.7   0.168058531   3.18530   0.01316   0.94462   1.51421
   2   17911.7    558.3   0.828919342  15.23527   2.09705   1.89732   2.69032
   3   19306.6    518.0   0.109538106   1.86782  -0.08972   0.15862   1.35448
   4   20129.1    496.8   0.034169896   0.55885  -0.19436   0.36704  -0.62158
   5   20742.9    482.1   0.162828478   2.58426  -1.19450   0.46898   0.96824
   6   21152.8    472.8   0.206403625   3.21237  -0.61313  -0.09698   1.68138
   7   21611.8    462.7   0.000748744   0.01141   0.05142   0.00164   0.09359
   8   23307.3    429.1   0.373979618   5.28241  -2.03457  -0.81372  -0.69340
   9   23566.7    424.3   0.153181668   2.13985  -1.02290  -0.46914  -0.93457
  10   24428.1    409.4   0.018346837   0.24726  -0.15845   0.09362   0.46194
  11   24557.3    407.2   0.097708935   1.30987  -0.54617  -0.77908  -0.63608
  12   24605.2    406.4   0.158259339   2.11747   0.42515   0.86791   1.08787
  13   24922.9    401.2   0.194310272   2.56669  -0.25568  -0.02415   1.58137
  14   25204.6    396.8   0.048853676   0.63811   0.37893   0.02254  -0.70286
  15   25446.1    393.0   0.002095999   0.02712  -0.06845   0.07340   0.13055
  16   25667.0    389.6   0.251880712   3.23069   1.52550   0.46042  -0.83160
  17   26146.0    382.5   0.187704522   2.36345   0.72885   0.34759   1.30820
  18   26463.9    377.9   0.049134237   0.61123  -0.76518  -0.11429   0.11259
  19   26592.5    376.0   0.045210108   0.55970  -0.37508  -0.33059  -0.55653
  20   26978.4    370.7   0.007023313   0.08570   0.28289   0.01416   0.07400
  21   27253.4    366.9   0.148006232   1.78787   0.70247   0.73069  -0.87206
  22   27618.4    362.1   0.122812688   1.46393  -0.20195   0.43540   1.11066
  23   27855.5    359.0   0.010921818   0.12908   0.16396   0.08490  -0.30820
  24   28271.5    353.7   0.050933019   0.59310   0.56863   0.14654  -0.49828
  25   28455.7    351.4   0.019342793   0.22378   0.27831  -0.32133   0.20753
  26   28882.8    346.2   0.108004340   1.23105   0.03451   0.16469   1.09669
  27   29153.9    343.0   0.043056570   0.48620  -0.64578  -0.23323   0.12158
  28   29361.3    340.6   0.012276840   0.13765   0.23203  -0.00659  -0.28943
  29   29447.0    339.6   0.017250949   0.19286  -0.21411  -0.34979  -0.15704
  30   29661.9    337.1   0.061379944   0.68124  -0.29862  -0.61113  -0.46754
  31   29823.8    335.3   0.341298752   3.76745   0.01347  -1.01771  -1.65274
  32   30051.7    332.8   0.009912293   0.10859   0.20947   0.00918  -0.25421
  33   30243.9    330.6   0.006044034   0.06579   0.24909   0.05127   0.03343
  34   30617.4    326.6   0.284187693   3.05571   0.65260   1.12751   1.16557
  35   31147.4    321.1   0.021852185   0.23097   0.23848   0.04667  -0.41463
  36   31409.6    318.4   0.094775196   0.99336   0.00584  -0.42314  -0.90237
  37   31849.0    314.0   0.044641991   0.46145   0.50335   0.43607  -0.13393
  38   32177.2    310.8   0.006877263   0.07036   0.18701   0.17188  -0.07646
  39   32695.6    305.9   0.034106105   0.34341   0.08827  -0.07195   0.57484
  40   32789.5    305.0   0.495672166   4.97662  -1.24391  -1.47577  -1.11866
  41   33127.2    301.9   0.007202565   0.07158   0.13299   0.16771   0.16052
  42   33287.5    300.4   0.131273917   1.29829  -0.65179   0.10227   0.92898
  43   33594.8    297.7   0.033050318   0.32388  -0.43453  -0.36644  -0.02786
  44   33729.7    296.5   0.011945208   0.11659   0.22094   0.18850  -0.17956
  45   34069.7    293.5   0.002869683   0.02773  -0.00521   0.10894   0.12583
  46   34539.2    289.5   0.049907722   0.47570   0.40623   0.17902  -0.52785
  47   34660.4    288.5   0.018034904   0.17130  -0.12130  -0.10122   0.38254
  48   34817.9    287.2   0.081312366   0.76883  -0.70565  -0.36616   0.36988
  49   35016.9    285.6   0.068619069   0.64512   0.12534  -0.52570  -0.59418
  50   35288.7    283.4   0.316661767   2.95417  -1.23484  -0.25774   1.16744
  51   35389.1    282.6   0.188021800   1.74910  -1.08398  -0.74391  -0.14381
  52   35500.8    281.7   0.066813047   0.61958  -0.41108  -0.21631   0.63546
  53   35925.0    278.4   0.283437620   2.59739   1.19989   1.04374   0.26125
  54   35995.0    277.8   0.008167511   0.07470  -0.02463   0.01995  -0.27147
  55   36152.6    276.6   0.018028923   0.16417   0.23344   0.26169   0.20297
  56   36416.9    274.6   0.034429002   0.31124   0.00945   0.25576   0.49572
  57   36639.4    272.9   0.020770436   0.18663  -0.02186   0.12551  -0.41279
  58   36784.7    271.9   0.036191404   0.32390  -0.25391  -0.07309   0.50407
  59   36870.3    271.2   0.009390724   0.08385   0.06087   0.14951   0.24040
  60   36986.6    270.4   0.033239695   0.29586  -0.23077  -0.34791  -0.34866
  61   37193.0    268.9   0.004296249   0.03803  -0.11834  -0.06212  -0.14200
  62   37375.0    267.6   0.212275996   1.86980   1.27450   0.23534  -0.43597
  63   37529.1    266.5   0.008522844   0.07476   0.23944  -0.02641  -0.12936
  64   37580.9    266.1   0.001446592   0.01267  -0.05806  -0.09253   0.02718
  65   37694.7    265.3   0.098606989   0.86120  -0.03590  -0.41543  -0.82905
  66   37850.4    264.2   0.129332560   1.12490  -0.52928   0.21948   0.89252
  67   37879.9    264.0   0.046253913   0.40199   0.13637  -0.25832  -0.56273
  68   37951.2    263.5   0.054504612   0.47281   0.30987  -0.14638  -0.59612
  69   38090.5    262.5   0.081716911   0.70627  -0.60345  -0.52211  -0.26366
  70   38334.1    260.9   0.031877723   0.27376  -0.34187  -0.27427  -0.28577
  71   38558.7    259.3   0.025565902   0.21828  -0.11853  -0.25420  -0.37365
  72   38812.1    257.7   0.073892092   0.62677   0.03868   0.45275   0.64830
  73   38913.3    257.0   0.002729658   0.02309   0.00456  -0.11643  -0.09755
  74   39105.4    255.7   0.064230998   0.54073  -0.25838   0.39224   0.56579
  75   39422.1    253.7   0.040797605   0.34070  -0.32060  -0.05372   0.48480
  76   39517.9    253.0   0.018707922   0.15585  -0.21701  -0.32902   0.02246
  77   39663.0    252.1   0.016693203   0.13856  -0.27273   0.04215   0.24980
  78   39772.7    251.4   0.016346385   0.13530   0.20410  -0.20069  -0.23102
  79   39864.3    250.9   0.010192056   0.08417  -0.27159   0.08918   0.04955
  80   39980.5    250.1   0.001317727   0.01085   0.03073  -0.02179  -0.09711
  81   40110.7    249.3   0.019762198   0.16220   0.16512  -0.18012  -0.32015
  82   40244.7    248.5   0.003826046   0.03130   0.03854   0.09541   0.14391
  83   40306.3    248.1   0.019527645   0.15950   0.36219   0.06861  -0.15365

FINAL SINGLE POINT ENERGY     -3763.633401124256

DIPOLE MOMENT
-------------
                                X             Y             Z
Electronic contribution:     -4.54529      -5.20399      -3.08736
Nuclear contribution   :      0.96830       3.54494       4.28708
                        -----------------------------------------
Total Dipole Moment    :     -3.57699      -1.65905       1.19972
                        -----------------------------------------
Magnitude (a.u.)       :      4.12149
Magnitude (Debye)      :     10.47598

Rotational constants in cm-1:     0.000822     0.000664     0.000387
Rotational constants in MHz :    24.657720    19.910692    11.598255

                             ****ORCA TERMINATED NORMALLY****
TOTAL RUN TIME: 0 days 0 hours 13 minutes 25 seconds 608 msec
