                         Program Version 4.2.0 -  RELEASE  -
|  1> # ORCA input file
|  2> # SCF done       -196.462229847399          0.000544492249
|  3> ! CAM-B3LYP def2-SVP def2/J RIJCOSX Grid4 TightSCF
|  4> %maxcore 5000
|  5> %tddft
|  6>     Mode sTDDFT
|  7>     Ethresh 5.0
|  8>     maxcore 5000
|  9> end
| 10>
| 11> %pal
| 12>   nprocs 6
| 13>   end
| 14> * xyz 0 1
| 15>    C       -1.15869         5.52200        -2.66725
| 16>    C        0.10767         5.10533        -2.37170
| 17>    C        1.19624         5.22307        -3.26218
| 18>    N        2.10677         5.29842        -3.95585
| 19>    C        0.44611         4.40737        -1.19257
| 20>    N        0.75082         3.76552        -0.29110
| 21>    C       -1.62839         5.98790        -3.96476
| 22>    C       -3.04831         5.84465        -4.01806
| 23>    C       -3.75769         6.15708        -5.14357
| 24>    C       -3.07119         6.64006        -6.27932
| 25>    C       -1.65573         6.80498        -6.22439
| 26>    C       -0.94587         6.47215        -5.04863
| 27>    C       -0.98428         7.29348        -7.36376
| 28>    C       -1.67423         7.59965        -8.50497
| 29>    C       -3.06674         7.43457        -8.55920
| 30>    C       -3.75032         6.96578        -7.47042
| 31>    C       -3.54043         5.34277        -2.72673
| 32>    O       -4.66418         5.03416        -2.40947
| 33>    C       -2.33714         5.34282        -1.83369
| 34>    C       -2.47678         5.31924        -0.49161
| 35>    C       -1.45649         5.63856         0.46106
| 36>    N       -0.54583         6.56031         0.21628
| 37>    C        0.25659         6.58185         1.30802
| 38>    C       -0.17094         5.59490         2.30069
| 39>    C        0.73988         5.60014         3.45248
| 40>    O        0.70996         4.90507         4.44722
| 41>    C        1.71282         6.65190         3.09322
| 42>    C        1.37694         7.22476         1.77205
| 43>    N        2.26786         8.18740         1.42654
| 44>    C        3.11301         8.24470         2.42481
| 45>    C        2.82593         7.31043         3.50010
| 46>    C       -1.29418         4.99042         1.78049
| 47>    C       -2.10629         3.94148         2.27911
| 48>    C       -1.78260         3.25382         3.40477
| 49>    C       -2.51912         2.17513         3.94725
| 50>    N       -1.98723         1.41945         4.96918
| 51>    C       -2.86534         0.43466         5.28358
| 52>    C       -3.06453        -0.67459         6.08655
| 53>    C       -4.34055        -1.17400         5.75412
| 54>    N       -4.89928        -0.37451         4.77392
| 55>    C       -4.01385         0.59869         4.45039
| 56>    C       -3.79088         1.67928         3.61041
| 57>    C       -5.02696        -2.29391         6.25407
| 58>    C       -4.49249        -3.24982         7.07107
| 59>    C       -5.24850        -4.35988         7.49452
| 60>    N       -6.55832        -4.46385         7.25431
| 61>    C       -6.93782        -5.63690         7.77275
| 62>    C       -5.80053        -6.36208         8.36475
| 63>    C       -6.25073        -7.63552         8.96410
| 64>    O       -5.59645        -8.45290         9.57191
| 65>    C       -7.69050        -7.63612         8.66122
| 66>    C       -8.07091        -6.40624         7.94059
| 67>    N       -9.39425        -6.39972         7.66719
| 68>    C       -9.85158        -7.52899         8.16532
| 69>    C       -8.84450        -8.34505         8.79811
| 70>    C       -4.70783        -5.55249         8.19443
| 71>    C       -3.33933        -5.76639         8.51992
| 72>    C       -2.79828        -6.99260         8.72952
| 73>    C       -1.41308        -7.14156         8.99127
| 74>    C       -0.73279        -8.32224         8.96186
| 75>    C        0.67068        -8.52837         9.27204
| 76>    C        1.61127        -7.55995         9.51461
| 77>    C        2.96547        -7.82655         9.80663
| 78>    N        4.07832        -7.96950        10.05089
| 79>    C        1.38558        -6.16870         9.47674
| 80>    N        1.29025        -5.02407         9.44673
| 81>    C        0.92549        -9.96427         9.23968
| 82>    C       -0.26781       -10.63132         8.84082
| 83>    C       -1.33190        -9.63819         8.60445
| 84>    O       -2.43858        -9.85318         8.16407
| 85>    C       -0.32621       -11.98764         8.70382
| 86>    C        0.82876       -12.75723         8.96802
| 87>    C        2.02602       -12.09909         9.37231
| 88>    C        2.05606       -10.69217         9.50507
| 89>    C        3.17388       -12.87650         9.62983
| 90>    C        3.14274       -14.23747         9.49340
| 91>    C        1.96307       -14.88423         9.09532
| 92>    C        0.83066       -14.15988         8.83893
| 93>    H       -4.83047         6.03528        -5.16751
| 94>    H        0.12310         6.61560        -5.02769
| 95>    H        0.08771         7.41581        -7.31796
| 96>    H       -1.15071         7.97036        -9.37328
| 97>    H       -3.59468         7.68096        -9.46810
| 98>    H       -4.82209         6.83694        -7.50661
| 99>    H       -3.46455         5.08778        -0.10777
|100>    H        3.93409         8.94002         2.40281
|101>    H        3.39853         7.20250         4.39999
|102>    H       -2.98588         3.67478         1.71114
|103>    H       -0.87333         3.52216         3.92789
|104>    H       -1.07744         1.57682         5.37001
|105>    H       -2.40706        -1.08176         6.82701
|106>    H       -5.79909        -0.53935         4.35549
|107>    H       -4.44288         2.08083         2.86200
|108>    H       -6.05327        -2.43842         5.94249
|109>    H       -3.45937        -3.18703         7.37648
|110>    H      -10.89632        -7.77329         8.07981
|111>    H       -9.01066        -9.29684         9.26243
|112>    H       -2.69211        -4.89719         8.53715
|113>    H       -3.41143        -7.88008         8.66568
|114>    H       -0.87086        -6.23424         9.22901
|115>    H       -1.24402       -12.46695         8.39719
|116>    H        2.97770       -10.22541         9.81453
|117>    H        4.08000       -12.37400         9.93525
|118>    H        4.02755       -14.82387         9.69126
|119>    H        1.95637       -15.95913         8.99264
|120>    H       -0.08072       -14.65182         8.53192
|121> *
|122>
|123>                          ****END OF INPUT****

CARTESIAN COORDINATES (ANGSTROEM)
---------------------------------
  C     -1.158690    5.522000   -2.667250
  C      0.107670    5.105330   -2.371700
  C      1.196240    5.223070   -3.262180
  N      2.106770    5.298420   -3.955850
  C      0.446110    4.407370   -1.192570
  N      0.750820    3.765520   -0.291100
  C     -1.628390    5.987900   -3.964760
  C     -3.048310    5.844650   -4.018060
  C     -3.757690    6.157080   -5.143570
  C     -3.071190    6.640060   -6.279320
  C     -1.655730    6.804980   -6.224390
  C     -0.945870    6.472150   -5.048630
  C     -0.984280    7.293480   -7.363760
  C     -1.674230    7.599650   -8.504970
  C     -3.066740    7.434570   -8.559200
  C     -3.750320    6.965780   -7.470420
  C     -3.540430    5.342770   -2.726730
  O     -4.664180    5.034160   -2.409470
  C     -2.337140    5.342820   -1.833690
  C     -2.476780    5.319240   -0.491610
  C     -1.456490    5.638560    0.461060
  N     -0.545830    6.560310    0.216280
  C      0.256590    6.581850    1.308020
  C     -0.170940    5.594900    2.300690
  C      0.739880    5.600140    3.452480
  O      0.709960    4.905070    4.447220
  C      1.712820    6.651900    3.093220
  C      1.376940    7.224760    1.772050
  N      2.267860    8.187400    1.426540
  C      3.113010    8.244700    2.424810
  C      2.825930    7.310430    3.500100
  C     -1.294180    4.990420    1.780490
  C     -2.106290    3.941480    2.279110
  C     -1.782600    3.253820    3.404770
  C     -2.519120    2.175130    3.947250
  N     -1.987230    1.419450    4.969180
  C     -2.865340    0.434660    5.283580
  C     -3.064530   -0.674590    6.086550
  C     -4.340550   -1.174000    5.754120
  N     -4.899280   -0.374510    4.773920
  C     -4.013850    0.598690    4.450390
  C     -3.790880    1.679280    3.610410
  C     -5.026960   -2.293910    6.254070
  C     -4.492490   -3.249820    7.071070
  C     -5.248500   -4.359880    7.494520
  N     -6.558320   -4.463850    7.254310
  C     -6.937820   -5.636900    7.772750
  C     -5.800530   -6.362080    8.364750
  C     -6.250730   -7.635520    8.964100
  O     -5.596450   -8.452900    9.571910
  C     -7.690500   -7.636120    8.661220
  C     -8.070910   -6.406240    7.940590
  N     -9.394250   -6.399720    7.667190
  C     -9.851580   -7.528990    8.165320
  C     -8.844500   -8.345050    8.798110
  C     -4.707830   -5.552490    8.194430
  C     -3.339330   -5.766390    8.519920
  C     -2.798280   -6.992600    8.729520
  C     -1.413080   -7.141560    8.991270
  C     -0.732790   -8.322240    8.961860
  C      0.670680   -8.528370    9.272040
  C      1.611270   -7.559950    9.514610
  C      2.965470   -7.826550    9.806630
  N      4.078320   -7.969500   10.050890
  C      1.385580   -6.168700    9.476740
  N      1.290250   -5.024070    9.446730
  C      0.925490   -9.964270    9.239680
  C     -0.267810  -10.631320    8.840820
  C     -1.331900   -9.638190    8.604450
  O     -2.438580   -9.853180    8.164070
  C     -0.326210  -11.987640    8.703820
  C      0.828760  -12.757230    8.968020
  C      2.026020  -12.099090    9.372310
  C      2.056060  -10.692170    9.505070
  C      3.173880  -12.876500    9.629830
  C      3.142740  -14.237470    9.493400
  C      1.963070  -14.884230    9.095320
  C      0.830660  -14.159880    8.838930
  H     -4.830470    6.035280   -5.167510
  H      0.123100    6.615600   -5.027690
  H      0.087710    7.415810   -7.317960
  H     -1.150710    7.970360   -9.373280
  H     -3.594680    7.680960   -9.468100
  H     -4.822090    6.836940   -7.506610
  H     -3.464550    5.087780   -0.107770
  H      3.934090    8.940020    2.402810
  H      3.398530    7.202500    4.399990
  H     -2.985880    3.674780    1.711140
  H     -0.873330    3.522160    3.927890
  H     -1.077440    1.576820    5.370010
  H     -2.407060   -1.081760    6.827010
  H     -5.799090   -0.539350    4.355490
  H     -4.442880    2.080830    2.862000
  H     -6.053270   -2.438420    5.942490
  H     -3.459370   -3.187030    7.376480
  H    -10.896320   -7.773290    8.079810
  H     -9.010660   -9.296840    9.262430
  H     -2.692110   -4.897190    8.537150
  H     -3.411430   -7.880080    8.665680
  H     -0.870860   -6.234240    9.229010
  H     -1.244020  -12.466950    8.397190
  H      2.977700  -10.225410    9.814530
  H      4.080000  -12.374000    9.935250
  H      4.027550  -14.823870    9.691260
  H      1.956370  -15.959130    8.992640
  H     -0.080720  -14.651820    8.531920

 Total Charge           Charge          ....    0
 Multiplicity           Mult            ....    1
 Number of Electrons    NEL             ....  514
 Basis Dimension        Dim             .... 1232

ORBITAL ENERGIES
----------------

  NO   OCC          E(Eh)            E(eV)
   0   2.0000     -19.231233      -523.3084
   1   2.0000     -19.217573      -522.9367
   2   2.0000     -19.207100      -522.6518
   3   2.0000     -19.196952      -522.3756
   4   2.0000     -14.475074      -393.8868
   5   2.0000     -14.472871      -393.8269
   6   2.0000     -14.424183      -392.5020
   7   2.0000     -14.423937      -392.4953
   8   2.0000     -14.423119      -392.4730
   9   2.0000     -14.412546      -392.1853
  10   2.0000     -14.411371      -392.1534
  11   2.0000     -14.409389      -392.0994
  12   2.0000     -14.392364      -391.6361
  13   2.0000     -14.388167      -391.5219
  14   2.0000     -10.381150      -282.4854
  15   2.0000     -10.376685      -282.3639
  16   2.0000     -10.357950      -281.8542
  17   2.0000     -10.357744      -281.8485
  18   2.0000     -10.355372      -281.7840
  19   2.0000     -10.353302      -281.7277
  20   2.0000     -10.349484      -281.6238
  21   2.0000     -10.337450      -281.2963
  22   2.0000     -10.336205      -281.2624
  23   2.0000     -10.335108      -281.2326
  24   2.0000     -10.331375      -281.1310
  25   2.0000     -10.331026      -281.1215
  26   2.0000     -10.330221      -281.0996
  27   2.0000     -10.327243      -281.0186
  28   2.0000     -10.325839      -280.9804
  29   2.0000     -10.325454      -280.9699
  30   2.0000     -10.325349      -280.9670
  31   2.0000     -10.323203      -280.9086
  32   2.0000     -10.322678      -280.8944
  33   2.0000     -10.319804      -280.8162
  34   2.0000     -10.316406      -280.7237
  35   2.0000     -10.315843      -280.7084
  36   2.0000     -10.313371      -280.6411
  37   2.0000     -10.313193      -280.6362
  38   2.0000     -10.312511      -280.6177
  39   2.0000     -10.310242      -280.5559
  40   2.0000     -10.307461      -280.4803
  41   2.0000     -10.306940      -280.4661
  42   2.0000     -10.306822      -280.4629
  43   2.0000     -10.306407      -280.4516
  44   2.0000     -10.305997      -280.4404
  45   2.0000     -10.305165      -280.4178
  46   2.0000     -10.304907      -280.4108
  47   2.0000     -10.303965      -280.3852
  48   2.0000     -10.300385      -280.2877
  49   2.0000     -10.298774      -280.2439
  50   2.0000     -10.296683      -280.1870
  51   2.0000     -10.296509      -280.1823
  52   2.0000     -10.296038      -280.1694
  53   2.0000     -10.294840      -280.1368
  54   2.0000     -10.293892      -280.1110
  55   2.0000     -10.293472      -280.0996
  56   2.0000     -10.293393      -280.0975
  57   2.0000     -10.293106      -280.0897
  58   2.0000     -10.292481      -280.0727
  59   2.0000     -10.292354      -280.0692
  60   2.0000     -10.291948      -280.0581
  61   2.0000     -10.291696      -280.0513
  62   2.0000     -10.291510      -280.0462
  63   2.0000     -10.290936      -280.0306
  64   2.0000     -10.289530      -279.9924
  65   2.0000     -10.289381      -279.9883
  66   2.0000     -10.287217      -279.9294
  67   2.0000     -10.285903      -279.8936
  68   2.0000     -10.282968      -279.8138
  69   2.0000     -10.281550      -279.7752
  70   2.0000     -10.281256      -279.7672
  71   2.0000     -10.280933      -279.7584
  72   2.0000     -10.280834      -279.7557
  73   2.0000     -10.280665      -279.7511
  74   2.0000     -10.280276      -279.7405
  75   2.0000     -10.278699      -279.6976
  76   2.0000     -10.271129      -279.4916
  77   2.0000     -10.270555      -279.4760
  78   2.0000      -1.145937       -31.1825
  79   2.0000      -1.131177       -30.7809
  80   2.0000      -1.122326       -30.5400
  81   2.0000      -1.112055       -30.2605
  82   2.0000      -1.107764       -30.1438
  83   2.0000      -1.087431       -29.5905
  84   2.0000      -1.070904       -29.1408
  85   2.0000      -1.066781       -29.0286
  86   2.0000      -1.063467       -28.9384
  87   2.0000      -1.041796       -28.3487
  88   2.0000      -1.026905       -27.9435
  89   2.0000      -1.012914       -27.5628
  90   2.0000      -1.007880       -27.4258
  91   2.0000      -1.002053       -27.2672
  92   2.0000      -0.992915       -27.0186
  93   2.0000      -0.988944       -26.9105
  94   2.0000      -0.981150       -26.6985
  95   2.0000      -0.965605       -26.2755
  96   2.0000      -0.945724       -25.7345
  97   2.0000      -0.931980       -25.3605
  98   2.0000      -0.928883       -25.2762
  99   2.0000      -0.927399       -25.2358
 100   2.0000      -0.926867       -25.2213
 101   2.0000      -0.915171       -24.9031
 102   2.0000      -0.912148       -24.8208
 103   2.0000      -0.906783       -24.6748
 104   2.0000      -0.891336       -24.2545
 105   2.0000      -0.890206       -24.2237
 106   2.0000      -0.887936       -24.1620
 107   2.0000      -0.882238       -24.0069
 108   2.0000      -0.879448       -23.9310
 109   2.0000      -0.875362       -23.8198
 110   2.0000      -0.867253       -23.5991
 111   2.0000      -0.862061       -23.4579
 112   2.0000      -0.855273       -23.2732
 113   2.0000      -0.840574       -22.8732
 114   2.0000      -0.836889       -22.7729
 115   2.0000      -0.825735       -22.4694
 116   2.0000      -0.822313       -22.3763
 117   2.0000      -0.818419       -22.2703
 118   2.0000      -0.809819       -22.0363
 119   2.0000      -0.783984       -21.3333
 120   2.0000      -0.782209       -21.2850
 121   2.0000      -0.774010       -21.0619
 122   2.0000      -0.762701       -20.7542
 123   2.0000      -0.755280       -20.5522
 124   2.0000      -0.754066       -20.5192
 125   2.0000      -0.744549       -20.2602
 126   2.0000      -0.730783       -19.8856
 127   2.0000      -0.728165       -19.8144
 128   2.0000      -0.715084       -19.4584
 129   2.0000      -0.712209       -19.3802
 130   2.0000      -0.710448       -19.3323
 131   2.0000      -0.708822       -19.2880
 132   2.0000      -0.701113       -19.0783
 133   2.0000      -0.697824       -18.9888
 134   2.0000      -0.696600       -18.9554
 135   2.0000      -0.689805       -18.7705
 136   2.0000      -0.685802       -18.6616
 137   2.0000      -0.679684       -18.4951
 138   2.0000      -0.675865       -18.3912
 139   2.0000      -0.668963       -18.2034
 140   2.0000      -0.661875       -18.0105
 141   2.0000      -0.655791       -17.8450
 142   2.0000      -0.645760       -17.5720
 143   2.0000      -0.641863       -17.4660
 144   2.0000      -0.640406       -17.4263
 145   2.0000      -0.636467       -17.3192
 146   2.0000      -0.632558       -17.2128
 147   2.0000      -0.622993       -16.9525
 148   2.0000      -0.619872       -16.8676
 149   2.0000      -0.617892       -16.8137
 150   2.0000      -0.616048       -16.7635
 151   2.0000      -0.609406       -16.5828
 152   2.0000      -0.605622       -16.4798
 153   2.0000      -0.604071       -16.4376
 154   2.0000      -0.601015       -16.3545
 155   2.0000      -0.589539       -16.0422
 156   2.0000      -0.584138       -15.8952
 157   2.0000      -0.581069       -15.8117
 158   2.0000      -0.580521       -15.7968
 159   2.0000      -0.570073       -15.5125
 160   2.0000      -0.566234       -15.4080
 161   2.0000      -0.561713       -15.2850
 162   2.0000      -0.558285       -15.1917
 163   2.0000      -0.555751       -15.1228
 164   2.0000      -0.553643       -15.0654
 165   2.0000      -0.552026       -15.0214
 166   2.0000      -0.548801       -14.9336
 167   2.0000      -0.547745       -14.9049
 168   2.0000      -0.546362       -14.8673
 169   2.0000      -0.543326       -14.7847
 170   2.0000      -0.540541       -14.7089
 171   2.0000      -0.539011       -14.6672
 172   2.0000      -0.533908       -14.5284
 173   2.0000      -0.533255       -14.5106
 174   2.0000      -0.531887       -14.4734
 175   2.0000      -0.530866       -14.4456
 176   2.0000      -0.529766       -14.4157
 177   2.0000      -0.528378       -14.3779
 178   2.0000      -0.528046       -14.3689
 179   2.0000      -0.522236       -14.2108
 180   2.0000      -0.520099       -14.1526
 181   2.0000      -0.518451       -14.1078
 182   2.0000      -0.515056       -14.0154
 183   2.0000      -0.512189       -13.9374
 184   2.0000      -0.510128       -13.8813
 185   2.0000      -0.509169       -13.8552
 186   2.0000      -0.506859       -13.7923
 187   2.0000      -0.504096       -13.7171
 188   2.0000      -0.503333       -13.6964
 189   2.0000      -0.500263       -13.6128
 190   2.0000      -0.496165       -13.5013
 191   2.0000      -0.495620       -13.4865
 192   2.0000      -0.492553       -13.4030
 193   2.0000      -0.491261       -13.3679
 194   2.0000      -0.489264       -13.3136
 195   2.0000      -0.485426       -13.2091
 196   2.0000      -0.481258       -13.0957
 197   2.0000      -0.480598       -13.0777
 198   2.0000      -0.480479       -13.0745
 199   2.0000      -0.477921       -13.0049
 200   2.0000      -0.476244       -12.9593
 201   2.0000      -0.474555       -12.9133
 202   2.0000      -0.468628       -12.7520
 203   2.0000      -0.466474       -12.6934
 204   2.0000      -0.464467       -12.6388
 205   2.0000      -0.460525       -12.5315
 206   2.0000      -0.459253       -12.4969
 207   2.0000      -0.457954       -12.4616
 208   2.0000      -0.457837       -12.4584
 209   2.0000      -0.452935       -12.3250
 210   2.0000      -0.452332       -12.3086
 211   2.0000      -0.447625       -12.1805
 212   2.0000      -0.447127       -12.1669
 213   2.0000      -0.445029       -12.1098
 214   2.0000      -0.443604       -12.0711
 215   2.0000      -0.441695       -12.0191
 216   2.0000      -0.439884       -11.9699
 217   2.0000      -0.439306       -11.9541
 218   2.0000      -0.434864       -11.8333
 219   2.0000      -0.434191       -11.8149
 220   2.0000      -0.428761       -11.6672
 221   2.0000      -0.426980       -11.6187
 222   2.0000      -0.426382       -11.6024
 223   2.0000      -0.424576       -11.5533
 224   2.0000      -0.419866       -11.4251
 225   2.0000      -0.419582       -11.4174
 226   2.0000      -0.414102       -11.2683
 227   2.0000      -0.413145       -11.2422
 228   2.0000      -0.407442       -11.0870
 229   2.0000      -0.401520       -10.9259
 230   2.0000      -0.401148       -10.9158
 231   2.0000      -0.386965       -10.5299
 232   2.0000      -0.386280       -10.5112
 233   2.0000      -0.373768       -10.1707
 234   2.0000      -0.369922       -10.0661
 235   2.0000      -0.367743       -10.0068
 236   2.0000      -0.365718        -9.9517
 237   2.0000      -0.359705        -9.7881
 238   2.0000      -0.348883        -9.4936
 239   2.0000      -0.347416        -9.4537
 240   2.0000      -0.342864        -9.3298
 241   2.0000      -0.341219        -9.2850
 242   2.0000      -0.337899        -9.1947
 243   2.0000      -0.336280        -9.1507
 244   2.0000      -0.329713        -8.9719
 245   2.0000      -0.325893        -8.8680
 246   2.0000      -0.325520        -8.8578
 247   2.0000      -0.318699        -8.6722
 248   2.0000      -0.316099        -8.6015
 249   2.0000      -0.315411        -8.5828
 250   2.0000      -0.310998        -8.4627
 251   2.0000      -0.305944        -8.3252
 252   2.0000      -0.300807        -8.1854
 253   2.0000      -0.293600        -7.9893
 254   2.0000      -0.289928        -7.8894
 255   2.0000      -0.274871        -7.4796
 256   2.0000      -0.236138        -6.4256
 257   0.0000      -0.129679        -3.5287
 258   0.0000      -0.111296        -3.0285
 259   0.0000      -0.090576        -2.4647
 260   0.0000      -0.082425        -2.2429
 261   0.0000      -0.063470        -1.7271

MULLIKEN ATOMIC CHARGES
-----------------------
   0 C :    0.281629
   1 C :   -0.288927
   2 C :   -0.183164
   3 N :    0.162475
   4 C :   -0.182957
   5 N :    0.165498
   6 C :    0.040840
   7 C :    0.007990
   8 C :   -0.077187
   9 C :    0.097006
  10 C :    0.096129
  11 C :   -0.078154
  12 C :   -0.018531
  13 C :    0.039009
  14 C :    0.038048
  15 C :   -0.016641
  16 C :    0.133338
  17 O :   -0.129845
  18 C :   -0.075373
  19 C :    0.000231
  20 C :   -0.028827
  21 N :   -0.032847
  22 C :    0.074512
  23 C :   -0.151221
  24 C :    0.226495
  25 O :   -0.151349
  26 C :   -0.008721
  27 C :   -0.026429
  28 N :   -0.050597
  29 C :    0.091447
  30 C :   -0.094261
  31 C :    0.106922
  32 C :   -0.051952
  33 C :    0.034639
  34 C :    0.107644
  35 N :   -0.027038
  36 C :    0.125263
  37 C :   -0.147320
  38 C :    0.105481
  39 N :   -0.028552
  40 C :    0.128131
  41 C :   -0.167874
  42 C :    0.054972
  43 C :   -0.080134
  44 C :    0.060355
  45 N :   -0.060112
  46 C :    0.064201
  47 C :   -0.146164
  48 C :    0.204790
  49 O :   -0.130166
  50 C :   -0.026966
  51 C :   -0.043582
  52 N :   -0.063144
  53 C :    0.081762
  54 C :   -0.095653
  55 C :    0.051952
  56 C :   -0.029269
  57 C :    0.031285
  58 C :   -0.049129
  59 C :   -0.061451
  60 C :    0.330331
  61 C :   -0.351531
  62 C :   -0.180680
  63 N :    0.146827
  64 C :   -0.191544
  65 N :    0.138516
  66 C :    0.046577
  67 C :   -0.002502
  68 C :    0.143880
  69 O :   -0.133239
  70 C :   -0.081475
  71 C :    0.099410
  72 C :    0.096380
  73 C :   -0.086147
  74 C :   -0.018784
  75 C :    0.036785
  76 C :    0.033074
  77 C :   -0.015243
  78 H :   -0.007809
  79 H :    0.000616
  80 H :   -0.006280
  81 H :   -0.001565
  82 H :   -0.002568
  83 H :   -0.014239
  84 H :    0.033745
  85 H :    0.014704
  86 H :   -0.001975
  87 H :   -0.026872
  88 H :   -0.008120
  89 H :    0.138890
  90 H :   -0.014165
  91 H :    0.130198
  92 H :   -0.025485
  93 H :    0.009790
  94 H :   -0.019270
  95 H :   -0.000328
  96 H :   -0.014371
  97 H :   -0.002531
  98 H :    0.048426
  99 H :    0.011485
 100 H :   -0.012055
 101 H :   -0.009015
 102 H :   -0.010528
 103 H :   -0.006533
 104 H :   -0.005019
 105 H :   -0.018269
Sum of atomic charges:   -0.0000000

LOEWDIN ATOMIC CHARGES
----------------------
   0 C :    0.071535
   1 C :   -0.105509
   2 C :   -0.015630
   3 N :   -0.039173
   4 C :   -0.014955
   5 N :   -0.043897
   6 C :   -0.020015
   7 C :   -0.060717
   8 C :    0.037506
   9 C :   -0.008392
  10 C :   -0.002322
  11 C :    0.020113
  12 C :   -0.004923
  13 C :   -0.008723
  14 C :   -0.010328
  15 C :   -0.007749
  16 C :    0.085125
  17 O :   -0.130131
  18 C :   -0.026757
  19 C :    0.036501
  20 C :    0.056904
  21 N :   -0.086239
  22 C :    0.047491
  23 C :   -0.055622
  24 C :    0.074648
  25 O :   -0.147553
  26 C :   -0.035832
  27 C :    0.032291
  28 N :   -0.093926
  29 C :    0.080091
  30 C :   -0.027880
  31 C :   -0.013449
  32 C :   -0.035629
  33 C :    0.011468
  34 C :    0.015983
  35 N :    0.079651
  36 C :   -0.011827
  37 C :   -0.058531
  38 C :   -0.009018
  39 N :    0.077258
  40 C :    0.000941
  41 C :   -0.087427
  42 C :    0.049604
  43 C :   -0.067787
  44 C :    0.068988
  45 N :   -0.127955
  46 C :    0.043443
  47 C :   -0.020293
  48 C :    0.062601
  49 O :   -0.137256
  50 C :   -0.047103
  51 C :    0.006699
  52 N :   -0.104035
  53 C :    0.059835
  54 C :   -0.047166
  55 C :   -0.040149
  56 C :    0.015715
  57 C :    0.002449
  58 C :    0.066402
  59 C :   -0.086234
  60 C :    0.077846
  61 C :   -0.141514
  62 C :   -0.017112
  63 N :   -0.056584
  64 C :   -0.018114
  65 N :   -0.060183
  66 C :   -0.026116
  67 C :   -0.053681
  68 C :    0.082904
  69 O :   -0.129379
  70 C :    0.031383
  71 C :   -0.007492
  72 C :   -0.006945
  73 C :    0.018778
  74 C :   -0.005739
  75 C :   -0.015046
  76 C :   -0.013247
  77 C :   -0.009764
  78 H :    0.040809
  79 H :    0.040847
  80 H :    0.035930
  81 H :    0.034630
  82 H :    0.034002
  83 H :    0.032943
  84 H :    0.049877
  85 H :    0.025475
  86 H :    0.035714
  87 H :    0.026134
  88 H :    0.034277
  89 H :    0.099503
  90 H :    0.031659
  91 H :    0.095571
  92 H :    0.027364
  93 H :    0.042595
  94 H :    0.027488
  95 H :    0.019486
  96 H :    0.030904
  97 H :    0.031771
  98 H :    0.040150
  99 H :    0.040983
 100 H :    0.039380
 101 H :    0.038490
 102 H :    0.034187
 103 H :    0.032503
 104 H :    0.032480
 105 H :    0.031743

  Mayer bond orders larger than 0.100000
B(  0-C ,  1-C ) :   1.7012 B(  0-C ,  6-C ) :   1.0068 B(  0-C , 18-C ) :   1.0014
B(  1-C ,  2-C ) :   1.1358 B(  1-C ,  4-C ) :   1.1563 B(  2-C ,  3-N ) :   2.9886
B(  4-C ,  5-N ) :   2.9870 B(  6-C ,  7-C ) :   1.2071 B(  6-C , 11-C ) :   1.4544
B(  7-C ,  8-C ) :   1.4631 B(  7-C , 16-C ) :   0.9263 B(  8-C ,  9-C ) :   1.1944
B(  8-C , 78-H ) :   1.0160 B(  9-C , 10-C ) :   1.2511 B(  9-C , 15-C ) :   1.2403
B( 10-C , 11-C ) :   1.2084 B( 10-C , 12-C ) :   1.2397 B( 11-C , 79-H ) :   0.9935
B( 12-C , 13-C ) :   1.4913 B( 12-C , 80-H ) :   0.9982 B( 13-C , 14-C ) :   1.2579
B( 13-C , 81-H ) :   0.9883 B( 14-C , 15-C ) :   1.4933 B( 14-C , 82-H ) :   0.9883
B( 15-C , 83-H ) :   0.9983 B( 16-C , 17-O ) :   2.2845 B( 16-C , 18-C ) :   0.9136
B( 18-C , 19-C ) :   1.7780 B( 19-C , 20-C ) :   1.0122 B( 19-C , 84-H ) :   0.9349
B( 20-C , 21-N ) :   1.6174 B( 20-C , 22-C ) :   0.1135 B( 20-C , 31-C ) :   1.0140
B( 21-N , 22-C ) :   1.2815 B( 22-C , 23-C ) :   1.0769 B( 22-C , 27-C ) :   1.4479
B( 23-C , 24-C ) :   0.9066 B( 23-C , 31-C ) :   1.5062 B( 24-C , 25-O ) :   2.1701
B( 24-C , 26-C ) :   0.9299 B( 25-O , 88-H ) :   0.1094 B( 26-C , 27-C ) :   1.0623
B( 26-C , 30-C ) :   1.6208 B( 27-C , 28-N ) :   1.3010 B( 28-N , 29-C ) :   1.6690
B( 29-C , 30-C ) :   1.0534 B( 29-C , 85-H ) :   0.9889 B( 30-C , 86-H ) :   1.0109
B( 31-C , 32-C ) :   1.1463 B( 32-C , 33-C ) :   1.6350 B( 32-C , 87-H ) :   0.9640
B( 33-C , 34-C ) :   1.1106 B( 33-C , 88-H ) :   0.9415 B( 34-C , 35-N ) :   1.1884
B( 34-C , 41-C ) :   1.3775 B( 35-N , 36-C ) :   1.1677 B( 35-N , 89-H ) :   0.9312
B( 36-C , 37-C ) :   1.3070 B( 36-C , 40-C ) :   1.2619 B( 37-C , 38-C ) :   1.3346
B( 37-C , 90-H ) :   1.0328 B( 38-C , 39-N ) :   1.1529 B( 38-C , 42-C ) :   1.1484
B( 39-N , 40-C ) :   1.1899 B( 39-N , 91-H ) :   0.9350 B( 40-C , 41-C ) :   1.2731
B( 41-C , 92-H ) :   1.0345 B( 42-C , 43-C ) :   1.5464 B( 42-C , 93-H ) :   0.9740
B( 43-C , 44-C ) :   1.2189 B( 43-C , 94-H ) :   0.9616 B( 44-C , 45-N ) :   1.5199
B( 44-C , 46-C ) :   0.1070 B( 44-C , 55-C ) :   0.9995 B( 45-N , 46-C ) :   1.4148
B( 46-C , 47-C ) :   1.0524 B( 46-C , 51-C ) :   1.3503 B( 47-C , 48-C ) :   0.8841
B( 47-C , 55-C ) :   1.5702 B( 48-C , 49-O ) :   2.2437 B( 48-C , 50-C ) :   0.9186
B( 50-C , 51-C ) :   1.0812 B( 50-C , 54-C ) :   1.5679 B( 51-C , 52-N ) :   1.3478
B( 52-N , 53-C ) :   1.6178 B( 53-C , 54-C ) :   1.1079 B( 53-C , 95-H ) :   0.9898
B( 54-C , 96-H ) :   1.0098 B( 55-C , 56-C ) :   1.0729 B( 56-C , 57-C ) :   1.6158
B( 56-C , 97-H ) :   0.9718 B( 57-C , 58-C ) :   1.1364 B( 57-C , 98-H ) :   0.9698
B( 58-C , 59-C ) :   1.5668 B( 58-C , 99-H ) :   0.9602 B( 59-C , 60-C ) :   1.0595
B( 59-C , 68-C ) :   0.9333 B( 60-C , 61-C ) :   1.6261 B( 60-C , 66-C ) :   0.9926
B( 61-C , 62-C ) :   1.1428 B( 61-C , 64-C ) :   1.1471 B( 62-C , 63-N ) :   2.9645
B( 64-C , 65-N ) :   2.9651 B( 66-C , 67-C ) :   1.2141 B( 66-C , 73-C ) :   1.4457
B( 67-C , 68-C ) :   0.9361 B( 67-C , 70-C ) :   1.4767 B( 68-C , 69-O ) :   2.2273
B( 70-C , 71-C ) :   1.1784 B( 70-C ,100-H ) :   1.0154 B( 71-C , 72-C ) :   1.2561
B( 71-C , 77-C ) :   1.2451 B( 72-C , 73-C ) :   1.2088 B( 72-C , 74-C ) :   1.2390
B( 73-C ,101-H ) :   0.9887 B( 74-C , 75-C ) :   1.4908 B( 74-C ,102-H ) :   0.9967
B( 75-C , 76-C ) :   1.2592 B( 75-C ,103-H ) :   0.9882 B( 76-C , 77-C ) :   1.4882
B( 76-C ,104-H ) :   0.9892 B( 77-C ,105-H ) :   0.9974

-----------------------------------------------------------------------------
         ABSORPTION SPECTRUM VIA TRANSITION ELECTRIC DIPOLE MOMENTS
-----------------------------------------------------------------------------
State   Energy  Wavelength   fosc         T2         TX        TY        TZ
        (cm-1)    (nm)                  (au**2)     (au)      (au)      (au)
-----------------------------------------------------------------------------
   0    9834.6   1016.8   0.278639980   9.32744  -1.59995  -2.45376   0.86410
   1   14119.4    708.2   1.378588919  32.14358   2.30388   4.58131  -2.41813
   2   18686.8    535.1   0.486107792   8.56395   0.27532   2.46329  -1.55576
   3   19299.5    518.1   0.289428813   4.93708   2.20390   0.19290  -0.20661
   4   20459.8    488.8   0.072200209   1.16175  -0.22346  -1.05145  -0.07922
   5   20802.0    480.7   0.023392957   0.37022  -0.04283  -0.50585   0.33541
   6   21196.7    471.8   0.000974347   0.01513   0.07456   0.07513  -0.06268
   7   21269.2    470.2   0.005714553   0.08845  -0.10655  -0.25416   0.11181
   8   21585.4    463.3   0.054376054   0.82932  -0.31020  -0.52621  -0.67543
   9   23873.2    418.9   0.030426903   0.41959   0.07569  -0.27663   0.58080
  10   23949.0    417.6   0.319060448   4.38593  -2.03934   0.42026   0.22449
  11   24137.9    414.3   0.488098602   6.65709  -2.51661  -0.03665  -0.56780
  12   24477.3    408.5   0.020511299   0.27587   0.30266  -0.34294  -0.25819
  13   24907.0    401.5   0.030924031   0.40874  -0.61049   0.18638  -0.03612
  14   25008.9    399.9   0.035108636   0.46216  -0.13245  -0.58753   0.31532
  15   25335.2    394.7   0.053729359   0.69817   0.74397  -0.24246   0.29308
  16   25386.1    393.9   0.078009298   1.01164  -0.21883   0.86336   0.46730
  17   25615.2    390.4   0.038814521   0.49885   0.58094  -0.28170   0.28638
  18   25638.0    390.0   0.034369635   0.44133  -0.61095   0.20033  -0.16717
  19   26081.8    383.4   0.075676122   0.95520  -0.87636   0.40402  -0.15482
  20   26379.4    379.1   0.363705094   4.53901   1.25831   0.72366   1.55948
  21   26607.4    375.8   0.012135801   0.15016   0.38745   0.00293  -0.00519
  22   26780.4    373.4   0.016823264   0.20681   0.36646   0.19197   0.18886
  23   27061.0    369.5   0.014372128   0.17484   0.39110  -0.11910  -0.08773
  24   27308.4    366.2   0.012049368   0.14526   0.11538  -0.35698   0.06715
  25   27333.9    365.8   0.091088209   1.09708   0.43570   0.21497   0.92792
  26   27872.4    358.8   0.057165548   0.67521   0.18991  -0.50042   0.62348
  27   28417.3    351.9   0.002364778   0.02740  -0.04966  -0.12431  -0.09735
  28   29129.2    343.3   0.003238005   0.03660   0.07300  -0.03874  -0.17253
  29   29291.5    341.4   0.080120796   0.90049  -0.08399   0.92948  -0.17178
  30   29591.6    337.9   0.044074933   0.49034  -0.11772   0.63672  -0.26658
  31   30167.9    331.5   0.133211779   1.45369  -0.77514   0.38619  -0.83888
  32   30591.5    326.9   0.030808344   0.33155   0.42461  -0.07147   0.38229
  33   31079.6    321.8   0.039148150   0.41468  -0.08196   0.49154  -0.40786
  34   31183.2    320.7   0.157289451   1.66056  -0.25799   0.68984  -1.05741
  35   31400.9    318.5   0.161367069   1.69180  -0.72387   0.00365  -1.08065
  36   31444.3    318.0   0.338269628   3.54157  -0.73228   1.71636   0.24383
  37   31675.1    315.7   0.005691416   0.05915  -0.11660  -0.05050  -0.20738
  38   32077.2    311.7   0.025937708   0.26620   0.03139  -0.10233  -0.50472
  39   32163.4    310.9   0.050192159   0.51375   0.37969   0.39525  -0.46191
  40   32639.4    306.4   0.040045919   0.40392   0.53217   0.13053  -0.32199
  41   32749.8    305.3   0.121367189   1.22002  -0.34964  -0.99996   0.31281
  42   32867.8    304.2   0.042779969   0.42849   0.01309   0.65283   0.04627
  43   33177.8    301.4   0.272939140   2.70828   0.58104  -1.17279   0.99762
  44   33670.4    297.0   0.004084394   0.03994  -0.18299   0.03471   0.07243
  45   33902.8    295.0   0.011312796   0.10985   0.15778   0.19194  -0.21936
  46   33957.3    294.5   0.014578232   0.14133   0.14035  -0.33795   0.08619
  47   34042.0    293.8   0.176089108   1.70292   0.21661   0.23600   1.26503
  48   34112.6    293.1   0.198113666   1.91194  -0.36410   1.18461  -0.61325
  49   34282.1    291.7   0.004570772   0.04389  -0.20094   0.05864   0.00894
  50   34325.8    291.3   0.000587868   0.00564   0.04734  -0.05824   0.00233
  51   34451.4    290.3   0.016369230   0.15642   0.30936  -0.24593   0.01555
  52   34933.2    286.3   0.076509652   0.72103  -0.01836  -0.83645  -0.14510
  53   35022.6    285.5   0.106858541   1.00447  -0.86044   0.18009  -0.48133
  54   35680.3    280.3   0.090745892   0.83729   0.26022   0.04706   0.87599
  55   35825.4    279.1   0.023378336   0.21483   0.37594  -0.25516   0.09163
  56   35967.1    278.0   0.135531075   1.24054   0.00367   1.10857   0.10769
  57   36102.1    277.0   0.128684728   1.17347   0.26995   1.03505  -0.17105
  58   36117.5    276.9   0.006819863   0.06216   0.00601   0.23875   0.07159
  59   36254.7    275.8   0.024793407   0.22514   0.19880  -0.06559   0.42581
  60   36623.1    273.1   0.014895645   0.13390   0.24518   0.13015   0.23843
  61   36662.1    272.8   0.010938123   0.09822  -0.28492  -0.04474  -0.12264
  62   36731.7    272.2   0.326318340   2.92466   1.20480  -0.48459   1.11278
  63   37038.8    270.0   0.005471455   0.04863   0.11288   0.00272   0.18943
  64   37116.8    269.4   0.050425027   0.44725   0.52202  -0.11470   0.40198
  65   37552.5    266.3   0.217463905   1.90644  -1.24184  -0.52952  -0.28962
  66   37669.6    265.5   0.031974537   0.27944   0.37384   0.37354   0.01254
  67   37692.7    265.3   0.024924627   0.21769   0.26680  -0.11253   0.36585
  68   37927.7    263.7   0.019461538   0.16893   0.14179   0.38432   0.03348
  69   38102.9    262.4   0.072873310   0.62963   0.58298   0.49336   0.21531
  70   38140.7    262.2   0.043002168   0.37117   0.37513   0.46086   0.13438
  71   38316.3    261.0   0.024699481   0.21222  -0.39166  -0.21916  -0.10386
  72   38722.8    258.2   0.101381356   0.86192  -0.75307  -0.53757  -0.07633
  73   38805.4    257.7   0.051861117   0.43997  -0.41242  -0.51226  -0.08645
  74   38952.2    256.7   0.003572626   0.03019  -0.03525   0.15764  -0.06405
  75   39093.0    255.8   0.137987804   1.16203  -0.78111  -0.73193  -0.12718
  76   39104.5    255.7   0.000499614   0.00421  -0.01809   0.01014  -0.06145
  77   39171.4    255.3   0.004598355   0.03865  -0.15191  -0.12326  -0.01941
  78   39318.7    254.3   0.113280253   0.94849   0.18904   0.08986  -0.95114
  79   39531.7    253.0   0.009853268   0.08206   0.13038  -0.25367  -0.02656
  80   39605.1    252.5   0.016422771   0.13651   0.11757  -0.00532   0.35023
  81   39679.6    252.0   0.056232024   0.46654   0.40661  -0.28978   0.46608
  82   40109.1    249.3   0.012831932   0.10532   0.32028   0.03820   0.03581
  83   40250.9    248.4   0.059726683   0.48850   0.22497   0.06954  -0.65807

FINAL SINGLE POINT ENERGY     -3299.674608876238

DIPOLE MOMENT
-------------
                                X             Y             Z
Electronic contribution:      2.48450      16.50443       4.46794
Nuclear contribution   :     -3.45671     -14.66830      -7.35675
                        -----------------------------------------
Total Dipole Moment    :     -0.97222       1.83613      -2.88881
                        -----------------------------------------
Magnitude (a.u.)       :      3.55834
Magnitude (Debye)      :      9.04459

Rotational constants in cm-1:     0.001069     0.000207     0.000195
Rotational constants in MHz :    32.054761     6.210987     5.838466

                             ****ORCA TERMINATED NORMALLY****
TOTAL RUN TIME: 0 days 0 hours 11 minutes 23 seconds 27 msec
