                         Program Version 4.2.0 -  RELEASE  -
|  1> # ORCA input file
|  2> # SCF done       -139.355246505179          0.000613256876
|  3> ! CAM-B3LYP def2-SVP def2/J RIJCOSX Grid4 TightSCF
|  4> %maxcore 5000
|  5> %tddft
|  6>     Mode sTDDFT
|  7>     Ethresh 5.0
|  8>     maxcore 5000
|  9> end
| 10>
| 11> %pal
| 12>   nprocs 6
| 13>   end
| 14> * xyz 0 1
| 15>    C       -4.81516        -0.07121        -3.59383
| 16>    S       -3.82066         1.05546        -2.78091
| 17>    C       -5.19136         2.06652        -2.42222
| 18>    C       -6.36641         1.52612        -2.92408
| 19>    C       -6.13378         0.29026        -3.59815
| 20>    C       -7.19799        -0.50111        -4.22253
| 21>    O       -6.98909        -1.55132        -4.79942
| 22>    C       -8.55313         0.08150        -4.09066
| 23>    C       -9.62689        -0.60848        -4.64758
| 24>    C      -10.91345        -0.11222        -4.55097
| 25>    C      -11.14339         1.08707        -3.89269
| 26>    C      -10.08610         1.78252        -3.33705
| 27>    C       -8.78430         1.29422        -3.42687
| 28>    C       -7.70019         2.09456        -2.80963
| 29>    O       -7.94101         3.15531        -2.25101
| 30>    C       -4.91663         3.25349        -1.69353
| 31>    S       -6.06471         4.48605        -1.21973
| 32>    C       -4.68022         5.30269        -0.50097
| 33>    N       -3.56175         4.63783        -0.65622
| 34>    N       -3.69547         3.52223        -1.30909
| 35>    C       -4.75595         6.54922         0.17051
| 36>    C       -5.90533         7.25271         0.29783
| 37>    C       -6.04332         8.50822         0.94006
| 38>    N       -7.26774         9.14832         0.96722
| 39>    C       -7.12591        10.32821         1.62124
| 40>    C       -7.79984        11.47375         2.03474
| 41>    C       -6.85204        12.26515         2.69055
| 42>    N       -5.63121        11.61934         2.67894
| 43>    C       -5.77145        10.43513         2.02810
| 44>    C       -5.09417         9.29740         1.60030
| 45>    C       -6.99311        13.54235         3.30041
| 46>    C       -8.13274        14.26694         3.30997
| 47>    C       -8.30529        15.56228         3.90399
| 48>    C       -7.32666        16.27362         4.62017
| 49>    N       -7.54815        17.44947         5.15787
| 50>    C       -8.76229        17.97253         5.01149
| 51>    N       -9.75267        17.42347         4.30567
| 52>    C       -9.52670        16.24503         3.77421
| 53>    C       -9.03614        19.26160         5.60959
| 54>    S      -10.10460        20.33904         4.77417
| 55>    C       -9.87336        21.55072         5.95516
| 56>    C       -9.02581        21.15504         6.95418
| 57>    C       -8.54878        19.82410         6.76941
| 58>    C       -7.76431        19.14258         7.80738
| 59>    O       -7.59379        17.94161         7.85449
| 60>    C       -7.23832        20.04680         8.86426
| 61>    C       -6.31950        19.52309         9.76993
| 62>    C       -5.80163        20.30452        10.78622
| 63>    C       -6.20553        21.62493        10.91872
| 64>    C       -7.12477        22.15506        10.03302
| 65>    C       -7.64588        21.38102         8.99901
| 66>    C       -8.62964        22.00350         8.08288
| 67>    O       -9.05538        23.13129         8.24442
| 68>    H       -4.39955        -0.95525        -4.03683
| 69>    H       -9.42236        -1.53992        -5.15449
| 70>    H      -11.73673        -0.65785        -4.98704
| 71>    H      -12.14657         1.47854        -3.81362
| 72>    H      -10.24366         2.71811        -2.82094
| 73>    H       -3.82448         6.91665         0.57266
| 74>    H       -6.81044         6.83840        -0.13163
| 75>    H       -8.10891         8.78327         0.55480
| 76>    H       -8.83294        11.71635         1.89281
| 77>    H       -4.78911        11.98340         3.09004
| 78>    H       -4.06134         9.05061         1.73642
| 79>    H       -6.10195        13.93635         3.77139
| 80>    H       -9.01116        13.86502         2.82358
| 81>    H       -6.32660        15.88596         4.76036
| 82>    H      -10.34646        15.81528         3.21057
| 83>    H      -10.36117        22.50232         5.87240
| 84>    H       -6.02470        18.49063         9.65360
| 85>    H       -5.08610        19.88497        11.47767
| 86>    H       -5.80606        22.23737        11.71321
| 87>    H       -7.46064        23.17788        10.12003
| 88> *
| 89>
| 90>                          ****END OF INPUT****

CARTESIAN COORDINATES (ANGSTROEM)
---------------------------------
  C     -4.815160   -0.071210   -3.593830
  S     -3.820660    1.055460   -2.780910
  C     -5.191360    2.066520   -2.422220
  C     -6.366410    1.526120   -2.924080
  C     -6.133780    0.290260   -3.598150
  C     -7.197990   -0.501110   -4.222530
  O     -6.989090   -1.551320   -4.799420
  C     -8.553130    0.081500   -4.090660
  C     -9.626890   -0.608480   -4.647580
  C    -10.913450   -0.112220   -4.550970
  C    -11.143390    1.087070   -3.892690
  C    -10.086100    1.782520   -3.337050
  C     -8.784300    1.294220   -3.426870
  C     -7.700190    2.094560   -2.809630
  O     -7.941010    3.155310   -2.251010
  C     -4.916630    3.253490   -1.693530
  S     -6.064710    4.486050   -1.219730
  C     -4.680220    5.302690   -0.500970
  N     -3.561750    4.637830   -0.656220
  N     -3.695470    3.522230   -1.309090
  C     -4.755950    6.549220    0.170510
  C     -5.905330    7.252710    0.297830
  C     -6.043320    8.508220    0.940060
  N     -7.267740    9.148320    0.967220
  C     -7.125910   10.328210    1.621240
  C     -7.799840   11.473750    2.034740
  C     -6.852040   12.265150    2.690550
  N     -5.631210   11.619340    2.678940
  C     -5.771450   10.435130    2.028100
  C     -5.094170    9.297400    1.600300
  C     -6.993110   13.542350    3.300410
  C     -8.132740   14.266940    3.309970
  C     -8.305290   15.562280    3.903990
  C     -7.326660   16.273620    4.620170
  N     -7.548150   17.449470    5.157870
  C     -8.762290   17.972530    5.011490
  N     -9.752670   17.423470    4.305670
  C     -9.526700   16.245030    3.774210
  C     -9.036140   19.261600    5.609590
  S    -10.104600   20.339040    4.774170
  C     -9.873360   21.550720    5.955160
  C     -9.025810   21.155040    6.954180
  C     -8.548780   19.824100    6.769410
  C     -7.764310   19.142580    7.807380
  O     -7.593790   17.941610    7.854490
  C     -7.238320   20.046800    8.864260
  C     -6.319500   19.523090    9.769930
  C     -5.801630   20.304520   10.786220
  C     -6.205530   21.624930   10.918720
  C     -7.124770   22.155060   10.033020
  C     -7.645880   21.381020    8.999010
  C     -8.629640   22.003500    8.082880
  O     -9.055380   23.131290    8.244420
  H     -4.399550   -0.955250   -4.036830
  H     -9.422360   -1.539920   -5.154490
  H    -11.736730   -0.657850   -4.987040
  H    -12.146570    1.478540   -3.813620
  H    -10.243660    2.718110   -2.820940
  H     -3.824480    6.916650    0.572660
  H     -6.810440    6.838400   -0.131630
  H     -8.108910    8.783270    0.554800
  H     -8.832940   11.716350    1.892810
  H     -4.789110   11.983400    3.090040
  H     -4.061340    9.050610    1.736420
  H     -6.101950   13.936350    3.771390
  H     -9.011160   13.865020    2.823580
  H     -6.326600   15.885960    4.760360
  H    -10.346460   15.815280    3.210570
  H    -10.361170   22.502320    5.872400
  H     -6.024700   18.490630    9.653600
  H     -5.086100   19.884970   11.477670
  H     -5.806060   22.237370   11.713210
  H     -7.460640   23.177880   10.120030

 Total Charge           Charge          ....    0
 Multiplicity           Mult            ....    1
 Number of Electrons    NEL             ....  382
 Basis Dimension        Dim             ....  854

ORBITAL ENERGIES
----------------

  NO   OCC          E(Eh)            E(eV)
   0   2.0000     -88.976333     -2421.1691
   1   2.0000     -88.968678     -2420.9608
   2   2.0000     -88.962190     -2420.7843
   3   2.0000     -19.219755      -522.9961
   4   2.0000     -19.209019      -522.7040
   5   2.0000     -19.200831      -522.4812
   6   2.0000     -19.198968      -522.4305
   7   2.0000     -14.460513      -393.4906
   8   2.0000     -14.460157      -393.4809
   9   2.0000     -14.430732      -392.6802
  10   2.0000     -14.420492      -392.4015
  11   2.0000     -14.411942      -392.1689
  12   2.0000     -14.407905      -392.0590
  13   2.0000     -10.373513      -282.2776
  14   2.0000     -10.364377      -282.0290
  15   2.0000     -10.355820      -281.7962
  16   2.0000     -10.355099      -281.7766
  17   2.0000     -10.343830      -281.4699
  18   2.0000     -10.336798      -281.2786
  19   2.0000     -10.331348      -281.1303
  20   2.0000     -10.322901      -280.9004
  21   2.0000     -10.317671      -280.7581
  22   2.0000     -10.317558      -280.7550
  23   2.0000     -10.312733      -280.6237
  24   2.0000     -10.308859      -280.5183
  25   2.0000     -10.308601      -280.5113
  26   2.0000     -10.306960      -280.4666
  27   2.0000     -10.304380      -280.3964
  28   2.0000     -10.296139      -280.1722
  29   2.0000     -10.295306      -280.1495
  30   2.0000     -10.294609      -280.1305
  31   2.0000     -10.292819      -280.0818
  32   2.0000     -10.292596      -280.0758
  33   2.0000     -10.291493      -280.0457
  34   2.0000     -10.291149      -280.0364
  35   2.0000     -10.290243      -280.0118
  36   2.0000     -10.288681      -279.9693
  37   2.0000     -10.287948      -279.9493
  38   2.0000     -10.287544      -279.9383
  39   2.0000     -10.285229      -279.8753
  40   2.0000     -10.284152      -279.8460
  41   2.0000     -10.282860      -279.8108
  42   2.0000     -10.281289      -279.7681
  43   2.0000     -10.281010      -279.7605
  44   2.0000     -10.280418      -279.7444
  45   2.0000     -10.279496      -279.7193
  46   2.0000     -10.278186      -279.6837
  47   2.0000     -10.277619      -279.6682
  48   2.0000     -10.277539      -279.6661
  49   2.0000     -10.274680      -279.5883
  50   2.0000     -10.274122      -279.5731
  51   2.0000     -10.266831      -279.3747
  52   2.0000     -10.266083      -279.3543
  53   2.0000      -8.071505      -219.6368
  54   2.0000      -8.064193      -219.4379
  55   2.0000      -8.056482      -219.2280
  56   2.0000      -6.040741      -164.3769
  57   2.0000      -6.036166      -164.2524
  58   2.0000      -6.034065      -164.1953
  59   2.0000      -6.033232      -164.1726
  60   2.0000      -6.028831      -164.0528
  61   2.0000      -6.027037      -164.0040
  62   2.0000      -6.025467      -163.9613
  63   2.0000      -6.021681      -163.8583
  64   2.0000      -6.018706      -163.7773
  65   2.0000      -1.136524       -30.9264
  66   2.0000      -1.129922       -30.7468
  67   2.0000      -1.124702       -30.6047
  68   2.0000      -1.117526       -30.4094
  69   2.0000      -1.114865       -30.3370
  70   2.0000      -1.091964       -29.7139
  71   2.0000      -1.083831       -29.4925
  72   2.0000      -1.055799       -28.7297
  73   2.0000      -1.004746       -27.3405
  74   2.0000      -0.992250       -27.0005
  75   2.0000      -0.977599       -26.6018
  76   2.0000      -0.969051       -26.3692
  77   2.0000      -0.957996       -26.0684
  78   2.0000      -0.931809       -25.3558
  79   2.0000      -0.923949       -25.1419
  80   2.0000      -0.913923       -24.8691
  81   2.0000      -0.894140       -24.3308
  82   2.0000      -0.889123       -24.1943
  83   2.0000      -0.884257       -24.0619
  84   2.0000      -0.877139       -23.8682
  85   2.0000      -0.864824       -23.5331
  86   2.0000      -0.854765       -23.2593
  87   2.0000      -0.852638       -23.2015
  88   2.0000      -0.844647       -22.9840
  89   2.0000      -0.843446       -22.9513
  90   2.0000      -0.837255       -22.7829
  91   2.0000      -0.834099       -22.6970
  92   2.0000      -0.828320       -22.5397
  93   2.0000      -0.789551       -21.4848
  94   2.0000      -0.770436       -20.9646
  95   2.0000      -0.760277       -20.6882
  96   2.0000      -0.748350       -20.3636
  97   2.0000      -0.743319       -20.2267
  98   2.0000      -0.737978       -20.0814
  99   2.0000      -0.729698       -19.8561
 100   2.0000      -0.725969       -19.7546
 101   2.0000      -0.716844       -19.5063
 102   2.0000      -0.696233       -18.9455
 103   2.0000      -0.688523       -18.7357
 104   2.0000      -0.687373       -18.7044
 105   2.0000      -0.681298       -18.5391
 106   2.0000      -0.676766       -18.4157
 107   2.0000      -0.668915       -18.2021
 108   2.0000      -0.663684       -18.0598
 109   2.0000      -0.654751       -17.8167
 110   2.0000      -0.651429       -17.7263
 111   2.0000      -0.640757       -17.4359
 112   2.0000      -0.630737       -17.1632
 113   2.0000      -0.628753       -17.1092
 114   2.0000      -0.617465       -16.8021
 115   2.0000      -0.616449       -16.7744
 116   2.0000      -0.601952       -16.3799
 117   2.0000      -0.600677       -16.3453
 118   2.0000      -0.589981       -16.0542
 119   2.0000      -0.584359       -15.9012
 120   2.0000      -0.575655       -15.6644
 121   2.0000      -0.565662       -15.3924
 122   2.0000      -0.556698       -15.1485
 123   2.0000      -0.554323       -15.0839
 124   2.0000      -0.546895       -14.8818
 125   2.0000      -0.543481       -14.7889
 126   2.0000      -0.538872       -14.6634
 127   2.0000      -0.536935       -14.6107
 128   2.0000      -0.536673       -14.6036
 129   2.0000      -0.532856       -14.4997
 130   2.0000      -0.532041       -14.4776
 131   2.0000      -0.529877       -14.4187
 132   2.0000      -0.525453       -14.2983
 133   2.0000      -0.524751       -14.2792
 134   2.0000      -0.524543       -14.2735
 135   2.0000      -0.524343       -14.2681
 136   2.0000      -0.518308       -14.1039
 137   2.0000      -0.517823       -14.0907
 138   2.0000      -0.517260       -14.0754
 139   2.0000      -0.513107       -13.9623
 140   2.0000      -0.507947       -13.8219
 141   2.0000      -0.506674       -13.7873
 142   2.0000      -0.504558       -13.7297
 143   2.0000      -0.501391       -13.6435
 144   2.0000      -0.494444       -13.4545
 145   2.0000      -0.487824       -13.2744
 146   2.0000      -0.487125       -13.2554
 147   2.0000      -0.479954       -13.0602
 148   2.0000      -0.478846       -13.0301
 149   2.0000      -0.476460       -12.9651
 150   2.0000      -0.474969       -12.9246
 151   2.0000      -0.473446       -12.8831
 152   2.0000      -0.470267       -12.7966
 153   2.0000      -0.469312       -12.7706
 154   2.0000      -0.462919       -12.5967
 155   2.0000      -0.455141       -12.3850
 156   2.0000      -0.451670       -12.2906
 157   2.0000      -0.448476       -12.2037
 158   2.0000      -0.443112       -12.0577
 159   2.0000      -0.442624       -12.0444
 160   2.0000      -0.440867       -11.9966
 161   2.0000      -0.440366       -11.9830
 162   2.0000      -0.435727       -11.8567
 163   2.0000      -0.433333       -11.7916
 164   2.0000      -0.429762       -11.6944
 165   2.0000      -0.423062       -11.5121
 166   2.0000      -0.414034       -11.2664
 167   2.0000      -0.407914       -11.0999
 168   2.0000      -0.390974       -10.6390
 169   2.0000      -0.381182       -10.3725
 170   2.0000      -0.379856       -10.3364
 171   2.0000      -0.371907       -10.1201
 172   2.0000      -0.363755        -9.8983
 173   2.0000      -0.350435        -9.5358
 174   2.0000      -0.347217        -9.4483
 175   2.0000      -0.344487        -9.3740
 176   2.0000      -0.335508        -9.1296
 177   2.0000      -0.334624        -9.1056
 178   2.0000      -0.333566        -9.0768
 179   2.0000      -0.332022        -9.0348
 180   2.0000      -0.331771        -9.0280
 181   2.0000      -0.326484        -8.8841
 182   2.0000      -0.324730        -8.8364
 183   2.0000      -0.322471        -8.7749
 184   2.0000      -0.320825        -8.7301
 185   2.0000      -0.310442        -8.4475
 186   2.0000      -0.309443        -8.4204
 187   2.0000      -0.300757        -8.1840
 188   2.0000      -0.291063        -7.9202
 189   2.0000      -0.279433        -7.6038
 190   2.0000      -0.223039        -6.0692
 191   0.0000      -0.074798        -2.0354
 192   0.0000      -0.061738        -1.6800
 193   0.0000      -0.051007        -1.3880
 194   0.0000      -0.041528        -1.1300
 195   0.0000      -0.025579        -0.6961

MULLIKEN ATOMIC CHARGES
-----------------------
   0 C :   -0.103219
   1 S :    0.231819
   2 C :   -0.123115
   3 C :    0.055855
   4 C :   -0.013779
   5 C :    0.138385
   6 O :   -0.150720
   7 C :   -0.027989
   8 C :   -0.021388
   9 C :    0.053189
  10 C :    0.048078
  11 C :   -0.019613
  12 C :   -0.015160
  13 C :    0.148096
  14 O :   -0.189226
  15 C :   -0.106372
  16 S :    0.129755
  17 C :   -0.050241
  18 N :   -0.063336
  19 N :   -0.072984
  20 C :    0.015238
  21 C :    0.004156
  22 C :    0.107046
  23 N :   -0.037141
  24 C :    0.114163
  25 C :   -0.174600
  26 C :    0.100687
  27 N :   -0.038545
  28 C :    0.116691
  29 C :   -0.168794
  30 C :    0.036341
  31 C :   -0.016623
  32 C :    0.044911
  33 C :    0.030925
  34 N :   -0.024588
  35 C :   -0.092736
  36 N :   -0.060530
  37 C :    0.019425
  38 C :   -0.119726
  39 S :    0.204267
  40 C :   -0.108787
  41 C :   -0.013694
  42 C :    0.089740
  43 C :    0.111862
  44 O :   -0.143849
  45 C :   -0.011743
  46 C :   -0.022681
  47 C :    0.047933
  48 C :    0.046477
  49 C :   -0.018839
  50 C :   -0.028368
  51 C :    0.141969
  52 O :   -0.155074
  53 H :    0.040185
  54 H :    0.000950
  55 H :   -0.002584
  56 H :   -0.004078
  57 H :   -0.001621
  58 H :   -0.001814
  59 H :   -0.016475
  60 H :    0.121174
  61 H :   -0.035285
  62 H :    0.121754
  63 H :   -0.030385
  64 H :   -0.029809
  65 H :   -0.020622
  66 H :   -0.002281
  67 H :   -0.000308
  68 H :    0.035699
  69 H :   -0.002298
  70 H :   -0.006694
  71 H :   -0.006578
  72 H :   -0.002477
Sum of atomic charges:   -0.0000000

LOEWDIN ATOMIC CHARGES
----------------------
   0 C :   -0.131214
   1 S :    0.526556
   2 C :   -0.148656
   3 C :   -0.097161
   4 C :   -0.100244
   5 C :    0.081296
   6 O :   -0.146781
   7 C :   -0.049781
   8 C :    0.015761
   9 C :   -0.003663
  10 C :   -0.006535
  11 C :    0.014237
  12 C :   -0.050783
  13 C :    0.088643
  14 O :   -0.168647
  15 C :   -0.185258
  16 S :    0.441569
  17 C :   -0.152583
  18 N :   -0.090393
  19 N :   -0.087307
  20 C :   -0.055565
  21 C :   -0.016729
  22 C :   -0.007989
  23 N :    0.071422
  24 C :   -0.018153
  25 C :   -0.091980
  26 C :   -0.003004
  27 N :    0.070256
  28 C :   -0.020592
  29 C :   -0.083443
  30 C :   -0.018771
  31 C :   -0.033025
  32 C :   -0.063852
  33 C :    0.052262
  34 N :   -0.053206
  35 C :   -0.001376
  36 N :   -0.085417
  37 C :    0.040619
  38 C :   -0.148179
  39 S :    0.511455
  40 C :   -0.138445
  41 C :   -0.099392
  42 C :   -0.079226
  43 C :    0.082870
  44 O :   -0.131769
  45 C :   -0.047495
  46 C :    0.011658
  47 C :   -0.007562
  48 C :   -0.009565
  49 C :    0.013850
  50 C :   -0.053953
  51 C :    0.082095
  52 O :   -0.149791
  53 H :    0.036096
  54 H :    0.037519
  55 H :    0.033493
  56 H :    0.032914
  57 H :    0.035454
  58 H :    0.039256
  59 H :    0.022872
  60 H :    0.089505
  61 H :    0.023145
  62 H :    0.089210
  63 H :    0.025832
  64 H :    0.026204
  65 H :    0.028193
  66 H :    0.021615
  67 H :    0.023473
  68 H :    0.033639
  69 H :    0.035339
  70 H :    0.031591
  71 H :    0.031676
  72 H :    0.035906

  Mayer bond orders larger than 0.100000
B(  0-C ,  1-S ) :   1.1777 B(  0-C ,  4-C ) :   1.5591 B(  0-C , 53-H ) :   0.9652
B(  1-S ,  2-C ) :   1.1840 B(  2-C ,  3-C ) :   1.4827 B(  2-C , 15-C ) :   1.1439
B(  3-C ,  4-C ) :   1.1928 B(  3-C , 13-C ) :   0.9884 B(  4-C ,  5-C ) :   0.9502
B(  5-C ,  6-O ) :   2.2614 B(  5-C ,  7-C ) :   0.9276 B(  7-C ,  8-C ) :   1.4128
B(  7-C , 12-C ) :   1.3352 B(  8-C ,  9-C ) :   1.3583 B(  8-C , 54-H ) :   0.9927
B(  9-C , 10-C ) :   1.3548 B(  9-C , 55-H ) :   0.9934 B( 10-C , 11-C ) :   1.3599
B( 10-C , 56-H ) :   0.9934 B( 11-C , 12-C ) :   1.4053 B( 11-C , 57-H ) :   0.9916
B( 12-C , 13-C ) :   0.9572 B( 13-C , 14-O ) :   2.1164 B( 15-C , 16-S ) :   1.1161
B( 15-C , 19-N ) :   1.6902 B( 16-S , 17-C ) :   1.0677 B( 17-C , 18-N ) :   1.6191
B( 17-C , 20-C ) :   1.1418 B( 18-N , 19-N ) :   1.2538 B( 20-C , 21-C ) :   1.6287
B( 20-C , 58-H ) :   0.9857 B( 21-C , 22-C ) :   1.1228 B( 21-C , 59-H ) :   0.9616
B( 22-C , 23-N ) :   1.1664 B( 22-C , 29-C ) :   1.4030 B( 23-N , 24-C ) :   1.1714
B( 23-N , 60-H ) :   0.9373 B( 24-C , 25-C ) :   1.2566 B( 24-C , 28-C ) :   1.3090
B( 25-C , 26-C ) :   1.4119 B( 25-C , 61-H ) :   1.0316 B( 26-C , 27-N ) :   1.1732
B( 26-C , 30-C ) :   1.1071 B( 27-N , 28-C ) :   1.1635 B( 27-N , 62-H ) :   0.9365
B( 28-C , 29-C ) :   1.2618 B( 29-C , 63-H ) :   1.0331 B( 30-C , 31-C ) :   1.6926
B( 30-C , 64-H ) :   0.9576 B( 31-C , 32-C ) :   1.0835 B( 31-C , 65-H ) :   0.9823
B( 32-C , 33-C ) :   1.2884 B( 32-C , 37-C ) :   1.3073 B( 33-C , 34-N ) :   1.5917
B( 33-C , 66-H ) :   0.9839 B( 34-N , 35-C ) :   1.5273 B( 35-C , 36-N ) :   1.5574
B( 35-C , 38-C ) :   0.9894 B( 36-N , 37-C ) :   1.5700 B( 37-C , 67-H ) :   0.9868
B( 38-C , 39-S ) :   1.1923 B( 38-C , 42-C ) :   1.5410 B( 39-S , 40-C ) :   1.1932
B( 40-C , 41-C ) :   1.5387 B( 40-C , 68-H ) :   0.9670 B( 41-C , 42-C ) :   1.2122
B( 41-C , 51-C ) :   0.9514 B( 42-C , 43-C ) :   0.9523 B( 43-C , 44-O ) :   2.2391
B( 43-C , 45-C ) :   0.9268 B( 45-C , 46-C ) :   1.4085 B( 45-C , 50-C ) :   1.3438
B( 46-C , 47-C ) :   1.3616 B( 46-C , 69-H ) :   0.9915 B( 47-C , 48-C ) :   1.3543
B( 47-C , 70-H ) :   0.9939 B( 48-C , 49-C ) :   1.3611 B( 48-C , 71-H ) :   0.9933
B( 49-C , 50-C ) :   1.4078 B( 49-C , 72-H ) :   0.9925 B( 50-C , 51-C ) :   0.9319
B( 51-C , 52-O ) :   2.2553

-----------------------------------------------------------------------------
         ABSORPTION SPECTRUM VIA TRANSITION ELECTRIC DIPOLE MOMENTS
-----------------------------------------------------------------------------
State   Energy  Wavelength   fosc         T2         TX        TY        TZ
        (cm-1)    (nm)                  (au**2)     (au)      (au)      (au)
-----------------------------------------------------------------------------
   0   18377.4    544.1   1.728279701  30.96028  -0.48647   4.93873   2.51646
   1   22449.3    445.4   0.666217347   9.76987  -1.20194   2.62596   1.19563
   2   25817.9    387.3   0.089897304   1.14631  -0.53163   0.89893   0.23578
   3   27225.2    367.3   0.000682824   0.00826  -0.02060  -0.04903   0.07368
   4   28122.8    355.6   0.080368621   0.94081   0.32978  -0.88892  -0.20463
   5   28657.7    348.9   0.041944309   0.48184   0.32184  -0.61288   0.05139
   6   29714.6    336.5   0.137542431   1.52385  -0.93414  -0.60672  -0.53210
   7   30075.7    332.5   0.000716060   0.00784   0.06843   0.02111   0.05205
   8   30899.4    323.6   0.091114456   0.97076   0.26362  -0.80299  -0.50642
   9   31617.1    316.3   0.000028320   0.00029  -0.00125   0.00820  -0.01503
  10   32351.4    309.1   0.078630509   0.80015   0.19083  -0.76415  -0.42404
  11   32759.6    305.3   0.079836224   0.80230   0.67671  -0.52006  -0.27183
  12   33283.8    300.4   0.085964967   0.85028   0.59975   0.33201   0.61673
  13   33527.1    298.3   0.075951940   0.74579  -0.66314  -0.19228  -0.51871
  14   34718.0    288.0   0.053455981   0.50689   0.24351  -0.58041  -0.33275
  15   34894.1    286.6   0.036971588   0.34881  -0.05623  -0.31696  -0.49516
  16   35277.8    283.5   0.052150604   0.48667  -0.58734  -0.20193  -0.31769
  17   35816.7    279.2   0.051092195   0.46962   0.05588  -0.28114  -0.62246
  18   36548.9    273.6   0.000565186   0.00509   0.02082  -0.03482   0.05870
  19   37183.3    268.9   0.019692887   0.17436  -0.36848   0.13660  -0.14114
  20   37449.3    267.0   0.094326354   0.82921  -0.22156   0.85575   0.21866
  21   37685.4    265.4   0.005190088   0.04534   0.03127  -0.18526  -0.10020
  22   38563.8    259.3   0.190244710   1.62408  -1.02727   0.48874  -0.57440
  23   38695.9    258.4   0.083880104   0.71362  -0.08545  -0.58877  -0.59972
  24   39470.8    253.4   0.028993687   0.24183   0.37152   0.31382   0.07289
  25   39701.5    251.9   0.010347150   0.08580  -0.06793   0.28092  -0.04765
  26   39733.1    251.7   0.031065821   0.25740   0.27644  -0.39572  -0.15615
  27   39829.1    251.1   0.003002239   0.02482  -0.10374  -0.07108  -0.09488
  28   39956.6    250.3   0.016279559   0.13413   0.20757  -0.27438   0.12554
  29   40247.2    248.5   0.001142419   0.00934  -0.03200  -0.05725   0.07101

FINAL SINGLE POINT ENERGY     -3357.225289022723

DIPOLE MOMENT
-------------
                                X             Y             Z
Electronic contribution:      4.76596     -10.98655     -11.12203
Nuclear contribution   :     -5.62123      10.56110      10.60010
                        -----------------------------------------
Total Dipole Moment    :     -0.85527      -0.42545      -0.52193
                        -----------------------------------------
Magnitude (a.u.)       :      1.08853
Magnitude (Debye)      :      2.76683

Rotational constants in cm-1:     0.005143     0.000256     0.000246
Rotational constants in MHz :   154.174566     7.663862     7.387404

                             ****ORCA TERMINATED NORMALLY****
TOTAL RUN TIME: 0 days 0 hours 4 minutes 34 seconds 86 msec
