                         Program Version 4.2.0 -  RELEASE  -
|  1> # ORCA input file
|  2> # SCF done       -195.155423679249          0.000389568502
|  3> ! CAM-B3LYP def2-SVP def2/J RIJCOSX Grid4 TightSCF
|  4> %maxcore 5000
|  5> %tddft
|  6>     Mode sTDDFT
|  7>     Ethresh 5.0
|  8>     maxcore 5000
|  9> end
| 10>
| 11> %pal
| 12>   nprocs 6
| 13>   end
| 14> * xyz 0 1
| 15>    C        3.21654         2.95000        -5.25286
| 16>    C        2.94837         4.24533        -5.57109
| 17>    S        4.27523         4.97129        -6.40170
| 18>    C        5.21650         3.50038        -6.31886
| 19>   Cl        6.77367         3.41010        -6.97918
| 20>    C        4.51428         2.52121        -5.68171
| 21>    C        4.73542         1.12493        -5.29198
| 22>    O        5.74151         0.46793        -5.42768
| 23>    C        3.47138         0.71962        -4.60089
| 24>    C        2.54861         1.84599        -4.59401
| 25>    C        1.26286         1.87864        -4.12497
| 26>    C        0.48286         3.05183        -4.20869
| 27>    N       -0.16117         3.99921        -4.26755
| 28>    C        0.56961         0.79456        -3.54971
| 29>    N       -0.05482        -0.05262        -3.09156
| 30>    C        3.29306        -0.46205        -3.94961
| 31>    C        4.11355        -1.62176        -4.04056
| 32>    C        4.27911        -2.54718        -3.03518
| 33>    C        5.17261        -3.57190        -3.48187
| 34>    C        5.50272        -3.23632        -4.87605
| 35>    C        4.87089        -2.07685        -5.19862
| 36>    C        6.29654        -3.98628        -5.75101
| 37>    N        6.93843        -4.59314        -6.48599
| 38>    C        5.62773        -4.65522        -2.77236
| 39>    C        6.51268        -5.67548        -3.22916
| 40>    C        6.71004        -6.59935        -2.23263
| 41>    C        5.93304        -6.16485        -1.07347
| 42>    C        5.28461        -5.01361        -1.38026
| 43>    C        4.44840        -4.30268        -0.51254
| 44>    N        3.77183        -3.73906         0.22502
| 45>    C        7.51594        -7.78955        -2.29931
| 46>    C        7.78607        -8.55636        -1.15404
| 47>    C        8.53871        -9.71270        -1.20375
| 48>    C        9.04116       -10.14913        -2.42635
| 49>    C        8.80683        -9.34561        -3.57135
| 50>    C        8.05823        -8.19705        -3.53154
| 51>    N        9.44707        -9.89894        -4.65851
| 52>    C        9.42540        -9.36970        -5.99537
| 53>    C       10.14538       -11.02053        -4.29869
| 54>    O       10.77772       -11.69238        -5.08446
| 55>    C        9.88263       -11.24862        -2.83340
| 56>    C       10.30314       -12.34662        -2.13354
| 57>    C        9.66891       -12.83956        -0.86039
| 58>    O        8.75803       -12.36482        -0.21662
| 59>    N       10.26473       -14.03433        -0.55572
| 60>    C        9.90803       -14.83448         0.58417
| 61>    C       11.25646       -14.33788        -1.46312
| 62>    C       11.31229       -13.32854        -2.45660
| 63>    C       12.30534       -13.40494        -3.42817
| 64>    C       13.16594       -14.48552        -3.43011
| 65>    C       13.06792       -15.49975        -2.47292
| 66>    C       12.10372       -15.41958        -1.45774
| 67>    C       13.94554       -16.63879        -2.50011
| 68>    S       15.18656       -16.87854        -3.71667
| 69>    C       15.54654       -18.37687        -2.86582
| 70>    N       14.77410       -18.55809        -1.83288
| 71>    N       13.90288       -17.61241        -1.63617
| 72>    C       16.56955       -19.26633        -3.29457
| 73>    C       16.92415       -20.35544        -2.57447
| 74>    C       17.91748       -21.27410        -3.00013
| 75>    C       18.48464       -22.25753        -2.25264
| 76>    C       19.18719       -23.39776        -2.92238
| 77>    O       19.54368       -23.44538        -4.07417
| 78>    C       19.27543       -24.42737        -1.87921
| 79>    C       19.69406       -25.72085        -1.78190
| 80>    S       19.47572       -26.31480        -0.15230
| 81>    C       18.83169       -24.80444         0.38106
| 82>    C       18.78189       -23.90535        -0.63700
| 83>    C       18.41118       -22.51523        -0.82597
| 84>    C       18.24110       -21.60321         0.18085
| 85>    C       18.22745       -22.00376         1.53379
| 86>    N       18.19762       -22.32851         2.63354
| 87>    C       18.19806       -20.20508        -0.00233
| 88>    N       18.23327       -19.06189        -0.09259
| 89>   Cl       20.34684       -26.70279        -2.99766
| 90>    H        2.06964         4.82677        -5.37417
| 91>    H        2.46119        -0.54772        -3.26004
| 92>    H        3.84965        -2.49371        -2.05338
| 93>    H        4.88459        -1.59828        -6.15801
| 94>    H        6.94901        -5.68117        -4.20685
| 95>    H        5.87018        -6.68210        -0.13472
| 96>    H        7.40524        -8.23481        -0.19831
| 97>    H        8.71226       -10.27721        -0.30472
| 98>    H        7.88207        -7.62423        -4.42631
| 99>    H        9.84572        -8.36251        -6.01706
|100>    H        8.40404        -9.34161        -6.37868
|101>    H       10.02831       -10.02936        -6.61807
|102>    H        9.09104       -14.32801         1.09666
|103>    H       10.75727       -14.93697         1.26226
|104>    H        9.57979       -15.82531         0.26595
|105>    H       12.39631       -12.64741        -4.18589
|106>    H       13.92906       -14.55251        -4.19129
|107>    H       12.05410       -16.19474        -0.71157
|108>    H       17.08374       -19.01627        -4.21195
|109>    H       16.39987       -20.54092        -1.64794
|110>    H       18.20741       -21.24973        -4.04537
|111>    H       18.52827       -24.69148         1.40297
|112> *
|113>
|114>                          ****END OF INPUT****

CARTESIAN COORDINATES (ANGSTROEM)
---------------------------------
  C      3.216540    2.950000   -5.252860
  C      2.948370    4.245330   -5.571090
  S      4.275230    4.971290   -6.401700
  C      5.216500    3.500380   -6.318860
  Cl     6.773670    3.410100   -6.979180
  C      4.514280    2.521210   -5.681710
  C      4.735420    1.124930   -5.291980
  O      5.741510    0.467930   -5.427680
  C      3.471380    0.719620   -4.600890
  C      2.548610    1.845990   -4.594010
  C      1.262860    1.878640   -4.124970
  C      0.482860    3.051830   -4.208690
  N     -0.161170    3.999210   -4.267550
  C      0.569610    0.794560   -3.549710
  N     -0.054820   -0.052620   -3.091560
  C      3.293060   -0.462050   -3.949610
  C      4.113550   -1.621760   -4.040560
  C      4.279110   -2.547180   -3.035180
  C      5.172610   -3.571900   -3.481870
  C      5.502720   -3.236320   -4.876050
  C      4.870890   -2.076850   -5.198620
  C      6.296540   -3.986280   -5.751010
  N      6.938430   -4.593140   -6.485990
  C      5.627730   -4.655220   -2.772360
  C      6.512680   -5.675480   -3.229160
  C      6.710040   -6.599350   -2.232630
  C      5.933040   -6.164850   -1.073470
  C      5.284610   -5.013610   -1.380260
  C      4.448400   -4.302680   -0.512540
  N      3.771830   -3.739060    0.225020
  C      7.515940   -7.789550   -2.299310
  C      7.786070   -8.556360   -1.154040
  C      8.538710   -9.712700   -1.203750
  C      9.041160  -10.149130   -2.426350
  C      8.806830   -9.345610   -3.571350
  C      8.058230   -8.197050   -3.531540
  N      9.447070   -9.898940   -4.658510
  C      9.425400   -9.369700   -5.995370
  C     10.145380  -11.020530   -4.298690
  O     10.777720  -11.692380   -5.084460
  C      9.882630  -11.248620   -2.833400
  C     10.303140  -12.346620   -2.133540
  C      9.668910  -12.839560   -0.860390
  O      8.758030  -12.364820   -0.216620
  N     10.264730  -14.034330   -0.555720
  C      9.908030  -14.834480    0.584170
  C     11.256460  -14.337880   -1.463120
  C     11.312290  -13.328540   -2.456600
  C     12.305340  -13.404940   -3.428170
  C     13.165940  -14.485520   -3.430110
  C     13.067920  -15.499750   -2.472920
  C     12.103720  -15.419580   -1.457740
  C     13.945540  -16.638790   -2.500110
  S     15.186560  -16.878540   -3.716670
  C     15.546540  -18.376870   -2.865820
  N     14.774100  -18.558090   -1.832880
  N     13.902880  -17.612410   -1.636170
  C     16.569550  -19.266330   -3.294570
  C     16.924150  -20.355440   -2.574470
  C     17.917480  -21.274100   -3.000130
  C     18.484640  -22.257530   -2.252640
  C     19.187190  -23.397760   -2.922380
  O     19.543680  -23.445380   -4.074170
  C     19.275430  -24.427370   -1.879210
  C     19.694060  -25.720850   -1.781900
  S     19.475720  -26.314800   -0.152300
  C     18.831690  -24.804440    0.381060
  C     18.781890  -23.905350   -0.637000
  C     18.411180  -22.515230   -0.825970
  C     18.241100  -21.603210    0.180850
  C     18.227450  -22.003760    1.533790
  N     18.197620  -22.328510    2.633540
  C     18.198060  -20.205080   -0.002330
  N     18.233270  -19.061890   -0.092590
  Cl    20.346840  -26.702790   -2.997660
  H      2.069640    4.826770   -5.374170
  H      2.461190   -0.547720   -3.260040
  H      3.849650   -2.493710   -2.053380
  H      4.884590   -1.598280   -6.158010
  H      6.949010   -5.681170   -4.206850
  H      5.870180   -6.682100   -0.134720
  H      7.405240   -8.234810   -0.198310
  H      8.712260  -10.277210   -0.304720
  H      7.882070   -7.624230   -4.426310
  H      9.845720   -8.362510   -6.017060
  H      8.404040   -9.341610   -6.378680
  H     10.028310  -10.029360   -6.618070
  H      9.091040  -14.328010    1.096660
  H     10.757270  -14.936970    1.262260
  H      9.579790  -15.825310    0.265950
  H     12.396310  -12.647410   -4.185890
  H     13.929060  -14.552510   -4.191290
  H     12.054100  -16.194740   -0.711570
  H     17.083740  -19.016270   -4.211950
  H     16.399870  -20.540920   -1.647940
  H     18.207410  -21.249730   -4.045370
  H     18.528270  -24.691480    1.402970

 Total Charge           Charge          ....    0
 Multiplicity           Mult            ....    1
 Number of Electrons    NEL             ....  542
 Basis Dimension        Dim             .... 1180

ORBITAL ENERGIES
----------------

  NO   OCC          E(Eh)            E(eV)
   0   2.0000    -101.623396     -2765.3132
   1   2.0000    -101.618554     -2765.1814
   2   2.0000     -89.000143     -2421.8170
   3   2.0000     -88.994473     -2421.6627
   4   2.0000     -88.982311     -2421.3318
   5   2.0000     -19.232140      -523.3331
   6   2.0000     -19.221604      -523.0464
   7   2.0000     -19.206440      -522.6338
   8   2.0000     -19.206412      -522.6330
   9   2.0000     -14.461135      -393.5075
  10   2.0000     -14.460152      -393.4807
  11   2.0000     -14.447099      -393.1255
  12   2.0000     -14.445249      -393.0752
  13   2.0000     -14.426661      -392.5694
  14   2.0000     -14.426131      -392.5550
  15   2.0000     -14.422632      -392.4598
  16   2.0000     -14.418364      -392.3436
  17   2.0000     -14.415636      -392.2694
  18   2.0000     -14.411838      -392.1660
  19   2.0000     -10.390155      -282.7305
  20   2.0000     -10.389796      -282.7207
  21   2.0000     -10.388236      -282.6783
  22   2.0000     -10.383094      -282.5384
  23   2.0000     -10.378048      -282.4010
  24   2.0000     -10.377526      -282.3868
  25   2.0000     -10.356094      -281.8036
  26   2.0000     -10.355437      -281.7858
  27   2.0000     -10.352615      -281.7090
  28   2.0000     -10.351182      -281.6700
  29   2.0000     -10.350539      -281.6525
  30   2.0000     -10.350028      -281.6386
  31   2.0000     -10.335858      -281.2530
  32   2.0000     -10.334137      -281.2062
  33   2.0000     -10.332416      -281.1593
  34   2.0000     -10.330295      -281.1016
  35   2.0000     -10.329977      -281.0930
  36   2.0000     -10.328715      -281.0586
  37   2.0000     -10.328152      -281.0433
  38   2.0000     -10.327778      -281.0331
  39   2.0000     -10.327203      -281.0175
  40   2.0000     -10.324467      -280.9430
  41   2.0000     -10.324079      -280.9325
  42   2.0000     -10.321967      -280.8750
  43   2.0000     -10.320167      -280.8260
  44   2.0000     -10.319399      -280.8051
  45   2.0000     -10.318155      -280.7713
  46   2.0000     -10.318096      -280.7697
  47   2.0000     -10.317259      -280.7469
  48   2.0000     -10.316868      -280.7362
  49   2.0000     -10.316575      -280.7283
  50   2.0000     -10.316153      -280.7168
  51   2.0000     -10.316050      -280.7140
  52   2.0000     -10.314827      -280.6807
  53   2.0000     -10.314634      -280.6755
  54   2.0000     -10.313859      -280.6544
  55   2.0000     -10.313495      -280.6445
  56   2.0000     -10.312580      -280.6196
  57   2.0000     -10.311804      -280.5984
  58   2.0000     -10.311473      -280.5894
  59   2.0000     -10.308322      -280.5037
  60   2.0000     -10.307097      -280.4704
  61   2.0000     -10.307053      -280.4692
  62   2.0000     -10.305056      -280.4148
  63   2.0000     -10.304461      -280.3986
  64   2.0000     -10.303969      -280.3852
  65   2.0000     -10.301927      -280.3297
  66   2.0000     -10.293761      -280.1075
  67   2.0000     -10.291466      -280.0450
  68   2.0000     -10.288411      -279.9619
  69   2.0000     -10.287109      -279.9265
  70   2.0000     -10.284362      -279.8517
  71   2.0000     -10.284214      -279.8477
  72   2.0000     -10.283702      -279.8338
  73   2.0000     -10.283210      -279.8204
  74   2.0000     -10.282322      -279.7962
  75   2.0000      -9.578137      -260.6343
  76   2.0000      -9.573325      -260.5034
  77   2.0000      -8.095840      -220.2990
  78   2.0000      -8.090151      -220.1442
  79   2.0000      -8.078446      -219.8257
  80   2.0000      -7.348803      -199.9711
  81   2.0000      -7.343971      -199.8396
  82   2.0000      -7.338174      -199.6819
  83   2.0000      -7.337606      -199.6664
  84   2.0000      -7.333354      -199.5507
  85   2.0000      -7.332821      -199.5362
  86   2.0000      -6.065220      -165.0430
  87   2.0000      -6.060581      -164.9168
  88   2.0000      -6.059549      -164.8887
  89   2.0000      -6.058113      -164.8496
  90   2.0000      -6.054935      -164.7632
  91   2.0000      -6.052399      -164.6941
  92   2.0000      -6.047075      -164.5493
  93   2.0000      -6.043707      -164.4576
  94   2.0000      -6.040923      -164.3819
  95   2.0000      -1.151158       -31.3246
  96   2.0000      -1.149927       -31.2911
  97   2.0000      -1.149408       -31.2770
  98   2.0000      -1.147758       -31.2321
  99   2.0000      -1.138513       -30.9805
 100   2.0000      -1.072289       -29.1785
 101   2.0000      -1.071016       -29.1438
 102   2.0000      -1.045073       -28.4379
 103   2.0000      -1.039555       -28.2877
 104   2.0000      -1.024591       -27.8805
 105   2.0000      -1.023173       -27.8420
 106   2.0000      -1.018116       -27.7044
 107   2.0000      -1.007179       -27.4067
 108   2.0000      -1.004657       -27.3381
 109   2.0000      -0.998852       -27.1801
 110   2.0000      -0.995477       -27.0883
 111   2.0000      -0.992254       -27.0006
 112   2.0000      -0.989714       -26.9315
 113   2.0000      -0.988464       -26.8975
 114   2.0000      -0.973220       -26.4827
 115   2.0000      -0.962921       -26.2024
 116   2.0000      -0.960788       -26.1444
 117   2.0000      -0.958811       -26.0906
 118   2.0000      -0.950243       -25.8574
 119   2.0000      -0.939038       -25.5525
 120   2.0000      -0.919872       -25.0310
 121   2.0000      -0.917351       -24.9624
 122   2.0000      -0.914061       -24.8729
 123   2.0000      -0.904770       -24.6200
 124   2.0000      -0.902642       -24.5621
 125   2.0000      -0.893872       -24.3235
 126   2.0000      -0.872330       -23.7373
 127   2.0000      -0.862665       -23.4743
 128   2.0000      -0.857278       -23.3277
 129   2.0000      -0.852423       -23.1956
 130   2.0000      -0.850615       -23.1464
 131   2.0000      -0.848333       -23.0843
 132   2.0000      -0.839354       -22.8400
 133   2.0000      -0.833868       -22.6907
 134   2.0000      -0.826134       -22.4802
 135   2.0000      -0.820901       -22.3379
 136   2.0000      -0.814654       -22.1679
 137   2.0000      -0.797854       -21.7107
 138   2.0000      -0.793732       -21.5986
 139   2.0000      -0.772008       -21.0074
 140   2.0000      -0.765724       -20.8364
 141   2.0000      -0.762054       -20.7365
 142   2.0000      -0.758434       -20.6380
 143   2.0000      -0.734778       -19.9943
 144   2.0000      -0.730611       -19.8809
 145   2.0000      -0.726369       -19.7655
 146   2.0000      -0.719661       -19.5830
 147   2.0000      -0.714926       -19.4541
 148   2.0000      -0.708635       -19.2829
 149   2.0000      -0.707651       -19.2562
 150   2.0000      -0.698432       -19.0053
 151   2.0000      -0.696965       -18.9654
 152   2.0000      -0.687340       -18.7035
 153   2.0000      -0.683676       -18.6038
 154   2.0000      -0.679874       -18.5003
 155   2.0000      -0.677204       -18.4277
 156   2.0000      -0.673204       -18.3188
 157   2.0000      -0.658075       -17.9071
 158   2.0000      -0.652172       -17.7465
 159   2.0000      -0.646911       -17.6034
 160   2.0000      -0.642718       -17.4892
 161   2.0000      -0.633385       -17.2353
 162   2.0000      -0.631352       -17.1800
 163   2.0000      -0.624491       -16.9933
 164   2.0000      -0.621806       -16.9202
 165   2.0000      -0.618975       -16.8432
 166   2.0000      -0.610880       -16.6229
 167   2.0000      -0.608520       -16.5587
 168   2.0000      -0.603435       -16.4203
 169   2.0000      -0.591326       -16.0908
 170   2.0000      -0.590408       -16.0658
 171   2.0000      -0.583659       -15.8822
 172   2.0000      -0.579783       -15.7767
 173   2.0000      -0.577156       -15.7052
 174   2.0000      -0.572060       -15.5665
 175   2.0000      -0.571477       -15.5507
 176   2.0000      -0.561051       -15.2670
 177   2.0000      -0.559080       -15.2133
 178   2.0000      -0.555380       -15.1126
 179   2.0000      -0.551223       -14.9995
 180   2.0000      -0.550405       -14.9773
 181   2.0000      -0.549683       -14.9576
 182   2.0000      -0.548617       -14.9286
 183   2.0000      -0.544346       -14.8124
 184   2.0000      -0.542662       -14.7666
 185   2.0000      -0.539826       -14.6894
 186   2.0000      -0.538483       -14.6529
 187   2.0000      -0.534395       -14.5416
 188   2.0000      -0.533375       -14.5139
 189   2.0000      -0.532102       -14.4792
 190   2.0000      -0.529708       -14.4141
 191   2.0000      -0.527656       -14.3582
 192   2.0000      -0.527236       -14.3468
 193   2.0000      -0.525129       -14.2895
 194   2.0000      -0.520699       -14.1689
 195   2.0000      -0.519141       -14.1266
 196   2.0000      -0.516289       -14.0490
 197   2.0000      -0.512407       -13.9433
 198   2.0000      -0.511075       -13.9070
 199   2.0000      -0.509322       -13.8594
 200   2.0000      -0.506871       -13.7927
 201   2.0000      -0.506659       -13.7869
 202   2.0000      -0.504239       -13.7210
 203   2.0000      -0.504161       -13.7189
 204   2.0000      -0.501353       -13.6425
 205   2.0000      -0.497201       -13.5295
 206   2.0000      -0.494553       -13.4575
 207   2.0000      -0.493826       -13.4377
 208   2.0000      -0.489999       -13.3336
 209   2.0000      -0.489083       -13.3086
 210   2.0000      -0.486907       -13.2494
 211   2.0000      -0.484314       -13.1789
 212   2.0000      -0.480415       -13.0727
 213   2.0000      -0.478609       -13.0236
 214   2.0000      -0.476958       -12.9787
 215   2.0000      -0.475799       -12.9472
 216   2.0000      -0.471969       -12.8429
 217   2.0000      -0.469388       -12.7727
 218   2.0000      -0.467505       -12.7215
 219   2.0000      -0.463046       -12.6001
 220   2.0000      -0.461441       -12.5565
 221   2.0000      -0.458309       -12.4712
 222   2.0000      -0.458122       -12.4661
 223   2.0000      -0.452914       -12.3244
 224   2.0000      -0.452703       -12.3187
 225   2.0000      -0.450867       -12.2687
 226   2.0000      -0.450740       -12.2653
 227   2.0000      -0.446903       -12.1609
 228   2.0000      -0.444819       -12.1041
 229   2.0000      -0.443822       -12.0770
 230   2.0000      -0.442587       -12.0434
 231   2.0000      -0.441042       -12.0014
 232   2.0000      -0.440298       -11.9811
 233   2.0000      -0.438880       -11.9425
 234   2.0000      -0.437357       -11.9011
 235   2.0000      -0.436276       -11.8717
 236   2.0000      -0.433028       -11.7833
 237   2.0000      -0.430481       -11.7140
 238   2.0000      -0.429104       -11.6765
 239   2.0000      -0.423391       -11.5210
 240   2.0000      -0.421812       -11.4781
 241   2.0000      -0.417498       -11.3607
 242   2.0000      -0.416700       -11.3390
 243   2.0000      -0.411613       -11.2006
 244   2.0000      -0.409408       -11.1405
 245   2.0000      -0.404768       -11.0143
 246   2.0000      -0.403361       -10.9760
 247   2.0000      -0.400173       -10.8893
 248   2.0000      -0.397285       -10.8107
 249   2.0000      -0.396086       -10.7781
 250   2.0000      -0.394616       -10.7381
 251   2.0000      -0.376890       -10.2557
 252   2.0000      -0.375558       -10.2195
 253   2.0000      -0.370117       -10.0714
 254   2.0000      -0.359524        -9.7831
 255   2.0000      -0.358238        -9.7482
 256   2.0000      -0.350874        -9.5478
 257   2.0000      -0.346275        -9.4226
 258   2.0000      -0.345631        -9.4051
 259   2.0000      -0.343498        -9.3471
 260   2.0000      -0.335738        -9.1359
 261   2.0000      -0.332293        -9.0422
 262   2.0000      -0.329361        -8.9624
 263   2.0000      -0.323000        -8.7893
 264   2.0000      -0.320866        -8.7312
 265   2.0000      -0.314114        -8.5475
 266   2.0000      -0.305853        -8.3227
 267   2.0000      -0.300499        -8.1770
 268   2.0000      -0.297489        -8.0951
 269   2.0000      -0.289353        -7.8737
 270   2.0000      -0.264756        -7.2044
 271   0.0000      -0.136229        -3.7070
 272   0.0000      -0.106798        -2.9061
 273   0.0000      -0.090846        -2.4721
 274   0.0000      -0.083013        -2.2589
 275   0.0000      -0.058398        -1.5891

MULLIKEN ATOMIC CHARGES
-----------------------
   0 C :    0.032060
   1 C :   -0.128427
   2 S :    0.192507
   3 C :   -0.169515
   4 Cl:    0.003594
   5 C :    0.077479
   6 C :    0.139600
   7 O :   -0.128452
   8 C :   -0.099488
   9 C :    0.292342
  10 C :   -0.323660
  11 C :   -0.192225
  12 N :    0.158426
  13 C :   -0.191493
  14 N :    0.173348
  15 C :   -0.030744
  16 C :    0.083496
  17 C :   -0.068225
  18 C :    0.096807
  19 C :   -0.129385
  20 C :    0.074609
  21 C :   -0.170018
  22 N :    0.124433
  23 C :    0.141065
  24 C :   -0.133823
  25 C :    0.103040
  26 C :   -0.004521
  27 C :   -0.091472
  28 C :   -0.181831
  29 N :    0.142220
  30 C :    0.147633
  31 C :   -0.047552
  32 C :   -0.018275
  33 C :    0.062145
  34 C :    0.190631
  35 C :   -0.155720
  36 N :   -0.230879
  37 C :    0.121933
  38 C :    0.164843
  39 O :   -0.191917
  40 C :   -0.052314
  41 C :   -0.046129
  42 C :    0.166402
  43 O :   -0.194382
  44 N :   -0.234911
  45 C :    0.120842
  46 C :    0.198508
  47 C :    0.056377
  48 C :   -0.011789
  49 C :   -0.041975
  50 C :    0.152039
  51 C :   -0.146031
  52 C :   -0.107706
  53 S :    0.104668
  54 C :   -0.085252
  55 N :   -0.032450
  56 N :   -0.043043
  57 C :    0.068087
  58 C :    0.025906
  59 C :    0.028742
  60 C :   -0.119147
  61 C :    0.143503
  62 O :   -0.125184
  63 C :    0.080165
  64 C :   -0.171248
  65 S :    0.185388
  66 C :   -0.127415
  67 C :    0.023426
  68 C :    0.264573
  69 C :   -0.300001
  70 C :   -0.183414
  71 N :    0.153383
  72 C :   -0.210863
  73 N :    0.176002
  74 Cl:    0.000055
  75 H :    0.055886
  76 H :    0.040523
  77 H :    0.015737
  78 H :    0.004007
  79 H :    0.001353
  80 H :    0.006243
  81 H :   -0.028490
  82 H :    0.000275
  83 H :   -0.031392
  84 H :    0.041696
  85 H :    0.041650
  86 H :    0.058151
  87 H :    0.058108
  88 H :    0.041031
  89 H :    0.039274
  90 H :    0.001311
  91 H :   -0.014024
  92 H :   -0.013064
  93 H :    0.005300
  94 H :    0.050227
  95 H :    0.022940
  96 H :    0.053853
Sum of atomic charges:   -0.0000000

LOEWDIN ATOMIC CHARGES
----------------------
   0 C :   -0.059228
   1 C :   -0.147513
   2 S :    0.480940
   3 C :   -0.270352
   4 Cl:    0.195146
   5 C :   -0.118387
   6 C :    0.081568
   7 O :   -0.122790
   8 C :   -0.079910
   9 C :    0.071434
  10 C :   -0.128735
  11 C :   -0.014955
  12 N :   -0.046055
  13 C :   -0.025979
  14 N :   -0.036520
  15 C :    0.075915
  16 C :   -0.032049
  17 C :    0.026959
  18 C :    0.026842
  19 C :   -0.095086
  20 C :    0.077218
  21 C :   -0.024644
  22 N :   -0.072478
  23 C :    0.053092
  24 C :   -0.031310
  25 C :    0.008500
  26 C :    0.060920
  27 C :   -0.078750
  28 C :   -0.032605
  29 N :   -0.056687
  30 C :   -0.006011
  31 C :   -0.031693
  32 C :    0.020379
  33 C :   -0.038049
  34 C :    0.048230
  35 C :   -0.045825
  36 N :   -0.010273
  37 C :    0.035710
  38 C :    0.086395
  39 O :   -0.176742
  40 C :   -0.018050
  41 C :   -0.012600
  42 C :    0.086539
  43 O :   -0.177402
  44 N :   -0.010473
  45 C :    0.035753
  46 C :    0.047332
  47 C :   -0.043715
  48 C :    0.022586
  49 C :   -0.040832
  50 C :   -0.032822
  51 C :   -0.035525
  52 C :   -0.130176
  53 S :    0.406670
  54 C :   -0.150568
  55 N :   -0.060947
  56 N :   -0.070417
  57 C :   -0.006837
  58 C :    0.005364
  59 C :    0.064015
  60 C :   -0.077092
  61 C :    0.079731
  62 O :   -0.130947
  63 C :   -0.118740
  64 C :   -0.271877
  65 S :    0.474617
  66 C :   -0.151451
  67 C :   -0.056945
  68 C :    0.066811
  69 C :   -0.127141
  70 C :   -0.015328
  71 N :   -0.046347
  72 C :   -0.025959
  73 N :   -0.037341
  74 Cl:    0.192375
  75 H :    0.038630
  76 H :    0.053662
  77 H :    0.040530
  78 H :    0.037669
  79 H :    0.032322
  80 H :    0.038481
  81 H :    0.026972
  82 H :    0.034552
  83 H :    0.033719
  84 H :    0.030930
  85 H :    0.031100
  86 H :    0.041548
  87 H :    0.040998
  88 H :    0.030486
  89 H :    0.030623
  90 H :    0.034519
  91 H :    0.022147
  92 H :    0.036534
  93 H :    0.037882
  94 H :    0.042980
  95 H :    0.046841
  96 H :    0.037996

  Mayer bond orders larger than 0.100000
B(  0-C ,  1-C ) :   1.5432 B(  0-C ,  5-C ) :   1.2223 B(  0-C ,  9-C ) :   1.0004
B(  1-C ,  2-S ) :   1.1642 B(  1-C , 75-H ) :   0.9543 B(  2-S ,  3-C ) :   1.1552
B(  3-C ,  4-Cl) :   1.1320 B(  3-C ,  5-C ) :   1.4700 B(  5-C ,  6-C ) :   0.9535
B(  6-C ,  7-O ) :   2.2297 B(  6-C ,  8-C ) :   0.9329 B(  8-C ,  9-C ) :   1.0511
B(  8-C , 15-C ) :   1.6410 B(  9-C , 10-C ) :   1.6693 B( 10-C , 11-C ) :   1.1454
B( 10-C , 13-C ) :   1.1349 B( 11-C , 12-N ) :   2.9910 B( 13-C , 14-N ) :   2.9842
B( 15-C , 16-C ) :   1.0919 B( 15-C , 76-H ) :   0.9484 B( 16-C , 17-C ) :   1.5228
B( 16-C , 20-C ) :   1.0601 B( 17-C , 18-C ) :   1.0964 B( 17-C , 77-H ) :   1.0062
B( 18-C , 19-C ) :   1.1173 B( 18-C , 23-C ) :   1.4272 B( 19-C , 20-C ) :   1.6687
B( 19-C , 21-C ) :   1.0946 B( 20-C , 78-H ) :   1.0065 B( 21-C , 22-N ) :   2.9701
B( 23-C , 24-C ) :   1.1109 B( 23-C , 27-C ) :   1.0935 B( 24-C , 25-C ) :   1.5820
B( 24-C , 79-H ) :   0.9946 B( 25-C , 26-C ) :   1.0403 B( 25-C , 30-C ) :   1.0331
B( 26-C , 27-C ) :   1.6880 B( 26-C , 80-H ) :   1.0154 B( 27-C , 28-C ) :   1.0873
B( 28-C , 29-N ) :   2.9689 B( 30-C , 31-C ) :   1.3331 B( 30-C , 35-C ) :   1.2634
B( 31-C , 32-C ) :   1.3705 B( 31-C , 81-H ) :   0.9923 B( 32-C , 33-C ) :   1.3761
B( 32-C , 82-H ) :   0.9783 B( 33-C , 34-C ) :   1.2552 B( 33-C , 40-C ) :   1.0886
B( 34-C , 35-C ) :   1.3745 B( 34-C , 36-N ) :   1.0758 B( 35-C , 83-H ) :   1.0077
B( 36-N , 37-C ) :   0.9601 B( 36-N , 38-C ) :   1.1320 B( 37-C , 84-H ) :   0.9724
B( 37-C , 85-H ) :   0.9725 B( 37-C , 86-H ) :   0.9560 B( 38-C , 39-O ) :   2.0906
B( 38-C , 40-C ) :   0.9048 B( 40-C , 41-C ) :   1.6450 B( 41-C , 42-C ) :   0.9045
B( 41-C , 47-C ) :   1.0912 B( 42-C , 43-O ) :   2.0856 B( 42-C , 44-N ) :   1.1352
B( 44-N , 45-C ) :   0.9623 B( 44-N , 46-C ) :   1.0698 B( 45-C , 87-H ) :   0.9573
B( 45-C , 88-H ) :   0.9726 B( 45-C , 89-H ) :   0.9729 B( 46-C , 47-C ) :   1.2643
B( 46-C , 51-C ) :   1.3330 B( 47-C , 48-C ) :   1.3747 B( 48-C , 49-C ) :   1.3869
B( 48-C , 90-H ) :   0.9788 B( 49-C , 50-C ) :   1.3276 B( 49-C , 91-H ) :   0.9849
B( 50-C , 51-C ) :   1.3008 B( 50-C , 52-C ) :   1.0409 B( 51-C , 92-H ) :   1.0197
B( 52-C , 53-S ) :   1.1151 B( 52-C , 56-N ) :   1.7090 B( 53-S , 54-C ) :   1.0850
B( 54-C , 55-N ) :   1.6749 B( 54-C , 57-C ) :   1.0938 B( 55-N , 56-N ) :   1.2280
B( 57-C , 58-C ) :   1.7189 B( 57-C , 93-H ) :   0.9595 B( 58-C , 59-C ) :   1.0989
B( 58-C , 94-H ) :   0.9516 B( 59-C , 60-C ) :   1.6544 B( 59-C , 95-H ) :   0.9569
B( 60-C , 61-C ) :   0.9320 B( 60-C , 68-C ) :   1.0361 B( 61-C , 62-O ) :   2.2843
B( 61-C , 63-C ) :   0.9256 B( 63-C , 64-C ) :   1.4842 B( 63-C , 67-C ) :   1.2222
B( 64-C , 65-S ) :   1.1531 B( 64-C , 74-Cl) :   1.1291 B( 65-S , 66-C ) :   1.1582
B( 66-C , 67-C ) :   1.5533 B( 66-C , 96-H ) :   0.9562 B( 67-C , 68-C ) :   1.0108
B( 68-C , 69-C ) :   1.6666 B( 69-C , 70-C ) :   1.1339 B( 69-C , 72-C ) :   1.1453
B( 70-C , 71-N ) :   2.9987 B( 72-C , 73-N ) :   3.0163

-----------------------------------------------------------------------------
         ABSORPTION SPECTRUM VIA TRANSITION ELECTRIC DIPOLE MOMENTS
-----------------------------------------------------------------------------
State   Energy  Wavelength   fosc         T2         TX        TY        TZ
        (cm-1)    (nm)                  (au**2)     (au)      (au)      (au)
-----------------------------------------------------------------------------
   0   13977.2    715.5   1.078813863  25.40985  -2.32503   4.31111  -1.19096
   1   18549.5    539.1   0.020472217   0.36334   0.44105  -0.40519  -0.06808
   2   18939.4    528.0   0.261218557   4.54061  -1.07631   1.76343  -0.52202
   3   19876.6    503.1   0.254621430   4.21724   1.13188  -1.68883   0.28973
   4   21551.4    464.0   0.374528238   5.72116  -1.42417   1.82079  -0.61451
   5   22995.4    434.9   0.742393737  10.62845  -2.02713   2.52734  -0.36295
   6   23462.2    426.2   0.057850255   0.81173  -0.23975   0.86825  -0.01995
   7   24047.2    415.8   0.078714112   1.07761  -0.27369   0.77982  -0.62816
   8   25625.9    390.2   0.106330737   1.36601   0.14232  -1.11557   0.31822
   9   26122.7    382.8   0.107822770   1.35884  -0.70853   0.87620   0.29850
  10   26880.7    372.0   0.039096735   0.47882  -0.08484   0.35290   0.58914
  11   26940.2    371.2   0.016135390   0.19718   0.03288  -0.26859  -0.35207
  12   27026.2    370.0   0.082022873   0.99914   0.66215  -0.74102   0.10762
  13   27772.9    360.1   0.014646352   0.17361   0.10686  -0.12247  -0.38366
  14   28075.1    356.2   0.009228589   0.10822   0.23354  -0.09201  -0.21262
  15   28329.4    353.0   0.430999325   5.00859   1.03157  -1.83826   0.75183
  16   28804.5    347.2   0.046830352   0.53523   0.37529  -0.50517  -0.37308
  17   28859.2    346.5   0.048720740   0.55578  -0.20425  -0.12119   0.70667
  18   29190.1    342.6   0.206063486   2.32403   0.62187  -1.39139   0.03662
  19   29895.3    334.5   0.050451929   0.55559  -0.52059   0.53334   0.01104
  20   30782.7    324.9   0.117823510   1.26009   0.16372  -0.88730   0.66782
  21   30967.6    322.9   0.050669695   0.53866   0.39683   0.04818  -0.61552
  22   31273.4    319.8   0.037815202   0.39808   0.19285  -0.59656  -0.07068
  23   31791.6    314.5   0.036728441   0.38033   0.45826  -0.33770  -0.23726
  24   32188.4    310.7   0.038483518   0.39360  -0.33687   0.43601   0.30002
  25   32421.2    308.4   0.062572499   0.63538   0.58124   0.36718  -0.40338
  26   33612.5    297.5   0.041967706   0.41105  -0.40062   0.33956   0.36776
  27   33674.1    297.0   0.351593635   3.43733  -0.76305   1.65666   0.33254
  28   34217.6    292.2   0.081150262   0.78076  -0.17827  -0.63756   0.58522
  29   34447.8    290.3   0.223364052   2.13465   0.41080   1.27177  -0.59034
  30   34506.5    289.8   0.053698483   0.51231  -0.50337   0.50885   0.00218
  31   34604.1    289.0   0.002119881   0.02017  -0.03388  -0.13010  -0.04577
  32   34913.3    286.4   0.030609508   0.28863   0.27399  -0.45013  -0.10462
  33   35130.1    284.7   0.064123883   0.60092  -0.31961  -0.66214   0.24566
  34   35400.3    282.5   0.024711849   0.22981   0.42946   0.02288  -0.21179
  35   35485.4    281.8   0.035875292   0.33283  -0.15821   0.09423   0.54674
  36   35693.9    280.2   0.113146917   1.04358  -0.38797   0.93987   0.09853
  37   36004.3    277.7   0.006946260   0.06351  -0.13368   0.20461   0.06146
  38   36106.2    277.0   0.003295987   0.03005   0.01922  -0.08944   0.14725
  39   36325.5    275.3   0.007840628   0.07106  -0.10624  -0.03359   0.24216
  40   36522.7    273.8   0.002323014   0.02094   0.08047  -0.11950  -0.01361
  41   36717.9    272.3   0.064119566   0.57490   0.23917   0.61987  -0.36531
  42   36933.2    270.8   0.045325283   0.40402  -0.55821  -0.01583   0.30359
  43   37012.0    270.2   0.040121413   0.35687   0.50024   0.32583   0.02142
  44   37198.0    268.8   0.012303656   0.10889  -0.26293  -0.03913  -0.19552
  45   37813.3    264.5   0.241357682   2.10132   0.54332  -1.09926  -0.77314
  46   38199.2    261.8   0.136376664   1.17533   0.04984   1.08273  -0.02334
  47   38391.6    260.5   0.214972230   1.84341   0.53985  -1.23054  -0.19426
  48   38588.3    259.1   0.203355253   1.73490  -1.17984   0.02420   0.58506
  49   38769.5    257.9   0.082366970   0.69942  -0.04264  -0.83024   0.09114
  50   38831.9    257.5   0.024027901   0.20371   0.16805   0.41849  -0.01826
  51   39219.2    255.0   0.132036538   1.10834  -0.74771  -0.63763   0.37776
  52   39619.8    252.4   0.089759872   0.74584  -0.21956  -0.59091   0.59030
  53   39714.3    251.8   0.003669065   0.03041   0.01733  -0.16092  -0.06496
  54   39933.7    250.4   0.140611646   1.15920  -0.67181  -0.63276   0.55451
  55   40080.0    249.5   0.068171371   0.55995  -0.64394   0.37966  -0.03393

FINAL SINGLE POINT ENERGY     -5106.007229982309

DIPOLE MOMENT
-------------
                                X             Y             Z
Electronic contribution:     21.25475       2.47660     -11.68275
Nuclear contribution   :    -19.85880      -3.02540      10.12366
                        -----------------------------------------
Total Dipole Moment    :      1.39595      -0.54880      -1.55909
                        -----------------------------------------
Magnitude (a.u.)       :      2.16347
Magnitude (Debye)      :      5.49911

Rotational constants in cm-1:     0.003125     0.000119     0.000116
Rotational constants in MHz :    93.690147     3.554757     3.474996

                             ****ORCA TERMINATED NORMALLY****
TOTAL RUN TIME: 0 days 0 hours 9 minutes 16 seconds 68 msec
