                         Program Version 4.2.0 -  RELEASE  -
|  1> # ORCA input file
|  2> # SCF done       -162.355759478312          0.000319435426
|  3> ! CAM-B3LYP def2-SVP def2/J RIJCOSX Grid4 TightSCF
|  4> %maxcore 5000
|  5> %tddft
|  6>     Mode sTDDFT
|  7>     Ethresh 5.0
|  8>     maxcore 5000
|  9> end
| 10>
| 11> %pal
| 12>   nprocs 6
| 13>   end
| 14> * xyz 0 1
| 15>    C       -0.52887        -1.20312        -2.28979
| 16>    N       -1.15279        -0.39718        -3.19111
| 17>    C       -1.41975        -0.72328        -4.56944
| 18>    C       -0.14739        -0.69154        -5.41193
| 19>    C       -1.46759         0.85825        -2.62866
| 20>    O       -2.03074         1.74402        -3.24678
| 21>    C       -0.98700         0.76553        -1.27301
| 22>    C       -0.40884        -0.53594        -1.10483
| 23>    C        0.08353        -0.63323         0.25336
| 24>    O        0.64609        -1.51693         0.85974
| 25>    N       -0.22510         0.62204         0.81767
| 26>    C        0.07642         0.90689         2.19894
| 27>    C       -1.15512         0.77404         3.09209
| 28>    C       -0.86379         1.45364        -0.07605
| 29>    C       -1.27751         2.77776         0.24796
| 30>    C       -1.91712         3.57256        -0.63821
| 31>    C       -2.34990         4.91797        -0.38513
| 32>    C       -2.33851         5.55561         0.86781
| 33>    N       -2.71889         6.79750         1.03404
| 34>    C       -3.14591         7.47156        -0.04115
| 35>    N       -3.23491         6.95737        -1.27362
| 36>    C       -2.84334         5.71443        -1.43261
| 37>    C       -3.52114         8.83398         0.18258
| 38>    S       -3.42266         9.44823         1.79489
| 39>    C       -3.94400        11.01948         1.26683
| 40>    C       -4.18618        11.03477        -0.09945
| 41>    C       -3.94359         9.79707        -0.71571
| 42>    C       -4.13947         9.55243        -2.17541
| 43>    C       -4.22097        10.87468        -2.95100
| 44>    C       -2.91201        11.48076        -3.03967
| 45>    N       -1.88066        11.96941        -3.09500
| 46>    C       -5.18573        11.85394        -2.24439
| 47>    C       -6.48530        11.23544        -2.10790
| 48>    N       -7.51139        10.74664        -1.99301
| 49>    C       -4.64174        12.24291        -0.86065
| 50>    C       -4.06463        12.11335         2.17255
| 51>    C       -3.91097        12.00622         3.50756
| 52>    C       -4.01654        13.08565         4.44965
| 53>    C       -4.15445        12.83423         5.82818
| 54>    N       -4.27043        13.78463         6.71933
| 55>    C       -4.25424        15.04823         6.28757
| 56>    N       -4.08560        15.40544         5.01081
| 57>    C       -3.96697        14.44806         4.11923
| 58>    C       -4.43520        16.06011         7.30132
| 59>    N       -4.06387        17.37551         7.19212
| 60>    C       -3.44995        18.02647         6.06070
| 61>    C       -4.49631        18.52870         5.07085
| 62>    C       -4.35754        18.09588         8.36429
| 63>    O       -4.09507        19.27526         8.50617
| 64>    C       -4.97128        17.12442         9.23847
| 65>    C       -4.99575        15.87474         8.55203
| 66>    C       -5.65704        14.90872         9.40500
| 67>    O       -5.95702        13.74558         9.27266
| 68>    N       -5.97123        15.65116        10.57263
| 69>    C       -6.59923        15.01284        11.70270
| 70>    C       -5.58908        14.67000        12.79535
| 71>    C       -5.56735        16.95784        10.47927
| 72>    C       -5.77808        17.92693        11.51837
| 73>    C       -5.35807        19.19002        11.42599
| 74>    H       -0.22269        -2.19781        -2.55599
| 75>    H       -2.12756         0.02715        -4.93181
| 76>    H       -1.88643        -1.71176        -4.62188
| 77>    H        0.30428         0.29658        -5.37022
| 78>    H       -0.38376        -0.92335        -6.44661
| 79>    H        0.57412        -1.41924        -5.04697
| 80>    H        0.51407         1.90608         2.28243
| 81>    H        0.82640         0.16971         2.49988
| 82>    H       -1.94145         1.45837         2.78052
| 83>    H       -0.88814         0.99202         4.12256
| 84>    H       -1.54129        -0.24084         3.04011
| 85>    H       -1.04860         3.13731         1.24036
| 86>    H       -2.11780         3.19520        -1.63270
| 87>    H       -2.02226         5.04431         1.76798
| 88>    H       -2.91461         5.31759        -2.43804
| 89>    H       -5.06743         8.99060        -2.32009
| 90>    H       -3.32893         8.92732        -2.55489
| 91>    H       -4.57218        10.67895        -3.97149
| 92>    H       -5.30838        12.75867        -2.85341
| 93>    H       -5.41798        12.77222        -0.30183
| 94>    H       -3.79676        12.92724        -0.99478
| 95>    H       -4.30182        13.07057         1.72957
| 96>    H       -3.71578        11.02887         3.93132
| 97>    H       -4.17418        11.82087         6.20954
| 98>    H       -3.80720        14.78129         3.10128
| 99>    H       -2.77367        17.32516         5.56965
|100>    H       -2.88432        18.87220         6.46252
|101>    H       -5.05553        17.68901         4.66745
|102>    H       -4.00744        19.05302         4.25472
|103>    H       -5.18041        19.21267         5.56707
|104>    H       -7.04572        14.09203        11.31611
|105>    H       -7.39541        15.65254        12.09414
|106>    H       -4.82986        14.00087        12.39833
|107>    H       -6.09251        14.17468        13.62115
|108>    H       -5.09887        15.56634        13.16917
|109>    H       -6.30512        17.59009        12.40049
|110>    H       -4.83149        19.54662        10.55643
|111>    H       -5.53398        19.89484        12.22047
|112> *
|113>
|114>                          ****END OF INPUT****

CARTESIAN COORDINATES (ANGSTROEM)
---------------------------------
  C     -0.528870   -1.203120   -2.289790
  N     -1.152790   -0.397180   -3.191110
  C     -1.419750   -0.723280   -4.569440
  C     -0.147390   -0.691540   -5.411930
  C     -1.467590    0.858250   -2.628660
  O     -2.030740    1.744020   -3.246780
  C     -0.987000    0.765530   -1.273010
  C     -0.408840   -0.535940   -1.104830
  C      0.083530   -0.633230    0.253360
  O      0.646090   -1.516930    0.859740
  N     -0.225100    0.622040    0.817670
  C      0.076420    0.906890    2.198940
  C     -1.155120    0.774040    3.092090
  C     -0.863790    1.453640   -0.076050
  C     -1.277510    2.777760    0.247960
  C     -1.917120    3.572560   -0.638210
  C     -2.349900    4.917970   -0.385130
  C     -2.338510    5.555610    0.867810
  N     -2.718890    6.797500    1.034040
  C     -3.145910    7.471560   -0.041150
  N     -3.234910    6.957370   -1.273620
  C     -2.843340    5.714430   -1.432610
  C     -3.521140    8.833980    0.182580
  S     -3.422660    9.448230    1.794890
  C     -3.944000   11.019480    1.266830
  C     -4.186180   11.034770   -0.099450
  C     -3.943590    9.797070   -0.715710
  C     -4.139470    9.552430   -2.175410
  C     -4.220970   10.874680   -2.951000
  C     -2.912010   11.480760   -3.039670
  N     -1.880660   11.969410   -3.095000
  C     -5.185730   11.853940   -2.244390
  C     -6.485300   11.235440   -2.107900
  N     -7.511390   10.746640   -1.993010
  C     -4.641740   12.242910   -0.860650
  C     -4.064630   12.113350    2.172550
  C     -3.910970   12.006220    3.507560
  C     -4.016540   13.085650    4.449650
  C     -4.154450   12.834230    5.828180
  N     -4.270430   13.784630    6.719330
  C     -4.254240   15.048230    6.287570
  N     -4.085600   15.405440    5.010810
  C     -3.966970   14.448060    4.119230
  C     -4.435200   16.060110    7.301320
  N     -4.063870   17.375510    7.192120
  C     -3.449950   18.026470    6.060700
  C     -4.496310   18.528700    5.070850
  C     -4.357540   18.095880    8.364290
  O     -4.095070   19.275260    8.506170
  C     -4.971280   17.124420    9.238470
  C     -4.995750   15.874740    8.552030
  C     -5.657040   14.908720    9.405000
  O     -5.957020   13.745580    9.272660
  N     -5.971230   15.651160   10.572630
  C     -6.599230   15.012840   11.702700
  C     -5.589080   14.670000   12.795350
  C     -5.567350   16.957840   10.479270
  C     -5.778080   17.926930   11.518370
  C     -5.358070   19.190020   11.425990
  H     -0.222690   -2.197810   -2.555990
  H     -2.127560    0.027150   -4.931810
  H     -1.886430   -1.711760   -4.621880
  H      0.304280    0.296580   -5.370220
  H     -0.383760   -0.923350   -6.446610
  H      0.574120   -1.419240   -5.046970
  H      0.514070    1.906080    2.282430
  H      0.826400    0.169710    2.499880
  H     -1.941450    1.458370    2.780520
  H     -0.888140    0.992020    4.122560
  H     -1.541290   -0.240840    3.040110
  H     -1.048600    3.137310    1.240360
  H     -2.117800    3.195200   -1.632700
  H     -2.022260    5.044310    1.767980
  H     -2.914610    5.317590   -2.438040
  H     -5.067430    8.990600   -2.320090
  H     -3.328930    8.927320   -2.554890
  H     -4.572180   10.678950   -3.971490
  H     -5.308380   12.758670   -2.853410
  H     -5.417980   12.772220   -0.301830
  H     -3.796760   12.927240   -0.994780
  H     -4.301820   13.070570    1.729570
  H     -3.715780   11.028870    3.931320
  H     -4.174180   11.820870    6.209540
  H     -3.807200   14.781290    3.101280
  H     -2.773670   17.325160    5.569650
  H     -2.884320   18.872200    6.462520
  H     -5.055530   17.689010    4.667450
  H     -4.007440   19.053020    4.254720
  H     -5.180410   19.212670    5.567070
  H     -7.045720   14.092030   11.316110
  H     -7.395410   15.652540   12.094140
  H     -4.829860   14.000870   12.398330
  H     -6.092510   14.174680   13.621150
  H     -5.098870   15.566340   13.169170
  H     -6.305120   17.590090   12.400490
  H     -4.831490   19.546620   10.556430
  H     -5.533980   19.894840   12.220470

 Total Charge           Charge          ....    0
 Multiplicity           Mult            ....    1
 Number of Electrons    NEL             ....  420
 Basis Dimension        Dim             .... 1020

ORBITAL ENERGIES
----------------

  NO   OCC          E(Eh)            E(eV)
   0   2.0000     -88.960982     -2420.7514
   1   2.0000     -19.190325      -522.1953
   2   2.0000     -19.186550      -522.0926
   3   2.0000     -19.180832      -521.9370
   4   2.0000     -19.175943      -521.8039
   5   2.0000     -14.453535      -393.3007
   6   2.0000     -14.451970      -393.2581
   7   2.0000     -14.444394      -393.0519
   8   2.0000     -14.441013      -392.9600
   9   2.0000     -14.423798      -392.4915
  10   2.0000     -14.423321      -392.4785
  11   2.0000     -14.420799      -392.4099
  12   2.0000     -14.413985      -392.2245
  13   2.0000     -14.413041      -392.1988
  14   2.0000     -14.412874      -392.1942
  15   2.0000     -10.372584      -282.2524
  16   2.0000     -10.372396      -282.2472
  17   2.0000     -10.364969      -282.0451
  18   2.0000     -10.360395      -281.9207
  19   2.0000     -10.359641      -281.9002
  20   2.0000     -10.351051      -281.6664
  21   2.0000     -10.343146      -281.4513
  22   2.0000     -10.340906      -281.3904
  23   2.0000     -10.337028      -281.2848
  24   2.0000     -10.336033      -281.2578
  25   2.0000     -10.334709      -281.2217
  26   2.0000     -10.332724      -281.1677
  27   2.0000     -10.328675      -281.0575
  28   2.0000     -10.328643      -281.0567
  29   2.0000     -10.323807      -280.9251
  30   2.0000     -10.322811      -280.8980
  31   2.0000     -10.312517      -280.6179
  32   2.0000     -10.311645      -280.5941
  33   2.0000     -10.310533      -280.5639
  34   2.0000     -10.309410      -280.5333
  35   2.0000     -10.309290      -280.5300
  36   2.0000     -10.304657      -280.4040
  37   2.0000     -10.302793      -280.3532
  38   2.0000     -10.301963      -280.3307
  39   2.0000     -10.301287      -280.3123
  40   2.0000     -10.300096      -280.2799
  41   2.0000     -10.298972      -280.2493
  42   2.0000     -10.298444      -280.2349
  43   2.0000     -10.295512      -280.1551
  44   2.0000     -10.295032      -280.1421
  45   2.0000     -10.294259      -280.1210
  46   2.0000     -10.291965      -280.0586
  47   2.0000     -10.291224      -280.0385
  48   2.0000     -10.286439      -279.9082
  49   2.0000     -10.283467      -279.8274
  50   2.0000     -10.276138      -279.6279
  51   2.0000     -10.266002      -279.3521
  52   2.0000     -10.265913      -279.3497
  53   2.0000     -10.259277      -279.1691
  54   2.0000     -10.258959      -279.1605
  55   2.0000     -10.258440      -279.1464
  56   2.0000     -10.255189      -279.0579
  57   2.0000     -10.248461      -278.8748
  58   2.0000     -10.240231      -278.6509
  59   2.0000      -8.055834      -219.2104
  60   2.0000      -6.024992      -163.9484
  61   2.0000      -6.020991      -163.8395
  62   2.0000      -6.018109      -163.7611
  63   2.0000      -1.131326       -30.7849
  64   2.0000      -1.124661       -30.6036
  65   2.0000      -1.122995       -30.5582
  66   2.0000      -1.114696       -30.3324
  67   2.0000      -1.097643       -29.8684
  68   2.0000      -1.091152       -29.6918
  69   2.0000      -1.062160       -28.9028
  70   2.0000      -1.053738       -28.6737
  71   2.0000      -1.052902       -28.6509
  72   2.0000      -1.041540       -28.3417
  73   2.0000      -1.017995       -27.7010
  74   2.0000      -0.998555       -27.1721
  75   2.0000      -0.996260       -27.1096
  76   2.0000      -0.992458       -27.0062
  77   2.0000      -0.984931       -26.8013
  78   2.0000      -0.955135       -25.9906
  79   2.0000      -0.939317       -25.5601
  80   2.0000      -0.930105       -25.3094
  81   2.0000      -0.925068       -25.1724
  82   2.0000      -0.916850       -24.9487
  83   2.0000      -0.900195       -24.4956
  84   2.0000      -0.887016       -24.1369
  85   2.0000      -0.881400       -23.9841
  86   2.0000      -0.872841       -23.7512
  87   2.0000      -0.870233       -23.6802
  88   2.0000      -0.859473       -23.3875
  89   2.0000      -0.855274       -23.2732
  90   2.0000      -0.833079       -22.6692
  91   2.0000      -0.821022       -22.3411
  92   2.0000      -0.812140       -22.0994
  93   2.0000      -0.807727       -21.9794
  94   2.0000      -0.798445       -21.7268
  95   2.0000      -0.785817       -21.3832
  96   2.0000      -0.776355       -21.1257
  97   2.0000      -0.763588       -20.7783
  98   2.0000      -0.761797       -20.7296
  99   2.0000      -0.755248       -20.5513
 100   2.0000      -0.753240       -20.4967
 101   2.0000      -0.749501       -20.3950
 102   2.0000      -0.747873       -20.3507
 103   2.0000      -0.743974       -20.2446
 104   2.0000      -0.722195       -19.6519
 105   2.0000      -0.710291       -19.3280
 106   2.0000      -0.699262       -19.0279
 107   2.0000      -0.696506       -18.9529
 108   2.0000      -0.693905       -18.8821
 109   2.0000      -0.684510       -18.6265
 110   2.0000      -0.662371       -18.0240
 111   2.0000      -0.657960       -17.9040
 112   2.0000      -0.652794       -17.7634
 113   2.0000      -0.650519       -17.7015
 114   2.0000      -0.645717       -17.5708
 115   2.0000      -0.639648       -17.4057
 116   2.0000      -0.632945       -17.2233
 117   2.0000      -0.627963       -17.0877
 118   2.0000      -0.624273       -16.9873
 119   2.0000      -0.610912       -16.6238
 120   2.0000      -0.603511       -16.4224
 121   2.0000      -0.600797       -16.3485
 122   2.0000      -0.593392       -16.1470
 123   2.0000      -0.589332       -16.0365
 124   2.0000      -0.588790       -16.0218
 125   2.0000      -0.579079       -15.7575
 126   2.0000      -0.574313       -15.6279
 127   2.0000      -0.571477       -15.5507
 128   2.0000      -0.568562       -15.4714
 129   2.0000      -0.562855       -15.3161
 130   2.0000      -0.561096       -15.2682
 131   2.0000      -0.557579       -15.1725
 132   2.0000      -0.552063       -15.0224
 133   2.0000      -0.551006       -14.9936
 134   2.0000      -0.544408       -14.8141
 135   2.0000      -0.534777       -14.5520
 136   2.0000      -0.531559       -14.4645
 137   2.0000      -0.530897       -14.4464
 138   2.0000      -0.528617       -14.3844
 139   2.0000      -0.527744       -14.3606
 140   2.0000      -0.526176       -14.3180
 141   2.0000      -0.523807       -14.2535
 142   2.0000      -0.522102       -14.2071
 143   2.0000      -0.519384       -14.1332
 144   2.0000      -0.516568       -14.0565
 145   2.0000      -0.512401       -13.9431
 146   2.0000      -0.511842       -13.9279
 147   2.0000      -0.511195       -13.9103
 148   2.0000      -0.510129       -13.8813
 149   2.0000      -0.507711       -13.8155
 150   2.0000      -0.505789       -13.7632
 151   2.0000      -0.502662       -13.6781
 152   2.0000      -0.500206       -13.6113
 153   2.0000      -0.496910       -13.5216
 154   2.0000      -0.495412       -13.4809
 155   2.0000      -0.492544       -13.4028
 156   2.0000      -0.490673       -13.3519
 157   2.0000      -0.486874       -13.2485
 158   2.0000      -0.477264       -12.9870
 159   2.0000      -0.474108       -12.9011
 160   2.0000      -0.469689       -12.7809
 161   2.0000      -0.466677       -12.6989
 162   2.0000      -0.464357       -12.6358
 163   2.0000      -0.463366       -12.6088
 164   2.0000      -0.457449       -12.4478
 165   2.0000      -0.455151       -12.3853
 166   2.0000      -0.454063       -12.3557
 167   2.0000      -0.452391       -12.3102
 168   2.0000      -0.451123       -12.2757
 169   2.0000      -0.449605       -12.2344
 170   2.0000      -0.448385       -12.2012
 171   2.0000      -0.446623       -12.1532
 172   2.0000      -0.444005       -12.0820
 173   2.0000      -0.443567       -12.0701
 174   2.0000      -0.439458       -11.9583
 175   2.0000      -0.438996       -11.9457
 176   2.0000      -0.433130       -11.7861
 177   2.0000      -0.433002       -11.7826
 178   2.0000      -0.429884       -11.6977
 179   2.0000      -0.429331       -11.6827
 180   2.0000      -0.427333       -11.6283
 181   2.0000      -0.425852       -11.5880
 182   2.0000      -0.423427       -11.5220
 183   2.0000      -0.415721       -11.3123
 184   2.0000      -0.412152       -11.2152
 185   2.0000      -0.411286       -11.1917
 186   2.0000      -0.407054       -11.0765
 187   2.0000      -0.405430       -11.0323
 188   2.0000      -0.404894       -11.0177
 189   2.0000      -0.402964       -10.9652
 190   2.0000      -0.400631       -10.9017
 191   2.0000      -0.394841       -10.7442
 192   2.0000      -0.387815       -10.5530
 193   2.0000      -0.385659       -10.4943
 194   2.0000      -0.383157       -10.4262
 195   2.0000      -0.352405        -9.5894
 196   2.0000      -0.346669        -9.4333
 197   2.0000      -0.342307        -9.3147
 198   2.0000      -0.336515        -9.1570
 199   2.0000      -0.332738        -9.0543
 200   2.0000      -0.329134        -8.9562
 201   2.0000      -0.324649        -8.8342
 202   2.0000      -0.322075        -8.7641
 203   2.0000      -0.318885        -8.6773
 204   2.0000      -0.315353        -8.5812
 205   2.0000      -0.313125        -8.5206
 206   2.0000      -0.303487        -8.2583
 207   2.0000      -0.272783        -7.4228
 208   2.0000      -0.248002        -6.7485
 209   2.0000      -0.235840        -6.4175
 210   0.0000      -0.086409        -2.3513
 211   0.0000      -0.068536        -1.8650
 212   0.0000      -0.041335        -1.1248
 213   0.0000      -0.013148        -0.3578
 214   0.0000      -0.008523        -0.2319

MULLIKEN ATOMIC CHARGES
-----------------------
   0 C :    0.034487
   1 N :   -0.257225
   2 C :    0.113901
   3 C :   -0.001857
   4 C :    0.172663
   5 O :   -0.220429
   6 C :   -0.102289
   7 C :    0.011464
   8 C :    0.160389
   9 O :   -0.184911
  10 N :   -0.270356
  11 C :    0.100150
  12 C :    0.004943
  13 C :    0.147772
  14 C :   -0.006774
  15 C :    0.018696
  16 C :    0.008631
  17 C :    0.044803
  18 N :   -0.069026
  19 C :   -0.068612
  20 N :   -0.070515
  21 C :    0.046348
  22 C :   -0.075769
  23 S :    0.173088
  24 C :   -0.093019
  25 C :   -0.072512
  26 C :   -0.079780
  27 C :    0.182734
  28 C :   -0.071160
  29 C :   -0.247807
  30 N :    0.143806
  31 C :   -0.078585
  32 C :   -0.247628
  33 N :    0.147430
  34 C :    0.138044
  35 C :    0.003606
  36 C :    0.005078
  37 C :    0.026928
  38 C :    0.034463
  39 N :   -0.003535
  40 C :   -0.175086
  41 N :   -0.055547
  42 C :    0.036294
  43 C :    0.180518
  44 N :   -0.260841
  45 C :    0.144477
  46 C :    0.005237
  47 C :    0.159990
  48 O :   -0.215255
  49 C :   -0.072438
  50 C :   -0.038251
  51 C :    0.144813
  52 O :   -0.161829
  53 N :   -0.271417
  54 C :    0.100936
  55 C :    0.002716
  56 C :    0.116159
  57 C :   -0.037605
  58 C :    0.018359
  59 H :    0.014589
  60 H :    0.042265
  61 H :    0.018249
  62 H :    0.028887
  63 H :    0.023484
  64 H :    0.015604
  65 H :    0.021063
  66 H :    0.044522
  67 H :    0.011559
  68 H :    0.023229
  69 H :    0.030895
  70 H :   -0.028906
  71 H :    0.016486
  72 H :    0.007154
  73 H :    0.021282
  74 H :    0.049907
  75 H :    0.047630
  76 H :    0.051998
  77 H :    0.052720
  78 H :    0.043312
  79 H :    0.054059
  80 H :   -0.007863
  81 H :    0.002560
  82 H :    0.010002
  83 H :    0.001240
  84 H :    0.016613
  85 H :    0.028123
  86 H :    0.014695
  87 H :    0.008413
  88 H :    0.018351
  89 H :    0.041249
  90 H :    0.021773
  91 H :    0.030139
  92 H :    0.020758
  93 H :    0.013946
  94 H :   -0.019266
  95 H :    0.059931
  96 H :    0.030480
Sum of atomic charges:   -0.0000000

LOEWDIN ATOMIC CHARGES
----------------------
   0 C :    0.088309
   1 N :    0.000748
   2 C :    0.038288
   3 C :   -0.060231
   4 C :    0.076854
   5 O :   -0.210879
   6 C :   -0.133629
   7 C :   -0.126786
   8 C :    0.082290
   9 O :   -0.189367
  10 N :   -0.009370
  11 C :    0.035131
  12 C :   -0.061263
  13 C :    0.086521
  14 C :   -0.049378
  15 C :    0.035912
  16 C :   -0.084421
  17 C :    0.065471
  18 N :   -0.091185
  19 C :    0.021700
  20 N :   -0.079672
  21 C :    0.066291
  22 C :   -0.190780
  23 S :    0.482569
  24 C :   -0.162345
  25 C :   -0.061440
  26 C :   -0.031723
  27 C :   -0.007483
  28 C :   -0.037181
  29 C :   -0.034780
  30 N :   -0.056128
  31 C :   -0.034510
  32 C :   -0.036379
  33 N :   -0.051932
  34 C :   -0.008870
  35 C :   -0.028536
  36 C :   -0.019608
  37 C :   -0.068765
  38 C :    0.055920
  39 N :   -0.044175
  40 C :    0.015899
  41 N :   -0.067399
  42 C :    0.051005
  43 C :    0.050595
  44 N :    0.009988
  45 C :    0.037702
  46 C :   -0.062660
  47 C :    0.077359
  48 O :   -0.207892
  49 C :   -0.132446
  50 C :   -0.098752
  51 C :    0.085376
  52 O :   -0.170757
  53 N :   -0.007146
  54 C :    0.034964
  55 C :   -0.061594
  56 C :    0.091603
  57 C :   -0.056133
  58 C :    0.031351
  59 H :    0.032510
  60 H :    0.036050
  61 H :    0.024467
  62 H :    0.031253
  63 H :    0.030407
  64 H :    0.022476
  65 H :    0.021511
  66 H :    0.038487
  67 H :    0.020229
  68 H :    0.030532
  69 H :    0.033069
  70 H :    0.026070
  71 H :    0.039443
  72 H :    0.025288
  73 H :    0.033395
  74 H :    0.049218
  75 H :    0.044614
  76 H :    0.061436
  77 H :    0.061012
  78 H :    0.042091
  79 H :    0.045512
  80 H :    0.030716
  81 H :    0.027188
  82 H :    0.029060
  83 H :    0.023090
  84 H :    0.021807
  85 H :    0.029560
  86 H :    0.018280
  87 H :    0.025061
  88 H :    0.025573
  89 H :    0.036489
  90 H :    0.021779
  91 H :    0.032336
  92 H :    0.029342
  93 H :    0.021521
  94 H :    0.029235
  95 H :    0.033915
  96 H :    0.029725

  Mayer bond orders larger than 0.100000
B(  0-C ,  1-N ) :   1.1867 B(  0-C ,  7-C ) :   1.4622 B(  0-C , 59-H ) :   0.9902
B(  1-N ,  2-C ) :   0.9416 B(  1-N ,  4-C ) :   1.0629 B(  2-C ,  3-C ) :   1.1180
B(  2-C , 60-H ) :   0.9344 B(  2-C , 61-H ) :   0.9539 B(  3-C , 62-H ) :   0.9674
B(  3-C , 63-H ) :   0.9687 B(  3-C , 64-H ) :   0.9695 B(  4-C ,  5-O ) :   2.0089
B(  4-C ,  6-C ) :   1.0058 B(  5-O , 71-H ) :   0.1162 B(  6-C ,  7-C ) :   1.1987
B(  6-C , 13-C ) :   1.3866 B(  7-C ,  8-C ) :   0.9490 B(  8-C ,  9-O ) :   2.1765
B(  8-C , 10-N ) :   1.0157 B( 10-N , 11-C ) :   0.9470 B( 10-N , 13-C ) :   1.1602
B( 11-C , 12-C ) :   1.1195 B( 11-C , 65-H ) :   0.9500 B( 11-C , 66-H ) :   0.9267
B( 12-C , 67-H ) :   0.9684 B( 12-C , 68-H ) :   0.9680 B( 12-C , 69-H ) :   0.9640
B( 13-C , 14-C ) :   1.1448 B( 14-C , 15-C ) :   1.6376 B( 14-C , 70-H ) :   0.9567
B( 15-C , 16-C ) :   1.0721 B( 15-C , 71-H ) :   0.9588 B( 16-C , 17-C ) :   1.2897
B( 16-C , 21-C ) :   1.3046 B( 17-C , 18-N ) :   1.5989 B( 17-C , 72-H ) :   0.9828
B( 18-N , 19-C ) :   1.5602 B( 19-C , 20-N ) :   1.5197 B( 19-C , 22-C ) :   1.0492
B( 20-N , 21-C ) :   1.5559 B( 21-C , 73-H ) :   0.9867 B( 22-C , 23-S ) :   1.1309
B( 22-C , 24-C ) :   0.1100 B( 22-C , 26-C ) :   1.5409 B( 23-S , 24-C ) :   1.1226
B( 24-C , 25-C ) :   1.4870 B( 24-C , 35-C ) :   1.1511 B( 25-C , 26-C ) :   1.3167
B( 25-C , 34-C ) :   1.0341 B( 26-C , 27-C ) :   1.0469 B( 27-C , 28-C ) :   1.0354
B( 27-C , 74-H ) :   0.8995 B( 27-C , 75-H ) :   0.8984 B( 28-C , 29-C ) :   1.1065
B( 28-C , 31-C ) :   1.0736 B( 28-C , 76-H ) :   0.8558 B( 29-C , 30-N ) :   3.1056
B( 31-C , 32-C ) :   1.1084 B( 31-C , 34-C ) :   1.0654 B( 31-C , 77-H ) :   0.8574
B( 32-C , 33-N ) :   3.1082 B( 34-C , 78-H ) :   0.9142 B( 34-C , 79-H ) :   0.9026
B( 35-C , 36-C ) :   1.6942 B( 35-C , 80-H ) :   0.9639 B( 36-C , 37-C ) :   1.0718
B( 36-C , 81-H ) :   0.9775 B( 37-C , 38-C ) :   1.2787 B( 37-C , 42-C ) :   1.3122
B( 38-C , 39-N ) :   1.5889 B( 38-C , 82-H ) :   0.9914 B( 39-N , 40-C ) :   1.6031
B( 39-N , 43-C ) :  -0.1058 B( 40-C , 41-N ) :   1.4944 B( 40-C , 43-C ) :   0.9783
B( 41-N , 42-C ) :   1.5609 B( 42-C , 83-H ) :   0.9831 B( 43-C , 44-N ) :   1.1981
B( 43-C , 50-C ) :   1.4238 B( 44-N , 45-C ) :   0.9419 B( 44-N , 47-C ) :   1.0607
B( 45-C , 46-C ) :   1.1222 B( 45-C , 84-H ) :   0.9401 B( 45-C , 85-H ) :   0.9296
B( 46-C , 86-H ) :   0.9628 B( 46-C , 87-H ) :   0.9675 B( 46-C , 88-H ) :   0.9655
B( 47-C , 48-O ) :   2.0343 B( 47-C , 49-C ) :   0.9888 B( 49-C , 50-C ) :   1.2229
B( 49-C , 56-C ) :   1.3613 B( 50-C , 51-C ) :   0.9492 B( 51-C , 52-O ) :   2.1828
B( 51-C , 53-N ) :   1.0084 B( 53-N , 54-C ) :   0.9502 B( 53-N , 56-C ) :   1.1834
B( 54-C , 55-C ) :   1.1181 B( 54-C , 89-H ) :   0.9267 B( 54-C , 90-H ) :   0.9511
B( 55-C , 91-H ) :   0.9642 B( 55-C , 92-H ) :   0.9682 B( 55-C , 93-H ) :   0.9692
B( 56-C , 57-C ) :   1.1248 B( 57-C , 58-C ) :   1.8887 B( 57-C , 94-H ) :   0.9534
B( 58-C , 95-H ) :   0.9237 B( 58-C , 96-H ) :   0.9446

-----------------------------------------------------------------------------
         ABSORPTION SPECTRUM VIA TRANSITION ELECTRIC DIPOLE MOMENTS
-----------------------------------------------------------------------------
State   Energy  Wavelength   fosc         T2         TX        TY        TZ
        (cm-1)    (nm)                  (au**2)     (au)      (au)      (au)
-----------------------------------------------------------------------------
   0   18513.3    540.2   1.213861339  21.58543   1.18991  -2.76675  -3.53760
   1   20536.1    486.9   0.400675074   6.42318  -0.12771   2.45441   0.61867
   2   24573.9    406.9   0.375180282   5.02621  -0.16994   2.23367  -0.08973
   3   26156.9    382.3   0.403219949   5.07495   0.62731  -1.88564  -1.06102
   4   27636.8    361.8   0.004581289   0.05457  -0.09460  -0.19933  -0.07675
   5   28138.7    355.4   0.009232486   0.10802  -0.22449   0.08725   0.22363
   6   28247.8    354.0   0.003383255   0.03943  -0.17460  -0.05195   0.07903
   7   29148.0    343.1   0.001900599   0.02147  -0.09540   0.07550  -0.08164
   8   30172.1    331.4   0.064556293   0.70438  -0.19729  -0.73909  -0.34527
   9   30214.4    331.0   0.023070006   0.25137   0.19575  -0.37397   0.27055
  10   30566.3    327.2   0.001153057   0.01242  -0.09194   0.02998   0.05538
  11   31166.1    320.9   0.032623033   0.34460   0.05702  -0.51392  -0.27791
  12   31371.2    318.8   0.061927428   0.64987  -0.26400   0.02491  -0.76128
  13   31706.4    315.4   0.230475534   2.39306   0.62959  -0.34048   1.37140
  14   33166.9    301.5   0.001221790   0.01213  -0.01523  -0.04142   0.10089
  15   33385.8    299.5   0.004095946   0.04039  -0.06591   0.11500   0.15107
  16   33944.9    294.6   0.007762261   0.07528   0.13832  -0.10577   0.21204
  17   34912.9    286.4   0.068735588   0.64814  -0.16767   0.04276  -0.78626
  18   35250.7    283.7   0.000958220   0.00895   0.01543  -0.07253   0.05875
  19   36011.2    277.7   0.106429654   0.97297  -0.46539   0.79832  -0.34505
  20   36376.7    274.9   0.055429814   0.50164   0.23642  -0.65947   0.10417
  21   37507.6    266.6   0.187811786   1.64846  -0.48861   0.67375  -0.97764
  22   37902.8    263.8   0.019771844   0.17173   0.17734  -0.15968   0.33880
  23   38823.6    257.6   0.022034615   0.18685  -0.27092  -0.32265   0.09667
  24   38885.2    257.2   0.016944020   0.14345  -0.33946   0.16315  -0.03996
  25   38983.1    256.5   0.002226271   0.01880   0.05548   0.12340   0.02225
  26   39887.6    250.7   0.176272308   1.45486  -0.39984   0.19663  -1.12086
  27   40084.7    249.5   0.030973563   0.25438  -0.21007   0.17981   0.42181

FINAL SINGLE POINT ENERGY     -2942.870035398054

DIPOLE MOMENT
-------------
                                X             Y             Z
Electronic contribution:     -2.50805       4.38218     -12.70295
Nuclear contribution   :      2.55050      -5.46853      12.25467
                        -----------------------------------------
Total Dipole Moment    :      0.04245      -1.08634      -0.44828
                        -----------------------------------------
Magnitude (a.u.)       :      1.17597
Magnitude (Debye)      :      2.98907

Rotational constants in cm-1:     0.002217     0.000345     0.000307
Rotational constants in MHz :    66.476502    10.351849     9.215409

                             ****ORCA TERMINATED NORMALLY****
TOTAL RUN TIME: 0 days 0 hours 6 minutes 26 seconds 664 msec
