                         Program Version 4.2.0 -  RELEASE  -
|  1> # ORCA input file
|  2> # SCF done       -197.052614931518          0.000308628065
|  3> ! CAM-B3LYP def2-SVP def2/J RIJCOSX Grid4 TightSCF
|  4> %maxcore 5000
|  5> %tddft
|  6>     Mode sTDDFT
|  7>     Ethresh 5.0
|  8>     maxcore 5000
|  9> end
| 10>
| 11> %pal
| 12>   nprocs 6
| 13>   end
| 14> * xyz 0 1
| 15>    C       -6.49029       -14.09484        15.46566
| 16>    C       -6.91836       -12.92412        16.07688
| 17>    C       -7.41744       -11.80667        15.30644
| 18>    N       -7.81912       -10.68794        15.92625
| 19>    C       -7.75216       -10.62741        17.23611
| 20>    C       -7.25984       -11.73879        18.00312
| 21>    N       -6.86137       -12.83977        17.42594
| 22>    C       -7.20698       -11.63463        19.41721
| 23>    N       -7.18139       -11.50734        20.55523
| 24>    C       -8.17261        -9.44560        17.89046
| 25>    N       -8.50570        -8.49853        18.44405
| 26>    C       -7.49227       -11.85900        13.89308
| 27>    C       -7.05327       -13.05508        13.28585
| 28>    C       -6.55586       -14.16290        14.07796
| 29>    N       -6.19210       -15.19676        13.30924
| 30>    S       -6.44960       -14.81118        11.77473
| 31>    N       -7.03005       -13.33020        11.98222
| 32>    C       -7.98314       -10.74779        13.15595
| 33>    N       -8.03596       -10.78823        11.87107
| 34>    N       -8.48214        -9.76622        11.18778
| 35>    C       -8.51583        -9.79011         9.81323
| 36>    C       -8.96826        -8.67555         9.10268
| 37>    C       -8.98010        -8.69025         7.72759
| 38>    C       -8.54469        -9.81308         7.01011
| 39>    C       -8.11447       -10.93033         7.74442
| 40>    C       -8.09370       -10.92760         9.11717
| 41>    C       -8.49657        -9.87257         5.57063
| 42>    C       -8.74365        -8.86172         4.71487
| 43>    C       -8.62200        -8.92551         3.27775
| 44>    C       -8.49282       -10.11175         2.59138
| 45>    C       -8.29563       -10.11668         1.19443
| 46>    C       -8.09685       -11.15142         0.28731
| 47>    C       -8.08595       -12.63298         0.49072
| 48>    C       -6.79019       -13.12997         1.16604
| 49>    N       -6.62382       -12.59175         2.50476
| 50>    C       -9.33228       -13.13289         1.23726
| 51>    N      -10.51905       -12.78228         0.47215
| 52>    C       -7.88871       -10.53460        -1.00392
| 53>    C       -7.62626       -11.06905        -2.21070
| 54>    C       -7.38841       -10.22080        -3.40799
| 55>    C       -7.55170        -8.74767        -3.17324
| 56>    C       -7.83464        -8.23118        -1.96427
| 57>    C       -7.99319        -9.07919        -0.84229
| 58>    C       -8.24208        -8.83745         0.49237
| 59>    C       -8.42584        -7.63492         1.21447
| 60>    C       -8.61396        -7.68464         2.55584
| 61>    C       -8.22430       -10.62687        -4.59362
| 62>    C       -9.35648       -11.33288        -4.52905
| 63>    C      -10.11058       -11.67585        -5.69698
| 64>    N      -11.17783       -12.37497        -5.60892
| 65>    N      -11.84242       -12.68989        -6.71032
| 66>    C      -12.98675       -13.44251        -6.69919
| 67>    C      -13.54526       -13.90035        -5.49974
| 68>    C      -14.69450       -14.65101        -5.51607
| 69>    C      -15.33320       -14.98212        -6.72321
| 70>    C      -14.75434       -14.51907        -7.91743
| 71>    C      -13.60935       -13.76241        -7.91099
| 72>    C      -16.53122       -15.76504        -6.81052
| 73>    C      -17.26251       -16.23439        -5.77021
| 74>    C      -18.45344       -17.01555        -5.84743
| 75>    C      -19.06841       -17.51616        -7.02539
| 76>    C      -20.29147       -18.29314        -6.96396
| 77>    N      -20.85850       -18.75542        -8.10213
| 78>    C      -20.28842       -18.49455        -9.24598
| 79>    C      -19.07226       -17.73321        -9.30909
| 80>    N      -18.50731       -17.27519        -8.21737
| 81>    C      -18.45778       -17.46303       -10.55454
| 82>    N      -17.97434       -17.24791       -11.57161
| 83>    C      -20.87218       -18.97293       -10.44741
| 84>    N      -21.30484       -19.33840       -11.44300
| 85>    C      -20.92002       -18.59061        -5.76232
| 86>    C      -20.33050       -18.11881        -4.59625
| 87>    C      -19.11037       -17.34281        -4.63843
| 88>    N      -18.71087       -16.98722        -3.41433
| 89>    S      -19.75155       -17.56408        -2.33887
| 90>    N      -20.76531       -18.29293        -3.34152
| 91>    H       -6.12130       -14.91566        16.05621
| 92>    H       -8.30265        -9.87237        13.72787
| 93>    H       -8.79790        -8.91503        11.66640
| 94>    H       -9.30489        -7.79971         9.63974
| 95>    H       -9.33435        -7.81843         7.20051
| 96>    H       -7.78395       -11.80965         7.21067
| 97>    H       -7.75547       -11.77947         9.68551
| 98>    H       -8.18842       -10.83100         5.17348
| 99>    H       -9.00812        -7.88786         5.10558
|100>    H       -8.52017       -11.04906         3.12109
|101>    H       -8.11672       -13.09893        -0.49938
|102>    H       -5.94535       -12.88680         0.49833
|103>    H       -6.84886       -14.21878         1.25081
|104>    H       -6.39335       -11.60463         2.45370
|105>    H       -5.85886       -13.06205         2.97582
|106>    H       -9.33412       -12.74139         2.26230
|107>    H       -9.28946       -14.22441         1.29689
|108>    H      -10.59048       -11.77206         0.39538
|109>    H      -11.35243       -13.11738         0.94281
|110>    H       -7.54992       -12.13714        -2.36283
|111>    H       -6.33622       -10.38764        -3.70105
|112>    H       -7.42658        -8.11422        -4.03819
|113>    H       -7.93879        -7.16357        -1.83380
|114>    H       -8.40733        -6.69157         0.68833
|115>    H       -8.74626        -6.77170         3.11924
|116>    H       -7.86739       -10.26772        -5.55049
|117>    H       -9.74903       -11.68665        -3.58715
|118>    H       -9.73451       -11.32884        -6.66874
|119>    H      -11.49018       -12.37503        -7.61895
|120>    H      -13.05191       -13.64908        -4.57462
|121>    H      -15.10736       -14.99525        -4.58109
|122>    H      -15.22583       -14.76500        -8.85759
|123>    H      -13.18105       -13.41294        -8.83992
|124>    H      -16.86903       -15.98554        -7.81276
|125>    H      -16.96881       -16.01108        -4.75330
|126>    H      -21.82933       -19.16617        -5.74976
|127> *
|128>
|129>                          ****END OF INPUT****

CARTESIAN COORDINATES (ANGSTROEM)
---------------------------------
  C     -6.490290  -14.094840   15.465660
  C     -6.918360  -12.924120   16.076880
  C     -7.417440  -11.806670   15.306440
  N     -7.819120  -10.687940   15.926250
  C     -7.752160  -10.627410   17.236110
  C     -7.259840  -11.738790   18.003120
  N     -6.861370  -12.839770   17.425940
  C     -7.206980  -11.634630   19.417210
  N     -7.181390  -11.507340   20.555230
  C     -8.172610   -9.445600   17.890460
  N     -8.505700   -8.498530   18.444050
  C     -7.492270  -11.859000   13.893080
  C     -7.053270  -13.055080   13.285850
  C     -6.555860  -14.162900   14.077960
  N     -6.192100  -15.196760   13.309240
  S     -6.449600  -14.811180   11.774730
  N     -7.030050  -13.330200   11.982220
  C     -7.983140  -10.747790   13.155950
  N     -8.035960  -10.788230   11.871070
  N     -8.482140   -9.766220   11.187780
  C     -8.515830   -9.790110    9.813230
  C     -8.968260   -8.675550    9.102680
  C     -8.980100   -8.690250    7.727590
  C     -8.544690   -9.813080    7.010110
  C     -8.114470  -10.930330    7.744420
  C     -8.093700  -10.927600    9.117170
  C     -8.496570   -9.872570    5.570630
  C     -8.743650   -8.861720    4.714870
  C     -8.622000   -8.925510    3.277750
  C     -8.492820  -10.111750    2.591380
  C     -8.295630  -10.116680    1.194430
  C     -8.096850  -11.151420    0.287310
  C     -8.085950  -12.632980    0.490720
  C     -6.790190  -13.129970    1.166040
  N     -6.623820  -12.591750    2.504760
  C     -9.332280  -13.132890    1.237260
  N    -10.519050  -12.782280    0.472150
  C     -7.888710  -10.534600   -1.003920
  C     -7.626260  -11.069050   -2.210700
  C     -7.388410  -10.220800   -3.407990
  C     -7.551700   -8.747670   -3.173240
  C     -7.834640   -8.231180   -1.964270
  C     -7.993190   -9.079190   -0.842290
  C     -8.242080   -8.837450    0.492370
  C     -8.425840   -7.634920    1.214470
  C     -8.613960   -7.684640    2.555840
  C     -8.224300  -10.626870   -4.593620
  C     -9.356480  -11.332880   -4.529050
  C    -10.110580  -11.675850   -5.696980
  N    -11.177830  -12.374970   -5.608920
  N    -11.842420  -12.689890   -6.710320
  C    -12.986750  -13.442510   -6.699190
  C    -13.545260  -13.900350   -5.499740
  C    -14.694500  -14.651010   -5.516070
  C    -15.333200  -14.982120   -6.723210
  C    -14.754340  -14.519070   -7.917430
  C    -13.609350  -13.762410   -7.910990
  C    -16.531220  -15.765040   -6.810520
  C    -17.262510  -16.234390   -5.770210
  C    -18.453440  -17.015550   -5.847430
  C    -19.068410  -17.516160   -7.025390
  C    -20.291470  -18.293140   -6.963960
  N    -20.858500  -18.755420   -8.102130
  C    -20.288420  -18.494550   -9.245980
  C    -19.072260  -17.733210   -9.309090
  N    -18.507310  -17.275190   -8.217370
  C    -18.457780  -17.463030  -10.554540
  N    -17.974340  -17.247910  -11.571610
  C    -20.872180  -18.972930  -10.447410
  N    -21.304840  -19.338400  -11.443000
  C    -20.920020  -18.590610   -5.762320
  C    -20.330500  -18.118810   -4.596250
  C    -19.110370  -17.342810   -4.638430
  N    -18.710870  -16.987220   -3.414330
  S    -19.751550  -17.564080   -2.338870
  N    -20.765310  -18.292930   -3.341520
  H     -6.121300  -14.915660   16.056210
  H     -8.302650   -9.872370   13.727870
  H     -8.797900   -8.915030   11.666400
  H     -9.304890   -7.799710    9.639740
  H     -9.334350   -7.818430    7.200510
  H     -7.783950  -11.809650    7.210670
  H     -7.755470  -11.779470    9.685510
  H     -8.188420  -10.831000    5.173480
  H     -9.008120   -7.887860    5.105580
  H     -8.520170  -11.049060    3.121090
  H     -8.116720  -13.098930   -0.499380
  H     -5.945350  -12.886800    0.498330
  H     -6.848860  -14.218780    1.250810
  H     -6.393350  -11.604630    2.453700
  H     -5.858860  -13.062050    2.975820
  H     -9.334120  -12.741390    2.262300
  H     -9.289460  -14.224410    1.296890
  H    -10.590480  -11.772060    0.395380
  H    -11.352430  -13.117380    0.942810
  H     -7.549920  -12.137140   -2.362830
  H     -6.336220  -10.387640   -3.701050
  H     -7.426580   -8.114220   -4.038190
  H     -7.938790   -7.163570   -1.833800
  H     -8.407330   -6.691570    0.688330
  H     -8.746260   -6.771700    3.119240
  H     -7.867390  -10.267720   -5.550490
  H     -9.749030  -11.686650   -3.587150
  H     -9.734510  -11.328840   -6.668740
  H    -11.490180  -12.375030   -7.618950
  H    -13.051910  -13.649080   -4.574620
  H    -15.107360  -14.995250   -4.581090
  H    -15.225830  -14.765000   -8.857590
  H    -13.181050  -13.412940   -8.839920
  H    -16.869030  -15.985540   -7.812760
  H    -16.968810  -16.011080   -4.753300
  H    -21.829330  -19.166170   -5.749760

 Total Charge           Charge          ....    0
 Multiplicity           Mult            ....    1
 Number of Electrons    NEL             ....  530
 Basis Dimension        Dim             .... 1252

ORBITAL ENERGIES
----------------

  NO   OCC          E(Eh)            E(eV)
   0   2.0000     -89.043233     -2422.9895
   1   2.0000     -89.038379     -2422.8575
   2   2.0000     -14.494445      -394.4139
   3   2.0000     -14.479842      -394.0165
   4   2.0000     -14.466870      -393.6636
   5   2.0000     -14.463927      -393.5835
   6   2.0000     -14.458515      -393.4362
   7   2.0000     -14.455388      -393.3511
   8   2.0000     -14.454847      -393.3364
   9   2.0000     -14.451462      -393.2443
  10   2.0000     -14.451082      -393.2339
  11   2.0000     -14.448809      -393.1721
  12   2.0000     -14.448309      -393.1585
  13   2.0000     -14.442333      -392.9959
  14   2.0000     -14.427968      -392.6050
  15   2.0000     -14.427775      -392.5997
  16   2.0000     -14.423449      -392.4820
  17   2.0000     -14.422967      -392.4689
  18   2.0000     -14.380275      -391.3072
  19   2.0000     -14.365572      -390.9071
  20   2.0000     -10.380477      -282.4671
  21   2.0000     -10.378242      -282.4063
  22   2.0000     -10.374098      -282.2936
  23   2.0000     -10.370825      -282.2045
  24   2.0000     -10.346220      -281.5350
  25   2.0000     -10.344865      -281.4981
  26   2.0000     -10.340482      -281.3788
  27   2.0000     -10.339712      -281.3579
  28   2.0000     -10.337678      -281.3025
  29   2.0000     -10.337167      -281.2886
  30   2.0000     -10.332915      -281.1729
  31   2.0000     -10.332536      -281.1626
  32   2.0000     -10.325925      -280.9827
  33   2.0000     -10.321688      -280.8674
  34   2.0000     -10.321621      -280.8656
  35   2.0000     -10.321013      -280.8490
  36   2.0000     -10.320787      -280.8429
  37   2.0000     -10.317308      -280.7482
  38   2.0000     -10.316618      -280.7294
  39   2.0000     -10.316171      -280.7173
  40   2.0000     -10.315062      -280.6871
  41   2.0000     -10.312528      -280.6182
  42   2.0000     -10.299672      -280.2683
  43   2.0000     -10.297643      -280.2131
  44   2.0000     -10.296840      -280.1913
  45   2.0000     -10.289107      -279.9808
  46   2.0000     -10.288906      -279.9754
  47   2.0000     -10.281774      -279.7813
  48   2.0000     -10.280811      -279.7551
  49   2.0000     -10.279065      -279.7076
  50   2.0000     -10.279021      -279.7064
  51   2.0000     -10.278577      -279.6943
  52   2.0000     -10.277688      -279.6701
  53   2.0000     -10.275956      -279.6230
  54   2.0000     -10.275203      -279.6025
  55   2.0000     -10.274455      -279.5821
  56   2.0000     -10.272969      -279.5417
  57   2.0000     -10.272889      -279.5395
  58   2.0000     -10.272699      -279.5343
  59   2.0000     -10.272337      -279.5245
  60   2.0000     -10.271255      -279.4950
  61   2.0000     -10.271150      -279.4922
  62   2.0000     -10.270551      -279.4759
  63   2.0000     -10.269393      -279.4444
  64   2.0000     -10.268363      -279.4164
  65   2.0000     -10.267892      -279.4035
  66   2.0000     -10.266956      -279.3781
  67   2.0000     -10.266282      -279.3597
  68   2.0000     -10.265848      -279.3479
  69   2.0000     -10.263169      -279.2750
  70   2.0000     -10.262835      -279.2659
  71   2.0000     -10.260618      -279.2056
  72   2.0000     -10.259416      -279.1729
  73   2.0000     -10.259385      -279.1721
  74   2.0000     -10.256297      -279.0880
  75   2.0000     -10.254847      -279.0486
  76   2.0000      -8.134718      -221.3569
  77   2.0000      -8.129867      -221.2249
  78   2.0000      -6.105584      -166.1414
  79   2.0000      -6.100805      -166.0113
  80   2.0000      -6.097924      -165.9329
  81   2.0000      -6.097792      -165.9293
  82   2.0000      -6.093036      -165.7999
  83   2.0000      -6.092900      -165.7962
  84   2.0000      -1.143861       -31.1260
  85   2.0000      -1.138202       -30.9720
  86   2.0000      -1.133684       -30.8491
  87   2.0000      -1.128547       -30.7093
  88   2.0000      -1.117513       -30.4091
  89   2.0000      -1.110473       -30.2175
  90   2.0000      -1.044933       -28.4341
  91   2.0000      -1.037641       -28.2356
  92   2.0000      -1.012075       -27.5399
  93   2.0000      -1.006903       -27.3992
  94   2.0000      -1.002070       -27.2677
  95   2.0000      -0.997212       -27.1355
  96   2.0000      -0.995256       -27.0823
  97   2.0000      -0.986837       -26.8532
  98   2.0000      -0.982019       -26.7221
  99   2.0000      -0.981479       -26.7074
 100   2.0000      -0.978062       -26.6144
 101   2.0000      -0.967310       -26.3218
 102   2.0000      -0.966370       -26.2963
 103   2.0000      -0.961951       -26.1760
 104   2.0000      -0.944804       -25.7094
 105   2.0000      -0.943387       -25.6709
 106   2.0000      -0.936728       -25.4897
 107   2.0000      -0.933463       -25.4008
 108   2.0000      -0.911860       -24.8130
 109   2.0000      -0.903158       -24.5762
 110   2.0000      -0.899714       -24.4825
 111   2.0000      -0.893894       -24.3241
 112   2.0000      -0.884841       -24.0777
 113   2.0000      -0.876107       -23.8401
 114   2.0000      -0.870091       -23.6764
 115   2.0000      -0.858162       -23.3518
 116   2.0000      -0.846832       -23.0435
 117   2.0000      -0.842396       -22.9227
 118   2.0000      -0.841652       -22.9025
 119   2.0000      -0.833103       -22.6699
 120   2.0000      -0.831466       -22.6253
 121   2.0000      -0.826772       -22.4976
 122   2.0000      -0.825388       -22.4599
 123   2.0000      -0.819841       -22.3090
 124   2.0000      -0.806085       -21.9347
 125   2.0000      -0.797657       -21.7053
 126   2.0000      -0.787633       -21.4326
 127   2.0000      -0.780965       -21.2511
 128   2.0000      -0.766660       -20.8619
 129   2.0000      -0.755066       -20.5464
 130   2.0000      -0.747526       -20.3412
 131   2.0000      -0.737930       -20.0801
 132   2.0000      -0.736116       -20.0307
 133   2.0000      -0.732279       -19.9263
 134   2.0000      -0.723531       -19.6883
 135   2.0000      -0.718874       -19.5616
 136   2.0000      -0.714194       -19.4342
 137   2.0000      -0.704520       -19.1710
 138   2.0000      -0.698913       -19.0184
 139   2.0000      -0.696690       -18.9579
 140   2.0000      -0.692635       -18.8476
 141   2.0000      -0.685798       -18.6615
 142   2.0000      -0.682245       -18.5648
 143   2.0000      -0.675838       -18.3905
 144   2.0000      -0.673327       -18.3221
 145   2.0000      -0.671290       -18.2667
 146   2.0000      -0.669165       -18.2089
 147   2.0000      -0.664296       -18.0764
 148   2.0000      -0.651494       -17.7280
 149   2.0000      -0.649544       -17.6750
 150   2.0000      -0.641837       -17.4653
 151   2.0000      -0.636909       -17.3312
 152   2.0000      -0.636672       -17.3247
 153   2.0000      -0.631323       -17.1792
 154   2.0000      -0.629111       -17.1190
 155   2.0000      -0.626392       -17.0450
 156   2.0000      -0.623882       -16.9767
 157   2.0000      -0.620906       -16.8957
 158   2.0000      -0.615503       -16.7487
 159   2.0000      -0.611358       -16.6359
 160   2.0000      -0.596158       -16.2223
 161   2.0000      -0.588729       -16.0201
 162   2.0000      -0.581504       -15.8235
 163   2.0000      -0.577170       -15.7056
 164   2.0000      -0.576521       -15.6879
 165   2.0000      -0.574590       -15.6354
 166   2.0000      -0.569086       -15.4856
 167   2.0000      -0.567781       -15.4501
 168   2.0000      -0.566167       -15.4062
 169   2.0000      -0.560017       -15.2388
 170   2.0000      -0.554668       -15.0933
 171   2.0000      -0.554494       -15.0886
 172   2.0000      -0.549969       -14.9654
 173   2.0000      -0.548601       -14.9282
 174   2.0000      -0.546926       -14.8826
 175   2.0000      -0.543009       -14.7760
 176   2.0000      -0.541298       -14.7295
 177   2.0000      -0.534582       -14.5467
 178   2.0000      -0.532334       -14.4855
 179   2.0000      -0.530695       -14.4410
 180   2.0000      -0.530554       -14.4371
 181   2.0000      -0.529983       -14.4216
 182   2.0000      -0.524891       -14.2830
 183   2.0000      -0.524656       -14.2766
 184   2.0000      -0.521202       -14.1826
 185   2.0000      -0.518748       -14.1159
 186   2.0000      -0.516483       -14.0542
 187   2.0000      -0.514391       -13.9973
 188   2.0000      -0.511250       -13.9118
 189   2.0000      -0.509188       -13.8557
 190   2.0000      -0.505157       -13.7460
 191   2.0000      -0.502577       -13.6758
 192   2.0000      -0.502398       -13.6709
 193   2.0000      -0.499068       -13.5803
 194   2.0000      -0.492206       -13.3936
 195   2.0000      -0.490725       -13.3533
 196   2.0000      -0.487000       -13.2519
 197   2.0000      -0.484429       -13.1820
 198   2.0000      -0.481470       -13.1015
 199   2.0000      -0.478752       -13.0275
 200   2.0000      -0.477270       -12.9872
 201   2.0000      -0.476646       -12.9702
 202   2.0000      -0.474693       -12.9171
 203   2.0000      -0.471249       -12.8233
 204   2.0000      -0.467001       -12.7077
 205   2.0000      -0.463636       -12.6162
 206   2.0000      -0.462934       -12.5971
 207   2.0000      -0.462525       -12.5860
 208   2.0000      -0.457515       -12.4496
 209   2.0000      -0.454141       -12.3578
 210   2.0000      -0.453015       -12.3272
 211   2.0000      -0.452185       -12.3046
 212   2.0000      -0.449361       -12.2277
 213   2.0000      -0.448075       -12.1927
 214   2.0000      -0.443776       -12.0758
 215   2.0000      -0.442449       -12.0397
 216   2.0000      -0.441661       -12.0182
 217   2.0000      -0.440036       -11.9740
 218   2.0000      -0.437985       -11.9182
 219   2.0000      -0.437715       -11.9108
 220   2.0000      -0.437461       -11.9039
 221   2.0000      -0.435558       -11.8521
 222   2.0000      -0.431715       -11.7476
 223   2.0000      -0.429930       -11.6990
 224   2.0000      -0.428569       -11.6620
 225   2.0000      -0.423985       -11.5372
 226   2.0000      -0.419522       -11.4158
 227   2.0000      -0.418926       -11.3995
 228   2.0000      -0.417904       -11.3717
 229   2.0000      -0.415096       -11.2953
 230   2.0000      -0.414126       -11.2689
 231   2.0000      -0.412804       -11.2330
 232   2.0000      -0.411617       -11.2007
 233   2.0000      -0.410358       -11.1664
 234   2.0000      -0.409834       -11.1522
 235   2.0000      -0.409642       -11.1469
 236   2.0000      -0.405159       -11.0250
 237   2.0000      -0.404318       -11.0020
 238   2.0000      -0.398224       -10.8362
 239   2.0000      -0.389753       -10.6057
 240   2.0000      -0.386297       -10.5117
 241   2.0000      -0.385131       -10.4799
 242   2.0000      -0.382882       -10.4188
 243   2.0000      -0.376053       -10.2329
 244   2.0000      -0.370415       -10.0795
 245   2.0000      -0.368144       -10.0177
 246   2.0000      -0.366665        -9.9775
 247   2.0000      -0.362731        -9.8704
 248   2.0000      -0.352000        -9.5784
 249   2.0000      -0.349454        -9.5091
 250   2.0000      -0.347047        -9.4436
 251   2.0000      -0.345636        -9.4052
 252   2.0000      -0.339680        -9.2432
 253   2.0000      -0.332056        -9.0357
 254   2.0000      -0.330437        -8.9916
 255   2.0000      -0.329804        -8.9744
 256   2.0000      -0.324016        -8.8169
 257   2.0000      -0.314278        -8.5519
 258   2.0000      -0.309402        -8.4192
 259   2.0000      -0.286668        -7.8006
 260   2.0000      -0.284768        -7.7489
 261   2.0000      -0.282743        -7.6938
 262   2.0000      -0.247840        -6.7441
 263   2.0000      -0.242183        -6.5901
 264   2.0000      -0.216704        -5.8968
 265   0.0000      -0.116950        -3.1824
 266   0.0000      -0.110244        -2.9999
 267   0.0000      -0.068507        -1.8642
 268   0.0000      -0.047055        -1.2804
 269   0.0000      -0.044172        -1.2020

MULLIKEN ATOMIC CHARGES
-----------------------
   0 C :   -0.087393
   1 C :    0.022916
   2 C :   -0.047765
   3 N :    0.047052
   4 C :   -0.146030
   5 C :   -0.142882
   6 N :    0.054173
   7 C :   -0.199599
   8 N :    0.230298
   9 C :   -0.204446
  10 N :    0.231812
  11 C :    0.115588
  12 C :   -0.042945
  13 C :    0.106775
  14 N :   -0.272477
  15 S :    0.536004
  16 N :   -0.234172
  17 C :   -0.113829
  18 N :    0.048368
  19 N :   -0.015307
  20 C :    0.118469
  21 C :   -0.032621
  22 C :   -0.024769
  23 C :    0.119308
  24 C :   -0.014788
  25 C :   -0.013815
  26 C :    0.011214
  27 C :   -0.003891
  28 C :    0.129876
  29 C :   -0.130286
  30 C :    0.038887
  31 C :   -0.108461
  32 C :    0.004968
  33 C :    0.146022
  34 N :   -0.235568
  35 C :    0.138651
  36 N :   -0.227223
  37 C :    0.112528
  38 C :   -0.161987
  39 C :    0.187080
  40 C :   -0.037865
  41 C :    0.016827
  42 C :    0.015383
  43 C :    0.027837
  44 C :   -0.002073
  45 C :   -0.018090
  46 C :   -0.103552
  47 C :    0.071264
  48 C :   -0.044084
  49 N :    0.005931
  50 N :   -0.043821
  51 C :    0.147311
  52 C :   -0.027644
  53 C :    0.005193
  54 C :    0.099212
  55 C :   -0.019632
  56 C :   -0.038748
  57 C :    0.042310
  58 C :   -0.089817
  59 C :    0.158305
  60 C :   -0.071116
  61 C :    0.031102
  62 N :    0.052905
  63 C :   -0.147634
  64 C :   -0.135662
  65 N :    0.044197
  66 C :   -0.217241
  67 N :    0.229544
  68 C :   -0.207397
  69 N :    0.234762
  70 C :   -0.094704
  71 C :    0.114160
  72 C :   -0.042318
  73 N :   -0.280647
  74 S :    0.534012
  75 N :   -0.273538
  76 H :   -0.020299
  77 H :   -0.010785
  78 H :    0.113452
  79 H :   -0.037246
  80 H :   -0.025008
  81 H :   -0.023114
  82 H :   -0.010747
  83 H :   -0.022861
  84 H :   -0.033486
  85 H :   -0.013930
  86 H :   -0.025676
  87 H :   -0.019984
  88 H :   -0.009199
  89 H :    0.105836
  90 H :    0.092942
  91 H :   -0.007266
  92 H :   -0.018725
  93 H :    0.098130
  94 H :    0.086614
  95 H :   -0.000535
  96 H :    0.041889
  97 H :   -0.016981
  98 H :   -0.036351
  99 H :   -0.040956
 100 H :   -0.033494
 101 H :   -0.004303
 102 H :    0.021241
 103 H :   -0.025451
 104 H :    0.106633
 105 H :   -0.008873
 106 H :   -0.016942
 107 H :   -0.010576
 108 H :   -0.035331
 109 H :   -0.000881
 110 H :   -0.008156
 111 H :   -0.023985
Sum of atomic charges:   -0.0000000

LOEWDIN ATOMIC CHARGES
----------------------
   0 C :   -0.016264
   1 C :   -0.010165
   2 C :   -0.020147
   3 N :   -0.000465
   4 C :   -0.038373
   5 C :   -0.027114
   6 N :   -0.000985
   7 C :   -0.034300
   8 N :   -0.004817
   9 C :   -0.038054
  10 N :   -0.010972
  11 C :   -0.013512
  12 C :   -0.046576
  13 C :   -0.046878
  14 N :   -0.289058
  15 S :    0.678053
  16 N :   -0.265904
  17 C :   -0.044644
  18 N :    0.024361
  19 N :    0.086164
  20 C :    0.010821
  21 C :   -0.052414
  22 C :   -0.003275
  23 C :   -0.038514
  24 C :   -0.005358
  25 C :   -0.038092
  26 C :   -0.012291
  27 C :   -0.024166
  28 C :   -0.027728
  29 C :   -0.025042
  30 C :   -0.022608
  31 C :   -0.053140
  32 C :   -0.039834
  33 C :    0.027806
  34 N :   -0.117562
  35 C :    0.028264
  36 N :   -0.125595
  37 C :   -0.014850
  38 C :    0.059572
  39 C :   -0.032634
  40 C :   -0.029169
  41 C :   -0.019176
  42 C :   -0.035000
  43 C :   -0.031369
  44 C :   -0.012652
  45 C :   -0.028656
  46 C :   -0.008547
  47 C :   -0.037024
  48 C :   -0.025721
  49 N :   -0.018669
  50 N :    0.059399
  51 C :    0.035981
  52 C :   -0.044964
  53 C :    0.014953
  54 C :   -0.061365
  55 C :    0.010174
  56 C :   -0.063957
  57 C :    0.039495
  58 C :   -0.050294
  59 C :    0.007924
  60 C :   -0.022381
  61 C :   -0.005688
  62 N :   -0.002390
  63 C :   -0.028344
  64 C :   -0.041548
  65 N :    0.011586
  66 C :   -0.039061
  67 N :   -0.017513
  68 C :   -0.034094
  69 N :   -0.007695
  70 C :   -0.028318
  71 C :   -0.046646
  72 C :   -0.049335
  73 N :   -0.283880
  74 S :    0.675375
  75 N :   -0.292540
  76 H :    0.047089
  77 H :    0.011367
  78 H :    0.072875
  79 H :    0.024562
  80 H :    0.027727
  81 H :    0.028570
  82 H :    0.032010
  83 H :    0.028013
  84 H :    0.021068
  85 H :    0.022275
  86 H :    0.026125
  87 H :   -0.001381
  88 H :    0.014873
  89 H :    0.056051
  90 H :    0.055620
  91 H :    0.000909
  92 H :    0.013949
  93 H :    0.051144
  94 H :    0.052182
  95 H :    0.030620
  96 H :    0.064303
  97 H :    0.022507
  98 H :    0.029404
  99 H :    0.025713
 100 H :    0.023072
 101 H :    0.022618
 102 H :    0.038957
 103 H :    0.001524
 104 H :    0.068588
 105 H :    0.032891
 106 H :    0.031544
 107 H :    0.033662
 108 H :    0.024818
 109 H :    0.027777
 110 H :    0.029316
 111 H :    0.045058

  Mayer bond orders larger than 0.100000
B(  0-C ,  1-C ) :   1.3194 B(  0-C , 11-C ) :   0.1367 B(  0-C , 13-C ) :   1.1709
B(  0-C , 76-H ) :   1.0555 B(  1-C ,  2-C ) :   1.1267 B(  1-C ,  6-N ) :   1.3367
B(  2-C ,  3-N ) :   1.4497 B(  2-C , 11-C ) :   1.2592 B(  3-N ,  4-C ) :   1.7415
B(  4-C ,  5-C ) :   1.1895 B(  4-C ,  9-C ) :   1.1508 B(  5-C ,  6-N ) :   1.7881
B(  5-C ,  7-C ) :   1.1488 B(  7-C ,  8-N ) :   3.0510 B(  9-C , 10-N ) :   3.0481
B( 11-C , 12-C ) :   1.1833 B( 11-C , 17-C ) :   1.1818 B( 12-C , 13-C ) :   1.1253
B( 12-C , 16-N ) :   1.5356 B( 13-C , 14-N ) :   1.4684 B( 14-N , 15-S ) :   1.2982
B( 14-N , 16-N ) :   0.1588 B( 15-S , 16-N ) :   1.2888 B( 17-C , 18-N ) :   1.7579
B( 17-C , 77-H ) :   0.9318 B( 18-N , 19-N ) :   1.1412 B( 19-N , 20-C ) :   1.0981
B( 19-N , 78-H ) :   0.9122 B( 20-C , 21-C ) :   1.3124 B( 20-C , 25-C ) :   1.3662
B( 21-C , 22-C ) :   1.4240 B( 21-C , 79-H ) :   0.9912 B( 22-C , 23-C ) :   1.3378
B( 22-C , 80-H ) :   0.9867 B( 23-C , 24-C ) :   1.3117 B( 23-C , 26-C ) :   1.0805
B( 24-C , 25-C ) :   1.3732 B( 24-C , 81-H ) :   0.9976 B( 25-C , 82-H ) :   0.9840
B( 26-C , 27-C ) :   1.7049 B( 26-C , 83-H ) :   0.9774 B( 27-C , 28-C ) :   1.0639
B( 27-C , 84-H ) :   0.9736 B( 28-C , 29-C ) :   1.5183 B( 28-C , 45-C ) :   1.1079
B( 29-C , 30-C ) :   1.1339 B( 29-C , 85-H ) :   0.9933 B( 30-C , 31-C ) :   1.4571
B( 30-C , 43-C ) :   1.1238 B( 31-C , 32-C ) :   1.0407 B( 31-C , 37-C ) :   1.1172
B( 32-C , 33-C ) :   1.0456 B( 32-C , 35-C ) :   1.0339 B( 32-C , 86-H ) :   0.8739
B( 33-C , 34-N ) :   1.0962 B( 33-C , 87-H ) :   0.9404 B( 33-C , 88-H ) :   0.9376
B( 34-N , 89-H ) :   0.9555 B( 34-N , 90-H ) :   0.9684 B( 35-C , 36-N ) :   1.0846
B( 35-C , 91-H ) :   0.9431 B( 35-C , 92-H ) :   0.9349 B( 36-N , 93-H ) :   0.9702
B( 36-N , 94-H ) :   0.9688 B( 37-C , 38-C ) :   1.6431 B( 37-C , 42-C ) :   1.0581
B( 38-C , 39-C ) :   0.9701 B( 38-C , 95-H ) :   0.9731 B( 39-C , 40-C ) :   0.9866
B( 39-C , 46-C ) :   0.9506 B( 39-C , 96-H ) :   0.8440 B( 40-C , 41-C ) :   1.7357
B( 40-C , 97-H ) :   0.9673 B( 41-C , 42-C ) :   1.1259 B( 41-C , 98-H ) :   0.9883
B( 42-C , 43-C ) :   1.4388 B( 43-C , 44-C ) :   1.1410 B( 44-C , 45-C ) :   1.6030
B( 44-C , 99-H ) :   0.9912 B( 45-C ,100-H ) :   0.9902 B( 46-C , 47-C ) :   1.8173
B( 46-C ,101-H ) :   0.9712 B( 47-C , 48-C ) :   1.0826 B( 47-C ,102-H ) :   0.9606
B( 48-C , 49-N ) :   1.8108 B( 48-C ,103-H ) :   0.9576 B( 49-N , 50-N ) :   1.0560
B( 50-N , 51-C ) :   1.1443 B( 50-N ,104-H ) :   0.9147 B( 51-C , 52-C ) :   1.3245
B( 51-C , 56-C ) :   1.3011 B( 52-C , 53-C ) :   1.4186 B( 52-C ,105-H ) :   0.9884
B( 53-C , 54-C ) :   1.2985 B( 53-C ,106-H ) :   0.9913 B( 54-C , 55-C ) :   1.3041
B( 54-C , 57-C ) :   1.1026 B( 55-C , 56-C ) :   1.4147 B( 55-C ,107-H ) :   0.9975
B( 56-C ,108-H ) :   0.9936 B( 57-C , 58-C ) :   1.5629 B( 57-C ,109-H ) :   0.9669
B( 58-C , 59-C ) :   1.2185 B( 58-C ,110-H ) :   0.9618 B( 59-C , 60-C ) :   1.2089
B( 59-C , 70-C ) :   0.1301 B( 59-C , 72-C ) :   1.1945 B( 60-C , 61-C ) :   1.1174
B( 60-C , 65-N ) :   1.4381 B( 61-C , 62-N ) :   1.3329 B( 61-C , 70-C ) :   1.3219
B( 62-N , 63-C ) :   1.7862 B( 63-C , 64-C ) :   1.1917 B( 63-C , 68-C ) :   1.1577
B( 64-C , 65-N ) :   1.7309 B( 64-C , 66-C ) :   1.1488 B( 66-C , 67-N ) :   3.0465
B( 68-C , 69-N ) :   3.0521 B( 70-C , 71-C ) :   1.1764 B( 70-C ,111-H ) :   1.0553
B( 71-C , 72-C ) :   1.1248 B( 71-C , 75-N ) :   1.4624 B( 72-C , 73-N ) :   1.5134
B( 73-N , 74-S ) :   1.2914 B( 73-N , 75-N ) :   0.1599 B( 74-S , 75-N ) :   1.2956

-----------------------------------------------------------------------------
         ABSORPTION SPECTRUM VIA TRANSITION ELECTRIC DIPOLE MOMENTS
-----------------------------------------------------------------------------
State   Energy  Wavelength   fosc         T2         TX        TY        TZ
        (cm-1)    (nm)                  (au**2)     (au)      (au)      (au)
-----------------------------------------------------------------------------
   0   11687.5    855.6   0.374641820  10.55284   0.71760  -0.78560   3.06932
   1   13092.5    763.8   0.497651065  12.51343   2.92524   1.97788   0.21076
   2   14140.5    707.2   0.106632617   2.48257  -0.08626   1.33328  -0.83516
   3   15656.2    638.7   0.080380196   1.69020  -0.34892   0.53303  -1.13328
   4   15884.4    629.5   0.003320242   0.06881  -0.19488  -0.12483   0.12350
   5   22245.5    449.5   0.000460586   0.00682  -0.04237   0.04346   0.05597
   6   22769.8    439.2   0.084028479   1.21491   0.06700  -0.38353  -1.03117
   7   23519.3    425.2   0.123348601   1.72658  -0.94657  -0.66547  -0.62268
   8   24061.7    415.6   0.057780288   0.79055  -0.13905  -0.17385  -0.86081
   9   24261.4    412.2   0.474551946   6.43936   0.19882  -0.14533  -2.52561
  10   25904.2    386.0   0.001842642   0.02342  -0.03465  -0.00674   0.14890
  11   25908.6    386.0   0.001140709   0.01449   0.11345   0.03821  -0.01277
  12   26128.4    382.7   0.003286063   0.04140  -0.08541   0.18468  -0.00119
  13   26511.7    377.2   0.252224383   3.13203   0.87955   0.45867   1.46562
  14   26582.7    376.2   0.016597034   0.20554  -0.27273  -0.35927   0.04567
  15   26735.8    374.0   0.282238320   3.47534   0.14062   0.32863  -1.82964
  16   27656.5    361.6   0.369093267   4.39354   0.35411   0.04360   2.06549
  17   28220.1    354.4   0.047099449   0.54946   0.29058   0.67827   0.07048
  18   28727.8    348.1   0.033078355   0.37907   0.35190   0.36233  -0.35206
  19   28795.9    347.3   0.132698554   1.51709   1.01496   0.54961  -0.42997
  20   28891.9    346.1   0.003640780   0.04149  -0.17693  -0.07108   0.07161
  21   29005.0    344.8   0.291215787   3.30535   0.24351  -0.41796  -1.75253
  22   29443.2    339.6   0.000043312   0.00048  -0.01122  -0.01893   0.00036
  23   29952.5    333.9   0.003939585   0.04330  -0.11080   0.13871   0.10855
  24   30537.9    327.5   0.058051253   0.62582   0.15109  -0.71153  -0.31098
  25   31209.9    320.4   0.011549411   0.12183  -0.12628  -0.32463  -0.02227
  26   31499.1    317.5   0.153745225   1.60686  -0.69922  -0.69324  -0.79835
  27   31530.2    317.2   0.306252155   3.19762   1.03371   0.69435   1.28334
  28   31613.6    316.3   0.143998273   1.49955  -0.81541  -0.50140  -0.76370
  29   31658.3    315.9   0.291510396   3.03139  -1.15076  -0.95612  -0.89049
  30   31950.9    313.0   0.023019479   0.23719   0.35398   0.24395   0.22885
  31   31996.7    312.5   0.007563605   0.07782  -0.15516  -0.11259  -0.20266
  32   32404.0    308.6   0.003436446   0.03491  -0.16416  -0.07308   0.05124
  33   32668.6    306.1   0.259304305   2.61309   1.03981   0.79445  -0.94907
  34   32893.4    304.0   0.187334757   1.87493  -0.34546   0.00511  -1.32498
  35   33211.8    301.1   0.692960333   6.86897   0.50798  -0.64454  -2.48908
  36   33367.6    299.7   0.254153868   2.50754   0.94741   1.26844   0.03174
  37   33526.7    298.3   0.141630914   1.39073   0.66224   0.06728  -0.97347
  38   33805.0    295.8   0.367142326   3.57544  -0.90406   0.06055   1.65965
  39   34341.0    291.2   0.173786368   1.66601  -0.63300   1.08975  -0.27889
  40   34444.2    290.3   0.014846237   0.14190  -0.15299   0.01329   0.34397
  41   34560.4    289.3   0.000943091   0.00898  -0.03493  -0.06147   0.06312
  42   35219.0    283.9   0.004341385   0.04058   0.05906  -0.09124  -0.16961
  43   36069.8    277.2   0.000038187   0.00035   0.00574   0.00008  -0.01777
  44   36087.3    277.1   0.004870175   0.04443   0.06897  -0.14653   0.13491
  45   36756.0    272.1   0.016015685   0.14345  -0.11511  -0.09813   0.34723
  46   37281.9    268.2   0.000828131   0.00731  -0.02509   0.02074   0.07908
  47   37350.1    267.7   0.148028746   1.30476   0.12123   0.13895  -1.12728
  48   37656.1    265.6   0.109576490   0.95798  -0.23619   0.59179  -0.74295
  49   37924.4    263.7   0.086999948   0.75522  -0.16122  -0.06611   0.85139
  50   38052.4    262.8   0.021557007   0.18650   0.09306   0.05393  -0.41825
  51   38115.0    262.4   0.012742203   0.11006   0.09930  -0.08009  -0.30624
  52   38271.2    261.3   0.090529534   0.77874   0.19451   0.04021  -0.85982
  53   38343.1    260.8   0.112972230   0.96997   0.16397  -0.02033  -0.97091
  54   38413.6    260.3   0.181471327   1.55524  -0.23922  -0.03467   1.22344
  55   38831.3    257.5   0.096441348   0.81763  -0.14634  -0.01385   0.89220
  56   39135.2    255.5   0.040660329   0.34204  -0.17119  -0.54134  -0.14031
  57   39721.5    251.8   0.034113177   0.28273  -0.04326   0.51191  -0.13716
  58   39895.4    250.7   1.358093975  11.20682  -0.62514   1.24573   3.04371
  59   40003.2    250.0   0.003282816   0.02702   0.04367  -0.05618  -0.14817
  60   40131.7    249.2   0.005841619   0.04792   0.00085  -0.03479   0.21612
  61   40199.1    248.8   0.002731051   0.02237   0.03367  -0.08137  -0.12088
  62   40257.0    248.4   0.003428926   0.02804   0.07772   0.01837  -0.14718

FINAL SINGLE POINT ENERGY     -3933.065722855318

DIPOLE MOMENT
-------------
                                X             Y             Z
Electronic contribution:    -50.94950     -42.23731      55.24204
Nuclear contribution   :     53.69072      43.63226     -56.26004
                        -----------------------------------------
Total Dipole Moment    :      2.74122       1.39496      -1.01800
                        -----------------------------------------
Magnitude (a.u.)       :      3.23983
Magnitude (Debye)      :      8.23500

Rotational constants in cm-1:     0.000962     0.000154     0.000138
Rotational constants in MHz :    28.851065     4.622129     4.128930

                             ****ORCA TERMINATED NORMALLY****
TOTAL RUN TIME: 0 days 0 hours 14 minutes 25 seconds 765 msec
