                         Program Version 4.2.0 -  RELEASE  -
|  1> # ORCA input file
|  2> # SCF done       -214.364436508958          0.000573248042
|  3> ! CAM-B3LYP def2-SVP def2/J RIJCOSX Grid4 TightSCF
|  4> %maxcore 5000
|  5> %tddft
|  6>     Mode sTDDFT
|  7>     Ethresh 5.0
|  8>     maxcore 5000
|  9> end
| 10>
| 11> %pal
| 12>   nprocs 6
| 13>   end
| 14> * xyz 0 1
| 15>    C        4.02361        -7.56735         1.35036
| 16>    S        2.93319        -6.51549         2.12425
| 17>    C        2.20864        -6.06253         0.61784
| 18>    C        2.82452        -6.70909        -0.43669
| 19>    C        3.86297        -7.57445        -0.00719
| 20>    C        4.72238        -8.43935        -0.88416
| 21>    F        5.39912        -9.33714        -0.14458
| 22>    F        4.02164        -9.14127        -1.77659
| 23>    F        5.65049        -7.74068        -1.55144
| 24>    C        2.45912        -6.44977        -1.87271
| 25>    F        2.18755        -5.15477        -2.09152
| 26>    F        3.46666        -6.74678        -2.70672
| 27>    F        1.40703        -7.16180        -2.27880
| 28>    C        1.05389        -5.20939         0.55820
| 29>    N        0.13659        -5.42535        -0.36090
| 30>    C       -0.82797        -4.49993        -0.14297
| 31>    C       -0.49493        -3.64900         0.99936
| 32>    C       -1.54736        -2.64440         1.21077
| 33>    O       -1.61557        -1.77891         2.05884
| 34>    C       -2.50934        -2.94861         0.13280
| 35>    C       -2.03133        -4.09582        -0.66859
| 36>    N       -2.90360        -4.37866        -1.66644
| 37>    C       -3.86463        -3.49850        -1.54191
| 38>    C       -3.67920        -2.57024        -0.43908
| 39>    C        0.72587        -4.08949         1.46615
| 40>    C        1.54693        -3.60665         2.52073
| 41>    C        1.15624        -2.60663         3.34660
| 42>    C        1.90857        -2.03646         4.42655
| 43>    C        1.35465        -0.96512         5.10683
| 44>    C        2.05430        -0.35268         6.15713
| 45>    C        1.72393         0.73479         6.96453
| 46>    C        0.45893         1.51464         6.91723
| 47>    C       -0.28478         1.46527         8.27047
| 48>    N       -1.69734         1.65105         8.03565
| 49>    C        0.70983         2.96320         6.45671
| 50>    N       -0.55403         3.64272         6.22028
| 51>    C        2.83444         0.93274         7.86643
| 52>    C        3.05127         1.84354         8.83424
| 53>    C        4.30044         1.83487         9.64724
| 54>    C        5.26549         0.75163         9.31033
| 55>    C        5.03680        -0.14926         8.33449
| 56>    C        3.84469        -0.09504         7.57723
| 57>    C        3.36350        -0.86274         6.53114
| 58>    C        3.90259        -1.96617         5.83356
| 59>    C        3.19661        -2.52802         4.81772
| 60>    C        4.88800         3.22165         9.62493
| 61>    C        6.11876         3.52550         9.20111
| 62>    C        6.67044         4.84837         9.19652
| 63>    N        7.58992         5.18152         8.30558
| 64>    C        7.85558         6.48517         8.51131
| 65>    C        7.05000         7.02313         9.61953
| 66>    C        7.36335         8.44532         9.84462
| 67>    O        6.87312         9.20286        10.65638
| 68>    C        8.40242         8.70829         8.83870
| 69>    C        8.66858         7.49042         8.04138
| 70>    N        9.63654         7.72211         7.12588
| 71>    C        9.98683         8.97483         7.30484
| 72>    C        9.26229         9.64655         8.36176
| 73>    C        6.31162         5.96933        10.09575
| 74>    C        5.46171         5.88916        11.24232
| 75>    C        5.02015         6.97682        11.90499
| 76>    C        4.19685         6.95399        13.07873
| 77>    S        4.40085         8.23640        14.22968
| 78>    C        3.25654         7.54989        15.29010
| 79>    C        2.71256         6.40141        14.79183
| 80>    C        3.23386         6.05895        13.51315
| 81>    C        2.72475         4.92122        12.69100
| 82>    F        2.67261         5.21796        11.37572
| 83>    F        3.49467         3.81122        12.77049
| 84>    F        1.49054         4.53627        13.01383
| 85>    C        1.69784         5.61600        15.56747
| 86>    F        1.66976         6.00372        16.85236
| 87>    F        0.44804         5.76863        15.10699
| 88>    F        1.95984         4.30201        15.57680
| 89>    H        4.73359        -8.13432         1.91965
| 90>    H       -4.69954        -3.50463        -2.22081
| 91>    H       -4.34965        -1.77688        -0.17344
| 92>    H        2.51830        -4.06712         2.63037
| 93>    H        0.17996        -2.16860         3.18382
| 94>    H        0.38064        -0.59993         4.81623
| 95>    H       -0.21046         1.04781         6.18827
| 96>    H        0.15000         2.21443         8.95126
| 97>    H       -0.14083         0.47733         8.72145
| 98>    H       -1.84947         2.56244         7.61399
| 99>    H       -2.22761         1.58281         8.89564
|100>    H        1.36028         2.93352         5.56551
|101>    H        1.24224         3.51658         7.23466
|102>    H       -1.04189         3.20713         5.44351
|103>    H       -0.39180         4.61400         5.97739
|104>    H        2.34261         2.62703         9.05823
|105>    H        3.98770         1.68360        10.69715
|106>    H        6.16338         0.71186         9.90741
|107>    H        5.75700        -0.92556         8.12217
|108>    H        4.87165        -2.35190         6.11364
|109>    H        3.60949        -3.37285         4.28931
|110>    H        4.20881         3.99916         9.94070
|111>    H        6.75481         2.76733         8.76459
|112>    H       10.75094         9.41705         6.68947
|113>    H        9.40387        10.66443         8.66684
|114>    H        5.22953         4.89552        11.59449
|115>    H        5.35132         7.95905        11.59089
|116>    H        3.03400         8.00994        16.23233
|117> *
|118>
|119>                          ****END OF INPUT****

CARTESIAN COORDINATES (ANGSTROEM)
---------------------------------
  C      4.023610   -7.567350    1.350360
  S      2.933190   -6.515490    2.124250
  C      2.208640   -6.062530    0.617840
  C      2.824520   -6.709090   -0.436690
  C      3.862970   -7.574450   -0.007190
  C      4.722380   -8.439350   -0.884160
  F      5.399120   -9.337140   -0.144580
  F      4.021640   -9.141270   -1.776590
  F      5.650490   -7.740680   -1.551440
  C      2.459120   -6.449770   -1.872710
  F      2.187550   -5.154770   -2.091520
  F      3.466660   -6.746780   -2.706720
  F      1.407030   -7.161800   -2.278800
  C      1.053890   -5.209390    0.558200
  N      0.136590   -5.425350   -0.360900
  C     -0.827970   -4.499930   -0.142970
  C     -0.494930   -3.649000    0.999360
  C     -1.547360   -2.644400    1.210770
  O     -1.615570   -1.778910    2.058840
  C     -2.509340   -2.948610    0.132800
  C     -2.031330   -4.095820   -0.668590
  N     -2.903600   -4.378660   -1.666440
  C     -3.864630   -3.498500   -1.541910
  C     -3.679200   -2.570240   -0.439080
  C      0.725870   -4.089490    1.466150
  C      1.546930   -3.606650    2.520730
  C      1.156240   -2.606630    3.346600
  C      1.908570   -2.036460    4.426550
  C      1.354650   -0.965120    5.106830
  C      2.054300   -0.352680    6.157130
  C      1.723930    0.734790    6.964530
  C      0.458930    1.514640    6.917230
  C     -0.284780    1.465270    8.270470
  N     -1.697340    1.651050    8.035650
  C      0.709830    2.963200    6.456710
  N     -0.554030    3.642720    6.220280
  C      2.834440    0.932740    7.866430
  C      3.051270    1.843540    8.834240
  C      4.300440    1.834870    9.647240
  C      5.265490    0.751630    9.310330
  C      5.036800   -0.149260    8.334490
  C      3.844690   -0.095040    7.577230
  C      3.363500   -0.862740    6.531140
  C      3.902590   -1.966170    5.833560
  C      3.196610   -2.528020    4.817720
  C      4.888000    3.221650    9.624930
  C      6.118760    3.525500    9.201110
  C      6.670440    4.848370    9.196520
  N      7.589920    5.181520    8.305580
  C      7.855580    6.485170    8.511310
  C      7.050000    7.023130    9.619530
  C      7.363350    8.445320    9.844620
  O      6.873120    9.202860   10.656380
  C      8.402420    8.708290    8.838700
  C      8.668580    7.490420    8.041380
  N      9.636540    7.722110    7.125880
  C      9.986830    8.974830    7.304840
  C      9.262290    9.646550    8.361760
  C      6.311620    5.969330   10.095750
  C      5.461710    5.889160   11.242320
  C      5.020150    6.976820   11.904990
  C      4.196850    6.953990   13.078730
  S      4.400850    8.236400   14.229680
  C      3.256540    7.549890   15.290100
  C      2.712560    6.401410   14.791830
  C      3.233860    6.058950   13.513150
  C      2.724750    4.921220   12.691000
  F      2.672610    5.217960   11.375720
  F      3.494670    3.811220   12.770490
  F      1.490540    4.536270   13.013830
  C      1.697840    5.616000   15.567470
  F      1.669760    6.003720   16.852360
  F      0.448040    5.768630   15.106990
  F      1.959840    4.302010   15.576800
  H      4.733590   -8.134320    1.919650
  H     -4.699540   -3.504630   -2.220810
  H     -4.349650   -1.776880   -0.173440
  H      2.518300   -4.067120    2.630370
  H      0.179960   -2.168600    3.183820
  H      0.380640   -0.599930    4.816230
  H     -0.210460    1.047810    6.188270
  H      0.150000    2.214430    8.951260
  H     -0.140830    0.477330    8.721450
  H     -1.849470    2.562440    7.613990
  H     -2.227610    1.582810    8.895640
  H      1.360280    2.933520    5.565510
  H      1.242240    3.516580    7.234660
  H     -1.041890    3.207130    5.443510
  H     -0.391800    4.614000    5.977390
  H      2.342610    2.627030    9.058230
  H      3.987700    1.683600   10.697150
  H      6.163380    0.711860    9.907410
  H      5.757000   -0.925560    8.122170
  H      4.871650   -2.351900    6.113640
  H      3.609490   -3.372850    4.289310
  H      4.208810    3.999160    9.940700
  H      6.754810    2.767330    8.764590
  H     10.750940    9.417050    6.689470
  H      9.403870   10.664430    8.666840
  H      5.229530    4.895520   11.594490
  H      5.351320    7.959050   11.590890
  H      3.034000    8.009940   16.232330

 Total Charge           Charge          ....    0
 Multiplicity           Mult            ....    1
 Number of Electrons    NEL             ....  538
 Basis Dimension        Dim             .... 1184

ORBITAL ENERGIES
----------------

  NO   OCC          E(Eh)            E(eV)
   0   2.0000     -88.997276     -2421.7390
   1   2.0000     -88.990627     -2421.5581
   2   2.0000     -24.817593      -675.3210
   3   2.0000     -24.816919      -675.3027
   4   2.0000     -24.816598      -675.2940
   5   2.0000     -24.805641      -674.9958
   6   2.0000     -24.804292      -674.9591
   7   2.0000     -24.800409      -674.8534
   8   2.0000     -24.799843      -674.8380
   9   2.0000     -24.798987      -674.8147
  10   2.0000     -24.794537      -674.6937
  11   2.0000     -24.792172      -674.6293
  12   2.0000     -24.787996      -674.5157
  13   2.0000     -24.784904      -674.4315
  14   2.0000     -19.221334      -523.0391
  15   2.0000     -19.209431      -522.7152
  16   2.0000     -14.413830      -392.2202
  17   2.0000     -14.412972      -392.1969
  18   2.0000     -14.411194      -392.1485
  19   2.0000     -14.403696      -391.9445
  20   2.0000     -14.389867      -391.5682
  21   2.0000     -14.356038      -390.6476
  22   2.0000     -10.540007      -286.8082
  23   2.0000     -10.528169      -286.4860
  24   2.0000     -10.523913      -286.3702
  25   2.0000     -10.517406      -286.1932
  26   2.0000     -10.380964      -282.4804
  27   2.0000     -10.369056      -282.1564
  28   2.0000     -10.351010      -281.6653
  29   2.0000     -10.349553      -281.6257
  30   2.0000     -10.341624      -281.4099
  31   2.0000     -10.339180      -281.3434
  32   2.0000     -10.338552      -281.3263
  33   2.0000     -10.333736      -281.1952
  34   2.0000     -10.330781      -281.1149
  35   2.0000     -10.330217      -281.0995
  36   2.0000     -10.330090      -281.0960
  37   2.0000     -10.329679      -281.0849
  38   2.0000     -10.324608      -280.9469
  39   2.0000     -10.323583      -280.9190
  40   2.0000     -10.323470      -280.9159
  41   2.0000     -10.321966      -280.8750
  42   2.0000     -10.321640      -280.8661
  43   2.0000     -10.321288      -280.8565
  44   2.0000     -10.313517      -280.6451
  45   2.0000     -10.313161      -280.6354
  46   2.0000     -10.311009      -280.5768
  47   2.0000     -10.307138      -280.4715
  48   2.0000     -10.305850      -280.4364
  49   2.0000     -10.302897      -280.3561
  50   2.0000     -10.302204      -280.3372
  51   2.0000     -10.299096      -280.2526
  52   2.0000     -10.296753      -280.1889
  53   2.0000     -10.295638      -280.1586
  54   2.0000     -10.293577      -280.1025
  55   2.0000     -10.289317      -279.9865
  56   2.0000     -10.288113      -279.9538
  57   2.0000     -10.286104      -279.8991
  58   2.0000     -10.281610      -279.7768
  59   2.0000     -10.280734      -279.7530
  60   2.0000     -10.279248      -279.7126
  61   2.0000     -10.278875      -279.7024
  62   2.0000     -10.278547      -279.6935
  63   2.0000     -10.278020      -279.6791
  64   2.0000     -10.275247      -279.6037
  65   2.0000     -10.274946      -279.5955
  66   2.0000     -10.274828      -279.5923
  67   2.0000     -10.272792      -279.5369
  68   2.0000     -10.270903      -279.4855
  69   2.0000     -10.268623      -279.4235
  70   2.0000     -10.266701      -279.3711
  71   2.0000     -10.266527      -279.3664
  72   2.0000     -10.265873      -279.3486
  73   2.0000     -10.264136      -279.3013
  74   2.0000      -8.092654      -220.2123
  75   2.0000      -8.086773      -220.0523
  76   2.0000      -6.061764      -164.9490
  77   2.0000      -6.057367      -164.8293
  78   2.0000      -6.055885      -164.7890
  79   2.0000      -6.055322      -164.7737
  80   2.0000      -6.051524      -164.6704
  81   2.0000      -6.049258      -164.6087
  82   2.0000      -1.408828       -38.3362
  83   2.0000      -1.394779       -37.9539
  84   2.0000      -1.390721       -37.8434
  85   2.0000      -1.381532       -37.5934
  86   2.0000      -1.310705       -35.6661
  87   2.0000      -1.305960       -35.5370
  88   2.0000      -1.297598       -35.3094
  89   2.0000      -1.294486       -35.2248
  90   2.0000      -1.293501       -35.1979
  91   2.0000      -1.289789       -35.0970
  92   2.0000      -1.282261       -34.8921
  93   2.0000      -1.281477       -34.8708
  94   2.0000      -1.135265       -30.8921
  95   2.0000      -1.123368       -30.5684
  96   2.0000      -1.084451       -29.5094
  97   2.0000      -1.080715       -29.4077
  98   2.0000      -1.065381       -28.9905
  99   2.0000      -1.059759       -28.8375
 100   2.0000      -1.024639       -27.8818
 101   2.0000      -1.023803       -27.8591
 102   2.0000      -0.988683       -26.9034
 103   2.0000      -0.972968       -26.4758
 104   2.0000      -0.955786       -26.0083
 105   2.0000      -0.943451       -25.6726
 106   2.0000      -0.938697       -25.5432
 107   2.0000      -0.935670       -25.4609
 108   2.0000      -0.934059       -25.4170
 109   2.0000      -0.926128       -25.2012
 110   2.0000      -0.908584       -24.7238
 111   2.0000      -0.901393       -24.5282
 112   2.0000      -0.896761       -24.4021
 113   2.0000      -0.892456       -24.2850
 114   2.0000      -0.886407       -24.1204
 115   2.0000      -0.883955       -24.0536
 116   2.0000      -0.873766       -23.7764
 117   2.0000      -0.862872       -23.4799
 118   2.0000      -0.855917       -23.2907
 119   2.0000      -0.846881       -23.0448
 120   2.0000      -0.842744       -22.9322
 121   2.0000      -0.836968       -22.7751
 122   2.0000      -0.830523       -22.5997
 123   2.0000      -0.808078       -21.9889
 124   2.0000      -0.806471       -21.9452
 125   2.0000      -0.796356       -21.6699
 126   2.0000      -0.783859       -21.3299
 127   2.0000      -0.774012       -21.0619
 128   2.0000      -0.772277       -21.0147
 129   2.0000      -0.765984       -20.8435
 130   2.0000      -0.762503       -20.7488
 131   2.0000      -0.759184       -20.6584
 132   2.0000      -0.755915       -20.5695
 133   2.0000      -0.736055       -20.0291
 134   2.0000      -0.731774       -19.9126
 135   2.0000      -0.722174       -19.6513
 136   2.0000      -0.719038       -19.5660
 137   2.0000      -0.714139       -19.4327
 138   2.0000      -0.711515       -19.3613
 139   2.0000      -0.707809       -19.2605
 140   2.0000      -0.707194       -19.2437
 141   2.0000      -0.696726       -18.9589
 142   2.0000      -0.695223       -18.9180
 143   2.0000      -0.693202       -18.8630
 144   2.0000      -0.690330       -18.7848
 145   2.0000      -0.687920       -18.7193
 146   2.0000      -0.679314       -18.4851
 147   2.0000      -0.676858       -18.4182
 148   2.0000      -0.673633       -18.3305
 149   2.0000      -0.672384       -18.2965
 150   2.0000      -0.671177       -18.2636
 151   2.0000      -0.668804       -18.1991
 152   2.0000      -0.667450       -18.1622
 153   2.0000      -0.663183       -18.0461
 154   2.0000      -0.656872       -17.8744
 155   2.0000      -0.648277       -17.6405
 156   2.0000      -0.642674       -17.4881
 157   2.0000      -0.640985       -17.4421
 158   2.0000      -0.631322       -17.1791
 159   2.0000      -0.629774       -17.1370
 160   2.0000      -0.625735       -17.0271
 161   2.0000      -0.619349       -16.8533
 162   2.0000      -0.616840       -16.7851
 163   2.0000      -0.605444       -16.4750
 164   2.0000      -0.601439       -16.3660
 165   2.0000      -0.600407       -16.3379
 166   2.0000      -0.597552       -16.2602
 167   2.0000      -0.590558       -16.0699
 168   2.0000      -0.580780       -15.8038
 169   2.0000      -0.579203       -15.7609
 170   2.0000      -0.571281       -15.5453
 171   2.0000      -0.570862       -15.5340
 172   2.0000      -0.568965       -15.4823
 173   2.0000      -0.565322       -15.3832
 174   2.0000      -0.563861       -15.3434
 175   2.0000      -0.562436       -15.3047
 176   2.0000      -0.560450       -15.2506
 177   2.0000      -0.554627       -15.0922
 178   2.0000      -0.553240       -15.0544
 179   2.0000      -0.552747       -15.0410
 180   2.0000      -0.551947       -15.0192
 181   2.0000      -0.550641       -14.9837
 182   2.0000      -0.548984       -14.9386
 183   2.0000      -0.546946       -14.8831
 184   2.0000      -0.546459       -14.8699
 185   2.0000      -0.544397       -14.8138
 186   2.0000      -0.539680       -14.6855
 187   2.0000      -0.538204       -14.6453
 188   2.0000      -0.537353       -14.6221
 189   2.0000      -0.533332       -14.5127
 190   2.0000      -0.530176       -14.4268
 191   2.0000      -0.529749       -14.4152
 192   2.0000      -0.528335       -14.3767
 193   2.0000      -0.527938       -14.3659
 194   2.0000      -0.522686       -14.2230
 195   2.0000      -0.521682       -14.1957
 196   2.0000      -0.520580       -14.1657
 197   2.0000      -0.518589       -14.1115
 198   2.0000      -0.516980       -14.0677
 199   2.0000      -0.515040       -14.0149
 200   2.0000      -0.513706       -13.9786
 201   2.0000      -0.512922       -13.9573
 202   2.0000      -0.510146       -13.8818
 203   2.0000      -0.509270       -13.8579
 204   2.0000      -0.506845       -13.7920
 205   2.0000      -0.504483       -13.7277
 206   2.0000      -0.503433       -13.6991
 207   2.0000      -0.502460       -13.6726
 208   2.0000      -0.500845       -13.6287
 209   2.0000      -0.500007       -13.6059
 210   2.0000      -0.498490       -13.5646
 211   2.0000      -0.495924       -13.4948
 212   2.0000      -0.492657       -13.4059
 213   2.0000      -0.491601       -13.3771
 214   2.0000      -0.490263       -13.3407
 215   2.0000      -0.488075       -13.2812
 216   2.0000      -0.487144       -13.2559
 217   2.0000      -0.486526       -13.2390
 218   2.0000      -0.483597       -13.1594
 219   2.0000      -0.482865       -13.1394
 220   2.0000      -0.481436       -13.1005
 221   2.0000      -0.478555       -13.0221
 222   2.0000      -0.476416       -12.9639
 223   2.0000      -0.474128       -12.9017
 224   2.0000      -0.472982       -12.8705
 225   2.0000      -0.472171       -12.8484
 226   2.0000      -0.470474       -12.8022
 227   2.0000      -0.468928       -12.7602
 228   2.0000      -0.468036       -12.7359
 229   2.0000      -0.463498       -12.6124
 230   2.0000      -0.462940       -12.5972
 231   2.0000      -0.460954       -12.5432
 232   2.0000      -0.458984       -12.4896
 233   2.0000      -0.455428       -12.3928
 234   2.0000      -0.448808       -12.2127
 235   2.0000      -0.447918       -12.1885
 236   2.0000      -0.443700       -12.0737
 237   2.0000      -0.438584       -11.9345
 238   2.0000      -0.434714       -11.8292
 239   2.0000      -0.430029       -11.7017
 240   2.0000      -0.415696       -11.3116
 241   2.0000      -0.412690       -11.2299
 242   2.0000      -0.410851       -11.1798
 243   2.0000      -0.399476       -10.8703
 244   2.0000      -0.391352       -10.6492
 245   2.0000      -0.388127       -10.5615
 246   2.0000      -0.384282       -10.4568
 247   2.0000      -0.370931       -10.0935
 248   2.0000      -0.367541       -10.0013
 249   2.0000      -0.364737        -9.9250
 250   2.0000      -0.360650        -9.8138
 251   2.0000      -0.359716        -9.7884
 252   2.0000      -0.359488        -9.7822
 253   2.0000      -0.357878        -9.7384
 254   2.0000      -0.356655        -9.7051
 255   2.0000      -0.351531        -9.5657
 256   2.0000      -0.340788        -9.2733
 257   2.0000      -0.339987        -9.2515
 258   2.0000      -0.337695        -9.1891
 259   2.0000      -0.333323        -9.0702
 260   2.0000      -0.327448        -8.9103
 261   2.0000      -0.325502        -8.8574
 262   2.0000      -0.316604        -8.6152
 263   2.0000      -0.311888        -8.4869
 264   2.0000      -0.311325        -8.4716
 265   2.0000      -0.290864        -7.9148
 266   2.0000      -0.284145        -7.7320
 267   2.0000      -0.272983        -7.4283
 268   2.0000      -0.224587        -6.1113
 269   0.0000      -0.118838        -3.2338
 270   0.0000      -0.114186        -3.1071
 271   0.0000      -0.076093        -2.0706
 272   0.0000      -0.066184        -1.8010
 273   0.0000      -0.044744        -1.2176

MULLIKEN ATOMIC CHARGES
-----------------------
   0 C :   -0.082132
   1 S :    0.195024
   2 C :   -0.195263
   3 C :    0.000722
   4 C :   -0.122336
   5 C :    0.537610
   6 F :   -0.164832
   7 F :   -0.149091
   8 F :   -0.153973
   9 C :    0.537208
  10 F :   -0.159290
  11 F :   -0.155998
  12 F :   -0.136776
  13 C :    0.025733
  14 N :   -0.029024
  15 C :    0.078007
  16 C :   -0.179573
  17 C :    0.217547
  18 O :   -0.146944
  19 C :   -0.004729
  20 C :   -0.029333
  21 N :   -0.045718
  22 C :    0.088829
  23 C :   -0.100339
  24 C :    0.069832
  25 C :   -0.048082
  26 C :    0.009378
  27 C :    0.110944
  28 C :   -0.097952
  29 C :    0.063287
  30 C :   -0.013763
  31 C :   -0.066591
  32 C :    0.156746
  33 N :   -0.223538
  34 C :    0.139989
  35 N :   -0.217024
  36 C :    0.091325
  37 C :   -0.132030
  38 C :    0.184201
  39 C :   -0.065234
  40 C :    0.026907
  41 C :    0.007976
  42 C :    0.037972
  43 C :    0.000678
  44 C :   -0.008263
  45 C :   -0.109834
  46 C :    0.028758
  47 C :    0.046011
  48 N :   -0.028265
  49 C :    0.072116
  50 C :   -0.163884
  51 C :    0.222237
  52 O :   -0.147936
  53 C :   -0.014510
  54 C :   -0.031075
  55 N :   -0.048888
  56 C :    0.091446
  57 C :   -0.091025
  58 C :    0.024521
  59 C :   -0.049922
  60 C :    0.050349
  61 C :   -0.155704
  62 S :    0.195301
  63 C :   -0.092518
  64 C :   -0.108147
  65 C :   -0.029022
  66 C :    0.512169
  67 F :   -0.163868
  68 F :   -0.167194
  69 F :   -0.139140
  70 C :    0.530632
  71 F :   -0.159836
  72 F :   -0.155913
  73 F :   -0.160526
  74 H :    0.053596
  75 H :    0.011711
  76 H :   -0.004982
  77 H :   -0.026819
  78 H :   -0.000300
  79 H :   -0.015967
  80 H :   -0.019771
  81 H :   -0.031450
  82 H :   -0.000292
  83 H :    0.082453
  84 H :    0.083300
  85 H :    0.000545
  86 H :   -0.017493
  87 H :    0.105253
  88 H :    0.097487
  89 H :    0.001967
  90 H :    0.055293
  91 H :   -0.005333
  92 H :   -0.033723
  93 H :   -0.038981
  94 H :   -0.036032
  95 H :    0.021922
  96 H :    0.024818
  97 H :    0.012467
  98 H :   -0.003383
  99 H :    0.003893
 100 H :    0.022148
 101 H :    0.049246
Sum of atomic charges:   -0.0000000

LOEWDIN ATOMIC CHARGES
----------------------
   0 C :   -0.151438
   1 S :    0.519028
   2 C :   -0.168004
   3 C :   -0.072499
   4 C :   -0.107324
   5 C :    0.159080
   6 F :   -0.062714
   7 F :   -0.046762
   8 F :   -0.055187
   9 C :    0.161377
  10 F :   -0.054072
  11 F :   -0.053398
  12 F :   -0.039377
  13 C :    0.041833
  14 N :   -0.080802
  15 C :    0.048719
  16 C :   -0.067526
  17 C :    0.070962
  18 O :   -0.144647
  19 C :   -0.037873
  20 C :    0.027952
  21 N :   -0.091878
  22 C :    0.075485
  23 C :   -0.031938
  24 C :   -0.017854
  25 C :   -0.072135
  26 C :    0.038034
  27 C :   -0.035888
  28 C :    0.015594
  29 C :   -0.025252
  30 C :   -0.013437
  31 C :   -0.041295
  32 C :    0.031763
  33 N :   -0.124891
  34 C :    0.026949
  35 N :   -0.103286
  36 C :   -0.014290
  37 C :    0.069201
  38 C :   -0.030376
  39 C :   -0.042616
  40 C :   -0.007766
  41 C :   -0.039957
  42 C :   -0.025669
  43 C :   -0.008532
  44 C :   -0.022781
  45 C :    0.040027
  46 C :   -0.042208
  47 C :    0.077203
  48 N :   -0.097274
  49 C :    0.048472
  50 C :   -0.040729
  51 C :    0.069875
  52 O :   -0.144829
  53 C :   -0.040013
  54 C :    0.024197
  55 N :   -0.092703
  56 C :    0.076536
  57 C :   -0.033209
  58 C :   -0.029737
  59 C :   -0.017728
  60 C :   -0.024428
  61 C :   -0.141771
  62 S :    0.506295
  63 C :   -0.159898
  64 C :   -0.109319
  65 C :   -0.117696
  66 C :    0.170968
  67 F :   -0.060260
  68 F :   -0.069099
  69 F :   -0.037074
  70 C :    0.159070
  71 F :   -0.057887
  72 F :   -0.057717
  73 F :   -0.056881
  74 H :    0.037878
  75 H :    0.024120
  76 H :    0.034258
  77 H :    0.007336
  78 H :    0.033723
  79 H :    0.033298
  80 H :    0.027351
  81 H :   -0.006308
  82 H :    0.017990
  83 H :    0.036245
  84 H :    0.049976
  85 H :    0.005159
  86 H :    0.011865
  87 H :    0.058742
  88 H :    0.057872
  89 H :    0.027095
  90 H :    0.072293
  91 H :    0.025567
  92 H :    0.031383
  93 H :    0.026884
  94 H :    0.023284
  95 H :    0.025399
  96 H :    0.045851
  97 H :    0.025005
  98 H :    0.035169
  99 H :    0.025348
 100 H :    0.034683
 101 H :    0.035839

  Mayer bond orders larger than 0.100000
B(  0-C ,  1-S ) :   1.1966 B(  0-C ,  2-C ) :   0.1015 B(  0-C ,  4-C ) :   1.5637
B(  0-C , 74-H ) :   0.9694 B(  1-S ,  2-C ) :   1.1845 B(  2-C ,  3-C ) :   1.5504
B(  2-C , 13-C ) :   1.0285 B(  3-C ,  4-C ) :   1.3012 B(  3-C ,  9-C ) :   0.9358
B(  4-C ,  5-C ) :   0.9411 B(  5-C ,  6-F ) :   1.1560 B(  5-C ,  7-F ) :   1.1700
B(  5-C ,  8-F ) :   1.1835 B(  9-C , 10-F ) :   1.1534 B(  9-C , 11-F ) :   1.1447
B(  9-C , 12-F ) :   1.2026 B( 13-C , 14-N ) :   1.6456 B( 13-C , 15-C ) :   0.1213
B( 13-C , 24-C ) :   1.0271 B( 14-N , 15-C ) :   1.3092 B( 15-C , 16-C ) :   1.0675
B( 15-C , 20-C ) :   1.4410 B( 16-C , 17-C ) :   0.9041 B( 16-C , 24-C ) :   1.5213
B( 17-C , 18-O ) :   2.1744 B( 17-C , 19-C ) :   0.9293 B( 18-O , 78-H ) :   0.1079
B( 19-C , 20-C ) :   1.0631 B( 19-C , 23-C ) :   1.6163 B( 20-C , 21-N ) :   1.3023
B( 21-N , 22-C ) :   1.6708 B( 22-C , 23-C ) :   1.0540 B( 22-C , 75-H ) :   0.9890
B( 23-C , 76-H ) :   1.0118 B( 24-C , 25-C ) :   1.1301 B( 25-C , 26-C ) :   1.6206
B( 25-C , 77-H ) :   0.9457 B( 26-C , 27-C ) :   1.0949 B( 26-C , 78-H ) :   0.9705
B( 27-C , 28-C ) :   1.4792 B( 27-C , 44-C ) :   1.1151 B( 28-C , 29-C ) :   1.1240
B( 28-C , 79-H ) :   1.0086 B( 29-C , 30-C ) :   1.4846 B( 29-C , 42-C ) :   1.1102
B( 30-C , 31-C ) :   1.0313 B( 30-C , 36-C ) :   1.0909 B( 31-C , 32-C ) :   1.0193
B( 31-C , 34-C ) :   1.0442 B( 31-C , 80-H ) :   0.8795 B( 32-C , 33-N ) :   1.1160
B( 32-C , 81-H ) :   0.9216 B( 32-C , 82-H ) :   0.9476 B( 33-N , 83-H ) :   0.9435
B( 33-N , 84-H ) :   0.9672 B( 34-C , 35-N ) :   1.0834 B( 34-C , 85-H ) :   0.9469
B( 34-C , 86-H ) :   0.9319 B( 35-N , 87-H ) :   0.9623 B( 35-N , 88-H ) :   0.9674
B( 36-C , 37-C ) :   1.6856 B( 36-C , 41-C ) :   1.0459 B( 37-C , 38-C ) :   0.9515
B( 37-C , 89-H ) :   0.9600 B( 38-C , 39-C ) :   1.0200 B( 38-C , 45-C ) :   0.9465
B( 38-C , 90-H ) :   0.8323 B( 39-C , 40-C ) :   1.7141 B( 39-C , 91-H ) :   0.9610
B( 40-C , 41-C ) :   1.1327 B( 40-C , 92-H ) :   0.9913 B( 41-C , 42-C ) :   1.4462
B( 42-C , 43-C ) :   1.1388 B( 43-C , 44-C ) :   1.6264 B( 43-C , 93-H ) :   0.9882
B( 44-C , 94-H ) :   0.9822 B( 45-C , 46-C ) :   1.8032 B( 45-C , 95-H ) :   0.9712
B( 46-C , 47-C ) :   1.0731 B( 46-C , 96-H ) :   0.9401 B( 47-C , 48-N ) :   1.6055
B( 47-C , 49-C ) :   0.1094 B( 47-C , 58-C ) :   1.0182 B( 48-N , 49-C ) :   1.3439
B( 49-C , 50-C ) :   1.0475 B( 49-C , 54-C ) :   1.4211 B( 50-C , 51-C ) :   0.8982
B( 50-C , 58-C ) :   1.5701 B( 51-C , 52-O ) :   2.1798 B( 51-C , 53-C ) :   0.9313
B( 53-C , 54-C ) :   1.0666 B( 53-C , 57-C ) :   1.6014 B( 54-C , 55-N ) :   1.3196
B( 55-N , 56-C ) :   1.6500 B( 56-C , 57-C ) :   1.0727 B( 56-C , 97-H ) :   0.9899
B( 57-C , 98-H ) :   1.0109 B( 58-C , 59-C ) :   1.1129 B( 59-C , 60-C ) :   1.7205
B( 59-C , 99-H ) :   0.9541 B( 60-C , 61-C ) :   1.0824 B( 60-C ,100-H ) :   0.9261
B( 61-C , 62-S ) :   1.1889 B( 61-C , 65-C ) :   1.5194 B( 62-S , 63-C ) :   1.1820
B( 63-C , 64-C ) :   1.5852 B( 63-C ,101-H ) :   0.9695 B( 64-C , 65-C ) :   1.2854
B( 64-C , 70-C ) :   0.9479 B( 65-C , 66-C ) :   0.9476 B( 66-C , 67-F ) :   1.1234
B( 66-C , 68-F ) :   1.1192 B( 66-C , 69-F ) :   1.1717 B( 70-C , 71-F ) :   1.1642
B( 70-C , 72-F ) :   1.1814 B( 70-C , 73-F ) :   1.1531

-----------------------------------------------------------------------------
         ABSORPTION SPECTRUM VIA TRANSITION ELECTRIC DIPOLE MOMENTS
-----------------------------------------------------------------------------
State   Energy  Wavelength   fosc         T2         TX        TY        TZ
        (cm-1)    (nm)                  (au**2)     (au)      (au)      (au)
-----------------------------------------------------------------------------
   0   10471.3    955.0   0.119456746   3.75565   0.88853   1.31806   1.10854
   1   11079.3    902.6   0.035021121   1.04062   0.33919   0.11358   0.95534
   2   14199.1    704.3   0.082858261   1.92110  -1.28090   0.13833  -0.51113
   3   18015.3    555.1   0.008621686   0.15755  -0.29704  -0.02294  -0.26228
   4   19064.1    524.5   0.089688256   1.54880   0.84146   0.40292  -0.82365
   5   21467.2    465.8   0.005048835   0.07743  -0.25959   0.09773   0.02214
   6   22190.2    450.6   0.007783219   0.11547   0.18129   0.28540  -0.03387
   7   22836.7    437.9   0.003580570   0.05162  -0.16022  -0.11679   0.11093
   8   23150.8    432.0   0.413608728   5.88166   1.13793   1.34841   1.66390
   9   23632.4    423.1   0.020837948   0.29028  -0.22602  -0.24270  -0.42461
  10   24585.0    406.8   0.131107428   1.75563  -0.46129  -0.94254  -0.80898
  11   25029.2    399.5   0.367151557   4.82919   1.59176   1.51360   0.06714
  12   25192.3    396.9   0.101209641   1.32261  -0.87925   0.43815  -0.59795
  13   25398.8    393.7   0.035157740   0.45570  -0.01005  -0.25614  -0.62450
  14   25615.7    390.4   0.015907644   0.20444   0.32232   0.11199   0.29667
  15   25659.8    389.7   0.099093353   1.27136   0.50636   0.78824   0.62740
  16   25798.7    387.6   0.349912841   4.46517   0.80703   1.19030   1.54825
  17   26719.6    374.3   0.572005091   7.04767   2.62594  -0.24476   0.30368
  18   26885.3    372.0   0.390246480   4.77858  -0.25336   1.42768  -1.63588
  19   27354.3    365.6   0.004218014   0.05076  -0.15101  -0.06914   0.15225
  20   27837.6    359.2   0.012798915   0.15136   0.26602   0.28257  -0.02737
  21   28345.1    352.8   0.003671854   0.04265  -0.19225  -0.02165  -0.07224
  22   29652.3    337.2   0.599781424   6.65902  -1.59689   0.08307   2.02535
  23   30083.9    332.4   0.113232685   1.23912  -0.40353  -0.67513  -0.78771
  24   30221.4    330.9   0.009281980   0.10111   0.13050  -0.22567  -0.18209
  25   30507.8    327.8   0.023830737   0.25716   0.16873  -0.37040  -0.30247
  26   30869.7    323.9   0.004223091   0.04504  -0.03870  -0.15506  -0.13963
  27   30915.1    323.5   0.060737892   0.64679   0.00395  -0.60330  -0.53180
  28   31041.2    322.2   0.006380136   0.06767   0.19204   0.03050  -0.17279
  29   31307.1    319.4   0.024492279   0.25755  -0.35989  -0.00027  -0.35781
  30   31541.3    317.0   0.001042459   0.01088  -0.10116   0.02165  -0.01334
  31   32953.7    303.5   0.108000683   1.07894  -0.90423   0.14047  -0.49150
  32   33041.4    302.7   0.112458531   1.12050  -0.87052   0.11273  -0.59160
  33   33623.6    297.4   0.013770446   0.13483   0.17550  -0.07593  -0.31347
  34   34147.2    292.8   0.010703446   0.10319   0.26862   0.10937   0.13810
  35   34300.9    291.5   0.003401790   0.03265   0.14789   0.07208  -0.07472
  36   34729.1    287.9   0.000857243   0.00813  -0.00757  -0.05139   0.07367
  37   35059.7    285.2   0.427108898   4.01056  -0.49168  -1.46414  -1.27480
  38   35350.9    282.9   0.020045497   0.18668   0.08401   0.01734   0.42346
  39   35534.7    281.4   0.020907323   0.19370   0.42981   0.05108  -0.07968
  40   35888.4    278.6   0.021113238   0.19368  -0.22010  -0.01273  -0.38088
  41   35948.5    278.2   0.031509169   0.28856  -0.50021  -0.03891   0.19193
  42   36054.3    277.4   0.125203977   1.14324   0.48246   0.85919  -0.41505
  43   36464.6    274.2   0.329731551   2.97691  -1.10282  -1.12698   0.70045
  44   36632.3    273.0   0.000960400   0.00863   0.04790   0.06347  -0.04805
  45   36853.1    271.3   0.039783520   0.35539  -0.20678   0.12271  -0.54550
  46   37122.5    269.4   0.224955903   1.99497  -1.19579   0.70234  -0.26792
  47   37209.6    268.7   0.194269604   1.71880  -0.32407   0.96212   0.82952
  48   37631.7    265.7   0.015434740   0.13503  -0.23331  -0.27231   0.08026
  49   37661.7    265.5   0.002518887   0.02202  -0.08841   0.10414   0.05793
  50   38191.7    261.8   0.399173719   3.44087   0.18453   1.68253   0.75890
  51   38367.4    260.6   0.000188879   0.00162  -0.02610   0.02474  -0.01809
  52   38480.7    259.9   0.066880837   0.57218  -0.16159   0.73890  -0.00948
  53   38723.4    258.2   0.084904130   0.72182   0.80884  -0.20977   0.15360
  54   38851.1    257.4   0.004438049   0.03761   0.11553   0.00213   0.15574
  55   39066.0    256.0   0.026633753   0.22444  -0.46483  -0.02022   0.08925

FINAL SINGLE POINT ENERGY     -4467.098041911392

DIPOLE MOMENT
-------------
                                X             Y             Z
Electronic contribution:     14.44226     -48.56633     -17.71767
Nuclear contribution   :    -13.64523      51.19321      20.62853
                        -----------------------------------------
Total Dipole Moment    :      0.79704       2.62688       2.91086
                        -----------------------------------------
Magnitude (a.u.)       :      4.00111
Magnitude (Debye)      :     10.17001

Rotational constants in cm-1:     0.001352     0.000245     0.000228
Rotational constants in MHz :    40.527143     7.350567     6.847995

                             ****ORCA TERMINATED NORMALLY****
TOTAL RUN TIME: 0 days 0 hours 12 minutes 51 seconds 527 msec
