                         Program Version 4.2.0 -  RELEASE  -
|  1> # ORCA input file
|  2> # SCF done       -211.399677434922          0.000856457315
|  3> ! CAM-B3LYP def2-SVP def2/J RIJCOSX Grid4 TightSCF
|  4> %maxcore 5000
|  5> %tddft
|  6>     Mode sTDDFT
|  7>     Ethresh 5.0
|  8>     maxcore 5000
|  9> end
| 10>
| 11> %pal
| 12>   nprocs 6
| 13>   end
| 14> * xyz 0 1
| 15>    C       12.74275        -2.60589        10.59666
| 16>    C       12.81513        -3.35312        11.73941
| 17>    F       13.56637        -2.91913        12.76799
| 18>    C       12.13196        -4.56738        11.88770
| 19>    C       11.36445        -5.02521        10.85275
| 20>    C       11.25460        -4.29552         9.65180
| 21>    C       11.95449        -3.06112         9.52245
| 22>    C       11.84874        -2.30323         8.33199
| 23>    C       11.07119        -2.76949         7.30785
| 24>    C       10.39233        -4.01519         7.43403
| 25>    C       10.46939        -4.76213         8.57298
| 26>    C        9.66862        -4.30090         6.17964
| 27>    O        8.95307        -5.24588         5.93266
| 28>    C       10.04289        -3.20325         5.24977
| 29>    C       10.74333        -2.19607         6.00219
| 30>    C       10.86751        -0.86260         5.68261
| 31>    C       10.28840        -0.26938         4.54615
| 32>    N        9.81011         0.25894         3.64538
| 33>    C       11.49266         0.08921         6.51286
| 34>    N       12.00444         0.90091         7.14286
| 35>    C        9.72290        -3.32398         3.92264
| 36>    C       10.26403        -2.65887         2.81463
| 37>    S        9.39306        -2.64378         1.28586
| 38>    C       10.58997        -1.66961         0.46472
| 39>    C       11.62518        -1.41948         1.34226
| 40>    C       11.45038        -1.96364         2.63473
| 41>    N       12.56792        -1.65641         3.36033
| 42>    C       13.43256        -0.88332         2.59104
| 43>    O       14.49319        -0.43548         2.93579
| 44>    N       12.83757        -0.76387         1.35140
| 45>    C       10.39468        -1.21612        -0.88332
| 46>    C       11.43918        -0.69358        -1.61276
| 47>    C       11.21077        -0.16099        -2.89658
| 48>    C       12.06055         0.47043        -3.79358
| 49>    C       13.53069         0.70659        -3.69394
| 50>    C       13.95645         1.36585        -2.36808
| 51>    N       15.05167         2.28322        -2.62011
| 52>    C       14.29313        -0.61159        -3.93058
| 53>    N       14.09211        -1.04545        -5.30152
| 54>    C       11.24971         0.86295        -4.92240
| 55>    C       11.56365         1.54842        -6.03695
| 56>    C       10.52344         1.90088        -7.04719
| 57>    C        9.17125         1.32396        -6.78015
| 58>    C        8.87372         0.64952        -5.65465
| 59>    C        9.87294         0.41167        -4.67969
| 60>    C        9.85878        -0.20298        -3.44577
| 61>    C        8.81989        -0.80414        -2.69580
| 62>    C        9.08211        -1.29005        -1.45896
| 63>    C       11.05014         1.60505        -8.42450
| 64>    C       10.68216         0.55447        -9.16290
| 65>    C       11.17106         0.30190       -10.48180
| 66>    S       12.28732         1.38564       -11.28703
| 67>    C       12.31271         0.44767       -12.77858
| 68>    C       11.51434        -0.66498       -12.59634
| 69>    C       10.86597        -0.72870       -11.33650
| 70>    N       10.08848        -1.86186       -11.34713
| 71>    C       10.20750        -2.50588       -12.56649
| 72>    O        9.66367        -3.52045       -12.90694
| 73>    N       11.10185        -1.74774       -13.31734
| 74>    C       13.10391         0.77067       -13.89992
| 75>    C       13.66893         1.96537       -14.22991
| 76>    C       14.83767         2.00713       -15.14877
| 77>    O       15.23390         1.11047       -15.85830
| 78>    C       15.43088         3.34484       -14.95201
| 79>    C       16.58618         3.85777       -15.46717
| 80>    C       16.97563         5.16985       -15.11532
| 81>    C       16.15847         5.92743       -14.22605
| 82>    C       16.55866         7.23060       -13.87266
| 83>    C       17.71548         7.74165       -14.39201
| 84>    C       18.53031         7.01473       -15.27061
| 85>    C       18.15804         5.74710       -15.62210
| 86>    F       18.09856         8.98657       -14.05627
| 87>    C       14.96072         5.37495       -13.71526
| 88>    C       14.60050         4.10622       -14.07838
| 89>    C       13.42169         3.30863       -13.75634
| 90>    C       12.20829         3.80689       -13.35754
| 91>    C       11.02344         3.04353       -13.39190
| 92>    N       10.03817         2.45856       -13.46623
| 93>    C       11.99856         5.14432       -12.96972
| 94>    N       11.78365         6.21712       -12.62168
| 95>    H       13.27893        -1.67299        10.51902
| 96>    H       12.22613        -5.11327        12.81297
| 97>    H       10.82898        -5.95830        10.94320
| 98>    H       12.39324        -1.37490         8.26130
| 99>    H        9.93682        -5.69795         8.65212
|100>    H        8.98056        -4.08508         3.70292
|101>    H       12.76347        -1.90655         4.31483
|102>    H       13.20074        -0.15810         0.63595
|103>    H       12.43979        -0.70036        -1.21377
|104>    H       13.82431         1.39409        -4.49096
|105>    H       14.21156         0.58472        -1.63013
|106>    H       13.12306         1.95152        -1.97022
|107>    H       15.86901         1.78038        -2.94880
|108>    H       15.31013         2.77741        -1.77366
|109>    H       13.96470        -1.35483        -3.18364
|110>    H       15.36522        -0.44220        -3.79478
|111>    H       13.10937        -1.24439        -5.46036
|112>    H       14.61732        -1.89247        -5.48756
|113>    H       12.57094         1.88272        -6.24054
|114>    H       10.41809         2.99919        -6.99183
|115>    H        8.42182         1.51853        -7.53227
|116>    H        7.87392         0.27904        -5.48109
|117>    H        7.82518        -0.85699        -3.11216
|118>    H        8.29918        -1.73512        -0.86343
|119>    H       11.79145         2.29213        -8.81003
|120>    H        9.95882        -0.15534        -8.78379
|121>    H        9.47879        -2.18508       -10.61639
|122>    H       11.35360        -1.97870       -14.26339
|123>    H       13.36702        -0.06227       -14.54566
|124>    H       17.19673         3.27069       -16.13672
|125>    H       15.95353         7.82054       -13.20215
|126>    H       19.43129         7.47047       -15.64950
|127>    H       18.76965         5.16777       -16.29724
|128>    H       14.36097         5.96541       -13.04050
|129> *
|130>
|131>                          ****END OF INPUT****

CARTESIAN COORDINATES (ANGSTROEM)
---------------------------------
  C     12.742750   -2.605890   10.596660
  C     12.815130   -3.353120   11.739410
  F     13.566370   -2.919130   12.767990
  C     12.131960   -4.567380   11.887700
  C     11.364450   -5.025210   10.852750
  C     11.254600   -4.295520    9.651800
  C     11.954490   -3.061120    9.522450
  C     11.848740   -2.303230    8.331990
  C     11.071190   -2.769490    7.307850
  C     10.392330   -4.015190    7.434030
  C     10.469390   -4.762130    8.572980
  C      9.668620   -4.300900    6.179640
  O      8.953070   -5.245880    5.932660
  C     10.042890   -3.203250    5.249770
  C     10.743330   -2.196070    6.002190
  C     10.867510   -0.862600    5.682610
  C     10.288400   -0.269380    4.546150
  N      9.810110    0.258940    3.645380
  C     11.492660    0.089210    6.512860
  N     12.004440    0.900910    7.142860
  C      9.722900   -3.323980    3.922640
  C     10.264030   -2.658870    2.814630
  S      9.393060   -2.643780    1.285860
  C     10.589970   -1.669610    0.464720
  C     11.625180   -1.419480    1.342260
  C     11.450380   -1.963640    2.634730
  N     12.567920   -1.656410    3.360330
  C     13.432560   -0.883320    2.591040
  O     14.493190   -0.435480    2.935790
  N     12.837570   -0.763870    1.351400
  C     10.394680   -1.216120   -0.883320
  C     11.439180   -0.693580   -1.612760
  C     11.210770   -0.160990   -2.896580
  C     12.060550    0.470430   -3.793580
  C     13.530690    0.706590   -3.693940
  C     13.956450    1.365850   -2.368080
  N     15.051670    2.283220   -2.620110
  C     14.293130   -0.611590   -3.930580
  N     14.092110   -1.045450   -5.301520
  C     11.249710    0.862950   -4.922400
  C     11.563650    1.548420   -6.036950
  C     10.523440    1.900880   -7.047190
  C      9.171250    1.323960   -6.780150
  C      8.873720    0.649520   -5.654650
  C      9.872940    0.411670   -4.679690
  C      9.858780   -0.202980   -3.445770
  C      8.819890   -0.804140   -2.695800
  C      9.082110   -1.290050   -1.458960
  C     11.050140    1.605050   -8.424500
  C     10.682160    0.554470   -9.162900
  C     11.171060    0.301900  -10.481800
  S     12.287320    1.385640  -11.287030
  C     12.312710    0.447670  -12.778580
  C     11.514340   -0.664980  -12.596340
  C     10.865970   -0.728700  -11.336500
  N     10.088480   -1.861860  -11.347130
  C     10.207500   -2.505880  -12.566490
  O      9.663670   -3.520450  -12.906940
  N     11.101850   -1.747740  -13.317340
  C     13.103910    0.770670  -13.899920
  C     13.668930    1.965370  -14.229910
  C     14.837670    2.007130  -15.148770
  O     15.233900    1.110470  -15.858300
  C     15.430880    3.344840  -14.952010
  C     16.586180    3.857770  -15.467170
  C     16.975630    5.169850  -15.115320
  C     16.158470    5.927430  -14.226050
  C     16.558660    7.230600  -13.872660
  C     17.715480    7.741650  -14.392010
  C     18.530310    7.014730  -15.270610
  C     18.158040    5.747100  -15.622100
  F     18.098560    8.986570  -14.056270
  C     14.960720    5.374950  -13.715260
  C     14.600500    4.106220  -14.078380
  C     13.421690    3.308630  -13.756340
  C     12.208290    3.806890  -13.357540
  C     11.023440    3.043530  -13.391900
  N     10.038170    2.458560  -13.466230
  C     11.998560    5.144320  -12.969720
  N     11.783650    6.217120  -12.621680
  H     13.278930   -1.672990   10.519020
  H     12.226130   -5.113270   12.812970
  H     10.828980   -5.958300   10.943200
  H     12.393240   -1.374900    8.261300
  H      9.936820   -5.697950    8.652120
  H      8.980560   -4.085080    3.702920
  H     12.763470   -1.906550    4.314830
  H     13.200740   -0.158100    0.635950
  H     12.439790   -0.700360   -1.213770
  H     13.824310    1.394090   -4.490960
  H     14.211560    0.584720   -1.630130
  H     13.123060    1.951520   -1.970220
  H     15.869010    1.780380   -2.948800
  H     15.310130    2.777410   -1.773660
  H     13.964700   -1.354830   -3.183640
  H     15.365220   -0.442200   -3.794780
  H     13.109370   -1.244390   -5.460360
  H     14.617320   -1.892470   -5.487560
  H     12.570940    1.882720   -6.240540
  H     10.418090    2.999190   -6.991830
  H      8.421820    1.518530   -7.532270
  H      7.873920    0.279040   -5.481090
  H      7.825180   -0.856990   -3.112160
  H      8.299180   -1.735120   -0.863430
  H     11.791450    2.292130   -8.810030
  H      9.958820   -0.155340   -8.783790
  H      9.478790   -2.185080  -10.616390
  H     11.353600   -1.978700  -14.263390
  H     13.367020   -0.062270  -14.545660
  H     17.196730    3.270690  -16.136720
  H     15.953530    7.820540  -13.202150
  H     19.431290    7.470470  -15.649500
  H     18.769650    5.167770  -16.297240
  H     14.360970    5.965410  -13.040500

 Total Charge           Charge          ....    0
 Multiplicity           Mult            ....    1
 Number of Electrons    NEL             ....  558
 Basis Dimension        Dim             .... 1298

ORBITAL ENERGIES
----------------

  NO   OCC          E(Eh)            E(eV)
   0   2.0000     -88.967822     -2420.9375
   1   2.0000     -88.966105     -2420.8908
   2   2.0000     -24.786001      -674.4614
   3   2.0000     -24.783780      -674.4009
   4   2.0000     -19.213306      -522.8206
   5   2.0000     -19.210562      -522.7460
   6   2.0000     -19.199645      -522.4489
   7   2.0000     -19.194974      -522.3218
   8   2.0000     -14.480973      -394.0473
   9   2.0000     -14.477481      -393.9523
  10   2.0000     -14.474979      -393.8842
  11   2.0000     -14.470304      -393.7570
  12   2.0000     -14.415973      -392.2786
  13   2.0000     -14.413283      -392.2054
  14   2.0000     -14.413159      -392.2020
  15   2.0000     -14.411973      -392.1697
  16   2.0000     -14.384730      -391.4284
  17   2.0000     -14.383612      -391.3980
  18   2.0000     -10.422378      -283.6073
  19   2.0000     -10.416956      -283.4598
  20   2.0000     -10.369618      -282.1716
  21   2.0000     -10.367375      -282.1106
  22   2.0000     -10.365550      -282.0610
  23   2.0000     -10.362045      -281.9656
  24   2.0000     -10.350241      -281.6444
  25   2.0000     -10.345655      -281.5196
  26   2.0000     -10.342156      -281.4244
  27   2.0000     -10.341898      -281.4174
  28   2.0000     -10.340413      -281.3770
  29   2.0000     -10.339810      -281.3605
  30   2.0000     -10.339054      -281.3400
  31   2.0000     -10.332768      -281.1689
  32   2.0000     -10.329276      -281.0739
  33   2.0000     -10.326792      -281.0063
  34   2.0000     -10.326486      -280.9980
  35   2.0000     -10.323662      -280.9211
  36   2.0000     -10.322687      -280.8946
  37   2.0000     -10.320804      -280.8434
  38   2.0000     -10.318533      -280.7816
  39   2.0000     -10.316228      -280.7188
  40   2.0000     -10.315283      -280.6931
  41   2.0000     -10.314928      -280.6835
  42   2.0000     -10.313349      -280.6405
  43   2.0000     -10.308069      -280.4968
  44   2.0000     -10.306235      -280.4469
  45   2.0000     -10.305856      -280.4366
  46   2.0000     -10.303982      -280.3856
  47   2.0000     -10.303764      -280.3797
  48   2.0000     -10.302812      -280.3538
  49   2.0000     -10.302012      -280.3320
  50   2.0000     -10.301122      -280.3078
  51   2.0000     -10.300142      -280.2811
  52   2.0000     -10.300065      -280.2790
  53   2.0000     -10.298620      -280.2397
  54   2.0000     -10.298097      -280.2255
  55   2.0000     -10.297881      -280.2196
  56   2.0000     -10.297611      -280.2122
  57   2.0000     -10.296161      -280.1728
  58   2.0000     -10.295817      -280.1634
  59   2.0000     -10.295692      -280.1600
  60   2.0000     -10.294430      -280.1257
  61   2.0000     -10.294305      -280.1223
  62   2.0000     -10.292581      -280.0754
  63   2.0000     -10.292338      -280.0688
  64   2.0000     -10.291174      -280.0371
  65   2.0000     -10.290038      -280.0062
  66   2.0000     -10.289176      -279.9827
  67   2.0000     -10.286976      -279.9229
  68   2.0000     -10.286878      -279.9202
  69   2.0000     -10.286225      -279.9024
  70   2.0000     -10.283286      -279.8224
  71   2.0000     -10.282098      -279.7901
  72   2.0000     -10.281545      -279.7751
  73   2.0000     -10.280589      -279.7491
  74   2.0000     -10.279270      -279.7132
  75   2.0000     -10.275739      -279.6171
  76   2.0000     -10.273091      -279.5450
  77   2.0000     -10.272422      -279.5268
  78   2.0000     -10.270388      -279.4715
  79   2.0000     -10.270016      -279.4614
  80   2.0000      -8.062292      -219.3861
  81   2.0000      -8.061053      -219.3524
  82   2.0000      -6.032138      -164.1428
  83   2.0000      -6.030798      -164.1064
  84   2.0000      -6.028015      -164.0306
  85   2.0000      -6.026640      -163.9932
  86   2.0000      -6.023343      -163.9035
  87   2.0000      -6.022306      -163.8753
  88   2.0000      -1.301004       -35.4021
  89   2.0000      -1.298633       -35.3376
  90   2.0000      -1.173576       -31.9346
  91   2.0000      -1.168961       -31.8090
  92   2.0000      -1.128614       -30.7111
  93   2.0000      -1.125630       -30.6299
  94   2.0000      -1.099331       -29.9143
  95   2.0000      -1.094206       -29.7748
  96   2.0000      -1.020983       -27.7824
  97   2.0000      -1.020913       -27.7805
  98   2.0000      -1.018736       -27.7212
  99   2.0000      -1.012712       -27.5573
 100   2.0000      -0.999907       -27.2089
 101   2.0000      -0.998440       -27.1689
 102   2.0000      -0.997396       -27.1405
 103   2.0000      -0.996246       -27.1092
 104   2.0000      -0.992660       -27.0117
 105   2.0000      -0.989591       -26.9281
 106   2.0000      -0.988285       -26.8926
 107   2.0000      -0.975696       -26.5500
 108   2.0000      -0.974001       -26.5039
 109   2.0000      -0.973151       -26.4808
 110   2.0000      -0.958525       -26.0828
 111   2.0000      -0.956122       -26.0174
 112   2.0000      -0.931949       -25.3596
 113   2.0000      -0.927756       -25.2455
 114   2.0000      -0.923904       -25.1407
 115   2.0000      -0.910367       -24.7723
 116   2.0000      -0.902422       -24.5561
 117   2.0000      -0.894478       -24.3400
 118   2.0000      -0.886779       -24.1305
 119   2.0000      -0.886341       -24.1186
 120   2.0000      -0.882098       -24.0031
 121   2.0000      -0.877993       -23.8914
 122   2.0000      -0.869593       -23.6628
 123   2.0000      -0.851863       -23.1804
 124   2.0000      -0.844766       -22.9872
 125   2.0000      -0.840194       -22.8628
 126   2.0000      -0.835707       -22.7407
 127   2.0000      -0.833790       -22.6886
 128   2.0000      -0.833076       -22.6691
 129   2.0000      -0.830921       -22.6105
 130   2.0000      -0.824659       -22.4401
 131   2.0000      -0.809188       -22.0191
 132   2.0000      -0.791686       -21.5429
 133   2.0000      -0.780821       -21.2472
 134   2.0000      -0.770480       -20.9658
 135   2.0000      -0.768262       -20.9055
 136   2.0000      -0.761669       -20.7261
 137   2.0000      -0.759929       -20.6787
 138   2.0000      -0.756580       -20.5876
 139   2.0000      -0.747145       -20.3308
 140   2.0000      -0.729937       -19.8626
 141   2.0000      -0.729800       -19.8589
 142   2.0000      -0.728917       -19.8349
 143   2.0000      -0.712155       -19.3787
 144   2.0000      -0.709646       -19.3105
 145   2.0000      -0.707652       -19.2562
 146   2.0000      -0.707082       -19.2407
 147   2.0000      -0.705055       -19.1855
 148   2.0000      -0.698288       -19.0014
 149   2.0000      -0.690351       -18.7854
 150   2.0000      -0.685038       -18.6408
 151   2.0000      -0.682504       -18.5719
 152   2.0000      -0.679632       -18.4937
 153   2.0000      -0.678565       -18.4647
 154   2.0000      -0.676216       -18.4008
 155   2.0000      -0.667245       -18.1567
 156   2.0000      -0.662509       -18.0278
 157   2.0000      -0.653692       -17.7879
 158   2.0000      -0.644876       -17.5480
 159   2.0000      -0.635427       -17.2908
 160   2.0000      -0.633669       -17.2430
 161   2.0000      -0.629175       -17.1207
 162   2.0000      -0.628598       -17.1050
 163   2.0000      -0.625360       -17.0169
 164   2.0000      -0.616373       -16.7724
 165   2.0000      -0.613235       -16.6870
 166   2.0000      -0.610747       -16.6193
 167   2.0000      -0.608427       -16.5562
 168   2.0000      -0.605256       -16.4698
 169   2.0000      -0.603622       -16.4254
 170   2.0000      -0.595976       -16.2173
 171   2.0000      -0.593232       -16.1427
 172   2.0000      -0.586243       -15.9525
 173   2.0000      -0.584100       -15.8942
 174   2.0000      -0.583886       -15.8883
 175   2.0000      -0.581647       -15.8274
 176   2.0000      -0.576033       -15.6747
 177   2.0000      -0.571767       -15.5586
 178   2.0000      -0.569432       -15.4950
 179   2.0000      -0.566867       -15.4252
 180   2.0000      -0.562571       -15.3083
 181   2.0000      -0.561633       -15.2828
 182   2.0000      -0.558515       -15.1980
 183   2.0000      -0.556438       -15.1414
 184   2.0000      -0.555364       -15.1122
 185   2.0000      -0.552668       -15.0389
 186   2.0000      -0.548129       -14.9153
 187   2.0000      -0.546735       -14.8774
 188   2.0000      -0.542289       -14.7564
 189   2.0000      -0.539499       -14.6805
 190   2.0000      -0.534108       -14.5338
 191   2.0000      -0.532515       -14.4905
 192   2.0000      -0.532029       -14.4772
 193   2.0000      -0.531408       -14.4604
 194   2.0000      -0.529832       -14.4175
 195   2.0000      -0.526423       -14.3247
 196   2.0000      -0.523834       -14.2542
 197   2.0000      -0.521514       -14.1911
 198   2.0000      -0.520305       -14.1582
 199   2.0000      -0.518945       -14.1212
 200   2.0000      -0.517825       -14.0907
 201   2.0000      -0.515427       -14.0255
 202   2.0000      -0.515202       -14.0194
 203   2.0000      -0.513080       -13.9616
 204   2.0000      -0.511611       -13.9217
 205   2.0000      -0.508863       -13.8469
 206   2.0000      -0.507474       -13.8091
 207   2.0000      -0.504632       -13.7317
 208   2.0000      -0.501784       -13.6542
 209   2.0000      -0.500284       -13.6134
 210   2.0000      -0.496114       -13.5000
 211   2.0000      -0.494493       -13.4558
 212   2.0000      -0.492198       -13.3934
 213   2.0000      -0.491120       -13.3641
 214   2.0000      -0.489936       -13.3318
 215   2.0000      -0.486396       -13.2355
 216   2.0000      -0.484711       -13.1897
 217   2.0000      -0.481705       -13.1079
 218   2.0000      -0.479047       -13.0355
 219   2.0000      -0.477906       -13.0045
 220   2.0000      -0.474946       -12.9239
 221   2.0000      -0.471001       -12.8166
 222   2.0000      -0.465487       -12.6665
 223   2.0000      -0.463297       -12.6070
 224   2.0000      -0.459451       -12.5023
 225   2.0000      -0.457623       -12.4526
 226   2.0000      -0.456446       -12.4205
 227   2.0000      -0.455098       -12.3838
 228   2.0000      -0.451762       -12.2931
 229   2.0000      -0.450290       -12.2530
 230   2.0000      -0.447148       -12.1675
 231   2.0000      -0.445597       -12.1253
 232   2.0000      -0.444890       -12.1061
 233   2.0000      -0.441827       -12.0227
 234   2.0000      -0.440927       -11.9982
 235   2.0000      -0.437841       -11.9142
 236   2.0000      -0.436267       -11.8714
 237   2.0000      -0.432433       -11.7671
 238   2.0000      -0.430983       -11.7277
 239   2.0000      -0.429737       -11.6937
 240   2.0000      -0.426957       -11.6181
 241   2.0000      -0.426061       -11.5937
 242   2.0000      -0.425115       -11.5680
 243   2.0000      -0.422775       -11.5043
 244   2.0000      -0.422222       -11.4892
 245   2.0000      -0.420335       -11.4379
 246   2.0000      -0.416481       -11.3330
 247   2.0000      -0.415570       -11.3082
 248   2.0000      -0.414802       -11.2873
 249   2.0000      -0.407313       -11.0835
 250   2.0000      -0.406923       -11.0729
 251   2.0000      -0.401715       -10.9312
 252   2.0000      -0.401384       -10.9222
 253   2.0000      -0.400824       -10.9070
 254   2.0000      -0.397861       -10.8264
 255   2.0000      -0.390355       -10.6221
 256   2.0000      -0.382448       -10.4069
 257   2.0000      -0.378545       -10.3007
 258   2.0000      -0.378151       -10.2900
 259   2.0000      -0.371953       -10.1214
 260   2.0000      -0.368544       -10.0286
 261   2.0000      -0.363757        -9.8983
 262   2.0000      -0.359830        -9.7915
 263   2.0000      -0.347736        -9.4624
 264   2.0000      -0.341495        -9.2925
 265   2.0000      -0.334410        -9.0998
 266   2.0000      -0.333408        -9.0725
 267   2.0000      -0.322795        -8.7837
 268   2.0000      -0.313133        -8.5208
 269   2.0000      -0.312918        -8.5149
 270   2.0000      -0.312060        -8.4916
 271   2.0000      -0.305527        -8.3138
 272   2.0000      -0.299125        -8.1396
 273   2.0000      -0.297207        -8.0874
 274   2.0000      -0.292521        -7.9599
 275   2.0000      -0.289088        -7.8665
 276   2.0000      -0.273050        -7.4301
 277   2.0000      -0.272057        -7.4030
 278   2.0000      -0.232028        -6.3138
 279   0.0000      -0.097560        -2.6547
 280   0.0000      -0.094543        -2.5726
 281   0.0000      -0.073612        -2.0031
 282   0.0000      -0.056066        -1.5256
 283   0.0000      -0.054685        -1.4880

MULLIKEN ATOMIC CHARGES
-----------------------
   0 C :   -0.098074
   1 C :    0.302773
   2 F :   -0.191001
   3 C :   -0.029670
   4 C :   -0.010679
   5 C :    0.100578
   6 C :    0.102384
   7 C :   -0.092550
   8 C :    0.040367
   9 C :    0.017845
  10 C :   -0.083402
  11 C :    0.138173
  12 O :   -0.147043
  13 C :   -0.150818
  14 C :    0.236342
  15 C :   -0.399339
  16 C :   -0.183234
  17 N :    0.170670
  18 C :   -0.164924
  19 N :    0.156873
  20 C :    0.085169
  21 C :   -0.210108
  22 S :    0.133942
  23 C :   -0.183584
  24 C :    0.160829
  25 C :    0.139664
  26 N :   -0.091896
  27 C :    0.162710
  28 O :   -0.182503
  29 N :   -0.115238
  30 C :    0.158353
  31 C :   -0.111095
  32 C :    0.044076
  33 C :   -0.085111
  34 C :   -0.019909
  35 C :    0.116691
  36 N :   -0.208652
  37 C :    0.151964
  38 N :   -0.228302
  39 C :    0.084000
  40 C :   -0.100134
  41 C :    0.175691
  42 C :   -0.069250
  43 C :    0.018694
  44 C :    0.014203
  45 C :    0.032799
  46 C :   -0.000317
  47 C :   -0.032663
  48 C :   -0.107679
  49 C :    0.041029
  50 C :   -0.161607
  51 S :    0.115863
  52 C :   -0.227383
  53 C :    0.216260
  54 C :    0.155073
  55 N :   -0.105171
  56 C :    0.167063
  57 O :   -0.178149
  58 N :   -0.093344
  59 C :    0.030340
  60 C :   -0.150467
  61 C :    0.145013
  62 O :   -0.149350
  63 C :    0.006466
  64 C :   -0.082639
  65 C :    0.100931
  66 C :    0.104513
  67 C :   -0.100367
  68 C :    0.304167
  69 C :   -0.030034
  70 C :   -0.011569
  71 F :   -0.189882
  72 C :   -0.089531
  73 C :    0.045707
  74 C :    0.250090
  75 C :   -0.323805
  76 C :   -0.196121
  77 N :    0.161349
  78 C :   -0.176176
  79 N :    0.154307
  80 H :   -0.002352
  81 H :    0.002843
  82 H :   -0.010176
  83 H :   -0.006654
  84 H :   -0.013320
  85 H :    0.022470
  86 H :    0.158897
  87 H :    0.146865
  88 H :   -0.074745
  89 H :   -0.014195
  90 H :   -0.021328
  91 H :    0.010021
  92 H :    0.088990
  93 H :    0.094983
  94 H :   -0.014323
  95 H :   -0.013511
  96 H :    0.096323
  97 H :    0.093015
  98 H :    0.005858
  99 H :    0.058289
 100 H :   -0.001926
 101 H :   -0.034209
 102 H :   -0.031537
 103 H :   -0.009732
 104 H :    0.016806
 105 H :   -0.007543
 106 H :    0.142575
 107 H :    0.148895
 108 H :    0.011093
 109 H :   -0.011192
 110 H :   -0.002535
 111 H :    0.003152
 112 H :   -0.008056
 113 H :   -0.003931
Sum of atomic charges:   -0.0000000

LOEWDIN ATOMIC CHARGES
----------------------
   0 C :   -0.042174
   1 C :    0.092916
   2 F :   -0.065423
   3 C :   -0.038027
   4 C :    0.004386
   5 C :   -0.020067
   6 C :    0.003033
   7 C :    0.006744
   8 C :   -0.019421
   9 C :   -0.060226
  10 C :    0.034065
  11 C :    0.081640
  12 O :   -0.149199
  13 C :   -0.111983
  14 C :    0.047650
  15 C :   -0.155164
  16 C :   -0.020964
  17 N :   -0.050653
  18 C :   -0.022536
  19 N :   -0.051651
  20 C :    0.050833
  21 C :   -0.209597
  22 S :    0.442353
  23 C :   -0.154901
  24 C :   -0.015497
  25 C :    0.016810
  26 N :    0.038880
  27 C :    0.079121
  28 O :   -0.198760
  29 N :    0.019410
  30 C :   -0.038912
  31 C :   -0.017926
  32 C :   -0.023058
  33 C :   -0.035321
  34 C :   -0.039455
  35 C :    0.025603
  36 N :   -0.113935
  37 C :    0.028469
  38 N :   -0.120709
  39 C :   -0.023737
  40 C :    0.081802
  41 C :   -0.031323
  42 C :   -0.035030
  43 C :   -0.015534
  44 C :   -0.037025
  45 C :   -0.029948
  46 C :    0.000166
  47 C :   -0.033930
  48 C :    0.000441
  49 C :   -0.042901
  50 C :   -0.166824
  51 S :    0.441248
  52 C :   -0.211953
  53 C :    0.027129
  54 C :   -0.019441
  55 N :    0.016178
  56 C :    0.081305
  57 O :   -0.196390
  58 N :    0.028957
  59 C :    0.048537
  60 C :   -0.104081
  61 C :    0.082194
  62 O :   -0.150410
  63 C :   -0.059415
  64 C :    0.033883
  65 C :   -0.019248
  66 C :    0.003556
  67 C :   -0.042895
  68 C :    0.093095
  69 C :   -0.037356
  70 C :    0.004531
  71 F :   -0.064617
  72 C :    0.008852
  73 C :   -0.015943
  74 C :    0.060689
  75 C :   -0.143566
  76 C :   -0.033320
  77 N :   -0.056629
  78 C :   -0.019671
  79 N :   -0.053981
  80 H :    0.043219
  81 H :    0.041571
  82 H :    0.035398
  83 H :    0.038492
  84 H :    0.039315
  85 H :    0.047790
  86 H :    0.096014
  87 H :    0.091493
  88 H :    0.013573
  89 H :    0.029134
  90 H :   -0.008466
  91 H :    0.021955
  92 H :    0.050709
  93 H :    0.057086
  94 H :   -0.001358
  95 H :    0.011509
  96 H :    0.051730
  97 H :    0.055736
  98 H :    0.035448
  99 H :    0.073046
 100 H :    0.027560
 101 H :    0.030800
 102 H :    0.030203
 103 H :    0.021426
 104 H :    0.024110
 105 H :    0.033447
 106 H :    0.098350
 107 H :    0.102105
 108 H :    0.045955
 109 H :    0.039592
 110 H :    0.042867
 111 H :    0.041795
 112 H :    0.035778
 113 H :    0.038873

  Mayer bond orders larger than 0.100000
B(  0-C ,  1-C ) :   1.4373 B(  0-C ,  6-C ) :   1.2046 B(  0-C , 80-H ) :   1.0068
B(  1-C ,  2-F ) :   1.0883 B(  1-C ,  3-C ) :   1.2578 B(  3-C ,  4-C ) :   1.4592
B(  3-C , 81-H ) :   0.9926 B(  4-C ,  5-C ) :   1.2353 B(  4-C , 82-H ) :   0.9969
B(  5-C ,  6-C ) :   1.2603 B(  5-C , 10-C ) :   1.1854 B(  6-C ,  7-C ) :   1.1972
B(  7-C ,  8-C ) :   1.4672 B(  7-C , 83-H ) :   0.9948 B(  8-C ,  9-C ) :   1.2238
B(  8-C , 14-C ) :   0.9863 B(  9-C , 10-C ) :   1.4735 B(  9-C , 11-C ) :   0.9167
B( 10-C , 84-H ) :   1.0154 B( 11-C , 12-O ) :   2.2681 B( 11-C , 13-C ) :   0.9503
B( 13-C , 14-C ) :   1.0899 B( 13-C , 20-C ) :   1.5666 B( 14-C , 15-C ) :   1.5957
B( 15-C , 16-C ) :   1.1748 B( 15-C , 18-C ) :   1.1306 B( 16-C , 17-N ) :   2.9961
B( 18-C , 19-N ) :   2.9854 B( 20-C , 21-C ) :   1.2236 B( 20-C , 85-H ) :   0.9301
B( 21-C , 22-S ) :   1.0496 B( 21-C , 25-C ) :   1.3953 B( 22-S , 23-C ) :   1.1028
B( 23-C , 24-C ) :   1.4942 B( 23-C , 30-C ) :   1.0771 B( 24-C , 25-C ) :   1.2667
B( 24-C , 29-N ) :   1.1240 B( 25-C , 26-N ) :   1.1840 B( 26-N , 27-C ) :   1.0318
B( 26-N , 86-H ) :   0.9138 B( 27-C , 28-O ) :   2.2052 B( 27-C , 29-N ) :   1.0796
B( 29-N , 87-H ) :   0.9155 B( 30-C , 31-C ) :   1.5103 B( 30-C , 47-C ) :   1.1019
B( 31-C , 32-C ) :   1.1520 B( 31-C , 88-H ) :   0.9806 B( 32-C , 33-C ) :   1.4557
B( 32-C , 45-C ) :   1.1240 B( 33-C , 34-C ) :   1.0412 B( 33-C , 39-C ) :   1.1213
B( 34-C , 35-C ) :   1.0275 B( 34-C , 37-C ) :   1.0357 B( 34-C , 89-H ) :   0.8722
B( 35-C , 36-N ) :   1.1100 B( 35-C , 90-H ) :   0.9193 B( 35-C , 91-H ) :   0.9502
B( 36-N , 92-H ) :   0.9695 B( 36-N , 93-H ) :   0.9669 B( 37-C , 38-N ) :   1.0914
B( 37-C , 94-H ) :   0.9317 B( 37-C , 95-H ) :   0.9359 B( 38-N , 96-H ) :   0.9694
B( 38-N , 97-H ) :   0.9660 B( 39-C , 40-C ) :   1.6738 B( 39-C , 44-C ) :   1.0467
B( 40-C , 41-C ) :   0.9659 B( 40-C , 98-H ) :   0.9647 B( 41-C , 42-C ) :   1.0012
B( 41-C , 48-C ) :   0.9599 B( 41-C , 99-H ) :   0.8367 B( 42-C , 43-C ) :   1.7081
B( 42-C ,100-H ) :   0.9732 B( 43-C , 44-C ) :   1.1241 B( 43-C ,101-H ) :   0.9917
B( 44-C , 45-C ) :   1.4381 B( 45-C , 46-C ) :   1.1398 B( 46-C , 47-C ) :   1.6212
B( 46-C ,102-H ) :   0.9920 B( 47-C ,103-H ) :   0.9801 B( 48-C , 49-C ) :   1.8174
B( 48-C ,104-H ) :   0.9702 B( 49-C , 50-C ) :   1.1321 B( 49-C ,105-H ) :   0.9620
B( 50-C , 51-S ) :   1.0796 B( 50-C , 54-C ) :   1.4804 B( 51-S , 52-C ) :   1.0600
B( 52-C , 53-C ) :   1.4058 B( 52-C , 59-C ) :   1.1747 B( 53-C , 54-C ) :   1.2284
B( 53-C , 58-N ) :   1.1918 B( 54-C , 55-N ) :   1.1339 B( 55-N , 56-C ) :   1.0694
B( 55-N ,106-H ) :   0.9253 B( 56-C , 57-O ) :   2.2137 B( 56-C , 58-N ) :   1.0381
B( 58-N ,107-H ) :   0.9219 B( 59-C , 60-C ) :   1.6242 B( 59-C ,108-H ) :   0.9465
B( 60-C , 61-C ) :   0.9448 B( 60-C , 74-C ) :   1.0453 B( 61-C , 62-O ) :   2.2662
B( 61-C , 63-C ) :   0.9208 B( 63-C , 64-C ) :   1.4742 B( 63-C , 73-C ) :   1.2172
B( 64-C , 65-C ) :   1.1916 B( 64-C ,109-H ) :   1.0151 B( 65-C , 66-C ) :   1.2547
B( 65-C , 70-C ) :   1.2354 B( 66-C , 67-C ) :   1.2030 B( 66-C , 72-C ) :   1.2012
B( 67-C , 68-C ) :   1.4414 B( 67-C ,110-H ) :   1.0064 B( 68-C , 69-C ) :   1.2545
B( 68-C , 71-F ) :   1.0891 B( 69-C , 70-C ) :   1.4596 B( 69-C ,111-H ) :   0.9937
B( 70-C ,112-H ) :   0.9972 B( 72-C , 73-C ) :   1.4654 B( 72-C ,113-H ) :   0.9953
B( 73-C , 74-C ) :   1.0002 B( 74-C , 75-C ) :   1.6488 B( 75-C , 76-C ) :   1.1544
B( 75-C , 78-C ) :   1.1393 B( 76-C , 77-N ) :   3.0197 B( 78-C , 79-N ) :   2.9885

-----------------------------------------------------------------------------
         ABSORPTION SPECTRUM VIA TRANSITION ELECTRIC DIPOLE MOMENTS
-----------------------------------------------------------------------------
State   Energy  Wavelength   fosc         T2         TX        TY        TZ
        (cm-1)    (nm)                  (au**2)     (au)      (au)      (au)
-----------------------------------------------------------------------------
   0   14280.2    700.3   0.111491668   2.57030   0.96772   0.30869  -1.24038
   1   17901.3    558.6   0.024929440   0.45846   0.34490   0.19890   0.54767
   2   18361.2    544.6   0.818622416  14.67769   0.16210  -0.90504   3.71918
   3   20659.6    484.0   0.422629997   6.73464  -0.97540  -1.73540   1.66481
   4   22325.7    447.9   0.564420872   8.32288  -0.25712  -0.17670   2.86802
   5   23882.1    418.7   0.037441671   0.51613  -0.68344  -0.11095   0.19165
   6   24103.9    414.9   0.215516299   2.94353   0.70762   1.56278   0.02288
   7   26055.2    383.8   0.420549229   5.31372  -0.23912  -0.96769   2.07849
   8   26561.2    376.5   0.030506212   0.37811  -0.05436  -0.19345  -0.58115
   9   27054.2    369.6   0.015484335   0.18842   0.35928   0.22747   0.08719
  10   27422.7    364.7   0.081850478   0.98262  -0.27945  -0.70849   0.63448
  11   27931.1    358.0   0.038662580   0.45570   0.03658   0.39915  -0.54318
  12   28010.9    357.0   0.061087844   0.71796  -0.34657   0.12266  -0.76342
  13   28486.6    351.0   0.072422435   0.83697  -0.50555  -0.17752   0.74154
  14   28615.3    349.5   0.016423258   0.18895  -0.41346   0.13068   0.03038
  15   29413.2    340.0   0.095118691   1.06463  -0.04182   0.74072  -0.71709
  16   29712.1    336.6   0.033392889   0.37000   0.54425  -0.09781  -0.25341
  17   29790.1    335.7   0.037316745   0.41239  -0.43948  -0.15544   0.44168
  18   30389.2    329.1   0.019469500   0.21092   0.29083   0.32256   0.14930
  19   30653.1    326.2   0.369582078   3.96929   1.66463   0.70682  -0.83587
  20   30669.3    326.1   0.072836761   0.78185   0.73954   0.11820  -0.47007
  21   30891.4    323.7   0.026809921   0.28572   0.09193   0.44938  -0.27446
  22   32025.0    312.3   0.021584027   0.22188  -0.07876   0.11515  -0.44991
  23   32522.8    307.5   0.001043871   0.01057  -0.01520  -0.09977  -0.01955
  24   32687.6    305.9   0.347670123   3.50155   0.01324  -0.62229   1.76469
  25   32758.9    305.3   0.044185598   0.44405   0.24662  -0.28837   0.54778
  26   33227.5    301.0   0.534010183   5.29088  -0.18163   1.36216  -1.84456
  27   33429.6    299.1   0.032355073   0.31863   0.11260  -0.21181   0.51097
  28   33620.6    297.4   0.373180759   3.65418   1.82491   0.36961  -0.43276
  29   33960.6    294.5   0.012077445   0.11708  -0.23712  -0.24267   0.04431
  30   34174.4    292.6   0.034208221   0.32954  -0.18507   0.04510  -0.54153
  31   34515.5    289.7   0.167562842   1.59823  -0.67254   0.33470  -1.01681
  32   34723.0    288.0   0.013658580   0.12950  -0.35606   0.01203   0.05078
  33   34738.7    287.9   0.111723328   1.05878  -0.18991  -0.60889   0.80745
  34   34959.8    286.0   0.022454971   0.21146   0.34780   0.29089   0.07666
  35   34970.8    286.0   0.264987743   2.49457  -1.12180  -1.09110  -0.21362
  36   35980.2    277.9   0.079003096   0.72286   0.52185   0.54867  -0.38664
  37   36246.1    275.9   0.027917384   0.25356   0.24309  -0.10351   0.42867
  38   36470.7    274.2   0.003461229   0.03124  -0.07127   0.14031   0.08048
  39   36684.4    272.6   0.006350775   0.05699   0.07712  -0.19638  -0.11172
  40   37151.2    269.2   0.008307492   0.07362   0.06455   0.02378   0.26246
  41   37210.0    268.7   0.244951193   2.16718   0.42498   0.99284   1.00043
  42   37501.6    266.7   0.062429542   0.54804  -0.29322   0.39961  -0.54989
  43   37922.1    263.7   0.030050017   0.26087   0.27497   0.37776  -0.20630
  44   38258.3    261.4   0.063401287   0.54557   0.22972   0.64010  -0.28823
  45   38318.2    261.0   0.005619172   0.04828   0.09380   0.16198   0.11507
  46   38437.8    260.2   0.003005368   0.02574   0.06075  -0.12447   0.08098
  47   38708.0    258.3   0.068994837   0.58680   0.13932   0.75201   0.04325
  48   38925.7    256.9   0.171961099   1.45435   0.98092  -0.57390  -0.40347
  49   39211.2    255.0   0.107568150   0.90313   0.48182   0.54965  -0.60734
  50   39558.1    252.8   0.102910546   0.85645  -0.06493   0.72612  -0.57007
  51   39629.9    252.3   0.019022195   0.15802   0.13478   0.37132  -0.04443
  52   39981.2    250.1   0.000589613   0.00485  -0.02452  -0.04787  -0.04429
  53   40027.7    249.8   0.017874725   0.14701  -0.08981  -0.26229  -0.26486

FINAL SINGLE POINT ENERGY     -4222.976600903734

DIPOLE MOMENT
-------------
                                X             Y             Z
Electronic contribution:     -7.87097       2.93359       5.25344
Nuclear contribution   :      9.43694      -4.78267      -5.95836
                        -----------------------------------------
Total Dipole Moment    :      1.56597      -1.84908      -0.70492
                        -----------------------------------------
Magnitude (a.u.)       :      2.52354
Magnitude (Debye)      :      6.41434

Rotational constants in cm-1:     0.001734     0.000177     0.000167
Rotational constants in MHz :    51.993662     5.320801     5.013400

                             ****ORCA TERMINATED NORMALLY****
TOTAL RUN TIME: 0 days 0 hours 16 minutes 30 seconds 258 msec
