                         Program Version 4.2.0 -  RELEASE  -
|  1> # ORCA input file
|  2> # SCF done       -203.522436792469          0.002767734092
|  3> ! CAM-B3LYP def2-SVP def2/J RIJCOSX Grid4 TightSCF
|  4> %maxcore 5000
|  5> %tddft
|  6>     Mode sTDDFT
|  7>     Ethresh 5.0
|  8>     maxcore 5000
|  9> end
| 10>
| 11> %pal
| 12>   nprocs 6
| 13>   end
| 14> * xyz 0 1
| 15>    C        2.94893        -5.89330        -7.57399
| 16>    C        3.91842        -4.94721        -7.27301
| 17>    C        5.22850        -4.96114        -7.77932
| 18>    N        6.30021        -4.90124        -8.19026
| 19>    C        3.68262        -3.90217        -6.37659
| 20>    N        3.44569        -3.01135        -5.68301
| 21>    C        3.22099        -7.16117        -8.26063
| 22>    C        2.13184        -8.02556        -8.05594
| 23>    C        2.11932        -9.30799        -8.55776
| 24>    C        3.21768        -9.73671        -9.29760
| 25>    C        4.29842        -8.88053        -9.51401
| 26>    C        4.31261        -7.58895        -8.99277
| 27>   Cl        5.64420        -9.41647       -10.44007
| 28>   Cl        3.23651       -11.32877        -9.94619
| 29>    C        1.09612        -7.31467        -7.26561
| 30>    O        0.03964        -7.75753        -6.86750
| 31>    C        1.60929        -5.94170        -7.09487
| 32>    C        0.75109        -4.98723        -6.55771
| 33>    C        0.73924        -3.61690        -6.69399
| 34>    C       -0.08565        -2.67028        -6.02857
| 35>    C        0.23575        -1.32423        -6.45669
| 36>    C        1.15598        -1.25993        -7.45648
| 37>    S        1.74638        -2.81694        -7.91340
| 38>    O        0.80470        -3.19996        -9.23711
| 39>    O       -0.24090        -0.21123        -5.89418
| 40>    C       -0.99975        -3.01476        -5.02802
| 41>    C       -2.02583        -2.23163        -4.53627
| 42>    C       -2.84295        -2.52023        -3.42358
| 43>    C       -3.83568        -1.55848        -3.08386
| 44>    C       -4.59159        -1.71128        -1.95661
| 45>    C       -5.61579        -0.88009        -1.33410
| 46>    C       -6.24483         0.37194        -1.86742
| 47>    C       -5.33236         1.61340        -1.80898
| 48>    N       -4.11040         1.44488        -2.57784
| 49>    C       -6.78690         0.14616        -3.28549
| 50>    N       -7.72911        -0.97906        -3.26486
| 51>    C       -5.99719        -1.51207        -0.18187
| 52>    C       -6.99030        -1.11603         0.81645
| 53>    C       -7.21187        -2.06377         1.96510
| 54>    C       -6.38878        -3.27211         2.03804
| 55>    C       -5.49138        -3.60327         1.08199
| 56>    C       -5.27792        -2.75818        -0.03391
| 57>    C       -4.40826        -2.87401        -1.12617
| 58>    C       -3.46545        -3.84694        -1.48745
| 59>    C       -2.69629        -3.66661        -2.60328
| 60>    C       -8.29372        -1.91454         0.89445
| 61>    C       -8.56703        -2.97660        -0.05854
| 62>    C       -9.56530        -2.93610        -0.95714
| 63>    C       -9.99228        -3.90976        -1.93053
| 64>    C      -10.99098        -3.34278        -2.79432
| 65>    C      -11.34541        -2.05568        -2.49535
| 66>    S      -10.57260        -1.44096        -1.07514
| 67>    O       -9.52313        -0.35263        -1.55680
| 68>    O      -11.54142        -3.94039        -3.85146
| 69>    C       -9.49815        -5.21037        -1.90827
| 70>    C       -9.91226        -6.33280        -2.60479
| 71>    C       -9.32306        -7.56794        -2.37561
| 72>    C       -9.71679        -8.75355        -2.97990
| 73>    C       -9.20976       -10.06724        -2.70180
| 74>    C       -8.22566       -10.41909        -1.80372
| 75>    C       -7.79662       -11.74077        -1.57763
| 76>    N       -7.39740       -12.79159        -1.33678
| 77>    C       -7.50719        -9.52572        -0.98869
| 78>    N       -6.87983        -8.85681        -0.29515
| 79>    C       -9.94563       -11.01213        -3.54787
| 80>    C      -10.86095       -10.29249        -4.33330
| 81>    C      -10.75301        -8.84970        -4.01101
| 82>    O      -11.39988        -7.95122        -4.52458
| 83>    C      -11.69527       -10.91631        -5.23493
| 84>    C      -11.61975       -12.29967        -5.35348
| 85>    C      -10.71861       -13.02409        -4.57318
| 86>    C       -9.87468       -12.38872        -3.66651
| 87>   Cl      -10.63973       -14.73632        -4.72262
| 88>   Cl      -12.64517       -13.11576        -6.46711
| 89>    H        1.28097        -9.96290        -8.38042
| 90>    H        5.16599        -6.95683        -9.17715
| 91>    H       -0.09512        -5.42605        -6.03743
| 92>    H        1.59271        -0.36813        -7.85474
| 93>    H        1.32989        -3.30622       -10.03645
| 94>    H       -0.71563        -0.42749        -5.07747
| 95>    H       -0.89777        -4.01277        -4.62741
| 96>    H       -2.29138        -1.31958        -5.05939
| 97>    H       -3.93934        -0.68521        -3.71117
| 98>    H       -7.10718         0.59755        -1.23082
| 99>    H       -5.14045         1.83994        -0.74775
|100>    H       -5.88437         2.45531        -2.23608
|101>    H       -3.47267         0.83777        -2.07304
|102>    H       -3.64957         2.34037        -2.69567
|103>    H       -5.95941        -0.02262        -3.97841
|104>    H       -7.33426         1.03351        -3.61053
|105>    H       -7.25108        -1.81615        -2.93931
|106>    H       -8.10918        -1.15545        -4.18911
|107>    H       -7.09368        -0.05342         0.99800
|108>    H       -7.48233        -1.64573         2.92760
|109>    H       -6.51632        -3.89593         2.91009
|110>    H       -4.90436        -4.50506         1.17226
|111>    H       -3.33944        -4.72712        -0.87496
|112>    H       -1.95628        -4.40740        -2.86005
|113>    H       -9.16011        -1.32493         1.17401
|114>    H       -7.88288        -3.81402        -0.06080
|115>    H      -12.13383        -1.51028        -2.97064
|116>    H       -8.79533        -0.63775        -2.29053
|117>    H      -11.19757        -4.83732        -3.97668
|118>    H       -8.69989        -5.38505        -1.19653
|119>    H      -10.74341        -6.32305        -3.29167
|120>    H       -8.51294        -7.60373        -1.65994
|121>    H      -12.38910       -10.34483        -5.83036
|122>    H       -9.19152       -12.98256        -3.08238
|123> *
|124>
|125>                          ****END OF INPUT****

CARTESIAN COORDINATES (ANGSTROEM)
---------------------------------
  C      2.948930   -5.893300   -7.573990
  C      3.918420   -4.947210   -7.273010
  C      5.228500   -4.961140   -7.779320
  N      6.300210   -4.901240   -8.190260
  C      3.682620   -3.902170   -6.376590
  N      3.445690   -3.011350   -5.683010
  C      3.220990   -7.161170   -8.260630
  C      2.131840   -8.025560   -8.055940
  C      2.119320   -9.307990   -8.557760
  C      3.217680   -9.736710   -9.297600
  C      4.298420   -8.880530   -9.514010
  C      4.312610   -7.588950   -8.992770
  Cl     5.644200   -9.416470  -10.440070
  Cl     3.236510  -11.328770   -9.946190
  C      1.096120   -7.314670   -7.265610
  O      0.039640   -7.757530   -6.867500
  C      1.609290   -5.941700   -7.094870
  C      0.751090   -4.987230   -6.557710
  C      0.739240   -3.616900   -6.693990
  C     -0.085650   -2.670280   -6.028570
  C      0.235750   -1.324230   -6.456690
  C      1.155980   -1.259930   -7.456480
  S      1.746380   -2.816940   -7.913400
  O      0.804700   -3.199960   -9.237110
  O     -0.240900   -0.211230   -5.894180
  C     -0.999750   -3.014760   -5.028020
  C     -2.025830   -2.231630   -4.536270
  C     -2.842950   -2.520230   -3.423580
  C     -3.835680   -1.558480   -3.083860
  C     -4.591590   -1.711280   -1.956610
  C     -5.615790   -0.880090   -1.334100
  C     -6.244830    0.371940   -1.867420
  C     -5.332360    1.613400   -1.808980
  N     -4.110400    1.444880   -2.577840
  C     -6.786900    0.146160   -3.285490
  N     -7.729110   -0.979060   -3.264860
  C     -5.997190   -1.512070   -0.181870
  C     -6.990300   -1.116030    0.816450
  C     -7.211870   -2.063770    1.965100
  C     -6.388780   -3.272110    2.038040
  C     -5.491380   -3.603270    1.081990
  C     -5.277920   -2.758180   -0.033910
  C     -4.408260   -2.874010   -1.126170
  C     -3.465450   -3.846940   -1.487450
  C     -2.696290   -3.666610   -2.603280
  C     -8.293720   -1.914540    0.894450
  C     -8.567030   -2.976600   -0.058540
  C     -9.565300   -2.936100   -0.957140
  C     -9.992280   -3.909760   -1.930530
  C    -10.990980   -3.342780   -2.794320
  C    -11.345410   -2.055680   -2.495350
  S    -10.572600   -1.440960   -1.075140
  O     -9.523130   -0.352630   -1.556800
  O    -11.541420   -3.940390   -3.851460
  C     -9.498150   -5.210370   -1.908270
  C     -9.912260   -6.332800   -2.604790
  C     -9.323060   -7.567940   -2.375610
  C     -9.716790   -8.753550   -2.979900
  C     -9.209760  -10.067240   -2.701800
  C     -8.225660  -10.419090   -1.803720
  C     -7.796620  -11.740770   -1.577630
  N     -7.397400  -12.791590   -1.336780
  C     -7.507190   -9.525720   -0.988690
  N     -6.879830   -8.856810   -0.295150
  C     -9.945630  -11.012130   -3.547870
  C    -10.860950  -10.292490   -4.333300
  C    -10.753010   -8.849700   -4.011010
  O    -11.399880   -7.951220   -4.524580
  C    -11.695270  -10.916310   -5.234930
  C    -11.619750  -12.299670   -5.353480
  C    -10.718610  -13.024090   -4.573180
  C     -9.874680  -12.388720   -3.666510
  Cl   -10.639730  -14.736320   -4.722620
  Cl   -12.645170  -13.115760   -6.467110
  H      1.280970   -9.962900   -8.380420
  H      5.165990   -6.956830   -9.177150
  H     -0.095120   -5.426050   -6.037430
  H      1.592710   -0.368130   -7.854740
  H      1.329890   -3.306220  -10.036450
  H     -0.715630   -0.427490   -5.077470
  H     -0.897770   -4.012770   -4.627410
  H     -2.291380   -1.319580   -5.059390
  H     -3.939340   -0.685210   -3.711170
  H     -7.107180    0.597550   -1.230820
  H     -5.140450    1.839940   -0.747750
  H     -5.884370    2.455310   -2.236080
  H     -3.472670    0.837770   -2.073040
  H     -3.649570    2.340370   -2.695670
  H     -5.959410   -0.022620   -3.978410
  H     -7.334260    1.033510   -3.610530
  H     -7.251080   -1.816150   -2.939310
  H     -8.109180   -1.155450   -4.189110
  H     -7.093680   -0.053420    0.998000
  H     -7.482330   -1.645730    2.927600
  H     -6.516320   -3.895930    2.910090
  H     -4.904360   -4.505060    1.172260
  H     -3.339440   -4.727120   -0.874960
  H     -1.956280   -4.407400   -2.860050
  H     -9.160110   -1.324930    1.174010
  H     -7.882880   -3.814020   -0.060800
  H    -12.133830   -1.510280   -2.970640
  H     -8.795330   -0.637750   -2.290530
  H    -11.197570   -4.837320   -3.976680
  H     -8.699890   -5.385050   -1.196530
  H    -10.743410   -6.323050   -3.291670
  H     -8.512940   -7.603730   -1.659940
  H    -12.389100  -10.344830   -5.830360
  H     -9.191520  -12.982560   -3.082380

 Total Charge           Charge          ....    0
 Multiplicity           Mult            ....    1
 Number of Electrons    NEL             ....  560
 Basis Dimension        Dim             .... 1230

ORBITAL ENERGIES
----------------

  NO   OCC          E(Eh)            E(eV)
   0   2.0000    -101.591408     -2764.4428
   1   2.0000    -101.591080     -2764.4338
   2   2.0000    -101.579832     -2764.1277
   3   2.0000    -101.577391     -2764.0613
   4   2.0000     -89.095994     -2424.4252
   5   2.0000     -89.076219     -2423.8871
   6   2.0000     -19.300952      -525.2056
   7   2.0000     -19.284065      -524.7461
   8   2.0000     -19.272330      -524.4267
   9   2.0000     -19.240751      -523.5675
  10   2.0000     -19.206212      -522.6276
  11   2.0000     -19.189730      -522.1791
  12   2.0000     -14.452936      -393.2844
  13   2.0000     -14.418650      -392.3514
  14   2.0000     -14.409288      -392.0967
  15   2.0000     -14.406468      -392.0199
  16   2.0000     -14.390518      -391.5859
  17   2.0000     -14.385521      -391.4499
  18   2.0000     -10.398642      -282.9614
  19   2.0000     -10.373016      -282.2641
  20   2.0000     -10.357263      -281.8355
  21   2.0000     -10.346201      -281.5344
  22   2.0000     -10.345504      -281.5155
  23   2.0000     -10.340012      -281.3660
  24   2.0000     -10.335964      -281.2559
  25   2.0000     -10.331458      -281.1333
  26   2.0000     -10.330916      -281.1185
  27   2.0000     -10.330636      -281.1109
  28   2.0000     -10.329144      -281.0703
  29   2.0000     -10.322502      -280.8896
  30   2.0000     -10.322449      -280.8881
  31   2.0000     -10.321870      -280.8724
  32   2.0000     -10.321477      -280.8617
  33   2.0000     -10.317199      -280.7453
  34   2.0000     -10.316421      -280.7241
  35   2.0000     -10.315407      -280.6965
  36   2.0000     -10.313888      -280.6552
  37   2.0000     -10.312416      -280.6151
  38   2.0000     -10.311638      -280.5939
  39   2.0000     -10.310967      -280.5757
  40   2.0000     -10.308995      -280.5220
  41   2.0000     -10.308083      -280.4972
  42   2.0000     -10.307365      -280.4777
  43   2.0000     -10.305148      -280.4173
  44   2.0000     -10.304101      -280.3888
  45   2.0000     -10.303064      -280.3606
  46   2.0000     -10.300225      -280.2834
  47   2.0000     -10.299700      -280.2691
  48   2.0000     -10.299576      -280.2657
  49   2.0000     -10.298929      -280.2481
  50   2.0000     -10.296489      -280.1817
  51   2.0000     -10.295944      -280.1669
  52   2.0000     -10.294381      -280.1244
  53   2.0000     -10.292074      -280.0616
  54   2.0000     -10.290767      -280.0260
  55   2.0000     -10.290715      -280.0246
  56   2.0000     -10.290305      -280.0134
  57   2.0000     -10.290293      -280.0131
  58   2.0000     -10.287348      -279.9330
  59   2.0000     -10.287041      -279.9246
  60   2.0000     -10.286195      -279.9016
  61   2.0000     -10.285711      -279.8884
  62   2.0000     -10.284445      -279.8540
  63   2.0000     -10.284143      -279.8458
  64   2.0000     -10.282931      -279.8128
  65   2.0000     -10.282881      -279.8114
  66   2.0000     -10.281800      -279.7820
  67   2.0000     -10.280485      -279.7462
  68   2.0000     -10.280257      -279.7400
  69   2.0000     -10.279757      -279.7264
  70   2.0000     -10.276614      -279.6409
  71   2.0000     -10.273562      -279.5578
  72   2.0000     -10.256932      -279.1053
  73   2.0000     -10.254746      -279.0458
  74   2.0000      -9.546457      -259.7723
  75   2.0000      -9.546090      -259.7623
  76   2.0000      -9.534832      -259.4560
  77   2.0000      -9.532359      -259.3887
  78   2.0000      -8.179157      -222.5662
  79   2.0000      -8.159895      -222.0420
  80   2.0000      -7.316836      -199.1012
  81   2.0000      -7.316482      -199.0916
  82   2.0000      -7.306701      -198.8254
  83   2.0000      -7.306332      -198.8154
  84   2.0000      -7.306020      -198.8069
  85   2.0000      -7.305656      -198.7970
  86   2.0000      -7.305138      -198.7829
  87   2.0000      -7.302718      -198.7171
  88   2.0000      -7.295124      -198.5104
  89   2.0000      -7.294457      -198.4923
  90   2.0000      -7.292611      -198.4420
  91   2.0000      -7.291973      -198.4247
  92   2.0000      -6.150482      -167.3631
  93   2.0000      -6.145430      -167.2256
  94   2.0000      -6.140154      -167.0821
  95   2.0000      -6.130635      -166.8231
  96   2.0000      -6.126748      -166.7173
  97   2.0000      -6.121136      -166.5646
  98   2.0000      -1.200710       -32.6730
  99   2.0000      -1.173066       -31.9208
 100   2.0000      -1.171650       -31.8822
 101   2.0000      -1.150905       -31.3177
 102   2.0000      -1.120516       -30.4908
 103   2.0000      -1.102090       -29.9894
 104   2.0000      -1.027640       -27.9635
 105   2.0000      -1.025668       -27.9098
 106   2.0000      -1.019126       -27.7318
 107   2.0000      -1.012803       -27.5598
 108   2.0000      -1.007811       -27.4239
 109   2.0000      -1.005901       -27.3719
 110   2.0000      -0.991824       -26.9889
 111   2.0000      -0.991186       -26.9715
 112   2.0000      -0.988453       -26.8972
 113   2.0000      -0.985083       -26.8055
 114   2.0000      -0.981327       -26.7033
 115   2.0000      -0.979146       -26.6439
 116   2.0000      -0.967839       -26.3362
 117   2.0000      -0.962173       -26.1821
 118   2.0000      -0.952705       -25.9244
 119   2.0000      -0.951304       -25.8863
 120   2.0000      -0.939365       -25.5614
 121   2.0000      -0.927011       -25.2253
 122   2.0000      -0.920433       -25.0462
 123   2.0000      -0.913112       -24.8471
 124   2.0000      -0.901696       -24.5364
 125   2.0000      -0.901317       -24.5261
 126   2.0000      -0.899417       -24.4744
 127   2.0000      -0.885097       -24.0847
 128   2.0000      -0.877066       -23.8662
 129   2.0000      -0.874259       -23.7898
 130   2.0000      -0.867401       -23.6032
 131   2.0000      -0.863653       -23.5012
 132   2.0000      -0.853804       -23.2332
 133   2.0000      -0.851360       -23.1667
 134   2.0000      -0.849155       -23.1067
 135   2.0000      -0.834925       -22.7195
 136   2.0000      -0.833650       -22.6848
 137   2.0000      -0.812396       -22.1064
 138   2.0000      -0.809999       -22.0412
 139   2.0000      -0.791565       -21.5396
 140   2.0000      -0.783443       -21.3186
 141   2.0000      -0.777839       -21.1661
 142   2.0000      -0.760035       -20.6816
 143   2.0000      -0.757568       -20.6145
 144   2.0000      -0.750728       -20.4283
 145   2.0000      -0.749254       -20.3882
 146   2.0000      -0.737104       -20.0576
 147   2.0000      -0.728585       -19.8258
 148   2.0000      -0.725100       -19.7310
 149   2.0000      -0.722683       -19.6652
 150   2.0000      -0.720663       -19.6102
 151   2.0000      -0.705108       -19.1870
 152   2.0000      -0.700137       -19.0517
 153   2.0000      -0.696076       -18.9412
 154   2.0000      -0.692097       -18.8329
 155   2.0000      -0.688208       -18.7271
 156   2.0000      -0.681208       -18.5366
 157   2.0000      -0.677747       -18.4424
 158   2.0000      -0.671479       -18.2719
 159   2.0000      -0.666640       -18.1402
 160   2.0000      -0.662103       -18.0167
 161   2.0000      -0.660179       -17.9644
 162   2.0000      -0.649773       -17.6812
 163   2.0000      -0.646762       -17.5993
 164   2.0000      -0.640950       -17.4411
 165   2.0000      -0.632974       -17.2241
 166   2.0000      -0.625817       -17.0293
 167   2.0000      -0.622412       -16.9367
 168   2.0000      -0.616447       -16.7744
 169   2.0000      -0.615350       -16.7445
 170   2.0000      -0.611859       -16.6495
 171   2.0000      -0.606772       -16.5111
 172   2.0000      -0.605354       -16.4725
 173   2.0000      -0.600221       -16.3328
 174   2.0000      -0.597654       -16.2630
 175   2.0000      -0.593284       -16.1441
 176   2.0000      -0.586739       -15.9660
 177   2.0000      -0.583134       -15.8679
 178   2.0000      -0.580914       -15.8075
 179   2.0000      -0.580252       -15.7895
 180   2.0000      -0.576748       -15.6941
 181   2.0000      -0.566784       -15.4230
 182   2.0000      -0.565893       -15.3987
 183   2.0000      -0.561603       -15.2820
 184   2.0000      -0.557100       -15.1595
 185   2.0000      -0.555149       -15.1064
 186   2.0000      -0.548733       -14.9318
 187   2.0000      -0.547945       -14.9103
 188   2.0000      -0.546029       -14.8582
 189   2.0000      -0.544791       -14.8245
 190   2.0000      -0.543084       -14.7781
 191   2.0000      -0.538846       -14.6628
 192   2.0000      -0.537764       -14.6333
 193   2.0000      -0.535467       -14.5708
 194   2.0000      -0.535048       -14.5594
 195   2.0000      -0.532073       -14.4784
 196   2.0000      -0.530105       -14.4249
 197   2.0000      -0.524160       -14.2631
 198   2.0000      -0.520935       -14.1754
 199   2.0000      -0.518562       -14.1108
 200   2.0000      -0.517107       -14.0712
 201   2.0000      -0.517064       -14.0700
 202   2.0000      -0.514427       -13.9983
 203   2.0000      -0.512258       -13.9392
 204   2.0000      -0.510538       -13.8924
 205   2.0000      -0.507109       -13.7991
 206   2.0000      -0.506234       -13.7753
 207   2.0000      -0.504961       -13.7407
 208   2.0000      -0.504257       -13.7215
 209   2.0000      -0.502594       -13.6763
 210   2.0000      -0.495937       -13.4951
 211   2.0000      -0.494066       -13.4442
 212   2.0000      -0.489744       -13.3266
 213   2.0000      -0.488602       -13.2955
 214   2.0000      -0.486621       -13.2416
 215   2.0000      -0.482614       -13.1326
 216   2.0000      -0.480104       -13.0643
 217   2.0000      -0.474898       -12.9226
 218   2.0000      -0.473724       -12.8907
 219   2.0000      -0.471831       -12.8392
 220   2.0000      -0.470077       -12.7914
 221   2.0000      -0.468940       -12.7605
 222   2.0000      -0.467056       -12.7092
 223   2.0000      -0.464703       -12.6452
 224   2.0000      -0.461148       -12.5485
 225   2.0000      -0.458456       -12.4752
 226   2.0000      -0.456966       -12.4347
 227   2.0000      -0.453783       -12.3481
 228   2.0000      -0.453075       -12.3288
 229   2.0000      -0.451321       -12.2811
 230   2.0000      -0.449182       -12.2229
 231   2.0000      -0.443903       -12.0792
 232   2.0000      -0.442950       -12.0533
 233   2.0000      -0.440587       -11.9890
 234   2.0000      -0.437108       -11.8943
 235   2.0000      -0.436756       -11.8847
 236   2.0000      -0.433070       -11.7844
 237   2.0000      -0.430499       -11.7145
 238   2.0000      -0.426711       -11.6114
 239   2.0000      -0.426510       -11.6059
 240   2.0000      -0.425444       -11.5769
 241   2.0000      -0.423280       -11.5180
 242   2.0000      -0.419495       -11.4151
 243   2.0000      -0.418782       -11.3956
 244   2.0000      -0.417575       -11.3628
 245   2.0000      -0.413402       -11.2492
 246   2.0000      -0.411724       -11.2036
 247   2.0000      -0.410124       -11.1600
 248   2.0000      -0.407063       -11.0767
 249   2.0000      -0.405396       -11.0314
 250   2.0000      -0.404717       -11.0129
 251   2.0000      -0.401326       -10.9206
 252   2.0000      -0.401014       -10.9121
 253   2.0000      -0.400756       -10.9051
 254   2.0000      -0.399707       -10.8766
 255   2.0000      -0.391666       -10.6578
 256   2.0000      -0.389439       -10.5972
 257   2.0000      -0.387580       -10.5466
 258   2.0000      -0.381844       -10.3905
 259   2.0000      -0.373746       -10.1701
 260   2.0000      -0.373191       -10.1550
 261   2.0000      -0.367983       -10.0133
 262   2.0000      -0.365977        -9.9587
 263   2.0000      -0.361100        -9.8260
 264   2.0000      -0.359661        -9.7869
 265   2.0000      -0.354852        -9.6560
 266   2.0000      -0.337450        -9.1825
 267   2.0000      -0.333271        -9.0688
 268   2.0000      -0.333005        -9.0615
 269   2.0000      -0.330879        -9.0037
 270   2.0000      -0.324220        -8.8225
 271   2.0000      -0.318551        -8.6682
 272   2.0000      -0.311382        -8.4731
 273   2.0000      -0.305773        -8.3205
 274   2.0000      -0.300777        -8.1846
 275   2.0000      -0.291797        -7.9402
 276   2.0000      -0.283039        -7.7019
 277   2.0000      -0.272561        -7.4168
 278   2.0000      -0.232691        -6.3318
 279   2.0000      -0.222490        -6.0543
 280   0.0000      -0.128166        -3.4876
 281   0.0000      -0.066660        -1.8139
 282   0.0000      -0.059700        -1.6245
 283   0.0000      -0.044830        -1.2199
 284   0.0000      -0.038471        -1.0468

MULLIKEN ATOMIC CHARGES
-----------------------
   0 C :    0.258596
   1 C :   -0.365438
   2 C :   -0.165767
   3 N :    0.135099
   4 C :   -0.198375
   5 N :    0.103474
   6 C :    0.017956
   7 C :    0.004891
   8 C :   -0.040524
   9 C :    0.058007
  10 C :    0.048672
  11 C :   -0.025748
  12 Cl:   -0.045839
  13 Cl:   -0.050877
  14 C :    0.134022
  15 O :   -0.152513
  16 C :   -0.178462
  17 C :    0.051218
  18 C :   -0.185238
  19 C :    0.191966
  20 C :    0.173241
  21 C :   -0.127871
  22 S :    0.504370
  23 O :   -0.362712
  24 O :   -0.138810
  25 C :   -0.023175
  26 C :   -0.101047
  27 C :    0.157746
  28 C :   -0.160415
  29 C :    0.063773
  30 C :   -0.131664
  31 C :   -0.025210
  32 C :    0.140591
  33 N :   -0.234106
  34 C :    0.120390
  35 N :   -0.229422
  36 C :    0.029710
  37 C :   -0.002740
  38 C :    0.014638
  39 C :    0.030212
  40 C :   -0.027341
  41 C :    0.036564
  42 C :    0.035862
  43 C :    0.000643
  44 C :   -0.035419
  45 C :   -0.096726
  46 C :    0.034516
  47 C :   -0.136338
  48 C :    0.104447
  49 C :    0.176678
  50 C :   -0.238955
  51 S :    0.552974
  52 O :   -0.468780
  53 O :   -0.139696
  54 C :   -0.001110
  55 C :   -0.077720
  56 C :   -0.032105
  57 C :   -0.111177
  58 C :    0.334114
  59 C :   -0.376716
  60 C :   -0.193700
  61 N :    0.133367
  62 C :   -0.190477
  63 N :    0.113635
  64 C :    0.024646
  65 C :   -0.000853
  66 C :    0.136831
  67 O :   -0.190869
  68 C :   -0.043906
  69 C :    0.056890
  70 C :    0.045956
  71 C :   -0.021029
  72 Cl:   -0.052388
  73 Cl:   -0.061878
  74 H :   -0.002583
  75 H :   -0.003906
  76 H :    0.019964
  77 H :    0.033810
  78 H :    0.206308
  79 H :    0.193936
  80 H :    0.014252
  81 H :   -0.011979
  82 H :   -0.016343
  83 H :   -0.000683
  84 H :   -0.001746
  85 H :   -0.001841
  86 H :    0.108155
  87 H :    0.101728
  88 H :    0.024006
  89 H :    0.014131
  90 H :    0.152529
  91 H :    0.136896
  92 H :    0.021408
  93 H :    0.021760
  94 H :    0.002287
  95 H :   -0.016127
  96 H :   -0.019548
  97 H :   -0.024504
  98 H :    0.027821
  99 H :    0.020482
 100 H :    0.018639
 101 H :    0.249468
 102 H :    0.199346
 103 H :   -0.009738
 104 H :   -0.016091
 105 H :   -0.008241
 106 H :   -0.011411
 107 H :   -0.004746
Sum of atomic charges:   -0.0000000

LOEWDIN ATOMIC CHARGES
----------------------
   0 C :    0.056575
   1 C :   -0.198690
   2 C :   -0.027899
   3 N :   -0.069708
   4 C :   -0.032986
   5 N :   -0.097560
   6 C :   -0.013409
   7 C :   -0.043855
   8 C :   -0.001997
   9 C :   -0.138656
  10 C :   -0.134222
  11 C :   -0.021252
  12 Cl:    0.153378
  13 Cl:    0.151435
  14 C :    0.080227
  15 O :   -0.154726
  16 C :   -0.151437
  17 C :    0.042515
  18 C :   -0.216338
  19 C :   -0.042922
  20 C :    0.090388
  21 C :   -0.253528
  22 S :    0.956800
  23 O :   -0.260348
  24 O :   -0.002188
  25 C :   -0.016963
  26 C :   -0.032460
  27 C :   -0.014558
  28 C :    0.006125
  29 C :   -0.023350
  30 C :   -0.056417
  31 C :   -0.041869
  32 C :    0.030128
  33 N :   -0.115727
  34 C :    0.039542
  35 N :    0.025455
  36 C :   -0.015760
  37 C :   -0.011000
  38 C :   -0.015871
  39 C :   -0.001516
  40 C :   -0.030040
  41 C :   -0.020108
  42 C :   -0.047582
  43 C :    0.016514
  44 C :   -0.050545
  45 C :   -0.026534
  46 C :   -0.025483
  47 C :   -0.150762
  48 C :   -0.178501
  49 C :    0.089063
  50 C :   -0.337207
  51 S :    0.908331
  52 O :   -0.335623
  53 O :   -0.005506
  54 C :    0.038998
  55 C :   -0.109219
  56 C :    0.060680
  57 C :   -0.147399
  58 C :    0.076206
  59 C :   -0.171367
  60 C :   -0.022372
  61 N :   -0.076386
  62 C :   -0.015723
  63 N :   -0.086861
  64 C :   -0.011091
  65 C :   -0.039717
  66 C :    0.080147
  67 O :   -0.183383
  68 C :   -0.008788
  69 C :   -0.140360
  70 C :   -0.136673
  71 C :   -0.016872
  72 Cl:    0.147288
  73 Cl:    0.143234
  74 H :    0.045028
  75 H :    0.042085
  76 H :    0.048397
  77 H :    0.034274
  78 H :    0.078663
  79 H :    0.094431
  80 H :    0.039954
  81 H :    0.025021
  82 H :    0.022652
  83 H :    0.032372
  84 H :    0.007055
  85 H :    0.019199
  86 H :    0.056757
  87 H :    0.060272
  88 H :    0.016745
  89 H :    0.024980
  90 H :    0.077914
  91 H :    0.079233
  92 H :    0.033978
  93 H :    0.037040
  94 H :    0.034360
  95 H :    0.035384
  96 H :    0.035585
  97 H :    0.027642
  98 H :    0.026552
  99 H :    0.039594
 100 H :    0.025434
 101 H :    0.017405
 102 H :    0.099283
 103 H :    0.036884
 104 H :    0.013907
 105 H :    0.036687
 106 H :    0.040963
 107 H :    0.042554

  Mayer bond orders larger than 0.100000
B(  0-C ,  1-C ) :   1.5070 B(  0-C ,  6-C ) :   0.9943 B(  0-C , 16-C ) :   1.1738
B(  1-C ,  2-C ) :   1.1303 B(  1-C ,  4-C ) :   1.2013 B(  2-C ,  3-N ) :   2.9743
B(  4-C ,  5-N ) :   2.9265 B(  6-C ,  7-C ) :   1.3309 B(  6-C , 11-C ) :   1.3643
B(  7-C ,  8-C ) :   1.3672 B(  7-C , 14-C ) :   0.9155 B(  8-C ,  9-C ) :   1.3232
B(  8-C , 74-H ) :   1.0174 B(  9-C , 10-C ) :   1.4322 B(  9-C , 13-Cl) :   1.0391
B( 10-C , 11-C ) :   1.3388 B( 10-C , 12-Cl) :   1.0636 B( 11-C , 75-H ) :   0.9885
B( 14-C , 15-O ) :   2.2417 B( 14-C , 16-C ) :   0.9833 B( 16-C , 17-C ) :   1.3850
B( 17-C , 18-C ) :   1.4461 B( 17-C , 76-H ) :   0.9237 B( 18-C , 19-C ) :   1.1262
B( 18-C , 22-S ) :   1.0054 B( 19-C , 20-C ) :   1.0263 B( 19-C , 25-C ) :   1.4700
B( 20-C , 21-C ) :   1.5997 B( 20-C , 24-O ) :   1.3064 B( 21-C , 22-S ) :   1.0394
B( 21-C , 77-H ) :   0.9658 B( 22-S , 23-O ) :   0.9091 B( 23-O , 78-H ) :   0.9538
B( 24-O , 79-H ) :   0.9367 B( 25-C , 26-C ) :   1.2390 B( 25-C , 80-H ) :   0.9540
B( 26-C , 27-C ) :   1.3690 B( 26-C , 81-H ) :   0.9688 B( 27-C , 28-C ) :   1.0931
B( 27-C , 44-C ) :   1.1765 B( 28-C , 29-C ) :   1.4822 B( 28-C , 82-H ) :   0.9900
B( 29-C , 30-C ) :   1.0328 B( 29-C , 42-C ) :   1.1411 B( 30-C , 31-C ) :   1.0235
B( 30-C , 36-C ) :   1.6584 B( 31-C , 32-C ) :   1.0523 B( 31-C , 34-C ) :   1.0367
B( 31-C , 83-H ) :   0.8874 B( 32-C , 33-N ) :   1.1032 B( 32-C , 84-H ) :   0.9448
B( 32-C , 85-H ) :   0.9392 B( 33-N , 86-H ) :   0.9555 B( 33-N , 87-H ) :   0.9677
B( 34-C , 35-N ) :   1.0203 B( 34-C , 88-H ) :   0.9500 B( 34-C , 89-H ) :   0.9442
B( 35-N , 90-H ) :   0.9458 B( 35-N , 91-H ) :   0.9509 B( 35-N ,101-H ) :   0.3283
B( 36-C , 37-C ) :   1.0589 B( 36-C , 41-C ) :   1.1331 B( 37-C , 38-C ) :   0.8896
B( 37-C , 45-C ) :   0.8784 B( 37-C , 92-H ) :   0.9316 B( 38-C , 39-C ) :   1.0517
B( 38-C , 45-C ) :   0.9105 B( 38-C , 93-H ) :   0.9235 B( 39-C , 40-C ) :   1.6807
B( 39-C , 94-H ) :   0.9854 B( 40-C , 41-C ) :   1.1260 B( 40-C , 95-H ) :   0.9933
B( 41-C , 42-C ) :   1.3613 B( 42-C , 43-C ) :   1.1792 B( 43-C , 44-C ) :   1.5598
B( 43-C , 96-H ) :   0.9929 B( 44-C , 97-H ) :   0.9857 B( 45-C , 46-C ) :   1.0736
B( 45-C , 98-H ) :   0.9323 B( 46-C , 47-C ) :   1.8334 B( 46-C , 99-H ) :   0.9331
B( 47-C , 48-C ) :   1.0281 B( 47-C , 51-S ) :   0.9498 B( 48-C , 49-C ) :   1.0911
B( 48-C , 54-C ) :   1.3612 B( 49-C , 50-C ) :   1.5023 B( 49-C , 53-O ) :   1.3241
B( 50-C , 51-S ) :   1.0763 B( 50-C ,100-H ) :   0.9652 B( 51-S , 52-O ) :   1.0418
B( 52-O ,101-H ) :   0.6827 B( 53-O ,102-H ) :   0.9454 B( 54-C , 55-C ) :   1.3087
B( 54-C ,103-H ) :   0.9730 B( 55-C , 56-C ) :   1.3836 B( 55-C ,104-H ) :   0.9491
B( 56-C , 57-C ) :   1.3233 B( 56-C ,105-H ) :   0.9679 B( 57-C , 58-C ) :   1.1522
B( 57-C , 66-C ) :   1.0100 B( 58-C , 59-C ) :   1.5595 B( 58-C , 64-C ) :   0.9707
B( 59-C , 60-C ) :   1.1496 B( 59-C , 62-C ) :   1.1653 B( 60-C , 61-N ) :   2.9627
B( 62-C , 63-N ) :   2.9496 B( 64-C , 65-C ) :   1.3376 B( 64-C , 71-C ) :   1.3596
B( 65-C , 66-C ) :   0.9360 B( 65-C , 68-C ) :   1.3583 B( 66-C , 67-O ) :   2.1433
B( 68-C , 69-C ) :   1.3254 B( 68-C ,106-H ) :   1.0165 B( 69-C , 70-C ) :   1.4349
B( 69-C , 73-Cl) :   1.0280 B( 70-C , 71-C ) :   1.3416 B( 70-C , 72-Cl) :   1.0602
B( 71-C ,107-H ) :   0.9858

-----------------------------------------------------------------------------
         ABSORPTION SPECTRUM VIA TRANSITION ELECTRIC DIPOLE MOMENTS
-----------------------------------------------------------------------------
State   Energy  Wavelength   fosc         T2         TX        TY        TZ
        (cm-1)    (nm)                  (au**2)     (au)      (au)      (au)
-----------------------------------------------------------------------------
   0    8364.7   1195.5   0.187620056   7.38423   2.22323   0.08578  -1.56016
   1    8916.1   1121.6   0.504515549  18.62834   3.08692  -0.75764  -2.91981
   2   14133.4    707.5   0.131604837   3.06549   1.35623  -0.51646  -0.97949
   3   18892.1    529.3   0.907728114  15.81796  -0.17685   3.97216  -0.09294
   4   19942.0    501.5   0.453928064   7.49365  -1.83395   1.00191   1.76818
   5   21213.7    471.4   0.046729663   0.72519  -0.45241   0.46247  -0.55375
   6   22546.9    443.5   0.399133816   5.82783  -0.39342  -2.04681  -1.21804
   7   23209.6    430.9   0.028519347   0.40453  -0.24037   0.16664   0.56478
   8   24780.1    403.5   0.249861201   3.31949   0.60880  -1.71459  -0.09505
   9   24979.6    400.3   0.024184966   0.31874  -0.42397   0.36640  -0.06884
  10   25389.0    393.9   0.002818980   0.03655  -0.01594  -0.00201  -0.19051
  11   25865.4    386.6   0.077961376   0.99228  -0.71252   0.38669  -0.57885
  12   26084.7    383.4   0.006560400   0.08280  -0.17120   0.19956  -0.11688
  13   26835.4    372.6   0.002670947   0.03277   0.13763   0.08141  -0.08484
  14   27222.4    367.3   0.083856672   1.01411  -0.13777   0.99596  -0.05654
  15   27425.9    364.6   0.018980535   0.22784   0.18036   0.38087  -0.22416
  16   27941.7    357.9   0.008300374   0.09780  -0.18451   0.16091   0.19458
  17   28691.5    348.5   0.044597976   0.51173  -0.64486  -0.25860  -0.17030
  18   29176.5    342.7   0.074305951   0.83843   0.71983   0.25433  -0.50555
  19   29826.7    335.3   0.004976835   0.05493  -0.12120  -0.19945   0.02149
  20   29994.7    333.4   0.000078295   0.00086  -0.01160   0.02503   0.00993
  21   30670.1    326.1   0.000286618   0.00308  -0.02067  -0.05147  -0.00071
  22   30925.1    323.4   0.006313028   0.06721   0.21428  -0.11081  -0.09492
  23   31040.4    322.2   0.011031698   0.11700   0.20042  -0.06214  -0.27013
  24   31201.1    320.5   0.002945730   0.03108  -0.05416   0.13875   0.09432
  25   31226.5    320.2   0.032179052   0.33925   0.12757   0.54380   0.16511
  26   31813.5    314.3   0.016306983   0.16875   0.24334  -0.31265  -0.10855
  27   32129.0    311.2   0.125518629   1.28613  -0.85683   0.07827   0.73881
  28   32396.3    308.7   0.047640715   0.48413   0.07563  -0.63505  -0.27407
  29   32541.1    307.3   0.204252147   2.06638   0.64206   0.31841   1.24609
  30   32570.9    307.0   0.131546354   1.32961  -0.71807  -0.85311  -0.29358
  31   32749.8    305.3   0.002075224   0.02086   0.01527   0.12539   0.07003
  32   32911.9    303.8   0.006343494   0.06345  -0.02617   0.08277   0.23647
  33   34036.2    293.8   0.146759310   1.41952   0.14483  -1.01022  -0.61481
  34   34237.9    292.1   0.055396374   0.53266   0.47549   0.12374   0.53968
  35   34354.0    291.1   0.137139407   1.31420  -0.73540  -0.58648  -0.65531
  36   34768.7    287.6   0.320758430   3.03714   0.94923   0.90779   1.14544
  37   34774.4    287.6   0.013549608   0.12828  -0.01819   0.33539  -0.12433
  38   35566.8    281.2   0.381905496   3.53498   0.88565   1.62237  -0.34427
  39   35818.1    279.2   0.067739797   0.62261  -0.41532   0.39939  -0.53908
  40   35864.8    278.8   0.003403994   0.03125  -0.14217   0.01705  -0.10365
  41   36100.0    277.0   0.060453304   0.55130  -0.32278  -0.66691  -0.04848
  42   36280.0    275.6   0.009962136   0.09040  -0.12696  -0.21469   0.16789
  43   36365.4    275.0   0.054471237   0.49312   0.49664   0.36286   0.33882
  44   36562.8    273.5   0.217072283   1.95452   0.89362  -0.70323   0.81328
  45   36785.7    271.8   0.058809283   0.52631   0.53367   0.41680  -0.26035
  46   37028.5    270.1   0.024207132   0.21522  -0.25296   0.02317   0.38820
  47   37699.6    265.3   0.062083533   0.54214   0.34107  -0.65164   0.03432
  48   38405.9    260.4   0.012513253   0.10726   0.04063  -0.30368   0.11572
  49   38544.9    259.4   0.027563814   0.23542  -0.09174  -0.47412  -0.04710
  50   38846.9    257.4   0.063586070   0.53887   0.21053  -0.45225  -0.53853
  51   38894.2    257.1   0.037687220   0.31900   0.41908  -0.37299   0.06518
  52   39343.6    254.2   0.004682960   0.03919  -0.17612  -0.06308   0.06471
  53   39493.7    253.2   0.001212452   0.01011  -0.05458  -0.07724  -0.03408
  54   39867.1    250.8   0.029375288   0.24257   0.31528  -0.08180  -0.36944
  55   39926.8    250.5   0.027834685   0.22951   0.42905  -0.08517   0.19536
  56   39979.9    250.1   0.055614928   0.45796   0.50939   0.43464  -0.09783

FINAL SINGLE POINT ENERGY     -5566.668140777560

DIPOLE MOMENT
-------------
                                X             Y             Z
Electronic contribution:     36.28332    -116.40373     -63.90944
Nuclear contribution   :    -37.02655     124.40125      63.69880
                        -----------------------------------------
Total Dipole Moment    :     -0.74323       7.99752      -0.21064
                        -----------------------------------------
Magnitude (a.u.)       :      8.03474
Magnitude (Debye)      :     20.42270

Rotational constants in cm-1:     0.000652     0.000367     0.000255
Rotational constants in MHz :    19.548382    11.013250     7.651159

                             ****ORCA TERMINATED NORMALLY****
TOTAL RUN TIME: 0 days 0 hours 12 minutes 4 seconds 218 msec
