                         Program Version 4.2.0 -  RELEASE  -
|  1> # ORCA input file
|  2> # SCF done       -180.625844563375          0.000594538264
|  3> ! CAM-B3LYP def2-SVP def2/J RIJCOSX Grid4 TightSCF
|  4> %maxcore 5000
|  5> %tddft
|  6>     Mode sTDDFT
|  7>     Ethresh 5.0
|  8>     maxcore 5000
|  9> end
| 10>
| 11> %pal
| 12>   nprocs 6
| 13>   end
| 14> * xyz 0 1
| 15>    C       -1.93619        -0.56109        -4.30733
| 16>    S       -1.91131         0.91930        -3.44650
| 17>    C       -0.70353         0.30283        -2.34382
| 18>    C       -0.37168        -0.99864        -2.65786
| 19>    C       -1.07483        -1.48331        -3.78875
| 20>    C       -0.90073        -2.86440        -4.31772
| 21>    S       -2.41717        -3.86947        -3.96510
| 22>    C        0.35006        -3.53198        -3.75595
| 23>    C        0.46301        -3.31143        -2.25153
| 24>    C        0.64650        -1.82779        -1.93828
| 25>    C       -0.17082         1.11020        -1.29810
| 26>    C       -0.55282         2.38187        -1.05132
| 27>    C       -0.02190         3.21651        -0.02961
| 28>    S       -0.64079         4.83689         0.15045
| 29>    C        0.44604         5.16094         1.46962
| 30>    C        1.22941         4.05806         1.73642
| 31>    C        0.96725         2.97309         0.90108
| 32>    C        0.45993         6.42636         2.11157
| 33>    C       -0.34402         7.51729         1.86283
| 34>    C       -0.05374         8.61879         2.66679
| 35>    C        0.98306         8.39740         3.55005
| 36>    S        1.60244         6.77873         3.37902
| 37>    C        1.54428         9.30852         4.48415
| 38>    S        2.89770         8.87121         5.48541
| 39>    C        2.94438        10.45421         6.21498
| 40>    C        1.94229        11.24981         5.69309
| 41>    C        1.16309        10.61296         4.73035
| 42>    C        3.94777        10.74835         7.17572
| 43>    C        4.12737        11.95493         7.76585
| 44>    C        5.15927        12.26531         8.68927
| 45>    N        5.29822        13.55057         9.17943
| 46>    C        6.37987        13.58958        10.00066
| 47>    C        7.16080        14.42450        10.79525
| 48>    C        8.18237        13.62245        11.31364
| 49>    N        8.02081        12.32850        10.85472
| 50>    C        6.93254        12.28662        10.04194
| 51>    C        6.16954        11.45872         9.22269
| 52>    C        9.28054        13.96134        12.14653
| 53>    C        9.57121        15.21406        12.57356
| 54>    C       10.70211        15.56753        13.35602
| 55>    S       11.00720        17.25249        13.69307
| 56>    C       12.47148        16.87028        14.55406
| 57>    C       12.67776        15.50699        14.57759
| 58>    C       11.69316        14.78116        13.91035
| 59>    C       13.29216        17.89518        15.09000
| 60>    C       13.09356        19.25800        15.04387
| 61>    C       14.12249        19.99068        15.63467
| 62>    C       15.13215        19.20627        16.14777
| 63>    S       14.79014        17.51454        15.89713
| 64>    C       16.33042        19.62207        16.78305
| 65>    S       16.71242        21.31034        16.95622
| 66>    C       18.23122        20.93941        17.72959
| 67>    C       18.39517        19.57298        17.84038
| 68>    C       17.33562        18.83882        17.31156
| 69>    C       19.08666        22.00153        18.12560
| 70>    C       20.31270        21.84469        18.67413
| 71>    C       21.16161        22.92208        19.04612
| 72>    S       20.68595        24.57531        18.78823
| 73>    C       22.19431        25.17126        19.42122
| 74>    C       23.01697        24.13206        19.80013
| 75>    C       22.42678        22.86211        19.60875
| 76>    C       23.12866        21.58991        19.96056
| 77>    S       22.10187        20.51393        21.06381
| 78>    C       24.47939        21.82692        20.63082
| 79>    C       25.20712        22.99410        19.97689
| 80>    C       24.43520        24.28141        20.25370
| 81>    C       22.38098        26.59736        19.44681
| 82>    C       23.25500        27.28241        20.18155
| 83>    H       -2.59258        -0.67762        -5.14710
| 84>    H       -0.87578        -2.86124        -5.41056
| 85>    H       -2.49553        -3.56786        -2.67134
| 86>    H        1.22427        -3.10119        -4.25182
| 87>    H        0.32210        -4.59899        -3.98298
| 88>    H        1.30984        -3.87580        -1.85793
| 89>    H       -0.43911        -3.68316        -1.75973
| 90>    H        1.64696        -1.51172        -2.25455
| 91>    H        0.57577        -1.66349        -0.86071
| 92>    H        0.59122         0.64770        -0.68740
| 93>    H       -1.31997         2.82534        -1.67322
| 94>    H        1.96818         4.05537         2.51884
| 95>    H        1.48877         2.03567         0.97101
| 96>    H       -1.11627         7.50344         1.11383
| 97>    H       -0.57992         9.55381         2.60530
| 98>    H        1.78016        12.26705         6.00059
| 99>    H        0.34319        11.08649         4.22092
|100>    H        4.61737         9.93669         7.42117
|101>    H        3.45981        12.76923         7.51468
|102>    H        4.69729        14.31944         8.93805
|103>    H        7.02585        15.46985        10.98412
|104>    H        8.63788        11.56589        11.07488
|105>    H        6.31037        10.41581         9.02472
|106>    H        9.93397        13.14411        12.42309
|107>    H        8.92561        16.03101        12.28537
|108>    H       13.52928        15.06545        15.06558
|109>    H       11.70291        13.70903        13.83324
|110>    H       12.22440        19.69647        14.58607
|111>    H       14.14546        21.06485        15.68976
|112>    H       19.25735        19.12192        18.29692
|113>    H       17.28744        17.76382        17.30510
|114>    H       18.71245        23.00346        17.95557
|115>    H       20.69796        20.85124        18.84638
|116>    H       23.25094        20.97315        19.06399
|117>    H       21.89074        21.43705        21.99840
|118>    H       25.07228        20.91273        20.57474
|119>    H       24.32415        22.05794        21.68823
|120>    H       25.27798        22.82976        18.89944
|121>    H       26.21912        23.07364        20.37673
|122>    H       24.89611        25.12233        19.73110
|123>    H       24.46453        24.49591        21.32717
|124>    H       21.69659        27.14020        18.80595
|125>    H       23.92622        26.81798        20.88014
|126>    H       23.30270        28.35559        20.11640
|127> *
|128>
|129>                          ****END OF INPUT****

CARTESIAN COORDINATES (ANGSTROEM)
---------------------------------
  C     -1.936190   -0.561090   -4.307330
  S     -1.911310    0.919300   -3.446500
  C     -0.703530    0.302830   -2.343820
  C     -0.371680   -0.998640   -2.657860
  C     -1.074830   -1.483310   -3.788750
  C     -0.900730   -2.864400   -4.317720
  S     -2.417170   -3.869470   -3.965100
  C      0.350060   -3.531980   -3.755950
  C      0.463010   -3.311430   -2.251530
  C      0.646500   -1.827790   -1.938280
  C     -0.170820    1.110200   -1.298100
  C     -0.552820    2.381870   -1.051320
  C     -0.021900    3.216510   -0.029610
  S     -0.640790    4.836890    0.150450
  C      0.446040    5.160940    1.469620
  C      1.229410    4.058060    1.736420
  C      0.967250    2.973090    0.901080
  C      0.459930    6.426360    2.111570
  C     -0.344020    7.517290    1.862830
  C     -0.053740    8.618790    2.666790
  C      0.983060    8.397400    3.550050
  S      1.602440    6.778730    3.379020
  C      1.544280    9.308520    4.484150
  S      2.897700    8.871210    5.485410
  C      2.944380   10.454210    6.214980
  C      1.942290   11.249810    5.693090
  C      1.163090   10.612960    4.730350
  C      3.947770   10.748350    7.175720
  C      4.127370   11.954930    7.765850
  C      5.159270   12.265310    8.689270
  N      5.298220   13.550570    9.179430
  C      6.379870   13.589580   10.000660
  C      7.160800   14.424500   10.795250
  C      8.182370   13.622450   11.313640
  N      8.020810   12.328500   10.854720
  C      6.932540   12.286620   10.041940
  C      6.169540   11.458720    9.222690
  C      9.280540   13.961340   12.146530
  C      9.571210   15.214060   12.573560
  C     10.702110   15.567530   13.356020
  S     11.007200   17.252490   13.693070
  C     12.471480   16.870280   14.554060
  C     12.677760   15.506990   14.577590
  C     11.693160   14.781160   13.910350
  C     13.292160   17.895180   15.090000
  C     13.093560   19.258000   15.043870
  C     14.122490   19.990680   15.634670
  C     15.132150   19.206270   16.147770
  S     14.790140   17.514540   15.897130
  C     16.330420   19.622070   16.783050
  S     16.712420   21.310340   16.956220
  C     18.231220   20.939410   17.729590
  C     18.395170   19.572980   17.840380
  C     17.335620   18.838820   17.311560
  C     19.086660   22.001530   18.125600
  C     20.312700   21.844690   18.674130
  C     21.161610   22.922080   19.046120
  S     20.685950   24.575310   18.788230
  C     22.194310   25.171260   19.421220
  C     23.016970   24.132060   19.800130
  C     22.426780   22.862110   19.608750
  C     23.128660   21.589910   19.960560
  S     22.101870   20.513930   21.063810
  C     24.479390   21.826920   20.630820
  C     25.207120   22.994100   19.976890
  C     24.435200   24.281410   20.253700
  C     22.380980   26.597360   19.446810
  C     23.255000   27.282410   20.181550
  H     -2.592580   -0.677620   -5.147100
  H     -0.875780   -2.861240   -5.410560
  H     -2.495530   -3.567860   -2.671340
  H      1.224270   -3.101190   -4.251820
  H      0.322100   -4.598990   -3.982980
  H      1.309840   -3.875800   -1.857930
  H     -0.439110   -3.683160   -1.759730
  H      1.646960   -1.511720   -2.254550
  H      0.575770   -1.663490   -0.860710
  H      0.591220    0.647700   -0.687400
  H     -1.319970    2.825340   -1.673220
  H      1.968180    4.055370    2.518840
  H      1.488770    2.035670    0.971010
  H     -1.116270    7.503440    1.113830
  H     -0.579920    9.553810    2.605300
  H      1.780160   12.267050    6.000590
  H      0.343190   11.086490    4.220920
  H      4.617370    9.936690    7.421170
  H      3.459810   12.769230    7.514680
  H      4.697290   14.319440    8.938050
  H      7.025850   15.469850   10.984120
  H      8.637880   11.565890   11.074880
  H      6.310370   10.415810    9.024720
  H      9.933970   13.144110   12.423090
  H      8.925610   16.031010   12.285370
  H     13.529280   15.065450   15.065580
  H     11.702910   13.709030   13.833240
  H     12.224400   19.696470   14.586070
  H     14.145460   21.064850   15.689760
  H     19.257350   19.121920   18.296920
  H     17.287440   17.763820   17.305100
  H     18.712450   23.003460   17.955570
  H     20.697960   20.851240   18.846380
  H     23.250940   20.973150   19.063990
  H     21.890740   21.437050   21.998400
  H     25.072280   20.912730   20.574740
  H     24.324150   22.057940   21.688230
  H     25.277980   22.829760   18.899440
  H     26.219120   23.073640   20.376730
  H     24.896110   25.122330   19.731100
  H     24.464530   24.495910   21.327170
  H     21.696590   27.140200   18.805950
  H     23.926220   26.817980   20.880140
  H     23.302700   28.355590   20.116400

 Total Charge           Charge          ....    0
 Multiplicity           Mult            ....    1
 Number of Electrons    NEL             ....  554
 Basis Dimension        Dim             .... 1212

ORBITAL ENERGIES
----------------

  NO   OCC          E(Eh)            E(eV)
   0   2.0000     -88.948127     -2420.4016
   1   2.0000     -88.946947     -2420.3695
   2   2.0000     -88.946498     -2420.3573
   3   2.0000     -88.945529     -2420.3309
   4   2.0000     -88.945177     -2420.3213
   5   2.0000     -88.944443     -2420.3013
   6   2.0000     -88.942489     -2420.2482
   7   2.0000     -88.940569     -2420.1959
   8   2.0000     -88.907500     -2419.2961
   9   2.0000     -88.903385     -2419.1841
  10   2.0000     -14.447271      -393.1302
  11   2.0000     -14.447203      -393.1284
  12   2.0000     -10.302401      -280.3426
  13   2.0000     -10.298930      -280.2481
  14   2.0000     -10.298079      -280.2250
  15   2.0000     -10.297085      -280.1979
  16   2.0000     -10.296802      -280.1902
  17   2.0000     -10.296693      -280.1873
  18   2.0000     -10.296377      -280.1787
  19   2.0000     -10.295954      -280.1671
  20   2.0000     -10.295503      -280.1549
  21   2.0000     -10.294384      -280.1244
  22   2.0000     -10.294318      -280.1226
  23   2.0000     -10.294292      -280.1219
  24   2.0000     -10.292347      -280.0690
  25   2.0000     -10.291754      -280.0529
  26   2.0000     -10.291507      -280.0461
  27   2.0000     -10.290596      -280.0214
  28   2.0000     -10.289425      -279.9895
  29   2.0000     -10.286367      -279.9063
  30   2.0000     -10.285866      -279.8926
  31   2.0000     -10.281144      -279.7642
  32   2.0000     -10.280745      -279.7533
  33   2.0000     -10.280670      -279.7512
  34   2.0000     -10.275202      -279.6025
  35   2.0000     -10.274751      -279.5902
  36   2.0000     -10.273994      -279.5696
  37   2.0000     -10.273548      -279.5575
  38   2.0000     -10.273439      -279.5545
  39   2.0000     -10.272924      -279.5405
  40   2.0000     -10.270314      -279.4695
  41   2.0000     -10.270033      -279.4618
  42   2.0000     -10.269634      -279.4509
  43   2.0000     -10.269212      -279.4395
  44   2.0000     -10.268753      -279.4270
  45   2.0000     -10.268187      -279.4116
  46   2.0000     -10.267596      -279.3955
  47   2.0000     -10.266974      -279.3786
  48   2.0000     -10.266398      -279.3629
  49   2.0000     -10.266332      -279.3611
  50   2.0000     -10.265954      -279.3508
  51   2.0000     -10.265928      -279.3501
  52   2.0000     -10.265631      -279.3420
  53   2.0000     -10.265512      -279.3388
  54   2.0000     -10.265462      -279.3374
  55   2.0000     -10.265125      -279.3283
  56   2.0000     -10.264896      -279.3220
  57   2.0000     -10.264834      -279.3203
  58   2.0000     -10.264607      -279.3142
  59   2.0000     -10.263168      -279.2750
  60   2.0000     -10.263007      -279.2706
  61   2.0000     -10.262841      -279.2661
  62   2.0000     -10.262756      -279.2638
  63   2.0000     -10.262349      -279.2527
  64   2.0000     -10.261852      -279.2392
  65   2.0000     -10.260111      -279.1918
  66   2.0000     -10.252395      -278.9818
  67   2.0000     -10.252235      -278.9775
  68   2.0000      -8.043795      -218.8828
  69   2.0000      -8.042399      -218.8448
  70   2.0000      -8.042216      -218.8398
  71   2.0000      -8.041474      -218.8196
  72   2.0000      -8.040901      -218.8040
  73   2.0000      -8.040148      -218.7835
  74   2.0000      -8.038333      -218.7342
  75   2.0000      -8.036340      -218.6799
  76   2.0000      -8.002822      -217.7679
  77   2.0000      -7.998908      -217.6614
  78   2.0000      -6.013168      -163.6266
  79   2.0000      -6.011804      -163.5895
  80   2.0000      -6.011480      -163.5807
  81   2.0000      -6.010731      -163.5603
  82   2.0000      -6.010163      -163.5449
  83   2.0000      -6.009446      -163.5253
  84   2.0000      -6.009100      -163.5159
  85   2.0000      -6.007765      -163.4796
  86   2.0000      -6.007502      -163.4724
  87   2.0000      -6.007483      -163.4719
  88   2.0000      -6.006696      -163.4505
  89   2.0000      -6.006168      -163.4361
  90   2.0000      -6.005684      -163.4230
  91   2.0000      -6.005438      -163.4163
  92   2.0000      -6.005422      -163.4159
  93   2.0000      -6.004261      -163.3843
  94   2.0000      -6.004229      -163.3834
  95   2.0000      -6.003530      -163.3643
  96   2.0000      -6.003399      -163.3608
  97   2.0000      -6.002946      -163.3485
  98   2.0000      -6.002148      -163.3268
  99   2.0000      -6.001635      -163.3128
 100   2.0000      -6.000657      -163.2862
 101   2.0000      -5.998525      -163.2282
 102   2.0000      -5.973394      -162.5443
 103   2.0000      -5.969365      -162.4347
 104   2.0000      -5.969315      -162.4333
 105   2.0000      -5.965476      -162.3288
 106   2.0000      -5.962386      -162.2448
 107   2.0000      -5.958498      -162.1390
 108   2.0000      -1.078273       -29.3413
 109   2.0000      -1.042107       -28.3572
 110   2.0000      -0.988793       -26.9064
 111   2.0000      -0.987534       -26.8722
 112   2.0000      -0.981639       -26.7117
 113   2.0000      -0.979468       -26.6527
 114   2.0000      -0.974915       -26.5288
 115   2.0000      -0.973987       -26.5035
 116   2.0000      -0.958208       -26.0742
 117   2.0000      -0.957139       -26.0451
 118   2.0000      -0.919901       -25.0318
 119   2.0000      -0.919464       -25.0199
 120   2.0000      -0.899939       -24.4886
 121   2.0000      -0.894487       -24.3402
 122   2.0000      -0.892280       -24.2802
 123   2.0000      -0.887906       -24.1611
 124   2.0000      -0.872405       -23.7393
 125   2.0000      -0.867777       -23.6134
 126   2.0000      -0.859822       -23.3969
 127   2.0000      -0.856054       -23.2944
 128   2.0000      -0.854796       -23.2602
 129   2.0000      -0.849550       -23.1174
 130   2.0000      -0.842204       -22.9175
 131   2.0000      -0.833283       -22.6748
 132   2.0000      -0.831373       -22.6228
 133   2.0000      -0.823650       -22.4126
 134   2.0000      -0.822061       -22.3694
 135   2.0000      -0.819943       -22.3118
 136   2.0000      -0.816432       -22.2162
 137   2.0000      -0.816198       -22.2099
 138   2.0000      -0.814835       -22.1728
 139   2.0000      -0.810604       -22.0577
 140   2.0000      -0.807394       -21.9703
 141   2.0000      -0.792732       -21.5713
 142   2.0000      -0.785700       -21.3800
 143   2.0000      -0.776764       -21.1368
 144   2.0000      -0.771358       -20.9897
 145   2.0000      -0.761470       -20.7207
 146   2.0000      -0.752468       -20.4757
 147   2.0000      -0.741104       -20.1665
 148   2.0000      -0.726561       -19.7707
 149   2.0000      -0.709499       -19.3065
 150   2.0000      -0.705055       -19.1855
 151   2.0000      -0.701688       -19.0939
 152   2.0000      -0.697277       -18.9739
 153   2.0000      -0.689488       -18.7619
 154   2.0000      -0.686472       -18.6799
 155   2.0000      -0.682789       -18.5796
 156   2.0000      -0.681499       -18.5445
 157   2.0000      -0.674556       -18.3556
 158   2.0000      -0.671961       -18.2850
 159   2.0000      -0.665084       -18.0979
 160   2.0000      -0.655443       -17.8355
 161   2.0000      -0.650504       -17.7011
 162   2.0000      -0.642123       -17.4731
 163   2.0000      -0.639520       -17.4022
 164   2.0000      -0.634202       -17.2575
 165   2.0000      -0.629824       -17.1384
 166   2.0000      -0.616684       -16.7808
 167   2.0000      -0.615429       -16.7467
 168   2.0000      -0.613057       -16.6821
 169   2.0000      -0.608810       -16.5666
 170   2.0000      -0.603275       -16.4160
 171   2.0000      -0.602664       -16.3993
 172   2.0000      -0.601012       -16.3544
 173   2.0000      -0.596101       -16.2207
 174   2.0000      -0.594547       -16.1785
 175   2.0000      -0.594268       -16.1709
 176   2.0000      -0.587069       -15.9750
 177   2.0000      -0.584960       -15.9176
 178   2.0000      -0.577457       -15.7134
 179   2.0000      -0.574049       -15.6207
 180   2.0000      -0.571603       -15.5541
 181   2.0000      -0.564588       -15.3632
 182   2.0000      -0.554266       -15.0823
 183   2.0000      -0.545532       -14.8447
 184   2.0000      -0.542174       -14.7533
 185   2.0000      -0.537940       -14.6381
 186   2.0000      -0.533142       -14.5075
 187   2.0000      -0.531359       -14.4590
 188   2.0000      -0.523443       -14.2436
 189   2.0000      -0.522457       -14.2168
 190   2.0000      -0.517144       -14.0722
 191   2.0000      -0.514704       -14.0058
 192   2.0000      -0.514146       -13.9906
 193   2.0000      -0.513251       -13.9663
 194   2.0000      -0.512134       -13.9359
 195   2.0000      -0.506196       -13.7743
 196   2.0000      -0.502199       -13.6655
 197   2.0000      -0.499843       -13.6014
 198   2.0000      -0.499637       -13.5958
 199   2.0000      -0.499525       -13.5928
 200   2.0000      -0.495936       -13.4951
 201   2.0000      -0.490829       -13.3561
 202   2.0000      -0.490706       -13.3528
 203   2.0000      -0.489885       -13.3305
 204   2.0000      -0.486249       -13.2315
 205   2.0000      -0.484591       -13.1864
 206   2.0000      -0.483626       -13.1601
 207   2.0000      -0.482881       -13.1399
 208   2.0000      -0.481711       -13.1080
 209   2.0000      -0.480307       -13.0698
 210   2.0000      -0.479647       -13.0518
 211   2.0000      -0.475872       -12.9491
 212   2.0000      -0.474092       -12.9007
 213   2.0000      -0.472606       -12.8603
 214   2.0000      -0.469387       -12.7727
 215   2.0000      -0.467048       -12.7090
 216   2.0000      -0.464752       -12.6466
 217   2.0000      -0.463269       -12.6062
 218   2.0000      -0.461813       -12.5666
 219   2.0000      -0.457973       -12.4621
 220   2.0000      -0.456787       -12.4298
 221   2.0000      -0.450435       -12.2570
 222   2.0000      -0.448568       -12.2061
 223   2.0000      -0.446333       -12.1453
 224   2.0000      -0.446014       -12.1366
 225   2.0000      -0.442857       -12.0507
 226   2.0000      -0.442365       -12.0374
 227   2.0000      -0.438592       -11.9347
 228   2.0000      -0.436059       -11.8658
 229   2.0000      -0.434150       -11.8138
 230   2.0000      -0.432377       -11.7656
 231   2.0000      -0.431454       -11.7404
 232   2.0000      -0.430308       -11.7093
 233   2.0000      -0.427676       -11.6377
 234   2.0000      -0.425723       -11.5845
 235   2.0000      -0.424580       -11.5534
 236   2.0000      -0.420639       -11.4462
 237   2.0000      -0.414873       -11.2893
 238   2.0000      -0.410533       -11.1712
 239   2.0000      -0.407936       -11.1005
 240   2.0000      -0.407618       -11.0918
 241   2.0000      -0.405744       -11.0409
 242   2.0000      -0.403416       -10.9775
 243   2.0000      -0.402655       -10.9568
 244   2.0000      -0.399708       -10.8766
 245   2.0000      -0.398023       -10.8308
 246   2.0000      -0.396682       -10.7943
 247   2.0000      -0.395555       -10.7636
 248   2.0000      -0.395102       -10.7513
 249   2.0000      -0.393467       -10.7068
 250   2.0000      -0.392622       -10.6838
 251   2.0000      -0.384651       -10.4669
 252   2.0000      -0.382190       -10.3999
 253   2.0000      -0.375506       -10.2180
 254   2.0000      -0.374781       -10.1983
 255   2.0000      -0.360251        -9.8029
 256   2.0000      -0.349463        -9.5094
 257   2.0000      -0.337892        -9.1945
 258   2.0000      -0.323468        -8.8020
 259   2.0000      -0.322692        -8.7809
 260   2.0000      -0.320871        -8.7313
 261   2.0000      -0.316304        -8.6071
 262   2.0000      -0.314962        -8.5706
 263   2.0000      -0.310263        -8.4427
 264   2.0000      -0.310122        -8.4389
 265   2.0000      -0.307840        -8.3767
 266   2.0000      -0.305674        -8.3178
 267   2.0000      -0.302712        -8.2372
 268   2.0000      -0.293381        -7.9833
 269   2.0000      -0.288816        -7.8591
 270   2.0000      -0.283286        -7.7086
 271   2.0000      -0.279057        -7.5935
 272   2.0000      -0.264398        -7.1946
 273   2.0000      -0.250035        -6.8038
 274   2.0000      -0.227796        -6.1986
 275   2.0000      -0.216984        -5.9044
 276   2.0000      -0.195198        -5.3116
 277   0.0000      -0.054388        -1.4800
 278   0.0000      -0.045706        -1.2437
 279   0.0000      -0.031320        -0.8522
 280   0.0000      -0.015735        -0.4282
 281   0.0000       0.004519         0.1230

MULLIKEN ATOMIC CHARGES
-----------------------
   0 C :   -0.101937
   1 S :    0.100498
   2 C :   -0.119139
   3 C :   -0.068813
   4 C :    0.038248
   5 C :   -0.163669
   6 S :   -0.049240
   7 C :    0.109998
   8 C :    0.011459
   9 C :    0.124707
  10 C :   -0.013170
  11 C :    0.054719
  12 C :   -0.074506
  13 S :    0.115330
  14 C :   -0.044870
  15 C :   -0.016816
  16 C :    0.012148
  17 C :   -0.029645
  18 C :   -0.015393
  19 C :   -0.003352
  20 C :   -0.028588
  21 S :    0.114050
  22 C :   -0.049057
  23 S :    0.114289
  24 C :   -0.065613
  25 C :    0.001981
  26 C :   -0.002527
  27 C :    0.046391
  28 C :    0.007515
  29 C :    0.101372
  30 N :   -0.038007
  31 C :    0.110350
  32 C :   -0.179237
  33 C :    0.100032
  34 N :   -0.037745
  35 C :    0.110480
  36 C :   -0.179416
  37 C :    0.008608
  38 C :    0.045496
  39 C :   -0.065186
  40 S :    0.109942
  41 C :   -0.047882
  42 C :   -0.013075
  43 C :    0.003748
  44 C :   -0.025052
  45 C :   -0.015208
  46 C :   -0.012629
  47 C :   -0.029439
  48 S :    0.109596
  49 C :   -0.047325
  50 S :    0.115439
  51 C :   -0.073734
  52 C :    0.011262
  53 C :   -0.014578
  54 C :    0.050824
  55 C :    0.007933
  56 C :   -0.091094
  57 S :    0.098363
  58 C :   -0.147714
  59 C :   -0.063563
  60 C :    0.027039
  61 C :   -0.186692
  62 S :   -0.043819
  63 C :    0.107814
  64 C :    0.027581
  65 C :    0.099936
  66 C :    0.026910
  67 C :   -0.034375
  68 H :    0.012592
  69 H :    0.044556
  70 H :    0.052111
  71 H :    0.004652
  72 H :    0.008822
  73 H :    0.002181
  74 H :   -0.005043
  75 H :    0.014287
  76 H :    0.014061
  77 H :   -0.018159
  78 H :   -0.013633
  79 H :   -0.014055
  80 H :   -0.024893
  81 H :   -0.013941
  82 H :   -0.024398
  83 H :   -0.027744
  84 H :   -0.025018
  85 H :   -0.024999
  86 H :   -0.038556
  87 H :    0.117007
  88 H :   -0.039665
  89 H :    0.117252
  90 H :   -0.039614
  91 H :   -0.038100
  92 H :   -0.025165
  93 H :   -0.016806
  94 H :   -0.025618
  95 H :   -0.015107
  96 H :   -0.012856
  97 H :   -0.017363
  98 H :   -0.014349
  99 H :   -0.015315
 100 H :   -0.008365
 101 H :    0.051184
 102 H :    0.051583
 103 H :    0.006945
 104 H :   -0.006069
 105 H :    0.008309
 106 H :    0.000774
 107 H :    0.018564
 108 H :    0.016083
 109 H :   -0.007534
 110 H :    0.016132
 111 H :    0.023312
Sum of atomic charges:   -0.0000000

LOEWDIN ATOMIC CHARGES
----------------------
   0 C :   -0.180602
   1 S :    0.430763
   2 C :   -0.179156
   3 C :   -0.060110
   4 C :   -0.090904
   5 C :   -0.113949
   6 S :    0.150703
   7 C :   -0.039544
   8 C :   -0.030576
   9 C :   -0.026980
  10 C :   -0.034834
  11 C :   -0.051868
  12 C :   -0.169033
  13 S :    0.429355
  14 C :   -0.185034
  15 C :   -0.063389
  16 C :   -0.057479
  17 C :   -0.184543
  18 C :   -0.062556
  19 C :   -0.057726
  20 C :   -0.181923
  21 S :    0.422231
  22 C :   -0.192443
  23 S :    0.419595
  24 C :   -0.165991
  25 C :   -0.064266
  26 C :   -0.053080
  27 C :   -0.051640
  28 C :   -0.030855
  29 C :   -0.005120
  30 N :    0.067146
  31 C :   -0.023308
  32 C :   -0.097733
  33 C :   -0.005019
  34 N :    0.067126
  35 C :   -0.023313
  36 C :   -0.097526
  37 C :   -0.030389
  38 C :   -0.051620
  39 C :   -0.164430
  40 S :    0.424760
  41 C :   -0.189159
  42 C :   -0.061333
  43 C :   -0.064432
  44 C :   -0.179766
  45 C :   -0.064993
  46 C :   -0.062634
  47 C :   -0.182460
  48 S :    0.426595
  49 C :   -0.185169
  50 S :    0.428827
  51 C :   -0.168186
  52 C :   -0.053705
  53 C :   -0.062946
  54 C :   -0.048777
  55 C :   -0.038368
  56 C :   -0.166122
  57 S :    0.428091
  58 C :   -0.179559
  59 C :   -0.054542
  60 C :   -0.084726
  61 C :   -0.115431
  62 S :    0.168587
  63 C :   -0.040398
  64 C :   -0.029341
  65 C :   -0.027487
  66 C :   -0.040880
  67 C :   -0.051721
  68 H :    0.022027
  69 H :    0.032017
  70 H :   -0.037753
  71 H :    0.023857
  72 H :    0.024270
  73 H :    0.025936
  74 H :    0.015841
  75 H :    0.032257
  76 H :    0.029862
  77 H :    0.029481
  78 H :    0.020330
  79 H :    0.025634
  80 H :    0.026688
  81 H :    0.026056
  82 H :    0.027906
  83 H :    0.024998
  84 H :    0.027571
  85 H :    0.025600
  86 H :    0.023964
  87 H :    0.086514
  88 H :    0.021158
  89 H :    0.086672
  90 H :    0.021210
  91 H :    0.024130
  92 H :    0.025347
  93 H :    0.024923
  94 H :    0.025280
  95 H :    0.025639
  96 H :    0.026220
  97 H :    0.029667
  98 H :    0.025565
  99 H :    0.019043
 100 H :    0.020673
 101 H :    0.031443
 102 H :   -0.034037
 103 H :    0.026593
 104 H :    0.018340
 105 H :    0.023381
 106 H :    0.024461
 107 H :    0.033013
 108 H :    0.029057
 109 H :    0.028098
 110 H :    0.020762
 111 H :    0.025596

  Mayer bond orders larger than 0.100000
B(  0-C ,  1-S ) :   1.1613 B(  0-C ,  4-C ) :   1.5609 B(  0-C , 68-H ) :   0.9700
B(  1-S ,  2-C ) :   1.1184 B(  2-C ,  3-C ) :   1.5072 B(  2-C , 10-C ) :   1.1543
B(  3-C ,  4-C ) :   1.3007 B(  3-C ,  9-C ) :   1.0528 B(  4-C ,  5-C ) :   0.9469
B(  5-C ,  6-S ) :   1.0424 B(  5-C ,  7-C ) :   1.0187 B(  5-C , 69-H ) :   0.9219
B(  6-S , 70-H ) :   0.9529 B(  7-C ,  8-C ) :   1.0685 B(  7-C , 71-H ) :   0.9350
B(  7-C , 72-H ) :   0.9320 B(  8-C ,  9-C ) :   1.0845 B(  8-C , 73-H ) :   0.9337
B(  8-C , 74-H ) :   0.9457 B(  9-C , 75-H ) :   0.9128 B(  9-C , 76-H ) :   0.9146
B( 10-C , 11-C ) :   1.6941 B( 10-C , 77-H ) :   0.9695 B( 11-C , 12-C ) :   1.1126
B( 11-C , 78-H ) :   0.9603 B( 12-C , 13-S ) :   1.1115 B( 12-C , 16-C ) :   1.5066
B( 13-S , 14-C ) :   1.1255 B( 14-C , 15-C ) :   1.4942 B( 14-C , 17-C ) :   1.1533
B( 15-C , 16-C ) :   1.2743 B( 15-C , 79-H ) :   0.9926 B( 16-C , 80-H ) :   0.9919
B( 17-C , 18-C ) :   1.5033 B( 17-C , 20-C ) :   0.1058 B( 17-C , 21-S ) :   1.1159
B( 18-C , 19-C ) :   1.2639 B( 18-C , 81-H ) :   0.9931 B( 19-C , 20-C ) :   1.5238
B( 19-C , 82-H ) :   0.9952 B( 20-C , 21-S ) :   1.1127 B( 20-C , 22-C ) :   1.1184
B( 22-C , 23-S ) :   1.1165 B( 22-C , 24-C ) :   0.1043 B( 22-C , 26-C ) :   1.5083
B( 23-S , 24-C ) :   1.1127 B( 24-C , 25-C ) :   1.4901 B( 24-C , 27-C ) :   1.1199
B( 25-C , 26-C ) :   1.2815 B( 25-C , 83-H ) :   0.9906 B( 26-C , 84-H ) :   0.9958
B( 27-C , 28-C ) :   1.6929 B( 27-C , 85-H ) :   0.9620 B( 28-C , 29-C ) :   1.1179
B( 28-C , 86-H ) :   0.9598 B( 29-C , 30-N ) :   1.1667 B( 29-C , 36-C ) :   1.4082
B( 30-N , 31-C ) :   1.1649 B( 30-N , 87-H ) :   0.9376 B( 31-C , 32-C ) :   1.2555
B( 31-C , 35-C ) :   1.3189 B( 32-C , 33-C ) :   1.4081 B( 32-C , 88-H ) :   1.0309
B( 33-C , 34-N ) :   1.1671 B( 33-C , 37-C ) :   1.1190 B( 34-N , 35-C ) :   1.1645
B( 34-N , 89-H ) :   0.9376 B( 35-C , 36-C ) :   1.2558 B( 36-C , 90-H ) :   1.0308
B( 37-C , 38-C ) :   1.6918 B( 37-C , 91-H ) :   0.9604 B( 38-C , 39-C ) :   1.1197
B( 38-C , 92-H ) :   0.9616 B( 39-C , 40-S ) :   1.1121 B( 39-C , 43-C ) :   1.4951
B( 40-S , 41-C ) :   1.1187 B( 41-C , 42-C ) :   1.4940 B( 41-C , 44-C ) :   1.1554
B( 42-C , 43-C ) :   1.2776 B( 42-C , 93-H ) :   0.9914 B( 43-C , 94-H ) :   0.9921
B( 44-C , 45-C ) :   1.5076 B( 44-C , 48-S ) :   1.1147 B( 45-C , 46-C ) :   1.2622
B( 45-C , 95-H ) :   0.9923 B( 46-C , 47-C ) :   1.5073 B( 46-C , 96-H ) :   0.9933
B( 47-C , 48-S ) :   1.1138 B( 47-C , 49-C ) :   1.1542 B( 49-C , 50-S ) :   1.1266
B( 49-C , 53-C ) :   1.4890 B( 50-S , 51-C ) :   1.1096 B( 51-C , 52-C ) :   1.5041
B( 51-C , 54-C ) :   1.1169 B( 52-C , 53-C ) :   1.2761 B( 52-C , 97-H ) :   0.9920
B( 53-C , 98-H ) :   0.9927 B( 54-C , 55-C ) :   1.6881 B( 54-C , 99-H ) :   0.9597
B( 55-C , 56-C ) :   1.1623 B( 55-C ,100-H ) :   0.9594 B( 56-C , 57-S ) :   1.1173
B( 56-C , 60-C ) :   1.4827 B( 57-S , 58-C ) :   1.1093 B( 58-C , 59-C ) :   1.5517
B( 58-C , 66-C ) :   1.0905 B( 59-C , 60-C ) :   1.3105 B( 59-C , 65-C ) :   1.0531
B( 60-C , 61-C ) :   0.9558 B( 61-C , 62-S ) :   1.0383 B( 61-C , 63-C ) :   1.0309
B( 61-C ,101-H ) :   0.9031 B( 62-S ,102-H ) :   0.9549 B( 63-C , 64-C ) :   1.0699
B( 63-C ,103-H ) :   0.9325 B( 63-C ,104-H ) :   0.9333 B( 64-C , 65-C ) :   1.0825
B( 64-C ,105-H ) :   0.9449 B( 64-C ,106-H ) :   0.9334 B( 65-C ,107-H ) :   0.9175
B( 65-C ,108-H ) :   0.9053 B( 66-C , 67-C ) :   1.9334 B( 66-C ,109-H ) :   0.9482
B( 67-C ,110-H ) :   0.9581 B( 67-C ,111-H ) :   0.9460

-----------------------------------------------------------------------------
         ABSORPTION SPECTRUM VIA TRANSITION ELECTRIC DIPOLE MOMENTS
-----------------------------------------------------------------------------
State   Energy  Wavelength   fosc         T2         TX        TY        TZ
        (cm-1)    (nm)                  (au**2)     (au)      (au)      (au)
-----------------------------------------------------------------------------
   0   17315.1    577.5   4.313589217  82.01444   5.46778   5.03803   5.17069
   1   21033.4    475.4   0.231476919   3.62305   1.73167  -0.33595  -0.71520
   2   24229.2    412.7   0.571983061   7.77177   0.95203   2.43771   0.96073
   3   24766.1    403.8   0.135690080   1.80371   0.61030  -1.06959  -0.53592
   4   26252.1    380.9   0.302702692   3.79602  -1.00219  -1.28115  -1.07252
   5   27545.5    363.0   0.034407984   0.41123   0.57305  -0.28697  -0.02223
   6   29257.6    341.8   0.060438307   0.68006   0.80512   0.15386   0.09040
   7   30183.6    331.3   0.171554816   1.87115   0.61233   0.88517   0.84420
   8   31459.3    317.9   0.005485390   0.05740  -0.17948  -0.12560  -0.09702
   9   31773.3    314.7   0.092223481   0.95555  -0.49834  -0.57516  -0.61352
  10   32102.0    311.5   0.013050337   0.13383  -0.01580   0.36405  -0.03248
  11   33764.2    296.2   0.001682129   0.01640  -0.11641   0.03110  -0.04340
  12   33899.2    295.0   0.036768451   0.35708   0.46022  -0.22454   0.30798
  13   34341.0    291.2   0.152268726   1.45973   0.05078  -1.18454  -0.23242
  14   34576.2    289.2   0.013777398   0.13118   0.13653   0.33107   0.05413
  15   35225.7    283.9   0.020403377   0.19069  -0.14397   0.13420  -0.38981
  16   35964.3    278.1   0.038833804   0.35548   0.12200  -0.54142   0.21786
  17   36026.4    277.6   0.000133478   0.00122  -0.01843   0.02628  -0.01377
  18   36799.9    271.7   0.053102384   0.47505   0.48858   0.21974   0.43366
  19   37443.7    267.1   0.003204934   0.02818  -0.02422  -0.15920  -0.04741
  20   37796.9    264.6   0.026292175   0.22901  -0.24318  -0.30282  -0.27959
  21   38266.0    261.3   0.032849135   0.28261   0.37576  -0.33462   0.17159
  22   39073.3    255.9   0.024042873   0.20257  -0.33814  -0.23873  -0.17674
  23   39627.7    252.3   0.035066864   0.29132   0.15328  -0.50291  -0.12212
  24   39672.4    252.1   0.010430214   0.08655   0.16146  -0.21556   0.11840
  25   40199.1    248.8   0.016106707   0.13191  -0.31107   0.18715  -0.01063

FINAL SINGLE POINT ENERGY     -6247.670186743127

DIPOLE MOMENT
-------------
                                X             Y             Z
Electronic contribution:    -47.32294       4.25682     -11.93027
Nuclear contribution   :     48.48797      -3.92524      12.19209
                        -----------------------------------------
Total Dipole Moment    :      1.16504       0.33158       0.26182
                        -----------------------------------------
Magnitude (a.u.)       :      1.23928
Magnitude (Debye)      :      3.14999

Rotational constants in cm-1:     0.002410     0.000071     0.000069
Rotational constants in MHz :    72.239277     2.123174     2.082084

                             ****ORCA TERMINATED NORMALLY****
TOTAL RUN TIME: 0 days 0 hours 8 minutes 44 seconds 819 msec
