                         Program Version 4.2.0 -  RELEASE  -
|  1> # ORCA input file
|  2> # SCF done       -205.205097973116          0.000695129464
|  3> ! CAM-B3LYP def2-SVP def2/J RIJCOSX Grid4 TightSCF
|  4> %maxcore 5000
|  5> %tddft
|  6>     Mode sTDDFT
|  7>     Ethresh 5.0
|  8>     maxcore 5000
|  9> end
| 10>
| 11> %pal
| 12>   nprocs 6
| 13>   end
| 14> * xyz 0 1
| 15>    C       -3.72656         3.57746        -3.73644
| 16>    C       -3.00956         3.82854        -4.89711
| 17>    C       -2.30609         2.81904        -5.53832
| 18>    C       -2.29151         1.52844        -5.03092
| 19>    C       -3.00377         1.26677        -3.87296
| 20>    C       -3.73036         2.29009        -3.22317
| 21>    C       -4.39660         1.72796        -2.05376
| 22>    C       -5.10835         2.43391        -1.11966
| 23>    C       -5.28778         3.83285        -1.15286
| 24>    N       -5.47202         4.96531        -1.11529
| 25>    C       -5.72907         1.88455         0.02120
| 26>    N       -6.25774         1.50721         0.96857
| 27>    C       -4.17181         0.28957        -2.09505
| 28>    C       -3.13887         0.04725        -3.09292
| 29>    C       -2.25245        -0.99755        -3.09388
| 30>    C       -2.21446        -1.98794        -2.08998
| 31>    N       -2.11661        -2.77889        -1.26375
| 32>    C       -1.21823        -1.15133        -4.03820
| 33>    N       -0.37149        -1.33952        -4.79012
| 34>    C       -4.89101        -0.63669        -1.38684
| 35>    C       -5.06542        -2.00677        -1.66848
| 36>    S       -4.85351        -2.71452        -3.25409
| 37>    C       -5.32289        -4.27999        -2.66935
| 38>    C       -5.64084        -4.23231        -1.32170
| 39>    C       -5.52426        -2.96454        -0.77466
| 40>    C       -5.31640        -5.40143        -3.52876
| 41>    C       -5.05774        -5.43066        -4.88725
| 42>    C       -5.07697        -6.70998        -5.42664
| 43>    C       -5.34105        -7.69698        -4.49294
| 44>    S       -5.59980        -7.00818        -2.91600
| 45>    C       -5.34773        -9.09691        -4.69254
| 46>    S       -5.06252        -9.78042        -6.26622
| 47>    C       -5.09559       -11.40218        -5.62330
| 48>    C       -5.34887       -11.37607        -4.25872
| 49>    C       -5.49295       -10.09602        -3.74405
| 50>    C       -4.81962       -12.49176        -6.47790
| 51>    C       -4.59232       -13.76858        -6.05723
| 52>    C       -4.19768       -14.83363        -6.88928
| 53>    C       -4.08261       -14.94551        -8.25413
| 54>    C       -3.52095       -16.20373        -8.60826
| 55>    C       -3.24929       -16.94491        -7.48319
| 56>    C       -3.71335       -16.13020        -6.30986
| 57>    O       -3.69394       -16.44930        -5.14732
| 58>    C       -2.60336       -18.18066        -7.29547
| 59>    C       -2.01524       -18.91661        -8.28223
| 60>    C       -1.25358       -20.08477        -8.06714
| 61>    S       -0.42733       -20.83168        -9.41154
| 62>    C        0.30759       -22.01347        -8.36912
| 63>    C       -0.10261       -21.83248        -7.05829
| 64>    C       -0.96980       -20.76350        -6.88953
| 65>    C        1.22754       -22.96319        -8.87098
| 66>    C        1.63302       -23.14721       -10.18074
| 67>    C        2.59610       -24.13757       -10.32902
| 68>    C        2.95720       -24.73846        -9.13527
| 69>    S        2.06069       -24.05855        -7.80617
| 70>    C        3.92901       -25.74811        -8.92942
| 71>    S        4.26793       -26.37883        -7.35083
| 72>    C        5.50427       -27.43665        -7.98059
| 73>    C        5.61571       -27.28410        -9.35569
| 74>    C        4.74034       -26.34901        -9.88319
| 75>    C        6.19353       -28.30158        -7.10733
| 76>    C        7.24973       -29.08952        -7.45801
| 77>    C        7.95528       -29.94455        -6.58358
| 78>    C        7.52621       -30.53052        -5.41938
| 79>    C        8.41910       -31.01868        -4.37551
| 80>    C        9.76628       -31.25257        -4.46834
| 81>    C       10.55810       -31.09929        -5.62559
| 82>    N       11.27550       -31.01045        -6.51837
| 83>    C       10.56093       -31.72969        -3.40427
| 84>    N       11.27034       -32.11330        -2.58720
| 85>    C        7.60769       -31.20904        -3.17955
| 86>    C        6.25087       -30.99878        -3.51177
| 87>    C        5.26397       -31.09212        -2.54456
| 88>    C        5.63711       -31.40231        -1.24546
| 89>    C        6.96778       -31.62026        -0.91907
| 90>    C        7.96500       -31.52561        -1.87840
| 91>    C        6.16419       -30.71988        -4.93792
| 92>    C        5.03681       -30.88434        -5.69996
| 93>    C        3.76301       -31.17285        -5.16895
| 94>    N        2.69804       -31.38995        -4.79919
| 95>    C        5.00682       -30.86736        -7.10909
| 96>    N        4.90944       -30.91015        -8.25220
| 97>    H       -4.26863         4.37464        -3.25521
| 98>    H       -3.00331         4.82694        -5.30706
| 99>    H       -1.76196         3.03838        -6.44425
|100>    H       -1.74645         0.74877        -5.53815
|101>    H       -5.46481        -0.28641        -0.53837
|102>    H       -5.94977        -5.10537        -0.77507
|103>    H       -5.72647        -2.73087         0.25531
|104>    H       -4.85585        -4.53795        -5.45261
|105>    H       -4.88997        -6.93450        -6.46166
|106>    H       -5.42435       -12.26739        -3.66347
|107>    H       -5.68241        -9.87622        -2.70790
|108>    H       -4.72443       -12.26038        -7.52994
|109>    H       -4.64086       -14.00339        -5.00218
|110>    H       -4.36668       -14.20012        -8.97541
|111>    H       -3.33595       -16.50429        -9.62405
|112>    H       -2.54012       -18.51245        -6.26762
|113>    H       -2.08255       -18.57281        -9.30527
|114>    H        0.23900       -22.46861        -6.26048
|115>    H       -1.38117       -20.47795        -5.93894
|116>    H        1.23278       -22.56570       -10.99227
|117>    H        3.02639       -24.41174       -11.27456
|118>    H        6.30605       -27.85330        -9.95024
|119>    H        4.68618       -26.10542       -10.92831
|120>    H        5.86215       -28.29169        -6.07616
|121>    H        7.65784       -28.99397        -8.45395
|122>    H        8.99158       -30.10388        -6.85172
|123>    H        4.22782       -30.91664        -2.78416
|124>    H        4.87973       -31.47291        -0.47981
|125>    H        7.23563       -31.86327         0.09781
|126>    H        8.99342       -31.69176        -1.60377
|127> *
|128>
|129>                          ****END OF INPUT****

CARTESIAN COORDINATES (ANGSTROEM)
---------------------------------
  C     -3.726560    3.577460   -3.736440
  C     -3.009560    3.828540   -4.897110
  C     -2.306090    2.819040   -5.538320
  C     -2.291510    1.528440   -5.030920
  C     -3.003770    1.266770   -3.872960
  C     -3.730360    2.290090   -3.223170
  C     -4.396600    1.727960   -2.053760
  C     -5.108350    2.433910   -1.119660
  C     -5.287780    3.832850   -1.152860
  N     -5.472020    4.965310   -1.115290
  C     -5.729070    1.884550    0.021200
  N     -6.257740    1.507210    0.968570
  C     -4.171810    0.289570   -2.095050
  C     -3.138870    0.047250   -3.092920
  C     -2.252450   -0.997550   -3.093880
  C     -2.214460   -1.987940   -2.089980
  N     -2.116610   -2.778890   -1.263750
  C     -1.218230   -1.151330   -4.038200
  N     -0.371490   -1.339520   -4.790120
  C     -4.891010   -0.636690   -1.386840
  C     -5.065420   -2.006770   -1.668480
  S     -4.853510   -2.714520   -3.254090
  C     -5.322890   -4.279990   -2.669350
  C     -5.640840   -4.232310   -1.321700
  C     -5.524260   -2.964540   -0.774660
  C     -5.316400   -5.401430   -3.528760
  C     -5.057740   -5.430660   -4.887250
  C     -5.076970   -6.709980   -5.426640
  C     -5.341050   -7.696980   -4.492940
  S     -5.599800   -7.008180   -2.916000
  C     -5.347730   -9.096910   -4.692540
  S     -5.062520   -9.780420   -6.266220
  C     -5.095590  -11.402180   -5.623300
  C     -5.348870  -11.376070   -4.258720
  C     -5.492950  -10.096020   -3.744050
  C     -4.819620  -12.491760   -6.477900
  C     -4.592320  -13.768580   -6.057230
  C     -4.197680  -14.833630   -6.889280
  C     -4.082610  -14.945510   -8.254130
  C     -3.520950  -16.203730   -8.608260
  C     -3.249290  -16.944910   -7.483190
  C     -3.713350  -16.130200   -6.309860
  O     -3.693940  -16.449300   -5.147320
  C     -2.603360  -18.180660   -7.295470
  C     -2.015240  -18.916610   -8.282230
  C     -1.253580  -20.084770   -8.067140
  S     -0.427330  -20.831680   -9.411540
  C      0.307590  -22.013470   -8.369120
  C     -0.102610  -21.832480   -7.058290
  C     -0.969800  -20.763500   -6.889530
  C      1.227540  -22.963190   -8.870980
  C      1.633020  -23.147210  -10.180740
  C      2.596100  -24.137570  -10.329020
  C      2.957200  -24.738460   -9.135270
  S      2.060690  -24.058550   -7.806170
  C      3.929010  -25.748110   -8.929420
  S      4.267930  -26.378830   -7.350830
  C      5.504270  -27.436650   -7.980590
  C      5.615710  -27.284100   -9.355690
  C      4.740340  -26.349010   -9.883190
  C      6.193530  -28.301580   -7.107330
  C      7.249730  -29.089520   -7.458010
  C      7.955280  -29.944550   -6.583580
  C      7.526210  -30.530520   -5.419380
  C      8.419100  -31.018680   -4.375510
  C      9.766280  -31.252570   -4.468340
  C     10.558100  -31.099290   -5.625590
  N     11.275500  -31.010450   -6.518370
  C     10.560930  -31.729690   -3.404270
  N     11.270340  -32.113300   -2.587200
  C      7.607690  -31.209040   -3.179550
  C      6.250870  -30.998780   -3.511770
  C      5.263970  -31.092120   -2.544560
  C      5.637110  -31.402310   -1.245460
  C      6.967780  -31.620260   -0.919070
  C      7.965000  -31.525610   -1.878400
  C      6.164190  -30.719880   -4.937920
  C      5.036810  -30.884340   -5.699960
  C      3.763010  -31.172850   -5.168950
  N      2.698040  -31.389950   -4.799190
  C      5.006820  -30.867360   -7.109090
  N      4.909440  -30.910150   -8.252200
  H     -4.268630    4.374640   -3.255210
  H     -3.003310    4.826940   -5.307060
  H     -1.761960    3.038380   -6.444250
  H     -1.746450    0.748770   -5.538150
  H     -5.464810   -0.286410   -0.538370
  H     -5.949770   -5.105370   -0.775070
  H     -5.726470   -2.730870    0.255310
  H     -4.855850   -4.537950   -5.452610
  H     -4.889970   -6.934500   -6.461660
  H     -5.424350  -12.267390   -3.663470
  H     -5.682410   -9.876220   -2.707900
  H     -4.724430  -12.260380   -7.529940
  H     -4.640860  -14.003390   -5.002180
  H     -4.366680  -14.200120   -8.975410
  H     -3.335950  -16.504290   -9.624050
  H     -2.540120  -18.512450   -6.267620
  H     -2.082550  -18.572810   -9.305270
  H      0.239000  -22.468610   -6.260480
  H     -1.381170  -20.477950   -5.938940
  H      1.232780  -22.565700  -10.992270
  H      3.026390  -24.411740  -11.274560
  H      6.306050  -27.853300   -9.950240
  H      4.686180  -26.105420  -10.928310
  H      5.862150  -28.291690   -6.076160
  H      7.657840  -28.993970   -8.453950
  H      8.991580  -30.103880   -6.851720
  H      4.227820  -30.916640   -2.784160
  H      4.879730  -31.472910   -0.479810
  H      7.235630  -31.863270    0.097810
  H      8.993420  -31.691760   -1.603770

 Total Charge           Charge          ....    0
 Multiplicity           Mult            ....    1
 Number of Electrons    NEL             ....  592
 Basis Dimension        Dim             .... 1322

ORBITAL ENERGIES
----------------

  NO   OCC          E(Eh)            E(eV)
   0   2.0000     -88.976164     -2421.1645
   1   2.0000     -88.975551     -2421.1478
   2   2.0000     -88.974391     -2421.1163
   3   2.0000     -88.972554     -2421.0663
   4   2.0000     -88.967930     -2420.9405
   5   2.0000     -88.967394     -2420.9259
   6   2.0000     -19.239654      -523.5376
   7   2.0000     -14.421097      -392.4180
   8   2.0000     -14.420120      -392.3914
   9   2.0000     -14.418976      -392.3603
  10   2.0000     -14.418078      -392.3359
  11   2.0000     -14.417975      -392.3330
  12   2.0000     -14.417199      -392.3119
  13   2.0000     -14.416288      -392.2871
  14   2.0000     -14.416012      -392.2796
  15   2.0000     -10.370325      -282.1909
  16   2.0000     -10.348898      -281.6078
  17   2.0000     -10.347068      -281.5580
  18   2.0000     -10.346883      -281.5530
  19   2.0000     -10.346440      -281.5410
  20   2.0000     -10.345765      -281.5226
  21   2.0000     -10.345151      -281.5059
  22   2.0000     -10.344673      -281.4928
  23   2.0000     -10.344620      -281.4914
  24   2.0000     -10.336446      -281.2690
  25   2.0000     -10.331694      -281.1397
  26   2.0000     -10.328378      -281.0494
  27   2.0000     -10.326846      -281.0078
  28   2.0000     -10.323591      -280.9192
  29   2.0000     -10.323492      -280.9165
  30   2.0000     -10.322324      -280.8847
  31   2.0000     -10.322139      -280.8797
  32   2.0000     -10.321521      -280.8629
  33   2.0000     -10.321405      -280.8597
  34   2.0000     -10.321284      -280.8564
  35   2.0000     -10.320932      -280.8468
  36   2.0000     -10.320847      -280.8445
  37   2.0000     -10.320166      -280.8260
  38   2.0000     -10.319615      -280.8110
  39   2.0000     -10.319038      -280.7953
  40   2.0000     -10.318605      -280.7835
  41   2.0000     -10.318376      -280.7773
  42   2.0000     -10.318297      -280.7751
  43   2.0000     -10.318093      -280.7696
  44   2.0000     -10.317234      -280.7462
  45   2.0000     -10.314601      -280.6746
  46   2.0000     -10.314422      -280.6697
  47   2.0000     -10.313269      -280.6383
  48   2.0000     -10.313012      -280.6313
  49   2.0000     -10.311345      -280.5860
  50   2.0000     -10.311001      -280.5766
  51   2.0000     -10.310489      -280.5627
  52   2.0000     -10.310164      -280.5538
  53   2.0000     -10.304926      -280.4113
  54   2.0000     -10.299790      -280.2715
  55   2.0000     -10.299423      -280.2615
  56   2.0000     -10.299160      -280.2544
  57   2.0000     -10.298926      -280.2480
  58   2.0000     -10.298514      -280.2368
  59   2.0000     -10.298088      -280.2252
  60   2.0000     -10.297623      -280.2126
  61   2.0000     -10.297358      -280.2054
  62   2.0000     -10.297292      -280.2036
  63   2.0000     -10.297237      -280.2021
  64   2.0000     -10.296588      -280.1844
  65   2.0000     -10.296236      -280.1748
  66   2.0000     -10.294757      -280.1346
  67   2.0000     -10.294735      -280.1340
  68   2.0000     -10.294172      -280.1187
  69   2.0000     -10.293333      -280.0958
  70   2.0000     -10.292952      -280.0855
  71   2.0000     -10.292609      -280.0761
  72   2.0000     -10.290596      -280.0214
  73   2.0000     -10.289405      -279.9889
  74   2.0000     -10.289048      -279.9792
  75   2.0000     -10.287824      -279.9459
  76   2.0000     -10.287518      -279.9376
  77   2.0000     -10.286774      -279.9174
  78   2.0000     -10.286450      -279.9085
  79   2.0000     -10.285898      -279.8935
  80   2.0000     -10.284823      -279.8643
  81   2.0000     -10.284615      -279.8586
  82   2.0000      -8.071449      -219.6353
  83   2.0000      -8.071156      -219.6273
  84   2.0000      -8.069820      -219.5910
  85   2.0000      -8.068175      -219.5462
  86   2.0000      -8.063677      -219.4238
  87   2.0000      -8.063052      -219.4068
  88   2.0000      -6.040624      -164.3737
  89   2.0000      -6.040585      -164.3727
  90   2.0000      -6.039203      -164.3351
  91   2.0000      -6.037547      -164.2900
  92   2.0000      -6.036602      -164.2643
  93   2.0000      -6.036455      -164.2603
  94   2.0000      -6.035116      -164.2239
  95   2.0000      -6.033622      -164.1832
  96   2.0000      -6.033430      -164.1780
  97   2.0000      -6.033010      -164.1666
  98   2.0000      -6.032925      -164.1642
  99   2.0000      -6.032311      -164.1475
 100   2.0000      -6.031703      -164.1310
 101   2.0000      -6.030094      -164.0872
 102   2.0000      -6.028924      -164.0554
 103   2.0000      -6.028307      -164.0386
 104   2.0000      -6.025727      -163.9684
 105   2.0000      -6.025111      -163.9516
 106   2.0000      -1.147911       -31.2362
 107   2.0000      -1.035276       -28.1713
 108   2.0000      -1.033016       -28.1098
 109   2.0000      -1.017711       -27.6933
 110   2.0000      -1.015609       -27.6361
 111   2.0000      -1.015023       -27.6202
 112   2.0000      -1.014670       -27.6106
 113   2.0000      -1.005589       -27.3635
 114   2.0000      -1.004845       -27.3432
 115   2.0000      -1.002746       -27.2861
 116   2.0000      -1.000883       -27.2354
 117   2.0000      -0.997299       -27.1379
 118   2.0000      -0.996269       -27.1099
 119   2.0000      -0.995673       -27.0936
 120   2.0000      -0.995349       -27.0848
 121   2.0000      -0.984104       -26.7788
 122   2.0000      -0.982945       -26.7473
 123   2.0000      -0.974395       -26.5146
 124   2.0000      -0.958395       -26.0792
 125   2.0000      -0.957289       -26.0492
 126   2.0000      -0.938192       -25.5295
 127   2.0000      -0.937182       -25.5020
 128   2.0000      -0.927520       -25.2391
 129   2.0000      -0.916995       -24.9527
 130   2.0000      -0.909798       -24.7569
 131   2.0000      -0.901010       -24.5177
 132   2.0000      -0.892551       -24.2876
 133   2.0000      -0.891759       -24.2660
 134   2.0000      -0.885898       -24.1065
 135   2.0000      -0.875238       -23.8164
 136   2.0000      -0.864971       -23.5371
 137   2.0000      -0.864641       -23.5281
 138   2.0000      -0.863721       -23.5030
 139   2.0000      -0.859769       -23.3955
 140   2.0000      -0.857562       -23.3355
 141   2.0000      -0.850570       -23.1452
 142   2.0000      -0.846517       -23.0349
 143   2.0000      -0.842939       -22.9375
 144   2.0000      -0.837426       -22.7875
 145   2.0000      -0.836679       -22.7672
 146   2.0000      -0.827907       -22.5285
 147   2.0000      -0.813966       -22.1491
 148   2.0000      -0.804214       -21.8838
 149   2.0000      -0.789555       -21.4849
 150   2.0000      -0.789399       -21.4806
 151   2.0000      -0.786370       -21.3982
 152   2.0000      -0.780605       -21.2413
 153   2.0000      -0.766879       -20.8678
 154   2.0000      -0.762525       -20.7494
 155   2.0000      -0.733096       -19.9486
 156   2.0000      -0.726024       -19.7561
 157   2.0000      -0.720529       -19.6066
 158   2.0000      -0.715496       -19.4696
 159   2.0000      -0.714128       -19.4324
 160   2.0000      -0.713658       -19.4196
 161   2.0000      -0.712194       -19.3798
 162   2.0000      -0.711390       -19.3579
 163   2.0000      -0.704330       -19.1658
 164   2.0000      -0.696978       -18.9657
 165   2.0000      -0.684851       -18.6358
 166   2.0000      -0.675579       -18.3834
 167   2.0000      -0.672838       -18.3088
 168   2.0000      -0.665924       -18.1207
 169   2.0000      -0.663505       -18.0549
 170   2.0000      -0.663444       -18.0532
 171   2.0000      -0.660710       -17.9788
 172   2.0000      -0.655018       -17.8239
 173   2.0000      -0.650158       -17.6917
 174   2.0000      -0.646611       -17.5952
 175   2.0000      -0.637386       -17.3442
 176   2.0000      -0.633329       -17.2338
 177   2.0000      -0.630794       -17.1648
 178   2.0000      -0.630283       -17.1509
 179   2.0000      -0.628674       -17.1071
 180   2.0000      -0.625235       -17.0135
 181   2.0000      -0.623790       -16.9742
 182   2.0000      -0.617061       -16.7911
 183   2.0000      -0.613035       -16.6815
 184   2.0000      -0.612325       -16.6622
 185   2.0000      -0.594760       -16.1842
 186   2.0000      -0.589527       -16.0418
 187   2.0000      -0.588772       -16.0213
 188   2.0000      -0.587485       -15.9863
 189   2.0000      -0.584439       -15.9034
 190   2.0000      -0.583530       -15.8787
 191   2.0000      -0.580210       -15.7883
 192   2.0000      -0.574314       -15.6279
 193   2.0000      -0.571030       -15.5385
 194   2.0000      -0.553023       -15.0485
 195   2.0000      -0.547633       -14.9019
 196   2.0000      -0.546602       -14.8738
 197   2.0000      -0.545730       -14.8501
 198   2.0000      -0.540857       -14.7175
 199   2.0000      -0.537760       -14.6332
 200   2.0000      -0.537365       -14.6224
 201   2.0000      -0.535988       -14.5850
 202   2.0000      -0.534386       -14.5414
 203   2.0000      -0.533452       -14.5160
 204   2.0000      -0.532824       -14.4989
 205   2.0000      -0.527642       -14.3579
 206   2.0000      -0.523012       -14.2319
 207   2.0000      -0.521726       -14.1969
 208   2.0000      -0.521198       -14.1825
 209   2.0000      -0.516735       -14.0611
 210   2.0000      -0.515980       -14.0405
 211   2.0000      -0.515665       -14.0320
 212   2.0000      -0.509760       -13.8713
 213   2.0000      -0.508570       -13.8389
 214   2.0000      -0.507149       -13.8002
 215   2.0000      -0.506485       -13.7822
 216   2.0000      -0.505769       -13.7627
 217   2.0000      -0.500570       -13.6212
 218   2.0000      -0.499691       -13.5973
 219   2.0000      -0.499270       -13.5858
 220   2.0000      -0.498074       -13.5533
 221   2.0000      -0.495828       -13.4922
 222   2.0000      -0.494994       -13.4695
 223   2.0000      -0.492407       -13.3991
 224   2.0000      -0.487854       -13.2752
 225   2.0000      -0.484815       -13.1925
 226   2.0000      -0.483087       -13.1455
 227   2.0000      -0.482173       -13.1206
 228   2.0000      -0.479208       -13.0399
 229   2.0000      -0.477276       -12.9873
 230   2.0000      -0.475009       -12.9257
 231   2.0000      -0.472784       -12.8651
 232   2.0000      -0.472219       -12.8497
 233   2.0000      -0.464778       -12.6473
 234   2.0000      -0.464027       -12.6268
 235   2.0000      -0.462937       -12.5972
 236   2.0000      -0.461129       -12.5480
 237   2.0000      -0.457061       -12.4373
 238   2.0000      -0.456515       -12.4224
 239   2.0000      -0.454790       -12.3755
 240   2.0000      -0.452574       -12.3152
 241   2.0000      -0.452538       -12.3142
 242   2.0000      -0.451718       -12.2919
 243   2.0000      -0.450489       -12.2584
 244   2.0000      -0.450252       -12.2520
 245   2.0000      -0.448864       -12.2142
 246   2.0000      -0.448461       -12.2032
 247   2.0000      -0.446213       -12.1421
 248   2.0000      -0.444996       -12.1090
 249   2.0000      -0.444734       -12.1018
 250   2.0000      -0.443944       -12.0803
 251   2.0000      -0.443075       -12.0567
 252   2.0000      -0.440718       -11.9926
 253   2.0000      -0.439318       -11.9544
 254   2.0000      -0.434539       -11.8244
 255   2.0000      -0.431050       -11.7295
 256   2.0000      -0.430700       -11.7200
 257   2.0000      -0.429930       -11.6990
 258   2.0000      -0.429486       -11.6869
 259   2.0000      -0.429378       -11.6840
 260   2.0000      -0.428284       -11.6542
 261   2.0000      -0.427686       -11.6379
 262   2.0000      -0.426847       -11.6151
 263   2.0000      -0.423924       -11.5356
 264   2.0000      -0.423350       -11.5199
 265   2.0000      -0.422625       -11.5002
 266   2.0000      -0.419503       -11.4153
 267   2.0000      -0.418271       -11.3817
 268   2.0000      -0.413313       -11.2468
 269   2.0000      -0.411916       -11.2088
 270   2.0000      -0.410279       -11.1643
 271   2.0000      -0.408313       -11.1108
 272   2.0000      -0.403031       -10.9670
 273   2.0000      -0.392707       -10.6861
 274   2.0000      -0.383422       -10.4334
 275   2.0000      -0.382935       -10.4202
 276   2.0000      -0.380680       -10.3588
 277   2.0000      -0.367818       -10.0088
 278   2.0000      -0.353085        -9.6079
 279   2.0000      -0.348019        -9.4701
 280   2.0000      -0.346729        -9.4350
 281   2.0000      -0.346206        -9.4208
 282   2.0000      -0.342237        -9.3127
 283   2.0000      -0.339730        -9.2445
 284   2.0000      -0.336823        -9.1654
 285   2.0000      -0.335102        -9.1186
 286   2.0000      -0.333166        -9.0659
 287   2.0000      -0.332332        -9.0432
 288   2.0000      -0.331936        -9.0324
 289   2.0000      -0.321707        -8.7541
 290   2.0000      -0.311560        -8.4780
 291   2.0000      -0.300629        -8.1805
 292   2.0000      -0.286006        -7.7826
 293   2.0000      -0.266938        -7.2637
 294   2.0000      -0.249028        -6.7764
 295   2.0000      -0.225548        -6.1375
 296   0.0000      -0.110608        -3.0098
 297   0.0000      -0.103722        -2.8224
 298   0.0000      -0.096017        -2.6128
 299   0.0000      -0.085908        -2.3377
 300   0.0000      -0.085465        -2.3256

MULLIKEN ATOMIC CHARGES
-----------------------
   0 C :   -0.032215
   1 C :    0.045410
   2 C :    0.048208
   3 C :   -0.034450
   4 C :    0.006583
   5 C :    0.009669
   6 C :    0.302763
   7 C :   -0.348275
   8 C :   -0.187669
   9 N :    0.155133
  10 C :   -0.180740
  11 N :    0.151256
  12 C :   -0.078060
  13 C :    0.212114
  14 C :   -0.325405
  15 C :   -0.200066
  16 N :    0.181851
  17 C :   -0.180065
  18 N :    0.160177
  19 C :    0.060389
  20 C :   -0.127782
  21 S :    0.142902
  22 C :   -0.017890
  23 C :   -0.001368
  24 C :    0.085871
  25 C :   -0.046919
  26 C :    0.009268
  27 C :   -0.010583
  28 C :   -0.021772
  29 S :    0.138462
  30 C :   -0.056237
  31 S :    0.127311
  32 C :   -0.070430
  33 C :    0.017703
  34 C :   -0.000187
  35 C :    0.062692
  36 C :    0.010879
  37 C :   -0.001370
  38 C :   -0.011743
  39 C :   -0.019912
  40 C :    0.006589
  41 C :    0.128633
  42 O :   -0.120255
  43 C :    0.007875
  44 C :    0.065361
  45 C :   -0.072305
  46 S :    0.126101
  47 C :   -0.052356
  48 C :   -0.003279
  49 C :    0.021286
  50 C :   -0.025132
  51 C :   -0.010607
  52 C :    0.012607
  53 C :   -0.040606
  54 S :    0.132617
  55 C :   -0.034742
  56 S :    0.145686
  57 C :   -0.106593
  58 C :    0.054869
  59 C :   -0.002053
  60 C :    0.104598
  61 C :   -0.021307
  62 C :    0.038585
  63 C :   -0.068485
  64 C :    0.301650
  65 C :   -0.351592
  66 C :   -0.181616
  67 N :    0.154125
  68 C :   -0.188497
  69 N :    0.155378
  70 C :    0.016847
  71 C :   -0.003442
  72 C :   -0.032758
  73 C :    0.044688
  74 C :    0.046968
  75 C :   -0.035166
  76 C :    0.230281
  77 C :   -0.343997
  78 C :   -0.183596
  79 N :    0.161779
  80 C :   -0.199143
  81 N :    0.179634
  82 H :    0.005113
  83 H :    0.002842
  84 H :    0.003124
  85 H :    0.005803
  86 H :    0.022396
  87 H :   -0.001928
  88 H :    0.009307
  89 H :   -0.001209
  90 H :   -0.003758
  91 H :   -0.006032
  92 H :   -0.005710
  93 H :   -0.021693
  94 H :   -0.005845
  95 H :   -0.008557
  96 H :   -0.009512
  97 H :   -0.006516
  98 H :   -0.021959
  99 H :   -0.007251
 100 H :   -0.007657
 101 H :   -0.007941
 102 H :   -0.012988
 103 H :    0.000129
 104 H :   -0.011543
 105 H :    0.010902
 106 H :    0.004477
 107 H :    0.022626
 108 H :    0.005597
 109 H :    0.004888
 110 H :    0.003192
 111 H :    0.005567
Sum of atomic charges:   -0.0000000

LOEWDIN ATOMIC CHARGES
----------------------
   0 C :    0.005098
   1 C :   -0.000165
   2 C :    0.003501
   3 C :   -0.000576
   4 C :   -0.009590
   5 C :   -0.013768
   6 C :    0.079722
   7 C :   -0.138006
   8 C :   -0.019143
   9 N :   -0.049970
  10 C :   -0.020444
  11 N :   -0.048982
  12 C :   -0.072591
  13 C :    0.058513
  14 C :   -0.137970
  15 C :   -0.034897
  16 N :   -0.043043
  17 C :   -0.019705
  18 N :   -0.048147
  19 C :    0.047208
  20 C :   -0.188641
  21 S :    0.463832
  22 C :   -0.138953
  23 C :   -0.064691
  24 C :    0.012100
  25 C :   -0.194939
  26 C :   -0.036636
  27 C :   -0.061335
  28 C :   -0.164611
  29 S :    0.448355
  30 C :   -0.190365
  31 S :    0.438470
  32 C :   -0.159795
  33 C :   -0.048053
  34 C :   -0.048649
  35 C :   -0.033247
  36 C :   -0.011253
  37 C :   -0.073016
  38 C :    0.007809
  39 C :    0.002721
  40 C :   -0.068575
  41 C :    0.110018
  42 O :   -0.096218
  43 C :   -0.014865
  44 C :   -0.029308
  45 C :   -0.163026
  46 S :    0.436757
  47 C :   -0.187177
  48 C :   -0.052140
  49 C :   -0.045336
  50 C :   -0.170854
  51 C :   -0.061073
  52 C :   -0.037106
  53 C :   -0.192657
  54 S :    0.436825
  55 C :   -0.162097
  56 S :    0.444427
  57 C :   -0.183093
  58 C :   -0.011972
  59 C :   -0.051337
  60 C :    0.025262
  61 C :   -0.045268
  62 C :    0.060345
  63 C :   -0.067502
  64 C :    0.078194
  65 C :   -0.137297
  66 C :   -0.022302
  67 N :   -0.047603
  68 C :   -0.018830
  69 N :   -0.050565
  70 C :   -0.012920
  71 C :   -0.011789
  72 C :    0.000141
  73 C :    0.002604
  74 C :    0.000932
  75 C :    0.004235
  76 C :    0.064651
  77 C :   -0.138174
  78 C :   -0.021398
  79 N :   -0.050497
  80 C :   -0.017950
  81 N :   -0.041305
  82 H :    0.041406
  83 H :    0.037194
  84 H :    0.037068
  85 H :    0.040449
  86 H :    0.052133
  87 H :    0.031598
  88 H :    0.042914
  89 H :    0.031283
  90 H :    0.029811
  91 H :    0.033486
  92 H :    0.029248
  93 H :    0.025765
  94 H :    0.032826
  95 H :    0.027608
  96 H :    0.027078
  97 H :    0.032459
  98 H :    0.025934
  99 H :    0.028890
 100 H :    0.033280
 101 H :    0.029036
 102 H :    0.032604
 103 H :    0.037780
 104 H :    0.033145
 105 H :    0.034241
 106 H :    0.037367
 107 H :    0.048561
 108 H :    0.040498
 109 H :    0.037380
 110 H :    0.037248
 111 H :    0.041405

  Mayer bond orders larger than 0.100000
B(  0-C ,  1-C ) :   1.3693 B(  0-C ,  5-C ) :   1.3843 B(  0-C , 82-H ) :   0.9842
B(  1-C ,  2-C ) :   1.3773 B(  1-C , 83-H ) :   0.9865 B(  2-C ,  3-C ) :   1.3641
B(  2-C , 84-H ) :   0.9870 B(  3-C ,  4-C ) :   1.3817 B(  3-C , 85-H ) :   0.9875
B(  4-C ,  5-C ) :   1.3137 B(  4-C , 13-C ) :   1.0137 B(  5-C ,  6-C ) :   0.9975
B(  6-C ,  7-C ) :   1.6307 B(  6-C , 12-C ) :   1.0709 B(  7-C ,  8-C ) :   1.1471
B(  7-C , 10-C ) :   1.1386 B(  8-C ,  9-N ) :   2.9756 B( 10-C , 11-N ) :   2.9646
B( 12-C , 13-C ) :   1.0272 B( 12-C , 19-C ) :   1.5530 B( 13-C , 14-C ) :   1.6461
B( 14-C , 15-C ) :   1.1476 B( 14-C , 17-C ) :   1.1448 B( 15-C , 16-N ) :   3.0268
B( 17-C , 18-N ) :   2.9946 B( 19-C , 20-C ) :   1.2042 B( 19-C , 86-H ) :   0.9341
B( 20-C , 21-S ) :   1.0889 B( 20-C , 24-C ) :   1.4008 B( 21-S , 22-C ) :   1.1525
B( 22-C , 23-C ) :   1.4358 B( 22-C , 25-C ) :   1.1824 B( 23-C , 24-C ) :   1.3171
B( 23-C , 87-H ) :   0.9920 B( 24-C , 88-H ) :   0.9978 B( 25-C , 26-C ) :   1.4668
B( 25-C , 29-S ) :   1.1087 B( 26-C , 27-C ) :   1.2990 B( 26-C , 89-H ) :   0.9919
B( 27-C , 28-C ) :   1.4701 B( 27-C , 90-H ) :   0.9924 B( 28-C , 29-S ) :   1.1375
B( 28-C , 30-C ) :   1.1696 B( 30-C , 31-S ) :   1.1271 B( 30-C , 34-C ) :   1.4610
B( 31-S , 32-C ) :   1.1156 B( 32-C , 33-C ) :   1.4645 B( 32-C , 35-C ) :   1.1415
B( 33-C , 34-C ) :   1.3055 B( 33-C , 91-H ) :   0.9935 B( 34-C , 92-H ) :   0.9918
B( 35-C , 36-C ) :   1.6258 B( 35-C , 93-H ) :   0.9636 B( 36-C , 37-C ) :   1.1713
B( 36-C , 94-H ) :   0.9684 B( 37-C , 38-C ) :   1.5851 B( 37-C , 41-C ) :   0.9201
B( 38-C , 39-C ) :   1.0752 B( 38-C , 95-H ) :   1.0047 B( 39-C , 40-C ) :   1.5832
B( 39-C , 96-H ) :   1.0056 B( 40-C , 41-C ) :   0.9169 B( 40-C , 43-C ) :   1.1761
B( 41-C , 42-O ) :   2.2291 B( 43-C , 44-C ) :   1.6156 B( 43-C , 97-H ) :   0.9683
B( 44-C , 45-C ) :   1.1455 B( 44-C , 98-H ) :   0.9644 B( 45-C , 46-S ) :   1.1122
B( 45-C , 49-C ) :   1.4642 B( 46-S , 47-C ) :   1.1287 B( 47-C , 48-C ) :   1.4614
B( 47-C , 50-C ) :   1.1719 B( 48-C , 49-C ) :   1.3065 B( 48-C , 99-H ) :   0.9914
B( 49-C ,100-H ) :   0.9929 B( 50-C , 51-C ) :   1.4751 B( 50-C , 53-C ) :   0.1043
B( 50-C , 54-S ) :   1.1320 B( 51-C , 52-C ) :   1.2888 B( 51-C ,101-H ) :   0.9925
B( 52-C , 53-C ) :   1.4979 B( 52-C ,102-H ) :   0.9956 B( 53-C , 54-S ) :   1.1085
B( 53-C , 55-C ) :   1.1352 B( 55-C , 56-S ) :   1.1542 B( 55-C , 59-C ) :   1.4553
B( 56-S , 57-C ) :   1.0943 B( 57-C , 58-C ) :   1.4381 B( 57-C , 60-C ) :   1.2011
B( 58-C , 59-C ) :   1.3315 B( 58-C ,103-H ) :   0.9894 B( 59-C ,104-H ) :   0.9950
B( 60-C , 61-C ) :   1.5967 B( 60-C ,105-H ) :   0.9508 B( 61-C , 62-C ) :   1.2321
B( 61-C ,106-H ) :   0.9547 B( 62-C , 63-C ) :   1.5595 B( 62-C ,107-H ) :   0.9222
B( 63-C , 64-C ) :   1.0722 B( 63-C , 76-C ) :   1.0287 B( 64-C , 65-C ) :   1.6233
B( 64-C , 70-C ) :   0.9935 B( 65-C , 66-C ) :   1.1373 B( 65-C , 68-C ) :   1.1513
B( 66-C , 67-N ) :   2.9681 B( 68-C , 69-N ) :   2.9728 B( 70-C , 71-C ) :   1.3148
B( 70-C , 75-C ) :   1.3811 B( 71-C , 72-C ) :   1.3817 B( 71-C , 76-C ) :   1.0046
B( 72-C , 73-C ) :   1.3650 B( 72-C ,108-H ) :   0.9872 B( 73-C , 74-C ) :   1.3768
B( 73-C ,109-H ) :   0.9874 B( 74-C , 75-C ) :   1.3700 B( 74-C ,110-H ) :   0.9864
B( 75-C ,111-H ) :   0.9839 B( 76-C , 77-C ) :   1.6396 B( 77-C , 78-C ) :   1.1395
B( 77-C , 80-C ) :   1.1592 B( 78-C , 79-N ) :   2.9920 B( 80-C , 81-N ) :   3.0059

-----------------------------------------------------------------------------
         ABSORPTION SPECTRUM VIA TRANSITION ELECTRIC DIPOLE MOMENTS
-----------------------------------------------------------------------------
State   Energy  Wavelength   fosc         T2         TX        TY        TZ
        (cm-1)    (nm)                  (au**2)     (au)      (au)      (au)
-----------------------------------------------------------------------------
   0   10683.6    936.0   1.689748485  52.06894   2.61955  -6.64724  -1.01050
   1   14919.3    670.3   0.576780496  12.72736   2.30616  -1.72572   2.10497
   2   15781.7    633.6   0.693513110  14.46690  -0.85436  -3.67786  -0.45863
   3   18636.9    536.6   0.036561663   0.64584   0.59872   0.15685   0.51261
   4   19914.0    502.2   0.220294919   3.64184  -1.83497   0.51177  -0.11329
   5   20393.6    490.3   0.124369730   2.00769   0.52233  -1.06543  -0.77441
   6   20840.8    479.8   0.145334811   2.29579  -0.12485   1.30127  -0.76609
   7   21885.6    456.9   0.024885782   0.37434  -0.25212  -0.48543  -0.27412
   8   23894.5    418.5   0.322299243   4.44055   1.14856  -1.60866  -0.73045
   9   24822.1    402.9   0.001026472   0.01361  -0.11484   0.01868   0.00876
  10   25181.9    397.1   0.301946208   3.94745   1.30824  -1.44657  -0.37868
  11   25537.6    391.6   0.174383032   2.24802   1.23058  -0.84751   0.12415
  12   25693.6    389.2   0.099383111   1.27340   0.14307   1.00110   0.50073
  13   25746.2    388.4   0.076610374   0.97960   0.37656  -0.77009  -0.49474
  14   25889.9    386.3   0.127440678   1.62052  -0.17706  -1.19748  -0.39398
  15   25963.6    385.2   0.193263540   2.45054   0.55259  -1.21856  -0.81258
  16   27991.4    357.3   0.063256558   0.74397  -0.23967   0.14022  -0.81662
  17   28476.2    351.2   0.138017166   1.59561   0.24441   1.04977  -0.65869
  18   28641.7    349.1   0.015543099   0.17865  -0.27946  -0.06655  -0.31005
  19   30114.4    332.1   0.204203763   2.23236   0.77699  -1.13260  -0.58811
  20   30282.9    330.2   0.167312605   1.81889  -1.33142   0.08213  -0.19866
  21   30871.7    323.9   0.016032507   0.17097  -0.37187   0.02835  -0.17854
  22   31454.6    317.9   0.014739324   0.15427   0.10756   0.21432  -0.31107
  23   31623.0    316.2   0.025669757   0.26724   0.12869  -0.18805  -0.46402
  24   32023.4    312.3   0.005304792   0.05454   0.20574   0.04883   0.09910
  25   32320.8    309.4   0.028087515   0.28609   0.43049  -0.29545   0.11611
  26   32369.5    308.9   0.053356780   0.54266   0.37117  -0.54305  -0.33165
  27   32491.1    307.8   0.039401551   0.39923  -0.21352   0.57989   0.13178
  28   32722.1    305.6   0.115149684   1.15850   0.49072  -0.95189  -0.10771
  29   33284.2    300.4   0.615623716   6.08910   2.30762  -0.44995   0.74937
  30   33342.7    299.9   0.129379209   1.27744   0.34646   1.02192   0.33628
  31   33898.1    295.0   0.146605698   1.42381   0.91959  -0.62256  -0.43654
  32   34252.0    292.0   0.004582200   0.04404   0.14464  -0.10028  -0.11429
  33   34312.5    291.4   0.190857222   1.83118   0.51356  -1.15331  -0.48715
  34   34593.4    289.1   0.120815246   1.14975   0.26235  -0.15664  -1.02781
  35   34766.5    287.6   0.339064039   3.21067   0.80847   0.43377  -1.53912
  36   35025.8    285.5   0.016756045   0.15749  -0.12778  -0.14113   0.34821
  37   35332.6    283.0   0.034944141   0.32559   0.08246  -0.38831   0.40988
  38   35693.5    280.2   0.022716329   0.20952  -0.28688   0.32248   0.15240
  39   35775.8    279.5   0.016065746   0.14784  -0.18800   0.11116  -0.31645
  40   35956.7    278.1   0.070644712   0.64681  -0.64723   0.39595   0.26669
  41   36037.4    277.5   0.042468941   0.38797   0.07379  -0.06715  -0.61483
  42   36355.2    275.1   0.011508344   0.10421   0.23861  -0.15586   0.15162
  43   36679.3    272.6   0.174778461   1.56871  -0.33549  -0.22088   1.18632
  44   37000.0    270.3   0.255166675   2.27038  -0.41409  -0.85927   1.16643
  45   37169.6    269.0   0.046853288   0.41498   0.44693  -0.33452  -0.32146
  46   37499.3    266.7   0.120294239   1.05608   0.14798   0.48421  -0.89427
  47   37907.4    263.8   0.078319097   0.68017   0.02886   0.22207  -0.79374
  48   38071.3    262.7   0.024378196   0.21080  -0.05670  -0.43014  -0.15022
  49   38908.2    257.0   0.011231817   0.09504  -0.21462   0.14318  -0.16873
  50   39061.9    256.0   0.018338713   0.15456  -0.16362  -0.04676   0.35440
  51   39280.2    254.6   0.027211727   0.22806   0.24804  -0.20596   0.35231
  52   39292.2    254.5   0.064199267   0.53790   0.12670   0.59363  -0.41165
  53   39480.6    253.3   0.032727939   0.27290   0.14459  -0.48355  -0.13484
  54   39601.1    252.5   0.012329965   0.10250   0.00743   0.16681   0.27317
  55   39754.0    251.5   0.006610744   0.05475   0.10817  -0.04067  -0.20345
  56   39870.2    250.8   0.020583570   0.16996   0.22445  -0.02422  -0.34496
  57   40199.4    248.8   0.065989710   0.54042  -0.24525  -0.28745   0.63059

FINAL SINGLE POINT ENERGY     -5468.594691206516

DIPOLE MOMENT
-------------
                                X             Y             Z
Electronic contribution:      2.00777      14.88722      10.21573
Nuclear contribution   :     -4.30753     -14.07542     -13.01527
                        -----------------------------------------
Total Dipole Moment    :     -2.29976       0.81180      -2.79954
                        -----------------------------------------
Magnitude (a.u.)       :      3.71286
Magnitude (Debye)      :      9.43734

Rotational constants in cm-1:     0.001222     0.000081     0.000079
Rotational constants in MHz :    36.628406     2.426154     2.369301

                             ****ORCA TERMINATED NORMALLY****
TOTAL RUN TIME: 0 days 0 hours 12 minutes 59 seconds 784 msec
