                         Program Version 4.2.0 -  RELEASE  -
|  1> # ORCA input file
|  2> # SCF done       -227.007098467536          0.000910784768
|  3> ! CAM-B3LYP def2-SVP def2/J RIJCOSX Grid4 TightSCF
|  4> %maxcore 5000
|  5> %tddft
|  6>     Mode sTDDFT
|  7>     Ethresh 5.0
|  8>     maxcore 5000
|  9> end
| 10>
| 11> %pal
| 12>   nprocs 6
| 13>   end
| 14> * xyz 0 1
| 15>    C       -0.10950        -6.77641        -1.26094
| 16>    C        0.40517        -8.01132        -1.62417
| 17>    C       -0.07617        -8.69101        -2.73595
| 18>    C       -1.08153        -8.15104        -3.52231
| 19>    C       -1.60202        -6.91455        -3.17293
| 20>    C       -1.12019        -6.22479        -2.03422
| 21>    C       -1.85916        -4.98328        -1.88057
| 22>    C       -1.60106        -3.97670        -0.99971
| 23>    C       -0.52101        -3.99037        -0.08664
| 24>    N        0.33911        -3.94042         0.66989
| 25>    C       -2.34073        -2.77570        -0.88709
| 26>    N       -2.89406        -1.78463        -0.72325
| 27>    C       -2.94895        -5.02999        -2.86659
| 28>    C       -2.61838        -6.10256        -3.81284
| 29>    C       -3.05886        -6.21519        -5.09941
| 30>    C       -3.83469        -5.24279        -5.76212
| 31>    N       -4.42488        -4.45944        -6.35856
| 32>    C       -2.71806        -7.28687        -5.95607
| 33>    N       -2.49412        -8.13897        -6.68927
| 34>    C       -4.10491        -4.35175        -2.75437
| 35>    C       -5.32333        -4.53180        -3.52694
| 36>    C       -5.91828        -3.43003        -4.14206
| 37>    C       -5.39783        -2.04263        -4.22016
| 38>    O       -4.38322        -1.60539        -3.74667
| 39>    N       -6.32559        -1.34653        -4.99497
| 40>    C       -7.36799        -2.16810        -5.45191
| 41>    O       -8.27509        -1.80072        -6.14398
| 42>    C       -7.08466        -3.51683        -4.89604
| 43>    C       -7.75779        -4.71395        -5.05848
| 44>    C       -7.19714        -5.81627        -4.42328
| 45>    C       -6.01653        -5.74493        -3.68100
| 46>    C       -5.61205        -7.03042        -3.07433
| 47>    O       -4.66318        -7.25010        -2.37703
| 48>    S       -6.78178        -8.30146        -3.53958
| 49>    C       -7.80393        -7.16310        -4.49026
| 50>    O       -8.79768        -7.48819        -5.05793
| 51>    C       -6.27571        -0.00525        -5.35760
| 52>    C       -5.45286         0.90466        -4.81437
| 53>    C       -5.40359         2.27599        -5.20139
| 54>    S       -4.52932         3.40066        -4.20781
| 55>    C       -4.83438         4.75386        -5.24248
| 56>    C       -5.60780         4.34802        -6.33029
| 57>    C       -5.93870         2.95432        -6.28620
| 58>    N       -6.68875         2.66686        -7.38226
| 59>    C       -6.83935         3.82786        -8.10181
| 60>    N       -7.55726         3.79126        -9.31569
| 61>    O       -8.02528         2.70877        -9.62970
| 62>    O       -7.65404         4.81239        -9.96099
| 63>    C       -6.21112         4.88895        -7.49013
| 64>    C       -4.27628         6.05819        -5.01873
| 65>    C       -3.71188         6.78071        -6.08583
| 66>    C       -3.42360         6.33698        -7.46797
| 67>    O       -3.50648         5.23989        -7.95093
| 68>    N       -2.92160         7.47217        -8.12846
| 69>    C       -2.77307         8.56487        -7.26503
| 70>    O       -2.36919         9.64634        -7.59265
| 71>    C       -3.23479         8.08400        -5.94126
| 72>    C       -3.23462         8.74061        -4.72553
| 73>    C       -3.74957         8.02384        -3.65146
| 74>    C       -4.26593         6.73523        -3.77679
| 75>    C       -4.87238         6.22347        -2.53200
| 76>    O       -5.46675         5.20185        -2.35749
| 77>    S       -4.64008         7.42624        -1.21399
| 78>    C       -3.81991         8.59899        -2.28914
| 79>    O       -3.41492         9.66196        -1.93240
| 80>    C       -2.80163         7.63189        -9.49702
| 81>    C       -3.04249         6.68165       -10.41064
| 82>    C       -3.04251         6.90760       -11.82371
| 83>    C       -3.47606         8.00125       -12.49813
| 84>    C       -3.19769         8.23076       -13.92141
| 85>    C       -2.82484         7.30257       -14.85142
| 86>    C       -2.66346         5.91727       -14.62502
| 87>    N       -2.51299         4.78338       -14.52979
| 88>    C       -2.58443         7.60204       -16.21158
| 89>    N       -2.37442         7.77277       -17.32639
| 90>    C       -3.41019         9.64732       -14.16754
| 91>    C       -3.97861        10.23027       -13.01223
| 92>    C       -4.24298        11.59087       -12.97056
| 93>    C       -3.95580        12.35754       -14.08889
| 94>    C       -3.41452        11.78189       -15.23051
| 95>    C       -3.13251        10.42585       -15.28125
| 96>    C       -4.18066         9.19320       -12.01050
| 97>    C       -5.05094         9.30235       -10.96241
| 98>    C       -5.80714        10.46944       -10.69778
| 99>    N       -6.45564        11.37441       -10.42237
|100>    C       -5.38769         8.32817       -10.00095
|101>    N       -5.74017         7.65434        -9.14000
|102>    H        0.26829        -6.26789        -0.38910
|103>    H        1.18874        -8.45271        -1.02768
|104>    H        0.33519        -9.65536        -2.99141
|105>    H       -1.45522        -8.69291        -4.37579
|106>    H       -4.17620        -3.57349        -2.00483
|107>    H       -8.65837        -4.80135        -5.64498
|108>    H       -7.01449         0.23539        -6.10865
|109>    H       -4.77875         0.61564        -4.02181
|110>    H       -7.06299         1.78419        -7.69466
|111>    H       -6.19697         5.89592        -7.85573
|112>    H       -2.85974         9.74408        -4.60522
|113>    H       -2.50838         8.64036        -9.76548
|114>    H       -3.21124         5.66242       -10.09469
|115>    H       -2.63976         6.08975       -12.40661
|116>    H       -4.64735        12.05622       -12.08696
|117>    H       -4.15351        13.41813       -14.06741
|118>    H       -3.20105        12.39840       -16.09006
|119>    H       -2.69787         9.99767       -16.16921
|120> *
|121>
|122>                          ****END OF INPUT****

CARTESIAN COORDINATES (ANGSTROEM)
---------------------------------
  C     -0.109500   -6.776410   -1.260940
  C      0.405170   -8.011320   -1.624170
  C     -0.076170   -8.691010   -2.735950
  C     -1.081530   -8.151040   -3.522310
  C     -1.602020   -6.914550   -3.172930
  C     -1.120190   -6.224790   -2.034220
  C     -1.859160   -4.983280   -1.880570
  C     -1.601060   -3.976700   -0.999710
  C     -0.521010   -3.990370   -0.086640
  N      0.339110   -3.940420    0.669890
  C     -2.340730   -2.775700   -0.887090
  N     -2.894060   -1.784630   -0.723250
  C     -2.948950   -5.029990   -2.866590
  C     -2.618380   -6.102560   -3.812840
  C     -3.058860   -6.215190   -5.099410
  C     -3.834690   -5.242790   -5.762120
  N     -4.424880   -4.459440   -6.358560
  C     -2.718060   -7.286870   -5.956070
  N     -2.494120   -8.138970   -6.689270
  C     -4.104910   -4.351750   -2.754370
  C     -5.323330   -4.531800   -3.526940
  C     -5.918280   -3.430030   -4.142060
  C     -5.397830   -2.042630   -4.220160
  O     -4.383220   -1.605390   -3.746670
  N     -6.325590   -1.346530   -4.994970
  C     -7.367990   -2.168100   -5.451910
  O     -8.275090   -1.800720   -6.143980
  C     -7.084660   -3.516830   -4.896040
  C     -7.757790   -4.713950   -5.058480
  C     -7.197140   -5.816270   -4.423280
  C     -6.016530   -5.744930   -3.681000
  C     -5.612050   -7.030420   -3.074330
  O     -4.663180   -7.250100   -2.377030
  S     -6.781780   -8.301460   -3.539580
  C     -7.803930   -7.163100   -4.490260
  O     -8.797680   -7.488190   -5.057930
  C     -6.275710   -0.005250   -5.357600
  C     -5.452860    0.904660   -4.814370
  C     -5.403590    2.275990   -5.201390
  S     -4.529320    3.400660   -4.207810
  C     -4.834380    4.753860   -5.242480
  C     -5.607800    4.348020   -6.330290
  C     -5.938700    2.954320   -6.286200
  N     -6.688750    2.666860   -7.382260
  C     -6.839350    3.827860   -8.101810
  N     -7.557260    3.791260   -9.315690
  O     -8.025280    2.708770   -9.629700
  O     -7.654040    4.812390   -9.960990
  C     -6.211120    4.888950   -7.490130
  C     -4.276280    6.058190   -5.018730
  C     -3.711880    6.780710   -6.085830
  C     -3.423600    6.336980   -7.467970
  O     -3.506480    5.239890   -7.950930
  N     -2.921600    7.472170   -8.128460
  C     -2.773070    8.564870   -7.265030
  O     -2.369190    9.646340   -7.592650
  C     -3.234790    8.084000   -5.941260
  C     -3.234620    8.740610   -4.725530
  C     -3.749570    8.023840   -3.651460
  C     -4.265930    6.735230   -3.776790
  C     -4.872380    6.223470   -2.532000
  O     -5.466750    5.201850   -2.357490
  S     -4.640080    7.426240   -1.213990
  C     -3.819910    8.598990   -2.289140
  O     -3.414920    9.661960   -1.932400
  C     -2.801630    7.631890   -9.497020
  C     -3.042490    6.681650  -10.410640
  C     -3.042510    6.907600  -11.823710
  C     -3.476060    8.001250  -12.498130
  C     -3.197690    8.230760  -13.921410
  C     -2.824840    7.302570  -14.851420
  C     -2.663460    5.917270  -14.625020
  N     -2.512990    4.783380  -14.529790
  C     -2.584430    7.602040  -16.211580
  N     -2.374420    7.772770  -17.326390
  C     -3.410190    9.647320  -14.167540
  C     -3.978610   10.230270  -13.012230
  C     -4.242980   11.590870  -12.970560
  C     -3.955800   12.357540  -14.088890
  C     -3.414520   11.781890  -15.230510
  C     -3.132510   10.425850  -15.281250
  C     -4.180660    9.193200  -12.010500
  C     -5.050940    9.302350  -10.962410
  C     -5.807140   10.469440  -10.697780
  N     -6.455640   11.374410  -10.422370
  C     -5.387690    8.328170  -10.000950
  N     -5.740170    7.654340   -9.140000
  H      0.268290   -6.267890   -0.389100
  H      1.188740   -8.452710   -1.027680
  H      0.335190   -9.655360   -2.991410
  H     -1.455220   -8.692910   -4.375790
  H     -4.176200   -3.573490   -2.004830
  H     -8.658370   -4.801350   -5.644980
  H     -7.014490    0.235390   -6.108650
  H     -4.778750    0.615640   -4.021810
  H     -7.062990    1.784190   -7.694660
  H     -6.196970    5.895920   -7.855730
  H     -2.859740    9.744080   -4.605220
  H     -2.508380    8.640360   -9.765480
  H     -3.211240    5.662420  -10.094690
  H     -2.639760    6.089750  -12.406610
  H     -4.647350   12.056220  -12.086960
  H     -4.153510   13.418130  -14.067410
  H     -3.201050   12.398400  -16.090060
  H     -2.697870    9.997670  -16.169210

 Total Charge           Charge          ....    0
 Multiplicity           Mult            ....    1
 Number of Electrons    NEL             ....  602
 Basis Dimension        Dim             .... 1320

ORBITAL ENERGIES
----------------

  NO   OCC          E(Eh)            E(eV)
   0   2.0000     -88.975874     -2421.1566
   1   2.0000     -88.970543     -2421.0116
   2   2.0000     -88.957153     -2420.6472
   3   2.0000     -19.263951      -524.1988
   4   2.0000     -19.261884      -524.1425
   5   2.0000     -19.249739      -523.8120
   6   2.0000     -19.249193      -523.7972
   7   2.0000     -19.249127      -523.7954
   8   2.0000     -19.248962      -523.7909
   9   2.0000     -19.248829      -523.7873
  10   2.0000     -19.245192      -523.6883
  11   2.0000     -19.243566      -523.6441
  12   2.0000     -19.243511      -523.6426
  13   2.0000     -14.653400      -398.7393
  14   2.0000     -14.498946      -394.5364
  15   2.0000     -14.498692      -394.5295
  16   2.0000     -14.477290      -393.9471
  17   2.0000     -14.442376      -392.9970
  18   2.0000     -14.438135      -392.8816
  19   2.0000     -14.438108      -392.8809
  20   2.0000     -14.434472      -392.7819
  21   2.0000     -14.434230      -392.7754
  22   2.0000     -14.428327      -392.6147
  23   2.0000     -14.428239      -392.6124
  24   2.0000     -14.426154      -392.5556
  25   2.0000     -10.427997      -283.7602
  26   2.0000     -10.427598      -283.7494
  27   2.0000     -10.427419      -283.7445
  28   2.0000     -10.427042      -283.7342
  29   2.0000     -10.425637      -283.6960
  30   2.0000     -10.422750      -283.6174
  31   2.0000     -10.412821      -283.3473
  32   2.0000     -10.410865      -283.2940
  33   2.0000     -10.371912      -282.2341
  34   2.0000     -10.368959      -282.1537
  35   2.0000     -10.367701      -282.1195
  36   2.0000     -10.363620      -282.0084
  37   2.0000     -10.362794      -281.9860
  38   2.0000     -10.361380      -281.9475
  39   2.0000     -10.358873      -281.8793
  40   2.0000     -10.358812      -281.8776
  41   2.0000     -10.358276      -281.8630
  42   2.0000     -10.355912      -281.7987
  43   2.0000     -10.354009      -281.7469
  44   2.0000     -10.349823      -281.6330
  45   2.0000     -10.349410      -281.6218
  46   2.0000     -10.345178      -281.5066
  47   2.0000     -10.345143      -281.5056
  48   2.0000     -10.344257      -281.4815
  49   2.0000     -10.343515      -281.4613
  50   2.0000     -10.343086      -281.4497
  51   2.0000     -10.341096      -281.3955
  52   2.0000     -10.340694      -281.3846
  53   2.0000     -10.340327      -281.3746
  54   2.0000     -10.339423      -281.3500
  55   2.0000     -10.335825      -281.2521
  56   2.0000     -10.335276      -281.2372
  57   2.0000     -10.334897      -281.2268
  58   2.0000     -10.334845      -281.2254
  59   2.0000     -10.334794      -281.2240
  60   2.0000     -10.334144      -281.2064
  61   2.0000     -10.333262      -281.1824
  62   2.0000     -10.331370      -281.1309
  63   2.0000     -10.330652      -281.1113
  64   2.0000     -10.329954      -281.0923
  65   2.0000     -10.329831      -281.0890
  66   2.0000     -10.328737      -281.0592
  67   2.0000     -10.328692      -281.0580
  68   2.0000     -10.328302      -281.0474
  69   2.0000     -10.328214      -281.0450
  70   2.0000     -10.327005      -281.0121
  71   2.0000     -10.321922      -280.8738
  72   2.0000     -10.321422      -280.8602
  73   2.0000     -10.321239      -280.8552
  74   2.0000     -10.318820      -280.7894
  75   2.0000     -10.314836      -280.6809
  76   2.0000     -10.314447      -280.6704
  77   2.0000     -10.313365      -280.6409
  78   2.0000     -10.312972      -280.6302
  79   2.0000     -10.309165      -280.5266
  80   2.0000     -10.308374      -280.5051
  81   2.0000     -10.307525      -280.4820
  82   2.0000     -10.307144      -280.4716
  83   2.0000     -10.300018      -280.2777
  84   2.0000     -10.299976      -280.2766
  85   2.0000     -10.294974      -280.1405
  86   2.0000     -10.288515      -279.9647
  87   2.0000      -8.070282      -219.6035
  88   2.0000      -8.069662      -219.5867
  89   2.0000      -8.056386      -219.2254
  90   2.0000      -6.039514      -164.3435
  91   2.0000      -6.038510      -164.3162
  92   2.0000      -6.035229      -164.2269
  93   2.0000      -6.035189      -164.2258
  94   2.0000      -6.032783      -164.1604
  95   2.0000      -6.030749      -164.1050
  96   2.0000      -6.025224      -163.9547
  97   2.0000      -6.021994      -163.8668
  98   2.0000      -6.017438      -163.7428
  99   2.0000      -1.324731       -36.0478
 100   2.0000      -1.195729       -32.5374
 101   2.0000      -1.195577       -32.5333
 102   2.0000      -1.188524       -32.3414
 103   2.0000      -1.184110       -32.2213
 104   2.0000      -1.175225       -31.9795
 105   2.0000      -1.172573       -31.9073
 106   2.0000      -1.171229       -31.8708
 107   2.0000      -1.171046       -31.8658
 108   2.0000      -1.144550       -31.1448
 109   2.0000      -1.101773       -29.9808
 110   2.0000      -1.089321       -29.6419
 111   2.0000      -1.088817       -29.6282
 112   2.0000      -1.054379       -28.6911
 113   2.0000      -1.045400       -28.4468
 114   2.0000      -1.036737       -28.2110
 115   2.0000      -1.031428       -28.0666
 116   2.0000      -1.029750       -28.0209
 117   2.0000      -1.023547       -27.8521
 118   2.0000      -1.023432       -27.8490
 119   2.0000      -1.017718       -27.6935
 120   2.0000      -1.017677       -27.6924
 121   2.0000      -1.012128       -27.5414
 122   2.0000      -1.009784       -27.4776
 123   2.0000      -1.005360       -27.3572
 124   2.0000      -0.991571       -26.9820
 125   2.0000      -0.976818       -26.5806
 126   2.0000      -0.971746       -26.4425
 127   2.0000      -0.971046       -26.4235
 128   2.0000      -0.963730       -26.2244
 129   2.0000      -0.958268       -26.0758
 130   2.0000      -0.950093       -25.8534
 131   2.0000      -0.941598       -25.6222
 132   2.0000      -0.932132       -25.3646
 133   2.0000      -0.925638       -25.1879
 134   2.0000      -0.912118       -24.8200
 135   2.0000      -0.911548       -24.8045
 136   2.0000      -0.904813       -24.6212
 137   2.0000      -0.903222       -24.5779
 138   2.0000      -0.895240       -24.3607
 139   2.0000      -0.889498       -24.2045
 140   2.0000      -0.881366       -23.9832
 141   2.0000      -0.880272       -23.9534
 142   2.0000      -0.874614       -23.7995
 143   2.0000      -0.868370       -23.6296
 144   2.0000      -0.855298       -23.2738
 145   2.0000      -0.830607       -22.6020
 146   2.0000      -0.817685       -22.2503
 147   2.0000      -0.812571       -22.1112
 148   2.0000      -0.809339       -22.0232
 149   2.0000      -0.808121       -21.9901
 150   2.0000      -0.803833       -21.8734
 151   2.0000      -0.802593       -21.8397
 152   2.0000      -0.790409       -21.5081
 153   2.0000      -0.785832       -21.3836
 154   2.0000      -0.770035       -20.9537
 155   2.0000      -0.766133       -20.8476
 156   2.0000      -0.759684       -20.6721
 157   2.0000      -0.741955       -20.1896
 158   2.0000      -0.733026       -19.9466
 159   2.0000      -0.731778       -19.9127
 160   2.0000      -0.728686       -19.8286
 161   2.0000      -0.725813       -19.7504
 162   2.0000      -0.721538       -19.6340
 163   2.0000      -0.718610       -19.5544
 164   2.0000      -0.709963       -19.3191
 165   2.0000      -0.706317       -19.2199
 166   2.0000      -0.696974       -18.9656
 167   2.0000      -0.693503       -18.8712
 168   2.0000      -0.689621       -18.7655
 169   2.0000      -0.682161       -18.5625
 170   2.0000      -0.682009       -18.5584
 171   2.0000      -0.675402       -18.3786
 172   2.0000      -0.675358       -18.3774
 173   2.0000      -0.669749       -18.2248
 174   2.0000      -0.666994       -18.1498
 175   2.0000      -0.654574       -17.8119
 176   2.0000      -0.651805       -17.7365
 177   2.0000      -0.649172       -17.6649
 178   2.0000      -0.640661       -17.4333
 179   2.0000      -0.639134       -17.3917
 180   2.0000      -0.636126       -17.3099
 181   2.0000      -0.630902       -17.1677
 182   2.0000      -0.627609       -17.0781
 183   2.0000      -0.624138       -16.9837
 184   2.0000      -0.619073       -16.8458
 185   2.0000      -0.615969       -16.7614
 186   2.0000      -0.609139       -16.5755
 187   2.0000      -0.605991       -16.4899
 188   2.0000      -0.605241       -16.4694
 189   2.0000      -0.599040       -16.3007
 190   2.0000      -0.597172       -16.2499
 191   2.0000      -0.596186       -16.2230
 192   2.0000      -0.593984       -16.1631
 193   2.0000      -0.591904       -16.1065
 194   2.0000      -0.587973       -15.9996
 195   2.0000      -0.586353       -15.9555
 196   2.0000      -0.585025       -15.9193
 197   2.0000      -0.583993       -15.8912
 198   2.0000      -0.576089       -15.6762
 199   2.0000      -0.575010       -15.6468
 200   2.0000      -0.570355       -15.5201
 201   2.0000      -0.566596       -15.4179
 202   2.0000      -0.563601       -15.3364
 203   2.0000      -0.560414       -15.2496
 204   2.0000      -0.559407       -15.2222
 205   2.0000      -0.557927       -15.1820
 206   2.0000      -0.557080       -15.1589
 207   2.0000      -0.555301       -15.1105
 208   2.0000      -0.553188       -15.0530
 209   2.0000      -0.552342       -15.0300
 210   2.0000      -0.550024       -14.9669
 211   2.0000      -0.548657       -14.9297
 212   2.0000      -0.545630       -14.8473
 213   2.0000      -0.544572       -14.8186
 214   2.0000      -0.543582       -14.7916
 215   2.0000      -0.539736       -14.6870
 216   2.0000      -0.538376       -14.6500
 217   2.0000      -0.535770       -14.5790
 218   2.0000      -0.532581       -14.4923
 219   2.0000      -0.532227       -14.4826
 220   2.0000      -0.530230       -14.4283
 221   2.0000      -0.527303       -14.3486
 222   2.0000      -0.524964       -14.2850
 223   2.0000      -0.521244       -14.1838
 224   2.0000      -0.519414       -14.1340
 225   2.0000      -0.518979       -14.1221
 226   2.0000      -0.515830       -14.0365
 227   2.0000      -0.513301       -13.9676
 228   2.0000      -0.512772       -13.9532
 229   2.0000      -0.510773       -13.8988
 230   2.0000      -0.509292       -13.8586
 231   2.0000      -0.506579       -13.7847
 232   2.0000      -0.504138       -13.7183
 233   2.0000      -0.501488       -13.6462
 234   2.0000      -0.495654       -13.4874
 235   2.0000      -0.493982       -13.4419
 236   2.0000      -0.492199       -13.3934
 237   2.0000      -0.490156       -13.3378
 238   2.0000      -0.486213       -13.2305
 239   2.0000      -0.480638       -13.0788
 240   2.0000      -0.480200       -13.0669
 241   2.0000      -0.476002       -12.9527
 242   2.0000      -0.474853       -12.9214
 243   2.0000      -0.474785       -12.9196
 244   2.0000      -0.471503       -12.8303
 245   2.0000      -0.465451       -12.6656
 246   2.0000      -0.465149       -12.6574
 247   2.0000      -0.464189       -12.6312
 248   2.0000      -0.463687       -12.6176
 249   2.0000      -0.460028       -12.5180
 250   2.0000      -0.459471       -12.5028
 251   2.0000      -0.458572       -12.4784
 252   2.0000      -0.456645       -12.4259
 253   2.0000      -0.454889       -12.3781
 254   2.0000      -0.453681       -12.3453
 255   2.0000      -0.453118       -12.3300
 256   2.0000      -0.451531       -12.2868
 257   2.0000      -0.448123       -12.1941
 258   2.0000      -0.447030       -12.1643
 259   2.0000      -0.443613       -12.0713
 260   2.0000      -0.443242       -12.0612
 261   2.0000      -0.441518       -12.0143
 262   2.0000      -0.438372       -11.9287
 263   2.0000      -0.437227       -11.8976
 264   2.0000      -0.435077       -11.8391
 265   2.0000      -0.432920       -11.7803
 266   2.0000      -0.432238       -11.7618
 267   2.0000      -0.426360       -11.6019
 268   2.0000      -0.425419       -11.5762
 269   2.0000      -0.421933       -11.4814
 270   2.0000      -0.417826       -11.3696
 271   2.0000      -0.404080       -10.9956
 272   2.0000      -0.401653       -10.9295
 273   2.0000      -0.399035       -10.8583
 274   2.0000      -0.397100       -10.8056
 275   2.0000      -0.394646       -10.7389
 276   2.0000      -0.394501       -10.7349
 277   2.0000      -0.390202       -10.6179
 278   2.0000      -0.389768       -10.6061
 279   2.0000      -0.386633       -10.5208
 280   2.0000      -0.385223       -10.4824
 281   2.0000      -0.382005       -10.3949
 282   2.0000      -0.378930       -10.3112
 283   2.0000      -0.377627       -10.2757
 284   2.0000      -0.376900       -10.2560
 285   2.0000      -0.373409       -10.1610
 286   2.0000      -0.372678       -10.1411
 287   2.0000      -0.369130       -10.0445
 288   2.0000      -0.365721        -9.9518
 289   2.0000      -0.360258        -9.8031
 290   2.0000      -0.353945        -9.6313
 291   2.0000      -0.353063        -9.6073
 292   2.0000      -0.351004        -9.5513
 293   2.0000      -0.348038        -9.4706
 294   2.0000      -0.343360        -9.3433
 295   2.0000      -0.333551        -9.0764
 296   2.0000      -0.330327        -8.9887
 297   2.0000      -0.320958        -8.7337
 298   2.0000      -0.307982        -8.3806
 299   2.0000      -0.300407        -8.1745
 300   2.0000      -0.258947        -7.0463
 301   0.0000      -0.116493        -3.1699
 302   0.0000      -0.107829        -2.9342
 303   0.0000      -0.103607        -2.8193
 304   0.0000      -0.101920        -2.7734
 305   0.0000      -0.098877        -2.6906

MULLIKEN ATOMIC CHARGES
-----------------------
   0 C :   -0.033636
   1 C :    0.049718
   2 C :    0.050425
   3 C :   -0.024976
   4 C :    0.021850
   5 C :    0.028839
   6 C :    0.273875
   7 C :   -0.328696
   8 C :   -0.194786
   9 N :    0.173761
  10 C :   -0.185737
  11 N :    0.182390
  12 C :   -0.007807
  13 C :    0.256392
  14 C :   -0.354086
  15 C :   -0.157495
  16 N :    0.163023
  17 C :   -0.191920
  18 N :    0.180382
  19 C :   -0.003918
  20 C :   -0.081482
  21 C :    0.014620
  22 C :    0.216683
  23 O :   -0.136818
  24 N :   -0.235361
  25 C :    0.205032
  26 O :   -0.124767
  27 C :    0.035415
  28 C :   -0.052303
  29 C :    0.054233
  30 C :    0.069136
  31 C :    0.047094
  32 O :   -0.139143
  33 S :    0.031876
  34 C :    0.046590
  35 O :   -0.103390
  36 C :    0.049875
  37 C :    0.076630
  38 C :   -0.204484
  39 S :    0.232883
  40 C :   -0.245696
  41 C :    0.162857
  42 C :    0.127783
  43 N :   -0.048838
  44 C :    0.140759
  45 N :    0.279664
  46 O :   -0.265294
  47 O :   -0.229214
  48 C :   -0.062671
  49 C :    0.082610
  50 C :   -0.027427
  51 C :    0.202230
  52 O :   -0.129815
  53 N :   -0.230534
  54 C :    0.195785
  55 O :   -0.128784
  56 C :    0.006507
  57 C :   -0.064293
  58 C :    0.037478
  59 C :    0.034814
  60 C :    0.032178
  61 O :   -0.118657
  62 S :    0.019708
  63 C :    0.050922
  64 O :   -0.114918
  65 C :    0.072452
  66 C :   -0.013874
  67 C :    0.039433
  68 C :   -0.050551
  69 C :    0.282253
  70 C :   -0.339612
  71 C :   -0.185052
  72 N :    0.169995
  73 C :   -0.188478
  74 N :    0.165800
  75 C :    0.017035
  76 C :   -0.003680
  77 C :   -0.023275
  78 C :    0.045372
  79 C :    0.049066
  80 C :   -0.030600
  81 C :    0.253961
  82 C :   -0.328009
  83 C :   -0.200518
  84 N :    0.171184
  85 C :   -0.160798
  86 N :    0.189020
  87 H :    0.009693
  88 H :    0.010733
  89 H :    0.009883
  90 H :    0.009839
  91 H :    0.054238
  92 H :    0.025669
  93 H :    0.008204
  94 H :    0.023621
  95 H :    0.143381
  96 H :   -0.036468
  97 H :    0.020229
  98 H :    0.051650
  99 H :    0.058893
 100 H :    0.033806
 101 H :    0.011411
 102 H :    0.009616
 103 H :    0.008517
 104 H :    0.008890
Sum of atomic charges:   -0.0000000

LOEWDIN ATOMIC CHARGES
----------------------
   0 C :    0.008146
   1 C :    0.009761
   2 C :    0.010152
   3 C :    0.009428
   4 C :   -0.004702
   5 C :   -0.006561
   6 C :    0.078347
   7 C :   -0.114009
   8 C :   -0.018483
   9 N :   -0.033566
  10 C :   -0.024483
  11 N :   -0.025200
  12 C :   -0.012928
  13 C :    0.079426
  14 C :   -0.128424
  15 C :   -0.012559
  16 N :   -0.049680
  17 C :   -0.021183
  18 N :   -0.030364
  19 C :    0.056124
  20 C :    0.012973
  21 C :   -0.014718
  22 C :    0.102937
  23 O :   -0.118605
  24 N :   -0.007318
  25 C :    0.103679
  26 O :   -0.121595
  27 C :   -0.018175
  28 C :    0.056171
  29 C :   -0.049065
  30 C :   -0.054765
  31 C :   -0.047354
  32 O :   -0.121178
  33 S :    0.315844
  34 C :   -0.042145
  35 O :   -0.096116
  36 C :    0.016529
  37 C :   -0.047453
  38 C :   -0.192424
  39 S :    0.526809
  40 C :   -0.207304
  41 C :   -0.043811
  42 C :   -0.005153
  43 N :    0.065048
  44 C :    0.003132
  45 N :    0.279540
  46 O :   -0.224551
  47 O :   -0.192669
  48 C :   -0.024827
  49 C :    0.020315
  50 C :   -0.035172
  51 C :    0.107909
  52 O :   -0.106466
  53 N :   -0.008271
  54 C :    0.101386
  55 O :   -0.126764
  56 C :   -0.027999
  57 C :    0.036272
  58 C :   -0.046933
  59 C :   -0.061616
  60 C :   -0.048523
  61 O :   -0.114683
  62 S :    0.307715
  63 C :   -0.048618
  64 O :   -0.107436
  65 C :    0.074691
  66 C :   -0.060609
  67 C :    0.069877
  68 C :   -0.052317
  69 C :    0.077443
  70 C :   -0.125915
  71 C :   -0.024241
  72 N :   -0.035537
  73 C :   -0.018570
  74 N :   -0.040647
  75 C :   -0.011119
  76 C :   -0.012312
  77 C :    0.006725
  78 C :    0.006790
  79 C :    0.007424
  80 C :    0.006259
  81 C :    0.074337
  82 C :   -0.128737
  83 C :   -0.020111
  84 N :   -0.038826
  85 C :    0.009341
  86 N :   -0.044081
  87 H :    0.042871
  88 H :    0.040348
  89 H :    0.040175
  90 H :    0.042841
  91 H :    0.056361
  92 H :    0.055716
  93 H :    0.026324
  94 H :    0.040192
  95 H :    0.090415
  96 H :    0.027781
  97 H :    0.052494
  98 H :    0.038092
  99 H :    0.047477
 100 H :    0.051014
 101 H :    0.042542
 102 H :    0.039662
 103 H :    0.039503
 104 H :    0.042528

  Mayer bond orders larger than 0.100000
B(  0-C ,  1-C ) :   1.3766 B(  0-C ,  5-C ) :   1.3726 B(  0-C , 87-H ) :   0.9858
B(  1-C ,  2-C ) :   1.3678 B(  1-C , 88-H ) :   0.9866 B(  2-C ,  3-C ) :   1.3749
B(  2-C , 89-H ) :   0.9859 B(  3-C ,  4-C ) :   1.3723 B(  3-C , 90-H ) :   0.9868
B(  4-C ,  5-C ) :   1.3012 B(  4-C , 13-C ) :   1.0295 B(  5-C ,  6-C ) :   1.0138
B(  6-C ,  7-C ) :   1.6860 B(  6-C , 12-C ) :   1.0076 B(  7-C ,  8-C ) :   1.1408
B(  7-C , 10-C ) :   1.1323 B(  8-C ,  9-N ) :   2.9888 B( 10-C , 11-N ) :   2.9861
B( 12-C , 13-C ) :   0.9661 B( 12-C , 19-C ) :   1.8074 B( 13-C , 14-C ) :   1.6692
B( 14-C , 15-C ) :   1.1618 B( 14-C , 17-C ) :   1.1319 B( 15-C , 16-N ) :   2.9835
B( 17-C , 18-N ) :   3.0001 B( 19-C , 20-C ) :   1.0124 B( 19-C , 91-H ) :   0.9079
B( 20-C , 21-C ) :   1.4225 B( 20-C , 30-C ) :   1.3752 B( 21-C , 22-C ) :   0.8886
B( 21-C , 27-C ) :   1.3913 B( 22-C , 23-O ) :   2.1539 B( 22-C , 24-N ) :   1.0535
B( 24-N , 25-C ) :   1.0212 B( 24-N , 36-C ) :   1.0138 B( 25-C , 26-O ) :   2.2435
B( 25-C , 27-C ) :   0.8668 B( 27-C , 28-C ) :   1.3298 B( 28-C , 29-C ) :   1.3368
B( 28-C , 92-H ) :   1.0244 B( 29-C , 30-C ) :   1.3337 B( 29-C , 34-C ) :   0.8347
B( 30-C , 31-C ) :   0.8539 B( 31-C , 32-O ) :   2.1463 B( 31-C , 33-S ) :   1.0464
B( 32-O , 33-S ) :   0.1093 B( 33-S , 34-C ) :   1.0144 B( 33-S , 35-O ) :   0.1052
B( 34-C , 35-O ) :   2.2383 B( 36-C , 37-C ) :   1.7053 B( 36-C , 93-H ) :   0.9735
B( 37-C , 38-C ) :   1.1160 B( 37-C , 94-H ) :   0.9403 B( 38-C , 39-S ) :   1.1689
B( 38-C , 40-C ) :   0.1221 B( 38-C , 42-C ) :   1.3748 B( 39-S , 40-C ) :   1.1670
B( 40-C , 41-C ) :   1.3571 B( 40-C , 49-C ) :   1.0764 B( 41-C , 42-C ) :   1.2458
B( 41-C , 48-C ) :   1.1245 B( 42-C , 43-N ) :   1.1786 B( 43-N , 44-C ) :   1.1673
B( 43-N , 95-H ) :   0.9028 B( 44-C , 45-N ) :   0.9171 B( 44-C , 48-C ) :   1.5392
B( 45-N , 46-O ) :   1.4794 B( 45-N , 47-O ) :   1.5553 B( 46-O , 47-O ) :   0.2704
B( 48-C , 96-H ) :   0.9901 B( 49-C , 50-C ) :   1.3718 B( 49-C , 59-C ) :   1.3497
B( 50-C , 51-C ) :   0.9113 B( 50-C , 56-C ) :   1.3830 B( 51-C , 52-O ) :   2.1589
B( 51-C , 53-N ) :   1.0023 B( 53-N , 54-C ) :   1.0145 B( 53-N , 65-C ) :   1.0623
B( 54-C , 55-O ) :   2.2460 B( 54-C , 56-C ) :   0.8733 B( 56-C , 57-C ) :   1.3351
B( 57-C , 58-C ) :   1.3342 B( 57-C , 97-H ) :   1.0268 B( 58-C , 59-C ) :   1.3460
B( 58-C , 63-C ) :   0.8357 B( 59-C , 60-C ) :   0.8525 B( 60-C , 61-O ) :   2.1777
B( 60-C , 62-S ) :   1.0237 B( 61-O , 62-S ) :   0.1052 B( 62-S , 63-C ) :   1.0292
B( 62-S , 64-O ) :   0.1091 B( 63-C , 64-O ) :   2.2243 B( 65-C , 66-C ) :   1.7109
B( 65-C , 98-H ) :   0.9690 B( 66-C , 67-C ) :   1.1134 B( 66-C , 99-H ) :   0.9316
B( 67-C , 68-C ) :   1.6974 B( 67-C ,100-H ) :   0.9196 B( 68-C , 69-C ) :   1.0309
B( 68-C , 81-C ) :   0.9914 B( 69-C , 70-C ) :   1.6631 B( 69-C , 75-C ) :   1.0030
B( 70-C , 71-C ) :   1.1298 B( 70-C , 73-C ) :   1.1442 B( 71-C , 72-N ) :   2.9836
B( 73-C , 74-N ) :   2.9817 B( 75-C , 76-C ) :   1.3095 B( 75-C , 80-C ) :   1.3774
B( 76-C , 77-C ) :   1.3733 B( 76-C , 81-C ) :   1.0074 B( 77-C , 78-C ) :   1.3769
B( 77-C ,101-H ) :   0.9847 B( 78-C , 79-C ) :   1.3705 B( 78-C ,102-H ) :   0.9871
B( 79-C , 80-C ) :   1.3749 B( 79-C ,103-H ) :   0.9862 B( 80-C ,104-H ) :   0.9834
B( 81-C , 82-C ) :   1.6597 B( 82-C , 83-C ) :   1.1328 B( 82-C , 85-C ) :   1.1512
B( 83-C , 84-N ) :   3.0008 B( 85-C , 86-N ) :   2.9444 B( 86-N , 96-H ) :   0.1057

-----------------------------------------------------------------------------
         ABSORPTION SPECTRUM VIA TRANSITION ELECTRIC DIPOLE MOMENTS
-----------------------------------------------------------------------------
State   Energy  Wavelength   fosc         T2         TX        TY        TZ
        (cm-1)    (nm)                  (au**2)     (au)      (au)      (au)
-----------------------------------------------------------------------------
   0   15871.9    630.0   0.020922237   0.43397  -0.20113  -0.01698   0.62708
   1   17445.7    573.2   0.012461103   0.23515  -0.20194  -0.44086  -0.00346
   2   18602.2    537.6   0.529043857   9.36272   0.49693   2.96939  -0.54637
   3   19892.8    502.7   0.020603500   0.34097   0.50917   0.28587  -0.00141
   4   22061.3    453.3   0.196273280   2.92891   0.89923   1.38110   0.46136
   5   23436.8    426.7   0.056276430   0.79050   0.52194  -0.50651   0.51140
   6   23449.0    426.5   0.051346106   0.72087  -0.53195   0.52567  -0.40196
   7   24663.7    405.5   0.058868195   0.78578  -0.00714  -0.33199  -0.82189
   8   25002.4    400.0   0.014934034   0.19664  -0.12881  -0.34116  -0.25231
   9   25015.8    399.7   0.023831846   0.31363  -0.20740  -0.22535   0.46887
  10   26338.9    379.7   0.004332809   0.05416  -0.10608  -0.16547  -0.12460
  11   26837.3    372.6   0.274697450   3.36970   0.33438  -0.63290  -1.69036
  12   27222.9    367.3   0.005812366   0.07029   0.19902   0.11796  -0.12948
  13   28073.8    356.2   0.101292636   1.18783   0.36906   1.02548  -0.00164
  14   28665.9    348.8   0.056506057   0.64894   0.59250  -0.19692   0.50902
  15   28746.8    347.9   0.105947535   1.21333   0.42183  -0.35308   0.95432
  16   29581.9    338.0   0.045492138   0.50627  -0.41395   0.31495  -0.48552
  17   29651.0    337.3   0.219339660   2.43530  -0.03018   0.79509  -1.34247
  18   29778.4    335.8   0.204452734   2.26031  -0.25689  -0.03278   1.48096
  19   30131.3    331.9   0.259384577   2.83401  -0.17897  -1.13232  -1.23282
  20   30337.3    329.6   0.003591972   0.03898  -0.01549   0.18841   0.05694
  21   31402.9    318.4   0.167099291   1.75178  -0.92685  -0.48966  -0.80806
  22   31675.5    315.7   0.018844245   0.19585   0.20949   0.06609   0.38419
  23   31768.2    314.8   0.027331574   0.28324   0.52759  -0.01847  -0.06742
  24   31965.2    312.8   0.002549932   0.02626  -0.03006   0.15476   0.03753
  25   32235.4    310.2   0.004756336   0.04858  -0.05580   0.01413  -0.21275
  26   32346.1    309.2   0.008994123   0.09154  -0.08910   0.13738  -0.25442
  27   32503.7    307.7   0.221370938   2.24214  -0.51034  -0.55896  -1.29200
  28   32613.1    306.6   0.149174523   1.50584   0.98847  -0.71952  -0.10516
  29   32627.9    306.5   0.141931213   1.43207   0.07483  -0.39625  -1.12670
  30   32874.6    304.2   0.065932282   0.66026  -0.32142  -0.07110  -0.74290
  31   33125.4    301.9   0.008280403   0.08229   0.18001  -0.21433  -0.06287
  32   33248.0    300.8   0.113238625   1.12126   0.67555   0.55246   0.59973
  33   33286.8    300.4   0.004128070   0.04083   0.08587   0.16212  -0.08468
  34   33472.3    298.8   0.024003719   0.23609  -0.20136   0.31115  -0.31421
  35   33614.3    297.5   0.045022128   0.44094   0.44453  -0.06788   0.48859
  36   33775.2    296.1   0.060024386   0.58507   0.25532   0.64173  -0.32873
  37   33939.4    294.6   0.479565407   4.65178  -0.83711   0.22534   1.97491
  38   34138.8    292.9   0.131829257   1.27127   0.56837   0.50845   0.83049
  39   34172.6    292.6   0.018184510   0.17519   0.31221   0.15039   0.23472
  40   34401.3    290.7   0.098832815   0.94581  -0.16534  -0.76515   0.57708
  41   34791.5    287.4   0.003625496   0.03431  -0.14787  -0.07415   0.08331
  42   35201.7    284.1   0.053840724   0.50353   0.38536  -0.32460   0.49966
  43   35264.8    283.6   0.015871931   0.14817  -0.13387   0.36054  -0.01624
  44   35305.9    283.2   0.009312702   0.08684  -0.27812   0.09365  -0.02672
  45   35358.2    282.8   0.511286340   4.76046  -0.38190   2.10994  -0.40346
  46   35464.4    282.0   0.106875872   0.99212  -0.81850  -0.35412   0.44359
  47   35567.8    281.2   0.055830439   0.51676   0.49929  -0.47350   0.20801
  48   35967.4    278.0   0.043108029   0.39457  -0.18420  -0.14582   0.58256
  49   36022.9    277.6   0.136533435   1.24777   0.49998  -0.59247   0.80423
  50   36117.9    276.9   0.052749750   0.48081  -0.53388   0.37059  -0.24175
  51   36200.9    276.2   0.056918114   0.51761   0.37196  -0.38613  -0.47975
  52   36709.4    272.4   0.006227134   0.05585   0.06388  -0.08039   0.21284
  53   36805.6    271.7   0.069760296   0.62398  -0.24044   0.57060  -0.49049
  54   37059.6    269.8   0.002480745   0.02204   0.07957  -0.10596   0.06692
  55   37129.5    269.3   0.159256225   1.41206  -0.87812   0.77458  -0.20247
  56   37431.7    267.2   0.098072372   0.86255   0.41029  -0.47922   0.68158
  57   37811.7    264.5   0.013850855   0.12059   0.03255  -0.28822   0.19095
  58   37912.9    263.8   0.238503260   2.07101  -0.93318   1.03322  -0.36421
  59   38011.0    263.1   0.137261878   1.18882   0.14669   1.05981  -0.21003
  60   38355.8    260.7   0.085989060   0.73805  -0.37072  -0.05764  -0.77285
  61   38874.1    257.2   0.200157510   1.69507   0.50165   1.19330   0.13951
  62   39063.2    256.0   0.003270360   0.02756   0.00963  -0.06578   0.15212
  63   39433.1    253.6   0.036213951   0.30234  -0.14927   0.14403  -0.50923
  64   39450.7    253.5   0.000995484   0.00831  -0.01784   0.05533   0.07020
  65   39864.3    250.9   0.006899776   0.05698  -0.19574   0.12552   0.05396
  66   39904.8    250.6   0.135803913   1.12037  -0.08125   0.12767  -1.04760
  67   40031.7    249.8   0.004477778   0.03682  -0.10190   0.13941   0.08370
  68   40123.4    249.2   0.037769705   0.30990   0.06407   0.19864   0.51608
  69   40326.6    248.0   0.024224341   0.19776   0.27917  -0.34190   0.05414

FINAL SINGLE POINT ENERGY     -4972.020142097039

DIPOLE MOMENT
-------------
                                X             Y             Z
Electronic contribution:    -11.62979     -11.58440      21.57012
Nuclear contribution   :     13.20892      10.81768     -20.11635
                        -----------------------------------------
Total Dipole Moment    :      1.57914      -0.76672       1.45378
                        -----------------------------------------
Magnitude (a.u.)       :      2.27925
Magnitude (Debye)      :      5.79340

Rotational constants in cm-1:     0.001033     0.000256     0.000234
Rotational constants in MHz :    30.963947     7.679002     7.020204

                             ****ORCA TERMINATED NORMALLY****
TOTAL RUN TIME: 0 days 0 hours 13 minutes 49 seconds 887 msec
