                         Program Version 4.2.0 -  RELEASE  -
|  1> # ORCA input file
|  2> # SCF done       -194.315538768439          0.000731229299
|  3> ! CAM-B3LYP def2-SVP def2/J RIJCOSX Grid4 TightSCF
|  4> %maxcore 5000
|  5> %tddft
|  6>     Mode sTDDFT
|  7>     Ethresh 5.0
|  8>     maxcore 5000
|  9> end
| 10>
| 11> %pal
| 12>   nprocs 6
| 13>   end
| 14> * xyz 0 1
| 15>    C       -4.33306        -3.96346         1.97642
| 16>    C       -3.86749        -4.04042         3.26401
| 17>    C       -3.02167        -5.06592         3.73823
| 18>    N       -2.33082        -5.86462         4.18805
| 19>    C       -4.17701        -3.14842         4.31245
| 20>    N       -4.39142        -2.48590         5.22633
| 21>    C       -4.08445        -4.94862         0.93325
| 22>    C       -4.84353        -4.59799        -0.21053
| 23>    C       -4.83488        -5.34276        -1.36547
| 24>    C       -4.03701        -6.48991        -1.39486
| 25>    C       -3.27660        -6.83083        -0.24954
| 26>    C       -3.28646        -6.07771         0.91831
| 27>    S       -2.36289        -8.28249        -0.51184
| 28>    C       -2.99408        -8.41896        -2.11628
| 29>    C       -3.84957        -7.42755        -2.44885
| 30>    C       -5.59494        -3.36018         0.05183
| 31>    O       -6.32934        -2.79558        -0.73066
| 32>    C       -5.21686        -2.94454         1.42747
| 33>    C       -5.50487        -1.76736         2.05827
| 34>    C       -6.38729        -0.72271         1.71025
| 35>    C       -7.38549        -0.61367         0.75064
| 36>    C       -8.03946         0.61004         0.81246
| 37>    C       -7.53863         1.45643         1.82657
| 38>    S       -6.28222         0.73362         2.71137
| 39>    C       -8.25219         2.67783         1.78633
| 40>    C       -9.20825         2.60890         0.75451
| 41>    C       -9.11422         1.30187         0.11805
| 42>    C       -9.88716         0.82687        -0.89830
| 43>    C       -9.75179        -0.47589        -1.42825
| 44>    N       -9.68321        -1.53054        -1.87101
| 45>    C      -10.90899         1.60187        -1.49014
| 46>    N      -11.74085         2.22046        -1.97887
| 47>    C       -9.95645         3.77670         0.63318
| 48>    C       -9.57096         4.72804         1.56459
| 49>    S       -8.27744         4.17597         2.60492
| 50>    C      -10.11171         6.02956         1.69723
| 51>    N      -11.05790         6.49377         0.93373
| 52>    C      -11.35689         7.74831         1.26001
| 53>    C      -10.62773         8.31323         2.32391
| 54>    S       -9.50609         7.16664         2.93319
| 55>    N      -10.91467         9.57395         2.63798
| 56>    C      -11.84840        10.04241         1.86117
| 57>    S      -12.46958         8.90081         0.63983
| 58>    C      -12.33898        11.36623         1.93394
| 59>    C      -13.29915        11.96350         1.13618
| 60>    C      -13.49366        13.29795         1.48369
| 61>    C      -12.67407        13.70905         2.55345
| 62>    S      -11.67002        12.45567         3.13080
| 63>    C      -12.92365        15.08173         2.81006
| 64>    C      -13.90034        15.53433         1.90177
| 65>    C      -14.28747        14.43193         1.03816
| 66>    C      -15.17774        14.47651         0.00635
| 67>    C      -15.47679        13.34455        -0.78119
| 68>    N      -15.72858        12.42444        -1.41677
| 69>    C      -15.85255        15.66936        -0.33049
| 70>    N      -16.39378        16.64608        -0.59068
| 71>    C      -14.17867        16.88899         2.03634
| 72>    C      -13.42166        17.48173         3.03520
| 73>    S      -12.37845        16.31871         3.84260
| 74>    C      -13.42353        18.82971         3.46534
| 75>    C      -13.84385        19.93349         2.79246
| 76>    C      -14.17897        20.18868         1.40508
| 77>    C      -13.64293        19.57386         0.30343
| 78>    C      -13.90880        19.96902        -1.02494
| 79>    N      -14.08546        20.25036        -2.12320
| 80>    C      -12.68501        18.54334         0.36033
| 81>    N      -11.88129        17.72309         0.35375
| 82>    C      -14.97391        21.41054         1.37280
| 83>    C      -14.91927        22.02589         2.65103
| 84>    C      -14.14086        21.17623         3.56674
| 85>    O      -13.83596        21.39327         4.71658
| 86>    C      -15.53712        23.22473         2.91641
| 87>    C      -16.24973        23.83593         1.88037
| 88>    C      -16.31488        23.20214         0.61497
| 89>    C      -15.68378        21.99417         0.34193
| 90>    S      -17.25986        24.12965        -0.50486
| 91>    C      -17.54839        25.33607         0.70004
| 92>    C      -16.97026        25.06328         1.89031
| 93>    H       -5.42863        -5.04734        -2.21653
| 94>    H       -2.68646        -6.37863         1.76061
| 95>    H       -2.68019        -9.24744        -2.72110
| 96>    H       -4.33902        -7.34852        -3.40260
| 97>    H       -4.96871        -1.57484         2.98048
| 98>    H       -7.59669        -1.39686         0.04524
| 99>    H      -10.73876         3.96207        -0.07916
|100>    H      -13.81126        11.44102         0.34818
|101>    H      -14.91863        17.42234         1.46782
|102>    H      -13.10049        19.01076         4.48611
|103>    H      -15.47156        23.67682         3.89384
|104>    H      -15.76778        21.54209        -0.63254
|105>    H      -18.14366        26.18929         0.43854
|106>    H      -17.04202        25.69846         2.75450
|107> *
|108>
|109>                          ****END OF INPUT****

CARTESIAN COORDINATES (ANGSTROEM)
---------------------------------
  C     -4.333060   -3.963460    1.976420
  C     -3.867490   -4.040420    3.264010
  C     -3.021670   -5.065920    3.738230
  N     -2.330820   -5.864620    4.188050
  C     -4.177010   -3.148420    4.312450
  N     -4.391420   -2.485900    5.226330
  C     -4.084450   -4.948620    0.933250
  C     -4.843530   -4.597990   -0.210530
  C     -4.834880   -5.342760   -1.365470
  C     -4.037010   -6.489910   -1.394860
  C     -3.276600   -6.830830   -0.249540
  C     -3.286460   -6.077710    0.918310
  S     -2.362890   -8.282490   -0.511840
  C     -2.994080   -8.418960   -2.116280
  C     -3.849570   -7.427550   -2.448850
  C     -5.594940   -3.360180    0.051830
  O     -6.329340   -2.795580   -0.730660
  C     -5.216860   -2.944540    1.427470
  C     -5.504870   -1.767360    2.058270
  C     -6.387290   -0.722710    1.710250
  C     -7.385490   -0.613670    0.750640
  C     -8.039460    0.610040    0.812460
  C     -7.538630    1.456430    1.826570
  S     -6.282220    0.733620    2.711370
  C     -8.252190    2.677830    1.786330
  C     -9.208250    2.608900    0.754510
  C     -9.114220    1.301870    0.118050
  C     -9.887160    0.826870   -0.898300
  C     -9.751790   -0.475890   -1.428250
  N     -9.683210   -1.530540   -1.871010
  C    -10.908990    1.601870   -1.490140
  N    -11.740850    2.220460   -1.978870
  C     -9.956450    3.776700    0.633180
  C     -9.570960    4.728040    1.564590
  S     -8.277440    4.175970    2.604920
  C    -10.111710    6.029560    1.697230
  N    -11.057900    6.493770    0.933730
  C    -11.356890    7.748310    1.260010
  C    -10.627730    8.313230    2.323910
  S     -9.506090    7.166640    2.933190
  N    -10.914670    9.573950    2.637980
  C    -11.848400   10.042410    1.861170
  S    -12.469580    8.900810    0.639830
  C    -12.338980   11.366230    1.933940
  C    -13.299150   11.963500    1.136180
  C    -13.493660   13.297950    1.483690
  C    -12.674070   13.709050    2.553450
  S    -11.670020   12.455670    3.130800
  C    -12.923650   15.081730    2.810060
  C    -13.900340   15.534330    1.901770
  C    -14.287470   14.431930    1.038160
  C    -15.177740   14.476510    0.006350
  C    -15.476790   13.344550   -0.781190
  N    -15.728580   12.424440   -1.416770
  C    -15.852550   15.669360   -0.330490
  N    -16.393780   16.646080   -0.590680
  C    -14.178670   16.888990    2.036340
  C    -13.421660   17.481730    3.035200
  S    -12.378450   16.318710    3.842600
  C    -13.423530   18.829710    3.465340
  C    -13.843850   19.933490    2.792460
  C    -14.178970   20.188680    1.405080
  C    -13.642930   19.573860    0.303430
  C    -13.908800   19.969020   -1.024940
  N    -14.085460   20.250360   -2.123200
  C    -12.685010   18.543340    0.360330
  N    -11.881290   17.723090    0.353750
  C    -14.973910   21.410540    1.372800
  C    -14.919270   22.025890    2.651030
  C    -14.140860   21.176230    3.566740
  O    -13.835960   21.393270    4.716580
  C    -15.537120   23.224730    2.916410
  C    -16.249730   23.835930    1.880370
  C    -16.314880   23.202140    0.614970
  C    -15.683780   21.994170    0.341930
  S    -17.259860   24.129650   -0.504860
  C    -17.548390   25.336070    0.700040
  C    -16.970260   25.063280    1.890310
  H     -5.428630   -5.047340   -2.216530
  H     -2.686460   -6.378630    1.760610
  H     -2.680190   -9.247440   -2.721100
  H     -4.339020   -7.348520   -3.402600
  H     -4.968710   -1.574840    2.980480
  H     -7.596690   -1.396860    0.045240
  H    -10.738760    3.962070   -0.079160
  H    -13.811260   11.441020    0.348180
  H    -14.918630   17.422340    1.467820
  H    -13.100490   19.010760    4.486110
  H    -15.471560   23.676820    3.893840
  H    -15.767780   21.542090   -0.632540
  H    -18.143660   26.189290    0.438540
  H    -17.042020   25.698460    2.754500

 Total Charge           Charge          ....    0
 Multiplicity           Mult            ....    1
 Number of Electrons    NEL             ....  576
 Basis Dimension        Dim             .... 1194

ORBITAL ENERGIES
----------------

  NO   OCC          E(Eh)            E(eV)
   0   2.0000     -89.004460     -2421.9345
   1   2.0000     -88.999718     -2421.8054
   2   2.0000     -88.999526     -2421.8002
   3   2.0000     -88.999286     -2421.7937
   4   2.0000     -88.986250     -2421.4390
   5   2.0000     -88.984540     -2421.3924
   6   2.0000     -88.968254     -2420.9493
   7   2.0000     -88.967481     -2420.9282
   8   2.0000     -19.220411      -523.0140
   9   2.0000     -19.218020      -522.9489
  10   2.0000     -14.439610      -392.9218
  11   2.0000     -14.438794      -392.8996
  12   2.0000     -14.436379      -392.8338
  13   2.0000     -14.435619      -392.8132
  14   2.0000     -14.434353      -392.7787
  15   2.0000     -14.432268      -392.7220
  16   2.0000     -14.420090      -392.3906
  17   2.0000     -14.419117      -392.3641
  18   2.0000     -14.415859      -392.2755
  19   2.0000     -14.415701      -392.2712
  20   2.0000     -10.372372      -282.2466
  21   2.0000     -10.371645      -282.2268
  22   2.0000     -10.371459      -282.2217
  23   2.0000     -10.369071      -282.1568
  24   2.0000     -10.368192      -282.1329
  25   2.0000     -10.367861      -282.1238
  26   2.0000     -10.358628      -281.8726
  27   2.0000     -10.358238      -281.8620
  28   2.0000     -10.349588      -281.6266
  29   2.0000     -10.346694      -281.5478
  30   2.0000     -10.346537      -281.5436
  31   2.0000     -10.345833      -281.5244
  32   2.0000     -10.345653      -281.5195
  33   2.0000     -10.345630      -281.5189
  34   2.0000     -10.344435      -281.4864
  35   2.0000     -10.344040      -281.4756
  36   2.0000     -10.343463      -281.4599
  37   2.0000     -10.342056      -281.4217
  38   2.0000     -10.339396      -281.3493
  39   2.0000     -10.336545      -281.2717
  40   2.0000     -10.336527      -281.2712
  41   2.0000     -10.335559      -281.2448
  42   2.0000     -10.333847      -281.1983
  43   2.0000     -10.332239      -281.1545
  44   2.0000     -10.331758      -281.1414
  45   2.0000     -10.331166      -281.1253
  46   2.0000     -10.329822      -281.0887
  47   2.0000     -10.327524      -281.0262
  48   2.0000     -10.322692      -280.8947
  49   2.0000     -10.322258      -280.8829
  50   2.0000     -10.321676      -280.8671
  51   2.0000     -10.321605      -280.8652
  52   2.0000     -10.318760      -280.7877
  53   2.0000     -10.318192      -280.7723
  54   2.0000     -10.318079      -280.7692
  55   2.0000     -10.315457      -280.6979
  56   2.0000     -10.315292      -280.6934
  57   2.0000     -10.315060      -280.6871
  58   2.0000     -10.315039      -280.6865
  59   2.0000     -10.314699      -280.6772
  60   2.0000     -10.312713      -280.6232
  61   2.0000     -10.312521      -280.6180
  62   2.0000     -10.311639      -280.5939
  63   2.0000     -10.309299      -280.5303
  64   2.0000     -10.309273      -280.5296
  65   2.0000     -10.307503      -280.4814
  66   2.0000     -10.305150      -280.4174
  67   2.0000     -10.304580      -280.4019
  68   2.0000     -10.304351      -280.3957
  69   2.0000     -10.304054      -280.3876
  70   2.0000     -10.303595      -280.3751
  71   2.0000     -10.302779      -280.3529
  72   2.0000     -10.301558      -280.3196
  73   2.0000     -10.299540      -280.2647
  74   2.0000     -10.293546      -280.1016
  75   2.0000     -10.291331      -280.0413
  76   2.0000     -10.290507      -280.0189
  77   2.0000     -10.289726      -279.9977
  78   2.0000      -8.099286      -220.3928
  79   2.0000      -8.094283      -220.2566
  80   2.0000      -8.094144      -220.2529
  81   2.0000      -8.093984      -220.2485
  82   2.0000      -8.082350      -219.9319
  83   2.0000      -8.080289      -219.8758
  84   2.0000      -8.064454      -219.4450
  85   2.0000      -8.063751      -219.4258
  86   2.0000      -6.068526      -165.1330
  87   2.0000      -6.064381      -165.0202
  88   2.0000      -6.063420      -164.9941
  89   2.0000      -6.063271      -164.9900
  90   2.0000      -6.063245      -164.9893
  91   2.0000      -6.061576      -164.9439
  92   2.0000      -6.059278      -164.8813
  93   2.0000      -6.059116      -164.8769
  94   2.0000      -6.058995      -164.8736
  95   2.0000      -6.056780      -164.8134
  96   2.0000      -6.056656      -164.8100
  97   2.0000      -6.056326      -164.8010
  98   2.0000      -6.051519      -164.6702
  99   2.0000      -6.049463      -164.6143
 100   2.0000      -6.047842      -164.5702
 101   2.0000      -6.045817      -164.5150
 102   2.0000      -6.044024      -164.4662
 103   2.0000      -6.041931      -164.4093
 104   2.0000      -6.033970      -164.1927
 105   2.0000      -6.033263      -164.1734
 106   2.0000      -6.029642      -164.0749
 107   2.0000      -6.028950      -164.0561
 108   2.0000      -6.026163      -163.9802
 109   2.0000      -6.025421      -163.9600
 110   2.0000      -1.136024       -30.9128
 111   2.0000      -1.133461       -30.8430
 112   2.0000      -1.111584       -30.2477
 113   2.0000      -1.072876       -29.1944
 114   2.0000      -1.054723       -28.7005
 115   2.0000      -1.053241       -28.6602
 116   2.0000      -1.028108       -27.9762
 117   2.0000      -1.026185       -27.9239
 118   2.0000      -1.023544       -27.8521
 119   2.0000      -1.022383       -27.8205
 120   2.0000      -1.013748       -27.5855
 121   2.0000      -1.011032       -27.5116
 122   2.0000      -1.010724       -27.5032
 123   2.0000      -1.009957       -27.4823
 124   2.0000      -1.008343       -27.4384
 125   2.0000      -1.006424       -27.3862
 126   2.0000      -0.995993       -27.1023
 127   2.0000      -0.995834       -27.0980
 128   2.0000      -0.987610       -26.8742
 129   2.0000      -0.986891       -26.8547
 130   2.0000      -0.968441       -26.3526
 131   2.0000      -0.967548       -26.3283
 132   2.0000      -0.937064       -25.4988
 133   2.0000      -0.935537       -25.4573
 134   2.0000      -0.933216       -25.3941
 135   2.0000      -0.925522       -25.1847
 136   2.0000      -0.920716       -25.0540
 137   2.0000      -0.904926       -24.6243
 138   2.0000      -0.901022       -24.5181
 139   2.0000      -0.898782       -24.4571
 140   2.0000      -0.883499       -24.0412
 141   2.0000      -0.882741       -24.0206
 142   2.0000      -0.882468       -24.0132
 143   2.0000      -0.880098       -23.9487
 144   2.0000      -0.878272       -23.8990
 145   2.0000      -0.870151       -23.6780
 146   2.0000      -0.865761       -23.5586
 147   2.0000      -0.864099       -23.5133
 148   2.0000      -0.850766       -23.1505
 149   2.0000      -0.827132       -22.5074
 150   2.0000      -0.825040       -22.4505
 151   2.0000      -0.824165       -22.4267
 152   2.0000      -0.806115       -21.9355
 153   2.0000      -0.798780       -21.7359
 154   2.0000      -0.785129       -21.3644
 155   2.0000      -0.782030       -21.2801
 156   2.0000      -0.770183       -20.9578
 157   2.0000      -0.760876       -20.7045
 158   2.0000      -0.758850       -20.6494
 159   2.0000      -0.748590       -20.3702
 160   2.0000      -0.728656       -19.8277
 161   2.0000      -0.721648       -19.6371
 162   2.0000      -0.711112       -19.3503
 163   2.0000      -0.705426       -19.1956
 164   2.0000      -0.703154       -19.1338
 165   2.0000      -0.696340       -18.9484
 166   2.0000      -0.693879       -18.8814
 167   2.0000      -0.691234       -18.8094
 168   2.0000      -0.688039       -18.7225
 169   2.0000      -0.685687       -18.6585
 170   2.0000      -0.683214       -18.5912
 171   2.0000      -0.676868       -18.4185
 172   2.0000      -0.667590       -18.1661
 173   2.0000      -0.663944       -18.0668
 174   2.0000      -0.662826       -18.0364
 175   2.0000      -0.653512       -17.7830
 176   2.0000      -0.648140       -17.6368
 177   2.0000      -0.639279       -17.3957
 178   2.0000      -0.636288       -17.3143
 179   2.0000      -0.629969       -17.1423
 180   2.0000      -0.625630       -17.0243
 181   2.0000      -0.623063       -16.9544
 182   2.0000      -0.622082       -16.9277
 183   2.0000      -0.618958       -16.8427
 184   2.0000      -0.607779       -16.5385
 185   2.0000      -0.603940       -16.4340
 186   2.0000      -0.597241       -16.2518
 187   2.0000      -0.595785       -16.2121
 188   2.0000      -0.592192       -16.1144
 189   2.0000      -0.581558       -15.8250
 190   2.0000      -0.574010       -15.6196
 191   2.0000      -0.567087       -15.4312
 192   2.0000      -0.565145       -15.3784
 193   2.0000      -0.557260       -15.1638
 194   2.0000      -0.556352       -15.1391
 195   2.0000      -0.553256       -15.0548
 196   2.0000      -0.551610       -15.0101
 197   2.0000      -0.549122       -14.9424
 198   2.0000      -0.546253       -14.8643
 199   2.0000      -0.542097       -14.7512
 200   2.0000      -0.541483       -14.7345
 201   2.0000      -0.541149       -14.7254
 202   2.0000      -0.536620       -14.6022
 203   2.0000      -0.535373       -14.5683
 204   2.0000      -0.531423       -14.4607
 205   2.0000      -0.525571       -14.3015
 206   2.0000      -0.523150       -14.2356
 207   2.0000      -0.520267       -14.1572
 208   2.0000      -0.518804       -14.1174
 209   2.0000      -0.517624       -14.0853
 210   2.0000      -0.515930       -14.0392
 211   2.0000      -0.513100       -13.9622
 212   2.0000      -0.511003       -13.9051
 213   2.0000      -0.508766       -13.8442
 214   2.0000      -0.506937       -13.7945
 215   2.0000      -0.503086       -13.6897
 216   2.0000      -0.502261       -13.6672
 217   2.0000      -0.500561       -13.6209
 218   2.0000      -0.499292       -13.5864
 219   2.0000      -0.497094       -13.5266
 220   2.0000      -0.494376       -13.4527
 221   2.0000      -0.493868       -13.4388
 222   2.0000      -0.491557       -13.3759
 223   2.0000      -0.489940       -13.3319
 224   2.0000      -0.488143       -13.2830
 225   2.0000      -0.482545       -13.1307
 226   2.0000      -0.477237       -12.9863
 227   2.0000      -0.474476       -12.9111
 228   2.0000      -0.473058       -12.8726
 229   2.0000      -0.470367       -12.7993
 230   2.0000      -0.466675       -12.6989
 231   2.0000      -0.463926       -12.6241
 232   2.0000      -0.463621       -12.6158
 233   2.0000      -0.463346       -12.6083
 234   2.0000      -0.460698       -12.5362
 235   2.0000      -0.458527       -12.4772
 236   2.0000      -0.455769       -12.4021
 237   2.0000      -0.453373       -12.3369
 238   2.0000      -0.452278       -12.3071
 239   2.0000      -0.451642       -12.2898
 240   2.0000      -0.450876       -12.2689
 241   2.0000      -0.450692       -12.2639
 242   2.0000      -0.445887       -12.1332
 243   2.0000      -0.444876       -12.1057
 244   2.0000      -0.444760       -12.1025
 245   2.0000      -0.444148       -12.0859
 246   2.0000      -0.442482       -12.0405
 247   2.0000      -0.442190       -12.0326
 248   2.0000      -0.438396       -11.9294
 249   2.0000      -0.438095       -11.9212
 250   2.0000      -0.436909       -11.8889
 251   2.0000      -0.436180       -11.8691
 252   2.0000      -0.434081       -11.8119
 253   2.0000      -0.433424       -11.7941
 254   2.0000      -0.432340       -11.7646
 255   2.0000      -0.429410       -11.6849
 256   2.0000      -0.428830       -11.6691
 257   2.0000      -0.428728       -11.6663
 258   2.0000      -0.426869       -11.6157
 259   2.0000      -0.423353       -11.5200
 260   2.0000      -0.422318       -11.4918
 261   2.0000      -0.412635       -11.2284
 262   2.0000      -0.411607       -11.2004
 263   2.0000      -0.409890       -11.1537
 264   2.0000      -0.407783       -11.0963
 265   2.0000      -0.406198       -11.0532
 266   2.0000      -0.394152       -10.7254
 267   2.0000      -0.392930       -10.6922
 268   2.0000      -0.384809       -10.4712
 269   2.0000      -0.378374       -10.2961
 270   2.0000      -0.373253       -10.1567
 271   2.0000      -0.364368        -9.9150
 272   2.0000      -0.362293        -9.8585
 273   2.0000      -0.358953        -9.7676
 274   2.0000      -0.356273        -9.6947
 275   2.0000      -0.345817        -9.4102
 276   2.0000      -0.342679        -9.3248
 277   2.0000      -0.340810        -9.2739
 278   2.0000      -0.336723        -9.1627
 279   2.0000      -0.330077        -8.9818
 280   2.0000      -0.328064        -8.9271
 281   2.0000      -0.315909        -8.5963
 282   2.0000      -0.315475        -8.5845
 283   2.0000      -0.309406        -8.4194
 284   2.0000      -0.297322        -8.0905
 285   2.0000      -0.295487        -8.0406
 286   2.0000      -0.279377        -7.6022
 287   2.0000      -0.254579        -6.9274
 288   0.0000      -0.120365        -3.2753
 289   0.0000      -0.113780        -3.0961
 290   0.0000      -0.091832        -2.4989
 291   0.0000      -0.090559        -2.4642
 292   0.0000      -0.068520        -1.8645

MULLIKEN ATOMIC CHARGES
-----------------------
   0 C :    0.310057
   1 C :   -0.351491
   2 C :   -0.184603
   3 N :    0.148286
   4 C :   -0.195304
   5 N :    0.150715
   6 C :    0.011006
   7 C :   -0.015533
   8 C :   -0.064156
   9 C :    0.114875
  10 C :   -0.096673
  11 C :   -0.019901
  12 S :    0.142432
  13 C :   -0.048275
  14 C :    0.027311
  15 C :    0.153542
  16 O :   -0.150583
  17 C :   -0.082377
  18 C :    0.032171
  19 C :   -0.111535
  20 C :   -0.000671
  21 C :   -0.011362
  22 C :   -0.080272
  23 S :    0.207389
  24 C :   -0.098495
  25 C :    0.020326
  26 C :    0.308340
  27 C :   -0.290583
  28 C :   -0.191651
  29 N :    0.195867
  30 C :   -0.197157
  31 N :    0.185222
  32 C :   -0.039393
  33 C :   -0.032497
  34 S :    0.205446
  35 C :   -0.113334
  36 N :   -0.020706
  37 C :   -0.051154
  38 C :   -0.055535
  39 S :    0.129330
  40 N :   -0.043582
  41 C :   -0.106711
  42 S :    0.145910
  43 C :   -0.046362
  44 C :   -0.049049
  45 C :    0.018925
  46 C :   -0.108024
  47 S :    0.257186
  48 C :   -0.075809
  49 C :   -0.003882
  50 C :    0.305613
  51 C :   -0.282565
  52 C :   -0.190706
  53 N :    0.177863
  54 C :   -0.184552
  55 N :    0.170941
  56 C :   -0.001148
  57 C :   -0.115482
  58 S :    0.219631
  59 C :    0.080355
  60 C :   -0.128122
  61 C :    0.265910
  62 C :   -0.335692
  63 C :   -0.176736
  64 N :    0.163947
  65 C :   -0.198837
  66 N :    0.169785
  67 C :   -0.003725
  68 C :    0.003087
  69 C :    0.132149
  70 O :   -0.143197
  71 C :   -0.067753
  72 C :    0.111697
  73 C :   -0.094583
  74 C :   -0.018054
  75 S :    0.145685
  76 C :   -0.050087
  77 C :    0.024381
  78 H :   -0.007371
  79 H :   -0.006451
  80 H :    0.039403
  81 H :   -0.005115
  82 H :    0.011328
  83 H :    0.039417
  84 H :    0.027042
  85 H :    0.020397
  86 H :    0.025286
  87 H :    0.021597
  88 H :   -0.010667
  89 H :    0.002827
  90 H :    0.040225
  91 H :   -0.005393
Sum of atomic charges:   -0.0000000

LOEWDIN ATOMIC CHARGES
----------------------
   0 C :    0.077301
   1 C :   -0.143015
   2 C :   -0.018145
   3 N :   -0.053000
   4 C :   -0.024349
   5 N :   -0.054442
   6 C :   -0.023724
   7 C :   -0.053318
   8 C :    0.025758
   9 C :   -0.033932
  10 C :   -0.145116
  11 C :   -0.008160
  12 S :    0.430748
  13 C :   -0.148165
  14 C :   -0.056750
  15 C :    0.086806
  16 O :   -0.136834
  17 C :   -0.092363
  18 C :    0.039834
  19 C :   -0.174541
  20 C :    0.017088
  21 C :   -0.072280
  22 C :   -0.162948
  23 S :    0.496905
  24 C :   -0.184576
  25 C :   -0.053947
  26 C :    0.073473
  27 C :   -0.088472
  28 C :   -0.022092
  29 N :   -0.013205
  30 C :   -0.018343
  31 N :   -0.022492
  32 C :   -0.001836
  33 C :   -0.190543
  34 S :    0.482792
  35 C :   -0.134708
  36 N :   -0.090524
  37 C :   -0.207657
  38 C :   -0.208874
  39 S :    0.405506
  40 N :   -0.109241
  41 C :   -0.132410
  42 S :    0.428604
  43 C :   -0.192478
  44 C :   -0.022208
  45 C :   -0.061245
  46 C :   -0.177671
  47 S :    0.520324
  48 C :   -0.163003
  49 C :   -0.063321
  50 C :    0.081677
  51 C :   -0.095995
  52 C :   -0.017763
  53 N :   -0.026720
  54 C :   -0.013110
  55 N :   -0.030557
  56 C :    0.005505
  57 C :   -0.179464
  58 S :    0.503286
  59 C :    0.040300
  60 C :   -0.086122
  61 C :    0.066343
  62 C :   -0.136779
  63 C :   -0.019663
  64 N :   -0.044905
  65 C :   -0.015721
  66 N :   -0.048181
  67 C :   -0.019383
  68 C :   -0.056510
  69 C :    0.083539
  70 O :   -0.143230
  71 C :    0.024809
  72 C :   -0.035064
  73 C :   -0.144052
  74 C :   -0.007798
  75 S :    0.433682
  76 C :   -0.148815
  77 C :   -0.057618
  78 H :    0.042182
  79 H :    0.040814
  80 H :    0.029841
  81 H :    0.036161
  82 H :    0.042608
  83 H :    0.043999
  84 H :    0.049606
  85 H :    0.039913
  86 H :    0.042665
  87 H :    0.046059
  88 H :    0.041008
  89 H :    0.042660
  90 H :    0.029936
  91 H :    0.035647

  Mayer bond orders larger than 0.100000
B(  0-C ,  1-C ) :   1.6236 B(  0-C ,  6-C ) :   1.0025 B(  0-C , 17-C ) :   1.0746
B(  1-C ,  2-C ) :   1.1431 B(  1-C ,  4-C ) :   1.1405 B(  2-C ,  3-N ) :   2.9704
B(  4-C ,  5-N ) :   2.9768 B(  6-C ,  7-C ) :   1.2691 B(  6-C , 11-C ) :   1.4082
B(  7-C ,  8-C ) :   1.4247 B(  7-C , 15-C ) :   0.9553 B(  8-C ,  9-C ) :   1.2425
B(  8-C , 78-H ) :   1.0172 B(  9-C , 10-C ) :   1.2998 B(  9-C , 14-C ) :   1.1726
B( 10-C , 11-C ) :   1.3259 B( 10-C , 12-S ) :   1.1001 B( 11-C , 79-H ) :   0.9822
B( 12-S , 13-C ) :   1.1268 B( 13-C , 14-C ) :   1.6282 B( 13-C , 80-H ) :   0.9684
B( 14-C , 81-H ) :   0.9992 B( 15-C , 16-O ) :   2.1740 B( 15-C , 17-C ) :   0.9359
B( 17-C , 18-C ) :   1.6077 B( 18-C , 19-C ) :   1.2026 B( 18-C , 82-H ) :   0.9143
B( 19-C , 20-C ) :   1.4062 B( 19-C , 23-S ) :   1.0797 B( 20-C , 21-C ) :   1.3138
B( 20-C , 83-H ) :   0.9706 B( 21-C , 22-C ) :   1.3867 B( 21-C , 26-C ) :   0.9990
B( 22-C , 23-S ) :   1.1635 B( 22-C , 24-C ) :   1.2048 B( 24-C , 25-C ) :   1.4245
B( 24-C , 34-S ) :   1.1247 B( 25-C , 26-C ) :   0.9849 B( 25-C , 32-C ) :   1.2775
B( 26-C , 27-C ) :   1.7227 B( 27-C , 28-C ) :   1.1334 B( 27-C , 30-C ) :   1.1369
B( 28-C , 29-N ) :   2.9967 B( 30-C , 31-N ) :   2.9970 B( 32-C , 33-C ) :   1.4623
B( 32-C , 84-H ) :   1.0111 B( 33-C , 34-S ) :   1.1126 B( 33-C , 35-C ) :   1.1058
B( 35-C , 36-N ) :   1.7341 B( 35-C , 39-S ) :   1.0797 B( 36-N , 37-C ) :   1.4012
B( 36-N , 39-S ) :   0.1021 B( 37-C , 38-C ) :   1.2939 B( 37-C , 42-S ) :   1.0985
B( 38-C , 39-S ) :   1.1025 B( 38-C , 40-N ) :   1.4057 B( 40-N , 41-C ) :   1.7155
B( 41-C , 42-S ) :   1.0973 B( 41-C , 43-C ) :   1.1514 B( 43-C , 44-C ) :   1.4541
B( 43-C , 47-S ) :   1.1115 B( 44-C , 45-C ) :   1.3191 B( 44-C , 85-H ) :   0.9845
B( 45-C , 46-C ) :   1.4302 B( 45-C , 50-C ) :   0.9950 B( 46-C , 47-S ) :   1.1270
B( 46-C , 48-C ) :   1.1943 B( 48-C , 49-C ) :   1.4194 B( 48-C , 58-S ) :   1.1519
B( 49-C , 50-C ) :   0.9984 B( 49-C , 56-C ) :   1.3502 B( 50-C , 51-C ) :   1.7195
B( 51-C , 52-C ) :   1.1315 B( 51-C , 54-C ) :   1.1342 B( 52-C , 53-N ) :   2.9937
B( 54-C , 55-N ) :   2.9817 B( 56-C , 57-C ) :   1.4081 B( 56-C , 86-H ) :   0.9824
B( 57-C , 58-S ) :   1.0963 B( 57-C , 59-C ) :   1.1159 B( 59-C , 60-C ) :   1.6955
B( 59-C , 87-H ) :   0.9281 B( 60-C , 61-C ) :   1.0289 B( 60-C , 69-C ) :   0.9366
B( 61-C , 62-C ) :   1.6512 B( 61-C , 67-C ) :   1.0147 B( 62-C , 63-C ) :   1.1273
B( 62-C , 65-C ) :   1.1738 B( 63-C , 64-N ) :   2.9960 B( 65-C , 66-N ) :   2.9986
B( 67-C , 68-C ) :   1.2684 B( 67-C , 74-C ) :   1.4168 B( 68-C , 69-C ) :   0.9254
B( 68-C , 71-C ) :   1.4237 B( 69-C , 70-O ) :   2.2663 B( 71-C , 72-C ) :   1.2521
B( 71-C , 88-H ) :   1.0167 B( 72-C , 73-C ) :   1.3001 B( 72-C , 77-C ) :   1.1727
B( 73-C , 74-C ) :   1.3201 B( 73-C , 75-S ) :   1.1007 B( 74-C , 89-H ) :   0.9857
B( 75-S , 76-C ) :   1.1275 B( 76-C , 77-C ) :   1.6296 B( 76-C , 90-H ) :   0.9680
B( 77-C , 91-H ) :   0.9995

-----------------------------------------------------------------------------
         ABSORPTION SPECTRUM VIA TRANSITION ELECTRIC DIPOLE MOMENTS
-----------------------------------------------------------------------------
State   Energy  Wavelength   fosc         T2         TX        TY        TZ
        (cm-1)    (nm)                  (au**2)     (au)      (au)      (au)
-----------------------------------------------------------------------------
   0   13308.7    751.4   0.839054010  20.75529   1.60072  -4.26384  -0.11272
   1   14195.6    704.4   0.070150729   1.62687  -0.84282   0.95683  -0.03175
   2   19774.6    505.7   1.870635022  31.14278  -1.81772   5.27206  -0.20988
   3   21470.1    465.8   0.306204472   4.69519   1.61485  -1.43668  -0.15294
   4   22249.4    449.4   0.098302756   1.45453  -0.86800   0.83702   0.02256
   5   23320.6    428.8   0.131720820   1.85948  -0.60521   1.05766  -0.61200
   6   25444.7    393.0   0.012669464   0.16392   0.24920   0.30813   0.08294
   7   25655.9    389.8   0.011065754   0.14199  -0.09182  -0.05178  -0.36177
   8   26267.6    380.7   0.633372310   7.93804   0.86252  -2.49461  -0.98542
   9   27874.6    358.7   0.004735606   0.05593  -0.09092  -0.20664  -0.07046
  10   27979.0    357.4   0.026170595   0.30793   0.34442   0.08228   0.42724
  11   28273.3    353.7   0.023387706   0.27232  -0.12348   0.18662   0.47143
  12   28617.9    349.4   0.003488559   0.04013  -0.09620  -0.17517   0.01390
  13   28792.1    347.3   0.005840641   0.06678   0.15051   0.02595  -0.20846
  14   29190.9    342.6   0.013612009   0.15351  -0.02934  -0.36357  -0.14307
  15   29456.2    339.5   0.022684627   0.25353   0.49474   0.05926   0.07246
  16   29947.5    333.9   0.011888270   0.13069   0.11894  -0.18624   0.28611
  17   30177.0    331.4   0.074907233   0.81719  -0.61316  -0.66417  -0.01049
  18   30297.6    330.1   0.127184013   1.38197   0.73258   0.03900   0.91857
  19   30483.0    328.1   0.156080207   1.68564   0.91947  -0.64782   0.64850
  20   30655.5    326.2   0.549816767   5.90453   1.27920  -2.04645  -0.28328
  21   30988.4    322.7   0.346566519   3.68182   0.24594   1.14645   1.51888
  22   31179.2    320.7   0.443108029   4.67864   1.10626   0.62051   1.75208
  23   32265.4    309.9   0.062069718   0.63331  -0.58001   0.21452  -0.50089
  24   32354.5    309.1   0.043196653   0.43953   0.09303  -0.55976   0.34284
  25   32594.5    306.8   0.146854322   1.48326   0.16110  -1.16997  -0.29747
  26   33015.8    302.9   0.354319626   3.53304   1.12032  -1.50813   0.05885
  27   33066.1    302.4   0.037696960   0.37532   0.23249   0.33424   0.45777
  28   33716.4    296.6   0.006354340   0.06204  -0.09183   0.18040   0.14515
  29   33790.3    295.9   0.008345991   0.08131   0.24601  -0.05054   0.13504
  30   33827.0    295.6   0.110172327   1.07222  -0.25081   0.66701   0.75127
  31   34098.8    293.3   0.153305067   1.48011  -0.18878   0.93028   0.76095
  32   34135.5    292.9   0.048750921   0.47017  -0.42694   0.22755  -0.48591
  33   34319.3    291.4   0.285896006   2.74249   0.12945   0.55847   1.55365
  34   34528.0    289.6   0.071915243   0.68568  -0.25547  -0.07028  -0.78453
  35   34795.1    287.4   0.365729934   3.46034  -0.86317   1.52633   0.62095
  36   35015.8    285.6   0.135938792   1.27807   0.71486   0.25387   0.83821
  37   35389.5    282.6   0.085533887   0.79568   0.68808  -0.32028   0.46866
  38   35561.5    281.2   0.102497851   0.94888  -0.73538   0.05200  -0.63670
  39   35653.5    280.5   0.002997245   0.02768  -0.04930  -0.06466  -0.14513
  40   35954.7    278.1   0.025778655   0.23604  -0.39196   0.05882  -0.28097
  41   36048.8    277.4   0.111283941   1.01629   0.41843   0.49822   0.77005
  42   36437.0    274.4   0.009020798   0.08150   0.13547  -0.24048  -0.07296
  43   37126.2    269.4   0.050400816   0.44692   0.32766  -0.50010  -0.29911
  44   37235.0    268.6   0.041509314   0.36700   0.15032  -0.58113  -0.08181
  45   37442.0    267.1   0.030412040   0.26740   0.31692   0.00483   0.40858
  46   37807.4    264.5   0.055275882   0.48132  -0.24119   0.62278   0.18787
  47   37863.1    264.1   0.004249372   0.03695  -0.18725   0.02470  -0.03572
  48   37928.6    263.7   0.114001014   0.98950   0.46309   0.15094   0.86734
  49   38160.2    262.1   0.002210533   0.01907  -0.04280   0.10463   0.07932
  50   38558.7    259.3   0.070820752   0.60466   0.37937  -0.18571   0.65288
  51   38571.9    259.3   0.012649147   0.10796   0.16151  -0.06148   0.27946
  52   38700.0    258.4   0.000546447   0.00465   0.06812   0.00192   0.00209
  53   38934.3    256.8   0.069645533   0.58889   0.12864  -0.63684  -0.40838
  54   39137.4    255.5   0.193139956   1.62463  -0.69671   0.36456  -1.00316
  55   39897.0    250.6   0.047600666   0.39278   0.18639  -0.38925   0.45444
  56   40218.8    248.6   0.021260841   0.17403   0.14374  -0.04597  -0.38892
  57   40325.1    248.0   0.040825246   0.33330  -0.09205  -0.08756  -0.56316

FINAL SINGLE POINT ENERGY     -6097.258001125980

DIPOLE MOMENT
-------------
                                X             Y             Z
Electronic contribution:      1.57677      -2.50851       8.70912
Nuclear contribution   :     -1.55420       3.91098      -7.69060
                        -----------------------------------------
Total Dipole Moment    :      0.02257       1.40247       1.01852
                        -----------------------------------------
Magnitude (a.u.)       :      1.73344
Magnitude (Debye)      :      4.40606

Rotational constants in cm-1:     0.003015     0.000121     0.000119
Rotational constants in MHz :    90.374956     3.640531     3.553661

                             ****ORCA TERMINATED NORMALLY****
TOTAL RUN TIME: 0 days 0 hours 10 minutes 40 seconds 700 msec
