                         Program Version 4.2.0 -  RELEASE  -
|  1> # ORCA input file
|  2> # SCF done       -165.534132888256          0.000424111620
|  3> ! CAM-B3LYP def2-SVP def2/J RIJCOSX Grid4 TightSCF
|  4> %maxcore 5000
|  5> %tddft
|  6>     Mode sTDDFT
|  7>     Ethresh 5.0
|  8>     maxcore 5000
|  9> end
| 10>
| 11> %pal
| 12>   nprocs 6
| 13>   end
| 14> * xyz 0 1
| 15>    C        0.06460        -6.00941         5.90083
| 16>    N        0.75693        -6.27644         4.82771
| 17>    N        0.19567        -6.48522         3.66538
| 18>    C       -1.11165        -6.44097         3.47854
| 19>    C       -1.97013        -6.15601         4.57833
| 20>    C       -1.34369        -5.93226         5.84807
| 21>    N       -2.23542        -5.67909         6.80616
| 22>    S       -3.70518        -5.72082         6.16389
| 23>    N       -3.29479        -6.06007         4.64640
| 24>    C       -1.59444        -6.69537         2.15826
| 25>    C       -2.90074        -6.70351         1.71025
| 26>    C       -2.96834        -7.01112         0.35273
| 27>    C       -1.69712        -7.23493        -0.21879
| 28>    S       -0.42779        -7.06349         0.90694
| 29>    C       -1.86957        -7.55881        -1.58817
| 30>    C       -3.25066        -7.53945        -1.87967
| 31>    C       -3.98176        -7.18789        -0.67060
| 32>    C       -5.33253        -7.05582        -0.53249
| 33>    C       -6.21770        -7.25568        -1.61282
| 34>    N       -6.93888        -7.41796        -2.48933
| 35>    C       -5.93536        -6.71145         0.69596
| 36>    N       -6.43938        -6.43220         1.68716
| 37>    C       -3.52731        -7.86958        -3.19940
| 38>    C       -2.36364        -8.14036        -3.91004
| 39>    S       -0.90837        -7.97514        -2.93680
| 40>    C       -2.23470        -8.54123        -5.24994
| 41>    C       -1.02118        -8.81785        -5.88927
| 42>    C       -1.18448        -9.25267        -7.24603
| 43>    N       -0.13512        -9.56638        -8.00438
| 44>    C        1.05372        -9.45464        -7.44944
| 45>    C        2.22473        -9.79823        -8.29357
| 46>    O        2.11443       -10.17259        -9.44224
| 47>    C        3.53302        -9.64970        -7.63359
| 48>    C        3.68484        -9.24606        -6.36780
| 49>    C        2.56207        -8.90130        -5.47928
| 50>    O        2.72640        -8.54431        -4.33152
| 51>    C        1.21668        -9.02144        -6.09341
| 52>    N        0.18551        -8.71228        -5.33527
| 53>    C       -2.52360        -9.30779        -7.64800
| 54>    S       -3.56105        -8.80949        -6.34308
| 55>    C       -2.96939        -9.73652        -8.90906
| 56>    C       -4.27512        -9.81517        -9.37941
| 57>    C       -4.31994       -10.32656       -10.66916
| 58>    C       -3.04150       -10.63959       -11.17943
| 59>    S       -1.78137       -10.29231       -10.08022
| 60>    C       -3.19983       -11.18048       -12.48044
| 61>    C       -4.57663       -11.20511       -12.79126
| 62>    C       -5.32186       -10.66344       -11.67038
| 63>    C       -6.67296       -10.50296       -11.57155
| 64>    C       -7.27986        -9.95842       -10.42013
| 65>    N       -7.77676        -9.51625        -9.48613
| 66>    C       -7.55476       -10.86726       -12.61124
| 67>    N       -8.28160       -11.15938       -13.44847
| 68>    C       -4.83423       -11.74428       -14.05013
| 69>    C       -3.66645       -12.12469       -14.68157
| 70>    S       -2.22987       -11.81558       -13.73115
| 71>    C       -3.51170       -12.73250       -15.96519
| 72>    N       -2.28328       -13.02295       -16.35567
| 73>    N       -2.01547       -13.58859       -17.50375
| 74>    C       -2.94697       -13.91465       -18.35707
| 75>    C       -4.30572       -13.66202       -18.07074
| 76>    C       -4.61143       -13.03935       -16.81634
| 77>    N       -5.91758       -12.84961       -16.65345
| 78>    S       -6.68082       -13.40323       -17.95624
| 79>    N       -5.40357       -13.90790       -18.78592
| 80>    H        0.61351        -5.85362         6.81619
| 81>    H       -3.73478        -6.49751         2.35669
| 82>    H       -4.50506        -7.92365        -3.64383
| 83>    H        4.38610        -9.89511        -8.25171
| 84>    H        4.66553        -9.15185        -5.92123
| 85>    H       -5.12345        -9.51400        -8.79114
| 86>    H       -5.80213       -11.86800       -14.50155
| 87>    H       -2.63194       -14.37996       -19.27778
| 88> *
| 89>
| 90>                          ****END OF INPUT****

CARTESIAN COORDINATES (ANGSTROEM)
---------------------------------
  C      0.064600   -6.009410    5.900830
  N      0.756930   -6.276440    4.827710
  N      0.195670   -6.485220    3.665380
  C     -1.111650   -6.440970    3.478540
  C     -1.970130   -6.156010    4.578330
  C     -1.343690   -5.932260    5.848070
  N     -2.235420   -5.679090    6.806160
  S     -3.705180   -5.720820    6.163890
  N     -3.294790   -6.060070    4.646400
  C     -1.594440   -6.695370    2.158260
  C     -2.900740   -6.703510    1.710250
  C     -2.968340   -7.011120    0.352730
  C     -1.697120   -7.234930   -0.218790
  S     -0.427790   -7.063490    0.906940
  C     -1.869570   -7.558810   -1.588170
  C     -3.250660   -7.539450   -1.879670
  C     -3.981760   -7.187890   -0.670600
  C     -5.332530   -7.055820   -0.532490
  C     -6.217700   -7.255680   -1.612820
  N     -6.938880   -7.417960   -2.489330
  C     -5.935360   -6.711450    0.695960
  N     -6.439380   -6.432200    1.687160
  C     -3.527310   -7.869580   -3.199400
  C     -2.363640   -8.140360   -3.910040
  S     -0.908370   -7.975140   -2.936800
  C     -2.234700   -8.541230   -5.249940
  C     -1.021180   -8.817850   -5.889270
  C     -1.184480   -9.252670   -7.246030
  N     -0.135120   -9.566380   -8.004380
  C      1.053720   -9.454640   -7.449440
  C      2.224730   -9.798230   -8.293570
  O      2.114430  -10.172590   -9.442240
  C      3.533020   -9.649700   -7.633590
  C      3.684840   -9.246060   -6.367800
  C      2.562070   -8.901300   -5.479280
  O      2.726400   -8.544310   -4.331520
  C      1.216680   -9.021440   -6.093410
  N      0.185510   -8.712280   -5.335270
  C     -2.523600   -9.307790   -7.648000
  S     -3.561050   -8.809490   -6.343080
  C     -2.969390   -9.736520   -8.909060
  C     -4.275120   -9.815170   -9.379410
  C     -4.319940  -10.326560  -10.669160
  C     -3.041500  -10.639590  -11.179430
  S     -1.781370  -10.292310  -10.080220
  C     -3.199830  -11.180480  -12.480440
  C     -4.576630  -11.205110  -12.791260
  C     -5.321860  -10.663440  -11.670380
  C     -6.672960  -10.502960  -11.571550
  C     -7.279860   -9.958420  -10.420130
  N     -7.776760   -9.516250   -9.486130
  C     -7.554760  -10.867260  -12.611240
  N     -8.281600  -11.159380  -13.448470
  C     -4.834230  -11.744280  -14.050130
  C     -3.666450  -12.124690  -14.681570
  S     -2.229870  -11.815580  -13.731150
  C     -3.511700  -12.732500  -15.965190
  N     -2.283280  -13.022950  -16.355670
  N     -2.015470  -13.588590  -17.503750
  C     -2.946970  -13.914650  -18.357070
  C     -4.305720  -13.662020  -18.070740
  C     -4.611430  -13.039350  -16.816340
  N     -5.917580  -12.849610  -16.653450
  S     -6.680820  -13.403230  -17.956240
  N     -5.403570  -13.907900  -18.785920
  H      0.613510   -5.853620    6.816190
  H     -3.734780   -6.497510    2.356690
  H     -4.505060   -7.923650   -3.643830
  H      4.386100   -9.895110   -8.251710
  H      4.665530   -9.151850   -5.921230
  H     -5.123450   -9.514000   -8.791140
  H     -5.802130  -11.868000  -14.501550
  H     -2.631940  -14.379960  -19.277780

 Total Charge           Charge          ....    0
 Multiplicity           Mult            ....    1
 Number of Electrons    NEL             ....  486
 Basis Dimension        Dim             ....  978

ORBITAL ENERGIES
----------------

  NO   OCC          E(Eh)            E(eV)
   0   2.0000     -89.048065     -2423.1210
   1   2.0000     -89.047997     -2423.1192
   2   2.0000     -89.006070     -2421.9783
   3   2.0000     -88.987936     -2421.4848
   4   2.0000     -88.987914     -2421.4842
   5   2.0000     -88.986335     -2421.4413
   6   2.0000     -88.986202     -2421.4377
   7   2.0000     -19.233574      -523.3721
   8   2.0000     -19.233552      -523.3716
   9   2.0000     -14.463165      -393.5627
  10   2.0000     -14.463160      -393.5626
  11   2.0000     -14.460723      -393.4963
  12   2.0000     -14.460686      -393.4953
  13   2.0000     -14.460671      -393.4949
  14   2.0000     -14.460545      -393.4914
  15   2.0000     -14.445814      -393.0906
  16   2.0000     -14.445746      -393.0887
  17   2.0000     -14.444301      -393.0494
  18   2.0000     -14.444270      -393.0486
  19   2.0000     -14.429280      -392.6407
  20   2.0000     -14.429202      -392.6386
  21   2.0000     -14.428247      -392.6126
  22   2.0000     -14.428144      -392.6098
  23   2.0000     -10.383409      -282.5469
  24   2.0000     -10.383307      -282.5441
  25   2.0000     -10.362781      -281.9856
  26   2.0000     -10.362656      -281.9822
  27   2.0000     -10.350984      -281.6646
  28   2.0000     -10.350889      -281.6620
  29   2.0000     -10.350870      -281.6615
  30   2.0000     -10.350732      -281.6577
  31   2.0000     -10.347288      -281.5640
  32   2.0000     -10.347287      -281.5640
  33   2.0000     -10.345834      -281.5244
  34   2.0000     -10.345803      -281.5236
  35   2.0000     -10.342788      -281.4416
  36   2.0000     -10.342716      -281.4396
  37   2.0000     -10.342026      -281.4208
  38   2.0000     -10.341918      -281.4179
  39   2.0000     -10.340173      -281.3704
  40   2.0000     -10.339874      -281.3623
  41   2.0000     -10.333170      -281.1799
  42   2.0000     -10.333108      -281.1782
  43   2.0000     -10.332534      -281.1625
  44   2.0000     -10.332377      -281.1583
  45   2.0000     -10.329769      -281.0873
  46   2.0000     -10.329712      -281.0858
  47   2.0000     -10.328588      -281.0552
  48   2.0000     -10.328458      -281.0516
  49   2.0000     -10.328432      -281.0509
  50   2.0000     -10.328323      -281.0479
  51   2.0000     -10.325232      -280.9638
  52   2.0000     -10.325187      -280.9626
  53   2.0000     -10.318311      -280.7755
  54   2.0000     -10.318263      -280.7742
  55   2.0000     -10.315703      -280.7045
  56   2.0000     -10.315001      -280.6854
  57   2.0000     -10.307386      -280.4782
  58   2.0000     -10.307292      -280.4757
  59   2.0000     -10.305281      -280.4210
  60   2.0000     -10.305184      -280.4183
  61   2.0000     -10.300958      -280.3033
  62   2.0000     -10.300928      -280.3025
  63   2.0000     -10.300517      -280.2913
  64   2.0000     -10.300485      -280.2905
  65   2.0000      -8.139725      -221.4932
  66   2.0000      -8.139672      -221.4917
  67   2.0000      -8.100097      -220.4148
  68   2.0000      -8.081356      -219.9049
  69   2.0000      -8.081248      -219.9019
  70   2.0000      -8.080155      -219.8722
  71   2.0000      -8.080116      -219.8711
  72   2.0000      -6.110795      -166.2832
  73   2.0000      -6.110746      -166.2819
  74   2.0000      -6.102937      -166.0694
  75   2.0000      -6.102867      -166.0675
  76   2.0000      -6.102461      -166.0564
  77   2.0000      -6.102413      -166.0551
  78   2.0000      -6.069235      -165.1523
  79   2.0000      -6.065125      -165.0404
  80   2.0000      -6.062671      -164.9737
  81   2.0000      -6.050751      -164.6493
  82   2.0000      -6.050650      -164.6466
  83   2.0000      -6.049390      -164.6123
  84   2.0000      -6.049347      -164.6111
  85   2.0000      -6.046258      -164.5270
  86   2.0000      -6.046141      -164.5239
  87   2.0000      -6.045027      -164.4936
  88   2.0000      -6.044990      -164.4925
  89   2.0000      -6.043652      -164.4561
  90   2.0000      -6.043560      -164.4536
  91   2.0000      -6.042771      -164.4321
  92   2.0000      -6.042695      -164.4301
  93   2.0000      -1.151268       -31.3276
  94   2.0000      -1.150585       -31.3090
  95   2.0000      -1.150568       -31.3086
  96   2.0000      -1.146418       -31.1956
  97   2.0000      -1.121315       -30.5125
  98   2.0000      -1.121301       -30.5121
  99   2.0000      -1.111013       -30.2322
 100   2.0000      -1.045056       -28.4374
 101   2.0000      -1.043902       -28.4060
 102   2.0000      -1.038502       -28.2591
 103   2.0000      -1.021928       -27.8081
 104   2.0000      -1.020492       -27.7690
 105   2.0000      -1.016671       -27.6650
 106   2.0000      -1.006680       -27.3932
 107   2.0000      -1.006261       -27.3817
 108   2.0000      -1.004947       -27.3460
 109   2.0000      -1.003100       -27.2957
 110   2.0000      -0.994432       -27.0599
 111   2.0000      -0.988763       -26.9056
 112   2.0000      -0.962628       -26.1945
 113   2.0000      -0.958325       -26.0774
 114   2.0000      -0.946519       -25.7561
 115   2.0000      -0.936669       -25.4881
 116   2.0000      -0.936485       -25.4831
 117   2.0000      -0.919540       -25.0220
 118   2.0000      -0.919311       -25.0157
 119   2.0000      -0.913633       -24.8612
 120   2.0000      -0.901637       -24.5348
 121   2.0000      -0.883953       -24.0536
 122   2.0000      -0.877396       -23.8752
 123   2.0000      -0.866307       -23.5734
 124   2.0000      -0.864378       -23.5209
 125   2.0000      -0.853862       -23.2348
 126   2.0000      -0.853634       -23.2286
 127   2.0000      -0.824101       -22.4249
 128   2.0000      -0.816121       -22.2078
 129   2.0000      -0.802103       -21.8263
 130   2.0000      -0.799535       -21.7564
 131   2.0000      -0.795229       -21.6393
 132   2.0000      -0.776476       -21.1290
 133   2.0000      -0.774841       -21.0845
 134   2.0000      -0.774704       -21.0808
 135   2.0000      -0.756388       -20.5824
 136   2.0000      -0.754928       -20.5426
 137   2.0000      -0.742653       -20.2086
 138   2.0000      -0.740302       -20.1446
 139   2.0000      -0.720942       -19.6178
 140   2.0000      -0.716463       -19.4959
 141   2.0000      -0.697149       -18.9704
 142   2.0000      -0.693199       -18.8629
 143   2.0000      -0.689732       -18.7686
 144   2.0000      -0.683013       -18.5857
 145   2.0000      -0.681311       -18.5394
 146   2.0000      -0.677654       -18.4399
 147   2.0000      -0.675454       -18.3800
 148   2.0000      -0.655382       -17.8339
 149   2.0000      -0.651304       -17.7229
 150   2.0000      -0.646601       -17.5949
 151   2.0000      -0.646205       -17.5841
 152   2.0000      -0.632759       -17.2182
 153   2.0000      -0.630153       -17.1473
 154   2.0000      -0.617608       -16.8060
 155   2.0000      -0.615261       -16.7421
 156   2.0000      -0.613779       -16.7018
 157   2.0000      -0.612557       -16.6685
 158   2.0000      -0.611843       -16.6491
 159   2.0000      -0.608819       -16.5668
 160   2.0000      -0.596325       -16.2268
 161   2.0000      -0.578427       -15.7398
 162   2.0000      -0.578086       -15.7305
 163   2.0000      -0.577881       -15.7249
 164   2.0000      -0.575456       -15.6590
 165   2.0000      -0.575383       -15.6570
 166   2.0000      -0.566847       -15.4247
 167   2.0000      -0.562322       -15.3016
 168   2.0000      -0.562152       -15.2969
 169   2.0000      -0.550498       -14.9798
 170   2.0000      -0.550171       -14.9709
 171   2.0000      -0.547093       -14.8872
 172   2.0000      -0.546524       -14.8717
 173   2.0000      -0.546209       -14.8631
 174   2.0000      -0.532457       -14.4889
 175   2.0000      -0.529032       -14.3957
 176   2.0000      -0.525722       -14.3056
 177   2.0000      -0.515253       -14.0207
 178   2.0000      -0.515179       -14.0187
 179   2.0000      -0.514966       -14.0129
 180   2.0000      -0.513713       -13.9788
 181   2.0000      -0.508493       -13.8368
 182   2.0000      -0.502304       -13.6684
 183   2.0000      -0.500700       -13.6247
 184   2.0000      -0.500476       -13.6186
 185   2.0000      -0.500434       -13.6175
 186   2.0000      -0.498464       -13.5639
 187   2.0000      -0.496431       -13.5086
 188   2.0000      -0.494153       -13.4466
 189   2.0000      -0.493790       -13.4367
 190   2.0000      -0.492335       -13.3971
 191   2.0000      -0.487137       -13.2557
 192   2.0000      -0.484754       -13.1908
 193   2.0000      -0.483131       -13.1467
 194   2.0000      -0.475367       -12.9354
 195   2.0000      -0.461488       -12.5577
 196   2.0000      -0.461014       -12.5448
 197   2.0000      -0.460224       -12.5233
 198   2.0000      -0.460173       -12.5219
 199   2.0000      -0.457590       -12.4517
 200   2.0000      -0.456414       -12.4197
 201   2.0000      -0.454137       -12.3577
 202   2.0000      -0.453040       -12.3278
 203   2.0000      -0.446569       -12.1518
 204   2.0000      -0.445130       -12.1126
 205   2.0000      -0.442286       -12.0352
 206   2.0000      -0.439627       -11.9628
 207   2.0000      -0.439600       -11.9621
 208   2.0000      -0.439296       -11.9539
 209   2.0000      -0.438214       -11.9244
 210   2.0000      -0.436432       -11.8759
 211   2.0000      -0.436378       -11.8744
 212   2.0000      -0.434392       -11.8204
 213   2.0000      -0.433867       -11.8061
 214   2.0000      -0.425949       -11.5906
 215   2.0000      -0.425193       -11.5701
 216   2.0000      -0.411223       -11.1899
 217   2.0000      -0.407620       -11.0919
 218   2.0000      -0.402527       -10.9533
 219   2.0000      -0.393265       -10.7013
 220   2.0000      -0.393121       -10.6974
 221   2.0000      -0.391257       -10.6467
 222   2.0000      -0.389748       -10.6056
 223   2.0000      -0.389703       -10.6044
 224   2.0000      -0.381723       -10.3872
 225   2.0000      -0.379675       -10.3315
 226   2.0000      -0.374617       -10.1938
 227   2.0000      -0.373224       -10.1559
 228   2.0000      -0.371378       -10.1057
 229   2.0000      -0.361452        -9.8356
 230   2.0000      -0.357573        -9.7301
 231   2.0000      -0.354296        -9.6409
 232   2.0000      -0.346536        -9.4297
 233   2.0000      -0.345988        -9.4148
 234   2.0000      -0.343509        -9.3474
 235   2.0000      -0.343319        -9.3422
 236   2.0000      -0.323075        -8.7913
 237   2.0000      -0.319525        -8.6947
 238   2.0000      -0.308610        -8.3977
 239   2.0000      -0.308558        -8.3963
 240   2.0000      -0.307656        -8.3718
 241   2.0000      -0.277143        -7.5415
 242   2.0000      -0.238455        -6.4887
 243   0.0000      -0.120202        -3.2709
 244   0.0000      -0.106328        -2.8933
 245   0.0000      -0.093994        -2.5577
 246   0.0000      -0.092593        -2.5196
 247   0.0000      -0.085114        -2.3161

MULLIKEN ATOMIC CHARGES
-----------------------
   0 C :   -0.016872
   1 N :   -0.036312
   2 N :   -0.076862
   3 C :    0.024067
   4 C :    0.007175
   5 C :    0.048245
   6 N :   -0.255278
   7 S :    0.547500
   8 N :   -0.253855
   9 C :   -0.130191
  10 C :   -0.045213
  11 C :    0.007259
  12 C :   -0.086181
  13 S :    0.255010
  14 C :   -0.094452
  15 C :    0.034299
  16 C :    0.304154
  17 C :   -0.300447
  18 C :   -0.194662
  19 N :    0.173048
  20 C :   -0.187455
  21 N :    0.175093
  22 C :   -0.084479
  23 C :   -0.072750
  24 S :    0.243220
  25 C :   -0.119696
  26 C :    0.021702
  27 C :    0.027207
  28 N :    0.035531
  29 C :   -0.113236
  30 C :    0.137135
  31 O :   -0.103164
  32 C :   -0.016228
  33 C :   -0.018110
  34 C :    0.138145
  35 O :   -0.104337
  36 C :   -0.110866
  37 N :    0.035260
  38 C :   -0.120747
  39 S :    0.235967
  40 C :   -0.075045
  41 C :   -0.082058
  42 C :    0.030463
  43 C :   -0.096636
  44 S :    0.243923
  45 C :   -0.084186
  46 C :    0.009180
  47 C :    0.308244
  48 C :   -0.301824
  49 C :   -0.192603
  50 N :    0.174777
  51 C :   -0.189569
  52 N :    0.173261
  53 C :   -0.049555
  54 C :   -0.129566
  55 S :    0.255534
  56 C :    0.025503
  57 N :   -0.077077
  58 N :   -0.036494
  59 C :   -0.016852
  60 C :    0.050673
  61 C :    0.006394
  62 N :   -0.255099
  63 S :    0.547944
  64 N :   -0.255258
  65 H :    0.005500
  66 H :    0.019204
  67 H :    0.009342
  68 H :    0.020068
  69 H :    0.019822
  70 H :    0.010272
  71 H :    0.018427
  72 H :    0.004663
Sum of atomic charges:   -0.0000000

LOEWDIN ATOMIC CHARGES
----------------------
   0 C :    0.001650
   1 N :   -0.033065
   2 N :   -0.078136
   3 C :   -0.016333
   4 C :   -0.059951
   5 C :   -0.067650
   6 N :   -0.269698
   7 S :    0.681846
   8 N :   -0.268167
   9 C :   -0.184696
  10 C :   -0.007584
  11 C :   -0.076539
  12 C :   -0.168631
  13 S :    0.527321
  14 C :   -0.182977
  15 C :   -0.064989
  16 C :    0.080795
  17 C :   -0.104592
  18 C :   -0.017259
  19 N :   -0.034547
  20 C :   -0.017566
  21 N :   -0.032262
  22 C :   -0.028487
  23 C :   -0.180983
  24 S :    0.531465
  25 C :   -0.189455
  26 C :   -0.055775
  27 C :   -0.055411
  28 N :   -0.008634
  29 C :   -0.039046
  30 C :    0.054938
  31 O :   -0.101413
  32 C :   -0.011443
  33 C :   -0.011424
  34 C :    0.055014
  35 O :   -0.101680
  36 C :   -0.038942
  37 N :   -0.008737
  38 C :   -0.189479
  39 S :    0.521488
  40 C :   -0.181023
  41 C :   -0.028686
  42 C :   -0.064872
  43 C :   -0.183201
  44 S :    0.531125
  45 C :   -0.168395
  46 C :   -0.076572
  47 C :    0.080841
  48 C :   -0.104526
  49 C :   -0.017405
  50 N :   -0.034397
  51 C :   -0.017462
  52 N :   -0.032216
  53 C :   -0.007646
  54 C :   -0.184724
  55 S :    0.526981
  56 C :   -0.016271
  57 N :   -0.078246
  58 N :   -0.032939
  59 C :    0.001721
  60 C :   -0.067581
  61 C :   -0.059903
  62 N :   -0.268352
  63 S :    0.681956
  64 N :   -0.269673
  65 H :    0.035382
  66 H :    0.041382
  67 H :    0.037756
  68 H :    0.046848
  69 H :    0.046782
  70 H :    0.037809
  71 H :    0.041288
  72 H :    0.035255

  Mayer bond orders larger than 0.100000
B(  0-C ,  1-N ) :   1.7360 B(  0-C ,  3-C ) :   0.1031 B(  0-C ,  5-C ) :   1.1260
B(  0-C , 65-H ) :   1.0153 B(  1-N ,  2-N ) :   1.2012 B(  2-N ,  3-C ) :   1.7429
B(  3-C ,  4-C ) :   1.1167 B(  3-C ,  9-C ) :   1.1478 B(  4-C ,  5-C ) :   1.1995
B(  4-C ,  8-N ) :   1.5506 B(  5-C ,  6-N ) :   1.4999 B(  6-N ,  7-S ) :   1.2981
B(  6-N ,  8-N ) :   0.1462 B(  7-S ,  8-N ) :   1.2711 B(  9-C , 10-C ) :   1.4862
B(  9-C , 13-S ) :   1.0843 B( 10-C , 11-C ) :   1.2679 B( 10-C , 66-H ) :   0.9822
B( 11-C , 12-C ) :   1.4175 B( 11-C , 16-C ) :   1.0024 B( 12-C , 13-S ) :   1.1345
B( 12-C , 14-C ) :   1.1981 B( 14-C , 15-C ) :   1.4124 B( 14-C , 24-S ) :   1.1012
B( 15-C , 16-C ) :   0.9872 B( 15-C , 22-C ) :   1.3229 B( 16-C , 17-C ) :   1.7098
B( 17-C , 18-C ) :   1.1346 B( 17-C , 20-C ) :   1.1363 B( 18-C , 19-N ) :   2.9934
B( 20-C , 21-N ) :   2.9913 B( 22-C , 23-C ) :   1.3846 B( 22-C , 67-H ) :   0.9964
B( 23-C , 24-S ) :   1.1169 B( 23-C , 25-C ) :   1.2378 B( 25-C , 26-C ) :   1.3213
B( 25-C , 38-C ) :   0.1169 B( 25-C , 39-S ) :   1.1551 B( 26-C , 27-C ) :   1.1838
B( 26-C , 37-N ) :   1.4190 B( 27-C , 28-N ) :   1.4171 B( 27-C , 38-C ) :   1.3213
B( 28-N , 29-C ) :   1.6990 B( 29-C , 30-C ) :   0.8975 B( 29-C , 36-C ) :   1.1061
B( 30-C , 31-O ) :   2.2503 B( 30-C , 32-C ) :   1.0228 B( 32-C , 33-C ) :   1.6751
B( 32-C , 68-H ) :   0.9988 B( 33-C , 34-C ) :   1.0233 B( 33-C , 69-H ) :   0.9991
B( 34-C , 35-O ) :   2.2485 B( 34-C , 36-C ) :   0.8982 B( 36-C , 37-N ) :   1.6968
B( 38-C , 39-S ) :   1.1547 B( 38-C , 40-C ) :   1.2378 B( 40-C , 41-C ) :   1.3860
B( 40-C , 44-S ) :   1.1172 B( 41-C , 42-C ) :   1.3253 B( 41-C , 70-H ) :   0.9947
B( 42-C , 43-C ) :   1.4127 B( 42-C , 47-C ) :   0.9869 B( 43-C , 44-S ) :   1.1015
B( 43-C , 45-C ) :   1.1979 B( 45-C , 46-C ) :   1.4168 B( 45-C , 55-S ) :   1.1351
B( 46-C , 47-C ) :   1.0016 B( 46-C , 53-C ) :   1.2657 B( 47-C , 48-C ) :   1.7090
B( 48-C , 49-C ) :   1.1342 B( 48-C , 51-C ) :   1.1371 B( 49-C , 50-N ) :   2.9939
B( 51-C , 52-N ) :   2.9906 B( 53-C , 54-C ) :   1.4833 B( 53-C , 71-H ) :   0.9837
B( 54-C , 55-S ) :   1.0850 B( 54-C , 56-C ) :   1.1496 B( 56-C , 57-N ) :   1.7427
B( 56-C , 59-C ) :   0.1037 B( 56-C , 61-C ) :   1.1163 B( 57-N , 58-N ) :   1.2016
B( 58-N , 59-C ) :   1.7363 B( 59-C , 60-C ) :   1.1246 B( 59-C , 72-H ) :   1.0156
B( 60-C , 61-C ) :   1.2006 B( 60-C , 64-N ) :   1.5000 B( 61-C , 62-N ) :   1.5503
B( 62-N , 63-S ) :   1.2703 B( 62-N , 64-N ) :   0.1462 B( 63-S , 64-N ) :   1.2985

-----------------------------------------------------------------------------
         ABSORPTION SPECTRUM VIA TRANSITION ELECTRIC DIPOLE MOMENTS
-----------------------------------------------------------------------------
State   Energy  Wavelength   fosc         T2         TX        TY        TZ
        (cm-1)    (nm)                  (au**2)     (au)      (au)      (au)
-----------------------------------------------------------------------------
   0   10073.9    992.7   0.785859032  25.68157  -0.58709  -1.53921  -4.79247
   1   12482.2    801.1   0.014429670   0.38058  -0.60194  -0.10100   0.08968
   2   13909.6    718.9   0.024892996   0.58917  -0.08804  -0.23014  -0.72695
   3   16225.2    616.3   0.100761233   2.04446   1.42048  -0.04312  -0.15758
   4   19914.6    502.1   0.023704004   0.39185  -0.60581  -0.09755   0.12384
   5   20299.7    492.6   0.956210041  15.50741   0.46664   1.20799   3.71893
   6   20849.1    479.6   0.001722206   0.02719  -0.09140   0.12747  -0.05089
   7   20862.8    479.3   0.000032387   0.00051   0.00402  -0.02203  -0.00312
   8   20864.6    479.3   0.011334173   0.17884   0.25341  -0.33407   0.05489
   9   22830.2    438.0   0.057012341   0.82212   0.10887   0.28034   0.85538
  10   24725.0    404.4   0.001430664   0.01905   0.02144  -0.12671   0.05033
  11   25042.6    399.3   0.019206146   0.25249  -0.49934   0.00698   0.05563
  12   25578.9    390.9   0.000015268   0.00020   0.00662   0.00238   0.01213
  13   26491.5    377.5   0.001648286   0.02048   0.00549   0.07182  -0.12367
  14   26560.3    376.5   0.127745488   1.58339  -0.14486  -0.38618  -1.18881
  15   26937.0    371.2   0.301351738   3.68299   0.21717   0.57918   1.81669
  16   28264.9    353.8   0.115133740   1.34101  -0.22666  -0.34189  -1.08293
  17   28411.2    352.0   0.098839117   1.14529   1.04605  -0.11176  -0.19640
  18   28470.5    351.2   0.000904954   0.01046   0.07606  -0.06751   0.01108
  19   28490.1    351.0   0.000251466   0.00291  -0.04813  -0.02382   0.00465
  20   29169.2    342.8   0.021600792   0.24379   0.05425   0.12090   0.47564
  21   29614.6    337.7   0.105283034   1.17038  -1.05277   0.24376   0.05138
  22   29973.2    333.6   0.408608826   4.48798  -0.24532  -0.65060  -2.00113
  23   30713.7    325.6   0.000055010   0.00059   0.02095  -0.00104   0.01223
  24   30806.5    324.6   0.002732578   0.02920   0.15394  -0.07417  -0.00109
  25   31553.4    316.9   0.285739904   2.98126   1.71130  -0.22183  -0.05910
  26   31724.0    315.2   0.322826178   3.35008   0.15429   0.58462   1.72757
  27   32582.3    306.9   0.024133679   0.24385  -0.03721   0.13642   0.47313
  28   32633.3    306.4   0.083265322   0.84000   0.89739  -0.18562   0.01508
  29   33113.4    302.0   0.646573000   6.42820   2.51371  -0.22507  -0.24252
  30   33712.7    296.6   0.000268082   0.00262  -0.04713  -0.01992  -0.00045
  31   33726.7    296.5   0.000076190   0.00074   0.00349  -0.02606   0.00724
  32   33753.6    296.3   0.000007825   0.00008   0.00253   0.00705  -0.00450
  33   33905.0    294.9   0.028871249   0.28033  -0.04360  -0.14078  -0.50854
  34   33937.6    294.7   0.034337496   0.33309   0.55844   0.12523  -0.07452
  35   34651.4    288.6   0.005402280   0.05133  -0.15523  -0.08924   0.13880
  36   34716.2    288.1   0.079902400   0.75771   0.54043   0.22748   0.64335
  37   34724.8    288.0   0.042390318   0.40189  -0.61138   0.08063   0.14695
  38   34758.7    287.7   0.502671829   4.76098   2.14831  -0.20206  -0.32388
  39   35206.7    284.0   0.005121137   0.04789   0.21281   0.03569  -0.03638
  40   35257.4    283.6   0.000912812   0.00852   0.04038   0.02166   0.08015
  41   36060.5    277.3   0.000919944   0.00840   0.07086   0.05468   0.01967
  42   36067.3    277.3   0.013076628   0.11936   0.03769   0.10598   0.32666
  43   36501.6    274.0   0.031320873   0.28249   0.06294   0.16229   0.50218
  44   36607.9    273.2   0.000079580   0.00072  -0.00384  -0.02401  -0.01115
  45   36623.8    273.0   0.000033251   0.00030   0.00215   0.01160   0.01264
  46   36708.4    272.4   0.000312255   0.00280   0.05233  -0.00659   0.00434
  47   37072.0    269.7   0.004546766   0.04038  -0.02424   0.19924   0.00955
  48   37256.3    268.4   0.191006420   1.68781   0.15134   0.40185   1.22614
  49   37688.4    265.3   0.206576635   1.80447   0.19077   0.40039   1.26798
  50   37700.9    265.2   0.003910932   0.03415  -0.06284   0.06694   0.16038
  51   37895.9    263.9   0.175077701   1.52095   1.20770  -0.23166  -0.09355
  52   38316.3    261.0   0.023364545   0.20075  -0.08326   0.16340   0.40880
  53   38334.4    260.9   0.052241796   0.44865   0.65785  -0.11666   0.04759
  54   38627.2    258.9   0.011747849   0.10012  -0.30991   0.04248  -0.04768
  55   38792.9    257.8   0.030090445   0.25536   0.03269   0.16237   0.47742
  56   39173.9    255.3   0.005025816   0.04224   0.15977  -0.12794   0.01846
  57   39179.3    255.2   0.006762273   0.05682   0.03313   0.22901  -0.05727
  58   39339.2    254.2   0.000437742   0.00366  -0.01916  -0.05012   0.02800
  59   39625.2    252.4   0.000229934   0.00191   0.00060   0.04312  -0.00710
  60   39644.6    252.2   0.000095101   0.00079   0.00619   0.02601  -0.00866
  61   39727.1    251.7   0.004312242   0.03573   0.18870  -0.00610  -0.00942

FINAL SINGLE POINT ENERGY     -5305.365464931052

DIPOLE MOMENT
-------------
                                X             Y             Z
Electronic contribution:     -7.72236       0.79355       0.67466
Nuclear contribution   :      8.86391      -1.04109      -0.72905
                        -----------------------------------------
Total Dipole Moment    :      1.14155      -0.24753      -0.05439
                        -----------------------------------------
Magnitude (a.u.)       :      1.16934
Magnitude (Debye)      :      2.97224

Rotational constants in cm-1:     0.002438     0.000289     0.000260
Rotational constants in MHz :    73.079235     8.677033     7.784940

                             ****ORCA TERMINATED NORMALLY****
TOTAL RUN TIME: 0 days 0 hours 6 minutes 39 seconds 245 msec
