                         Program Version 4.2.0 -  RELEASE  -
|  1> # ORCA input file
|  2> # SCF done       -164.352789840723          0.000626478934
|  3> ! CAM-B3LYP def2-SVP def2/J RIJCOSX Grid4 TightSCF
|  4> %maxcore 5000
|  5> %tddft
|  6>     Mode sTDDFT
|  7>     Ethresh 5.0
|  8>     maxcore 5000
|  9> end
| 10>
| 11> %pal
| 12>   nprocs 6
| 13>   end
| 14> * xyz 0 1
| 15>    C        1.61364         0.22838         3.80778
| 16>    C        2.32021         0.24900         2.63636
| 17>    C        2.45697        -0.88917         1.82611
| 18>    C        1.88787        -2.10619         2.15645
| 19>    C        1.14601        -2.15683         3.37200
| 20>    C        1.01086        -0.98210         4.19811
| 21>    N        0.29364        -1.17093         5.30145
| 22>   Se       -0.24838        -2.82870         5.36186
| 23>    N        0.53470        -3.23243         3.84571
| 24>    C        2.01781        -3.27997         1.33923
| 25>    C        2.69639        -3.39741         0.13907
| 26>    C        2.61657        -4.68592        -0.38494
| 27>    C        1.86817        -5.55846         0.42790
| 28>    S        1.26846        -4.78696         1.82889
| 29>    C        1.84495        -6.83727        -0.18436
| 30>    C        2.58256        -6.76622        -1.38635
| 31>    C        3.08897        -5.41250        -1.54888
| 32>    C        3.84730        -4.93250        -2.57710
| 33>    C        4.24741        -5.74536        -3.65776
| 34>    N        4.57512        -6.40315        -4.53831
| 35>    C        4.28108        -3.59160        -2.62460
| 36>    N        4.63435        -2.50111        -2.66439
| 37>    C        2.62366        -7.97469        -2.06688
| 38>    C        1.92216        -8.96448        -1.38901
| 39>    S        1.20074        -8.39238         0.10917
| 40>    C        1.75036       -10.30584        -1.76386
| 41>    C        1.04244       -11.27153        -1.04039
| 42>    C        1.03577       -12.56747        -1.66394
| 43>    N        0.35794       -13.57947        -1.11820
| 44>    C       -0.27367       -13.33694         0.01052
| 45>    C       -1.07400       -14.44939         0.58155
| 46>    O       -1.24644       -15.49807        -0.00096
| 47>    C       -1.66934       -14.17284         1.90105
| 48>    C       -1.59304       -12.98797         2.51574
| 49>    C       -0.89783       -11.81879         1.95199
| 50>    O       -0.87559       -10.74273         2.51393
| 51>    C       -0.22269       -12.05851         0.65421
| 52>    N        0.42484       -11.04565         0.11757
| 53>    C        1.75594       -12.59044        -2.86629
| 54>    S        2.40154       -11.00932        -3.20968
| 55>    C        1.96662       -13.68787        -3.71996
| 56>    C        1.65127       -15.01841        -3.46693
| 57>    C        2.01354       -15.83943        -4.52808
| 58>    C        2.58554       -15.13295        -5.60689
| 59>    S        2.71214       -13.46113        -5.29919
| 60>    C        2.88377       -16.04317        -6.64720
| 61>    C        2.50661       -17.33235        -6.22854
| 62>    C        1.97738       -17.25403        -4.87687
| 63>    C        1.59375       -18.29549        -4.08525
| 64>    C        1.61471       -19.62687        -4.55276
| 65>    N        1.62851       -20.70899        -4.93231
| 66>    C        1.20554       -18.14025        -2.73637
| 67>    N        0.92957       -18.05464        -1.62747
| 68>    C        2.76471       -18.30332        -7.19486
| 69>    C        3.32861       -17.76654        -8.33903
| 70>    S        3.54994       -16.03261        -8.22073
| 71>    C        3.72217       -18.46150        -9.53243
| 72>    C        3.57732       -19.82772        -9.69493
| 73>    C        3.96863       -20.49025       -10.86918
| 74>    C        4.51967       -19.82657       -11.93113
| 75>    C        4.69291       -18.43381       -11.82588
| 76>    C        4.29389       -17.74420       -10.62333
| 77>    N        4.50775       -16.43692       -10.64577
| 78>   Se        5.22503       -15.99732       -12.18536
| 79>    N        5.21071       -17.64421       -12.76160
| 80>    H        1.50594         1.09961         4.43258
| 81>    H        2.79239         1.16469         2.31383
| 82>    H        3.02829        -0.80013         0.91599
| 83>    H        3.22169        -2.58687        -0.33070
| 84>    H        3.12566        -8.15558        -3.00057
| 85>    H       -2.20204       -15.00355         2.34394
| 86>    H       -2.05933       -12.82214         3.47761
| 87>    H        1.17921       -15.32608        -2.55093
| 88>    H        2.55088       -19.34869        -7.07244
| 89>    H        3.15010       -20.41423        -8.89731
| 90>    H        3.82498       -21.55879       -10.92421
| 91>    H        4.82139       -20.33096       -12.83424
| 92> *
| 93>
| 94>                          ****END OF INPUT****

CARTESIAN COORDINATES (ANGSTROEM)
---------------------------------
  C      1.613640    0.228380    3.807780
  C      2.320210    0.249000    2.636360
  C      2.456970   -0.889170    1.826110
  C      1.887870   -2.106190    2.156450
  C      1.146010   -2.156830    3.372000
  C      1.010860   -0.982100    4.198110
  N      0.293640   -1.170930    5.301450
  Se    -0.248380   -2.828700    5.361860
  N      0.534700   -3.232430    3.845710
  C      2.017810   -3.279970    1.339230
  C      2.696390   -3.397410    0.139070
  C      2.616570   -4.685920   -0.384940
  C      1.868170   -5.558460    0.427900
  S      1.268460   -4.786960    1.828890
  C      1.844950   -6.837270   -0.184360
  C      2.582560   -6.766220   -1.386350
  C      3.088970   -5.412500   -1.548880
  C      3.847300   -4.932500   -2.577100
  C      4.247410   -5.745360   -3.657760
  N      4.575120   -6.403150   -4.538310
  C      4.281080   -3.591600   -2.624600
  N      4.634350   -2.501110   -2.664390
  C      2.623660   -7.974690   -2.066880
  C      1.922160   -8.964480   -1.389010
  S      1.200740   -8.392380    0.109170
  C      1.750360  -10.305840   -1.763860
  C      1.042440  -11.271530   -1.040390
  C      1.035770  -12.567470   -1.663940
  N      0.357940  -13.579470   -1.118200
  C     -0.273670  -13.336940    0.010520
  C     -1.074000  -14.449390    0.581550
  O     -1.246440  -15.498070   -0.000960
  C     -1.669340  -14.172840    1.901050
  C     -1.593040  -12.987970    2.515740
  C     -0.897830  -11.818790    1.951990
  O     -0.875590  -10.742730    2.513930
  C     -0.222690  -12.058510    0.654210
  N      0.424840  -11.045650    0.117570
  C      1.755940  -12.590440   -2.866290
  S      2.401540  -11.009320   -3.209680
  C      1.966620  -13.687870   -3.719960
  C      1.651270  -15.018410   -3.466930
  C      2.013540  -15.839430   -4.528080
  C      2.585540  -15.132950   -5.606890
  S      2.712140  -13.461130   -5.299190
  C      2.883770  -16.043170   -6.647200
  C      2.506610  -17.332350   -6.228540
  C      1.977380  -17.254030   -4.876870
  C      1.593750  -18.295490   -4.085250
  C      1.614710  -19.626870   -4.552760
  N      1.628510  -20.708990   -4.932310
  C      1.205540  -18.140250   -2.736370
  N      0.929570  -18.054640   -1.627470
  C      2.764710  -18.303320   -7.194860
  C      3.328610  -17.766540   -8.339030
  S      3.549940  -16.032610   -8.220730
  C      3.722170  -18.461500   -9.532430
  C      3.577320  -19.827720   -9.694930
  C      3.968630  -20.490250  -10.869180
  C      4.519670  -19.826570  -11.931130
  C      4.692910  -18.433810  -11.825880
  C      4.293890  -17.744200  -10.623330
  N      4.507750  -16.436920  -10.645770
  Se     5.225030  -15.997320  -12.185360
  N      5.210710  -17.644210  -12.761600
  H      1.505940    1.099610    4.432580
  H      2.792390    1.164690    2.313830
  H      3.028290   -0.800130    0.915990
  H      3.221690   -2.586870   -0.330700
  H      3.125660   -8.155580   -3.000570
  H     -2.202040  -15.003550    2.343940
  H     -2.059330  -12.822140    3.477610
  H      1.179210  -15.326080   -2.550930
  H      2.550880  -19.348690   -7.072440
  H      3.150100  -20.414230   -8.897310
  H      3.824980  -21.558790  -10.924210
  H      4.821390  -20.330960  -12.834240

 Total Charge           Charge          ....    0
 Multiplicity           Mult            ....    1
 Number of Electrons    NEL             ....  522
 Basis Dimension        Dim             .... 1026

ORBITAL ENERGIES
----------------

  NO   OCC          E(Eh)            E(eV)
   0   2.0000    -453.981932    -12353.4764
   1   2.0000    -453.980765    -12353.4446
   2   2.0000     -88.995790     -2421.6986
   3   2.0000     -88.985887     -2421.4291
   4   2.0000     -88.979928     -2421.2669
   5   2.0000     -88.976496     -2421.1735
   6   2.0000     -88.976047     -2421.1613
   7   2.0000     -58.195773     -1583.5875
   8   2.0000     -58.194627     -1583.5563
   9   2.0000     -52.266443     -1422.2422
  10   2.0000     -52.265294     -1422.2109
  11   2.0000     -52.264156     -1422.1800
  12   2.0000     -52.263624     -1422.1655
  13   2.0000     -52.263009     -1422.1488
  14   2.0000     -52.262477     -1422.1343
  15   2.0000     -19.224313      -523.1201
  16   2.0000     -19.221871      -523.0537
  17   2.0000     -14.450028      -393.2053
  18   2.0000     -14.446711      -393.1150
  19   2.0000     -14.439826      -392.9276
  20   2.0000     -14.438614      -392.8947
  21   2.0000     -14.437032      -392.8516
  22   2.0000     -14.435862      -392.8198
  23   2.0000     -14.424695      -392.5159
  24   2.0000     -14.424395      -392.5077
  25   2.0000     -14.423565      -392.4852
  26   2.0000     -14.418274      -392.3412
  27   2.0000     -10.374354      -282.3005
  28   2.0000     -10.370950      -282.2079
  29   2.0000     -10.355821      -281.7962
  30   2.0000     -10.355780      -281.7951
  31   2.0000     -10.344870      -281.4982
  32   2.0000     -10.343313      -281.4559
  33   2.0000     -10.339804      -281.3604
  34   2.0000     -10.337852      -281.3072
  35   2.0000     -10.333305      -281.1835
  36   2.0000     -10.331911      -281.1456
  37   2.0000     -10.331134      -281.1244
  38   2.0000     -10.329631      -281.0835
  39   2.0000     -10.327539      -281.0266
  40   2.0000     -10.326674      -281.0031
  41   2.0000     -10.325809      -280.9796
  42   2.0000     -10.325555      -280.9726
  43   2.0000     -10.325501      -280.9712
  44   2.0000     -10.324367      -280.9403
  45   2.0000     -10.324287      -280.9381
  46   2.0000     -10.323036      -280.9041
  47   2.0000     -10.322917      -280.9008
  48   2.0000     -10.322063      -280.8776
  49   2.0000     -10.321175      -280.8534
  50   2.0000     -10.317746      -280.7601
  51   2.0000     -10.315632      -280.7026
  52   2.0000     -10.315421      -280.6969
  53   2.0000     -10.315320      -280.6941
  54   2.0000     -10.314447      -280.6704
  55   2.0000     -10.306359      -280.4503
  56   2.0000     -10.305561      -280.4286
  57   2.0000     -10.305180      -280.4182
  58   2.0000     -10.304344      -280.3955
  59   2.0000     -10.299015      -280.2505
  60   2.0000     -10.296660      -280.1864
  61   2.0000     -10.295145      -280.1451
  62   2.0000     -10.293653      -280.1045
  63   2.0000     -10.292910      -280.0843
  64   2.0000     -10.292220      -280.0656
  65   2.0000     -10.292154      -280.0637
  66   2.0000     -10.291716      -280.0518
  67   2.0000     -10.290935      -280.0306
  68   2.0000     -10.290044      -280.0063
  69   2.0000     -10.289389      -279.9885
  70   2.0000     -10.288720      -279.9703
  71   2.0000     -10.285084      -279.8714
  72   2.0000     -10.284265      -279.8491
  73   2.0000      -8.090263      -220.1472
  74   2.0000      -8.080813      -219.8901
  75   2.0000      -8.073186      -219.6826
  76   2.0000      -8.069616      -219.5854
  77   2.0000      -8.069075      -219.5707
  78   2.0000      -7.971537      -216.9166
  79   2.0000      -7.970416      -216.8860
  80   2.0000      -6.059369      -164.8838
  81   2.0000      -6.055290      -164.7728
  82   2.0000      -6.052842      -164.7062
  83   2.0000      -6.050062      -164.6306
  84   2.0000      -6.045951      -164.5187
  85   2.0000      -6.043062      -164.4401
  86   2.0000      -6.042561      -164.4264
  87   2.0000      -6.039056      -164.3311
  88   2.0000      -6.038456      -164.3147
  89   2.0000      -6.038115      -164.3055
  90   2.0000      -6.035540      -164.2354
  91   2.0000      -6.034373      -164.2036
  92   2.0000      -6.033804      -164.1881
  93   2.0000      -6.032136      -164.1428
  94   2.0000      -6.031691      -164.1307
  95   2.0000      -5.921734      -161.1386
  96   2.0000      -5.920627      -161.1084
  97   2.0000      -5.915141      -160.9592
  98   2.0000      -5.913988      -160.9278
  99   2.0000      -5.911230      -160.8527
 100   2.0000      -5.910127      -160.8227
 101   2.0000      -2.275867       -61.9295
 102   2.0000      -2.275243       -61.9125
 103   2.0000      -2.274733       -61.8986
 104   2.0000      -2.274115       -61.8818
 105   2.0000      -2.270643       -61.7873
 106   2.0000      -2.269560       -61.7579
 107   2.0000      -2.265531       -61.6482
 108   2.0000      -2.265412       -61.6450
 109   2.0000      -2.264432       -61.6183
 110   2.0000      -2.264256       -61.6135
 111   2.0000      -1.140767       -31.0418
 112   2.0000      -1.135595       -30.9011
 113   2.0000      -1.098814       -29.9002
 114   2.0000      -1.092584       -29.7307
 115   2.0000      -1.091589       -29.7037
 116   2.0000      -1.036311       -28.1995
 117   2.0000      -1.035524       -28.1780
 118   2.0000      -1.026427       -27.9305
 119   2.0000      -1.016025       -27.6475
 120   2.0000      -1.013869       -27.5888
 121   2.0000      -1.007565       -27.4172
 122   2.0000      -1.002466       -27.2785
 123   2.0000      -0.997960       -27.1559
 124   2.0000      -0.992167       -26.9982
 125   2.0000      -0.985726       -26.8230
 126   2.0000      -0.970399       -26.4059
 127   2.0000      -0.967409       -26.3245
 128   2.0000      -0.957904       -26.0659
 129   2.0000      -0.955893       -26.0112
 130   2.0000      -0.944851       -25.7107
 131   2.0000      -0.943757       -25.6809
 132   2.0000      -0.936472       -25.4827
 133   2.0000      -0.910729       -24.7822
 134   2.0000      -0.901036       -24.5184
 135   2.0000      -0.874506       -23.7965
 136   2.0000      -0.872770       -23.7493
 137   2.0000      -0.865097       -23.5405
 138   2.0000      -0.863542       -23.4982
 139   2.0000      -0.851919       -23.1819
 140   2.0000      -0.851104       -23.1597
 141   2.0000      -0.849983       -23.1292
 142   2.0000      -0.843293       -22.9472
 143   2.0000      -0.842271       -22.9194
 144   2.0000      -0.836934       -22.7741
 145   2.0000      -0.799698       -21.7609
 146   2.0000      -0.798207       -21.7203
 147   2.0000      -0.789056       -21.4713
 148   2.0000      -0.773395       -21.0452
 149   2.0000      -0.771379       -20.9903
 150   2.0000      -0.766083       -20.8462
 151   2.0000      -0.748671       -20.3724
 152   2.0000      -0.746864       -20.3232
 153   2.0000      -0.733835       -19.9687
 154   2.0000      -0.729134       -19.8408
 155   2.0000      -0.708235       -19.2721
 156   2.0000      -0.704670       -19.1751
 157   2.0000      -0.692542       -18.8450
 158   2.0000      -0.692250       -18.8371
 159   2.0000      -0.688745       -18.7417
 160   2.0000      -0.682806       -18.5801
 161   2.0000      -0.676339       -18.4041
 162   2.0000      -0.672355       -18.2957
 163   2.0000      -0.669573       -18.2200
 164   2.0000      -0.662324       -18.0228
 165   2.0000      -0.658408       -17.9162
 166   2.0000      -0.638561       -17.3761
 167   2.0000      -0.635747       -17.2995
 168   2.0000      -0.625629       -17.0242
 169   2.0000      -0.622368       -16.9355
 170   2.0000      -0.610272       -16.6063
 171   2.0000      -0.607615       -16.5341
 172   2.0000      -0.606919       -16.5151
 173   2.0000      -0.603302       -16.4167
 174   2.0000      -0.596481       -16.2311
 175   2.0000      -0.586253       -15.9528
 176   2.0000      -0.584063       -15.8932
 177   2.0000      -0.579411       -15.7666
 178   2.0000      -0.577450       -15.7132
 179   2.0000      -0.572343       -15.5743
 180   2.0000      -0.569989       -15.5102
 181   2.0000      -0.566186       -15.4067
 182   2.0000      -0.559738       -15.2312
 183   2.0000      -0.556884       -15.1536
 184   2.0000      -0.551212       -14.9992
 185   2.0000      -0.549574       -14.9547
 186   2.0000      -0.540734       -14.7141
 187   2.0000      -0.540233       -14.7005
 188   2.0000      -0.533301       -14.5119
 189   2.0000      -0.532784       -14.4978
 190   2.0000      -0.532474       -14.4894
 191   2.0000      -0.528986       -14.3944
 192   2.0000      -0.522189       -14.2095
 193   2.0000      -0.519275       -14.1302
 194   2.0000      -0.513158       -13.9637
 195   2.0000      -0.509058       -13.8522
 196   2.0000      -0.503398       -13.6981
 197   2.0000      -0.499204       -13.5840
 198   2.0000      -0.495158       -13.4739
 199   2.0000      -0.494450       -13.4547
 200   2.0000      -0.492405       -13.3990
 201   2.0000      -0.490472       -13.3464
 202   2.0000      -0.489788       -13.3278
 203   2.0000      -0.487697       -13.2709
 204   2.0000      -0.484088       -13.1727
 205   2.0000      -0.482247       -13.1226
 206   2.0000      -0.479669       -13.0525
 207   2.0000      -0.478231       -13.0133
 208   2.0000      -0.477858       -13.0032
 209   2.0000      -0.472905       -12.8684
 210   2.0000      -0.471340       -12.8258
 211   2.0000      -0.465511       -12.6672
 212   2.0000      -0.464782       -12.6474
 213   2.0000      -0.463582       -12.6147
 214   2.0000      -0.456872       -12.4321
 215   2.0000      -0.455244       -12.3878
 216   2.0000      -0.454354       -12.3636
 217   2.0000      -0.453844       -12.3497
 218   2.0000      -0.453017       -12.3272
 219   2.0000      -0.451170       -12.2770
 220   2.0000      -0.447728       -12.1833
 221   2.0000      -0.446005       -12.1364
 222   2.0000      -0.441979       -12.0269
 223   2.0000      -0.436573       -11.8797
 224   2.0000      -0.435949       -11.8628
 225   2.0000      -0.435145       -11.8409
 226   2.0000      -0.433869       -11.8062
 227   2.0000      -0.433832       -11.8052
 228   2.0000      -0.431408       -11.7392
 229   2.0000      -0.431178       -11.7330
 230   2.0000      -0.430694       -11.7198
 231   2.0000      -0.429262       -11.6808
 232   2.0000      -0.421466       -11.4687
 233   2.0000      -0.418347       -11.3838
 234   2.0000      -0.417030       -11.3480
 235   2.0000      -0.416029       -11.3207
 236   2.0000      -0.399157       -10.8616
 237   2.0000      -0.397216       -10.8088
 238   2.0000      -0.395353       -10.7581
 239   2.0000      -0.384526       -10.4635
 240   2.0000      -0.383505       -10.4357
 241   2.0000      -0.380983       -10.3671
 242   2.0000      -0.370089       -10.0706
 243   2.0000      -0.365694        -9.9510
 244   2.0000      -0.361020        -9.8239
 245   2.0000      -0.355983        -9.6868
 246   2.0000      -0.355037        -9.6610
 247   2.0000      -0.348338        -9.4787
 248   2.0000      -0.343551        -9.3485
 249   2.0000      -0.342144        -9.3102
 250   2.0000      -0.340075        -9.2539
 251   2.0000      -0.334326        -9.0975
 252   2.0000      -0.333294        -9.0694
 253   2.0000      -0.327635        -8.9154
 254   2.0000      -0.326658        -8.8888
 255   2.0000      -0.315870        -8.5953
 256   2.0000      -0.313082        -8.5194
 257   2.0000      -0.312739        -8.5101
 258   2.0000      -0.287417        -7.8210
 259   2.0000      -0.259380        -7.0581
 260   2.0000      -0.225608        -6.1391
 261   0.0000      -0.109190        -2.9712
 262   0.0000      -0.096688        -2.6310
 263   0.0000      -0.085573        -2.3286
 264   0.0000      -0.083443        -2.2706
 265   0.0000      -0.071337        -1.9412

MULLIKEN ATOMIC CHARGES
-----------------------
   0 C :   -0.022179
   1 C :    0.052834
   2 C :   -0.064191
   3 C :    0.154749
   4 C :   -0.020227
   5 C :    0.055570
   6 N :   -0.268884
   7 Se:    0.532966
   8 N :   -0.333491
   9 C :   -0.097312
  10 C :   -0.053821
  11 C :    0.015386
  12 C :   -0.087427
  13 S :    0.222573
  14 C :   -0.087629
  15 C :    0.024138
  16 C :    0.310574
  17 C :   -0.306954
  18 C :   -0.190091
  19 N :    0.163855
  20 C :   -0.187073
  21 N :    0.164159
  22 C :   -0.085343
  23 C :   -0.074514
  24 S :    0.240911
  25 C :   -0.116842
  26 C :    0.007251
  27 C :    0.033786
  28 N :    0.071873
  29 C :   -0.119515
  30 C :    0.136925
  31 O :   -0.094877
  32 C :   -0.012390
  33 C :   -0.020391
  34 C :    0.140377
  35 O :   -0.113079
  36 C :   -0.117643
  37 N :    0.037315
  38 C :   -0.121499
  39 S :    0.207411
  40 C :   -0.091543
  41 C :   -0.058427
  42 C :    0.020311
  43 C :   -0.096695
  44 S :    0.176381
  45 C :   -0.081303
  46 C :    0.019323
  47 C :    0.309208
  48 C :   -0.302229
  49 C :   -0.186532
  50 N :    0.159390
  51 C :   -0.194453
  52 N :    0.193465
  53 C :   -0.057294
  54 C :   -0.094201
  55 S :    0.212796
  56 C :    0.153806
  57 C :   -0.062228
  58 C :    0.049390
  59 C :   -0.019322
  60 C :    0.054396
  61 C :   -0.017795
  62 N :   -0.336105
  63 Se:    0.532536
  64 N :   -0.268264
  65 H :   -0.016913
  66 H :   -0.002313
  67 H :   -0.012037
  68 H :   -0.000047
  69 H :    0.005401
  70 H :    0.019846
  71 H :    0.015265
  72 H :    0.026335
  73 H :    0.000629
  74 H :   -0.011181
  75 H :   -0.000069
  76 H :   -0.016809
Sum of atomic charges:   -0.0000000

LOEWDIN ATOMIC CHARGES
----------------------
   0 C :   -0.021400
   1 C :   -0.011355
   2 C :   -0.008907
   3 C :   -0.040902
   4 C :   -0.042598
   5 C :   -0.043458
   6 N :   -0.246570
   7 Se:    0.574776
   8 N :   -0.276579
   9 C :   -0.161990
  10 C :   -0.026530
  11 C :   -0.073509
  12 C :   -0.189610
  13 S :    0.523671
  14 C :   -0.175940
  15 C :   -0.073712
  16 C :    0.085921
  17 C :   -0.112660
  18 C :   -0.015978
  19 N :   -0.042181
  20 C :   -0.015368
  21 N :   -0.041769
  22 C :   -0.030480
  23 C :   -0.186645
  24 S :    0.527150
  25 C :   -0.190668
  26 C :   -0.057355
  27 C :   -0.046448
  28 N :    0.010273
  29 C :   -0.042253
  30 C :    0.053510
  31 O :   -0.091715
  32 C :   -0.009425
  33 C :   -0.016347
  34 C :    0.055349
  35 O :   -0.108954
  36 C :   -0.041915
  37 N :   -0.010450
  38 C :   -0.189415
  39 S :    0.498452
  40 C :   -0.188343
  41 C :   -0.007601
  42 C :   -0.069274
  43 C :   -0.172618
  44 S :    0.460796
  45 C :   -0.193121
  46 C :   -0.070138
  47 C :    0.080973
  48 C :   -0.101430
  49 C :   -0.012965
  50 N :   -0.040890
  51 C :   -0.024070
  52 N :   -0.019758
  53 C :   -0.026852
  54 C :   -0.160887
  55 S :    0.516393
  56 C :   -0.041372
  57 C :   -0.007843
  58 C :   -0.011246
  59 C :   -0.020900
  60 C :   -0.043314
  61 C :   -0.042166
  62 N :   -0.277749
  63 Se:    0.573675
  64 N :   -0.245794
  65 H :    0.037770
  66 H :    0.035598
  67 H :    0.034203
  68 H :    0.036510
  69 H :    0.035397
  70 H :    0.046268
  71 H :    0.044608
  72 H :    0.044546
  73 H :    0.036779
  74 H :    0.034682
  75 H :    0.036181
  76 H :    0.037935

  Mayer bond orders larger than 0.100000
B(  0-C ,  1-C ) :   1.5012 B(  0-C ,  3-C ) :   0.1005 B(  0-C ,  5-C ) :   1.1880
B(  0-C , 65-H ) :   1.0188 B(  1-C ,  2-C ) :   1.1988 B(  1-C , 66-H ) :   0.9820
B(  2-C ,  3-C ) :   1.5087 B(  2-C , 67-H ) :   0.9947 B(  3-C ,  4-C ) :   1.1421
B(  3-C ,  9-C ) :   1.0877 B(  4-C ,  5-C ) :   1.1287 B(  4-C ,  8-N ) :   1.5552
B(  5-C ,  6-N ) :   1.5629 B(  6-N ,  7-Se) :   1.2601 B(  6-N ,  8-N ) :   0.1313
B(  7-Se,  8-N ) :   1.2130 B(  9-C , 10-C ) :   1.4571 B(  9-C , 13-S ) :   1.1208
B( 10-C , 11-C ) :   1.3019 B( 10-C , 68-H ) :   0.9877 B( 11-C , 12-C ) :   1.4172
B( 11-C , 16-C ) :   0.9990 B( 12-C , 13-S ) :   1.0971 B( 12-C , 14-C ) :   1.1921
B( 14-C , 15-C ) :   1.4082 B( 14-C , 24-S ) :   1.1052 B( 15-C , 16-C ) :   0.9914
B( 15-C , 22-C ) :   1.3223 B( 16-C , 17-C ) :   1.7022 B( 17-C , 18-C ) :   1.1328
B( 17-C , 20-C ) :   1.1358 B( 18-C , 19-N ) :   2.9925 B( 20-C , 21-N ) :   2.9882
B( 22-C , 23-C ) :   1.3874 B( 22-C , 69-H ) :   0.9938 B( 23-C , 24-S ) :   1.1092
B( 23-C , 25-C ) :   1.2423 B( 25-C , 26-C ) :   1.3238 B( 25-C , 38-C ) :   0.1333
B( 25-C , 39-S ) :   1.1536 B( 26-C , 27-C ) :   1.1765 B( 26-C , 37-N ) :   1.4225
B( 27-C , 28-N ) :   1.4465 B( 27-C , 38-C ) :   1.3719 B( 28-N , 29-C ) :   1.7135
B( 29-C , 30-C ) :   0.8948 B( 29-C , 36-C ) :   1.0968 B( 30-C , 31-O ) :   2.2437
B( 30-C , 32-C ) :   1.0229 B( 32-C , 33-C ) :   1.6821 B( 32-C , 70-H ) :   0.9965
B( 33-C , 34-C ) :   1.0233 B( 33-C , 71-H ) :   0.9971 B( 34-C , 35-O ) :   2.2430
B( 34-C , 36-C ) :   0.8990 B( 36-C , 37-N ) :   1.6983 B( 38-C , 39-S ) :   1.1482
B( 38-C , 40-C ) :   1.1891 B( 40-C , 41-C ) :   1.4537 B( 40-C , 44-S ) :   1.0767
B( 41-C , 42-C ) :   1.2753 B( 41-C , 72-H ) :   0.9904 B( 42-C , 43-C ) :   1.4223
B( 42-C , 47-C ) :   0.9845 B( 43-C , 44-S ) :   1.1271 B( 43-C , 45-C ) :   1.1978
B( 45-C , 46-C ) :   1.4195 B( 45-C , 55-S ) :   1.0889 B( 46-C , 47-C ) :   0.9989
B( 46-C , 53-C ) :   1.2996 B( 47-C , 48-C ) :   1.7107 B( 48-C , 49-C ) :   1.1378
B( 48-C , 51-C ) :   1.1297 B( 49-C , 50-N ) :   2.9849 B( 51-C , 52-N ) :   3.0065
B( 53-C , 54-C ) :   1.4583 B( 53-C , 73-H ) :   0.9883 B( 54-C , 55-S ) :   1.1200
B( 54-C , 56-C ) :   1.0877 B( 56-C , 57-C ) :   1.5129 B( 56-C , 59-C ) :   0.1004
B( 56-C , 61-C ) :   1.1405 B( 57-C , 58-C ) :   1.1962 B( 57-C , 74-H ) :   0.9948
B( 58-C , 59-C ) :   1.5014 B( 58-C , 75-H ) :   0.9831 B( 59-C , 60-C ) :   1.1883
B( 59-C , 76-H ) :   1.0185 B( 60-C , 61-C ) :   1.1281 B( 60-C , 64-N ) :   1.5632
B( 61-C , 62-N ) :   1.5536 B( 62-N , 63-Se) :   1.2115 B( 62-N , 64-N ) :   0.1314
B( 63-Se, 64-N ) :   1.2602

-----------------------------------------------------------------------------
         ABSORPTION SPECTRUM VIA TRANSITION ELECTRIC DIPOLE MOMENTS
-----------------------------------------------------------------------------
State   Energy  Wavelength   fosc         T2         TX        TY        TZ
        (cm-1)    (nm)                  (au**2)     (au)      (au)      (au)
-----------------------------------------------------------------------------
   0    9775.1   1023.0   0.682186495  22.97505  -0.26298   4.07862   2.50415
   1   11629.0    859.9   0.037654819   1.06599   0.45591  -0.20419  -0.90358
   2   13215.2    756.7   0.109898856   2.73776   0.13970   1.57472   0.48838
   3   15953.0    626.8   0.139504410   2.87887  -0.96309  -0.33340   1.35652
   4   18968.2    527.2   0.036211893   0.62849   0.38417   0.58944  -0.36534
   5   20091.4    497.7   0.564377794   9.24772   0.56243  -2.06352  -2.16178
   6   20563.9    486.3   0.038092684   0.60984   0.29649   0.55290  -0.46500
   7   21490.3    465.3   0.144660003   2.21606  -0.36632   0.80884   1.19484
   8   23798.3    420.2   0.022155772   0.30649  -0.34896  -0.10145   0.41765
   9   24955.7    400.7   0.002136588   0.02819  -0.13084   0.08036  -0.06788
  10   25614.8    390.4   0.524527079   6.74145   0.22402  -2.15154  -1.43602
  11   25682.0    389.4   0.000799103   0.01024   0.00276  -0.09283  -0.04022
  12   25771.7    388.0   0.007361311   0.09403  -0.00338  -0.24190  -0.18843
  13   26685.7    374.7   0.001856642   0.02290   0.08101  -0.04591   0.11931
  14   27690.6    361.1   0.288450848   3.42938   0.34798   1.81018   0.17762
  15   28221.0    354.3   0.035660112   0.41599   0.03165   0.64168  -0.05693
  16   28700.5    348.4   0.008559996   0.09819  -0.02111  -0.25458  -0.18146
  17   29034.9    344.4   0.134364391   1.52349  -0.52387  -0.72768   0.84825
  18   29289.0    341.4   0.385937894   4.33800  -0.40505   1.38143   1.50519
  19   29765.9    336.0   0.006770600   0.07488  -0.09973   0.17320  -0.18692
  20   30507.4    327.8   0.240960523   2.60026  -0.27142  -1.58860  -0.05429
  21   30825.0    324.4   0.000450793   0.00481   0.04665   0.04892  -0.01566
  22   30990.8    322.7   0.005078990   0.05395   0.14790  -0.03173  -0.17627
  23   31769.8    314.8   0.244656772   2.53524  -0.78394  -0.10846   1.38163
  24   31887.9    313.6   0.201265190   2.07787  -0.57282   0.18784   1.30937
  25   32290.0    309.7   0.029491921   0.30068   0.03667   0.39556  -0.37798
  26   32573.5    307.0   0.000118256   0.00120  -0.01722   0.01782  -0.02411
  27   32791.1    305.0   0.000178646   0.00179  -0.03838  -0.00709  -0.01644
  28   33343.8    299.9   0.336966215   3.32696  -1.07971  -0.60715   1.33886
  29   33695.8    296.8   0.100685947   0.98371   0.21983   0.71407  -0.65230
  30   33740.7    296.4   0.019045011   0.18582  -0.09808  -0.25942   0.33001
  31   33781.9    296.0   0.125161384   1.21973   0.50706   0.67048  -0.71630
  32   34023.4    293.9   0.028305474   0.27388  -0.25611  -0.21933   0.40023
  33   34161.0    292.7   0.388084940   3.74000   0.94599   1.06930  -1.30449
  34   34465.5    290.1   0.226386768   2.16243   0.53740   1.02979  -0.90176
  35   34679.0    288.4   0.079084728   0.75076   0.50542   0.03103  -0.70310
  36   35192.6    284.2   0.001854470   0.01735   0.06110   0.10470  -0.05151
  37   35241.9    283.8   0.020469400   0.19121  -0.25940  -0.21488   0.27885
  38   35419.2    282.3   0.020366951   0.18931   0.04871   0.38925  -0.18819
  39   35637.2    280.6   0.068272245   0.63069   0.36732   0.24968  -0.65835
  40   35866.9    278.8   0.079718442   0.73171   0.39235  -0.18271  -0.73783
  41   35987.1    277.9   0.035461489   0.32440  -0.07094   0.43097   0.36557
  42   36067.3    277.3   0.112954833   1.03102  -0.24613   0.52305   0.83478
  43   36164.9    276.5   0.080896434   0.73641   0.45774   0.41962  -0.59228
  44   36256.4    275.8   0.000902820   0.00820  -0.05167  -0.01241   0.07331
  45   36540.7    273.7   0.021807450   0.19647   0.24139   0.31844  -0.19184
  46   36680.7    272.6   0.003783604   0.03396  -0.02901   0.11715  -0.13926
  47   37144.2    269.2   0.165618763   1.46789  -0.05892   1.02199   0.64804
  48   37279.6    268.2   0.002428727   0.02145   0.07446   0.12029   0.03786
  49   37359.7    267.7   0.050181077   0.44219  -0.17238   0.38681   0.51270
  50   37605.3    265.9   0.216431387   1.89473  -0.72959  -0.12895   1.16008
  51   37992.0    263.2   0.047631387   0.41274  -0.14399   0.38156   0.49641
  52   38073.6    262.6   0.095444577   0.82528   0.21752  -0.43075  -0.76969
  53   38453.7    260.1   0.046656319   0.39944  -0.20534   0.35240   0.48279
  54   38902.1    257.1   0.003865116   0.03271  -0.02412  -0.17645   0.03150
  55   39086.0    255.8   0.013726727   0.11562   0.17596   0.21950  -0.19098
  56   39416.1    253.7   0.065952383   0.55085   0.34820   0.50610  -0.41649
  57   39584.8    252.6   0.080385358   0.66854   0.37441   0.69954  -0.19750
  58   39748.0    251.6   0.001256874   0.01041  -0.06263   0.04793  -0.06473
  59   39822.0    251.1   0.000024855   0.00021   0.00223   0.01101   0.00891
  60   39897.9    250.6   0.001168971   0.00965  -0.01078  -0.09587   0.01838
  61   40107.9    249.3   0.137232867   1.12643   0.20143   1.04196  -0.01339
  62   40310.3    248.1   0.015472168   0.12636  -0.04508  -0.34910   0.04957

FINAL SINGLE POINT ENERGY     -9247.927477096737

DIPOLE MOMENT
-------------
                                X             Y             Z
Electronic contribution:      8.21819      34.71972     -14.83219
Nuclear contribution   :     -8.44244     -33.85002      14.77733
                        -----------------------------------------
Total Dipole Moment    :     -0.22425       0.86970      -0.05486
                        -----------------------------------------
Magnitude (a.u.)       :      0.89982
Magnitude (Debye)      :      2.28716

Rotational constants in cm-1:     0.001637     0.000267     0.000230
Rotational constants in MHz :    49.089190     7.997918     6.894939

                             ****ORCA TERMINATED NORMALLY****
TOTAL RUN TIME: 0 days 0 hours 8 minutes 13 seconds 891 msec
