                         Program Version 4.2.0 -  RELEASE  -
|  1> # ORCA input file
|  2> # SCF done       -179.391340589187          0.000282061804
|  3> ! CAM-B3LYP def2-SVP def2/J RIJCOSX Grid4 TightSCF
|  4> %maxcore 5000
|  5> %tddft
|  6>     Mode sTDDFT
|  7>     Ethresh 5.0
|  8>     maxcore 5000
|  9> end
| 10>
| 11> %pal
| 12>   nprocs 6
| 13>   end
| 14> * xyz 0 1
| 15>    C       12.99473         2.70003         7.58026
| 16>    C       14.10713         1.90018         7.36369
| 17>    C       14.02838         0.76302         6.56699
| 18>    C       12.81161         0.44988         5.99541
| 19>    C       11.68637         1.25954         6.21472
| 20>    C       11.76760         2.38896         7.00718
| 21>    C       10.53098         0.69247         5.49287
| 22>    O        9.38387         1.12570         5.44801
| 23>    C       11.01983        -0.51015         4.82578
| 24>    C       12.44885        -0.69381         5.11366
| 25>    O       13.17449        -1.58069         4.72338
| 26>    C       10.22753        -1.31951         4.06186
| 27>    N        8.92999        -1.02741         3.89860
| 28>    C        8.00017        -1.71538         3.19082
| 29>    S        8.40403        -3.16380         2.32535
| 30>    C        6.74858        -3.29820         1.82581
| 31>    N        6.39893        -4.37794         1.00935
| 32>    O        5.23564        -4.47118         0.66097
| 33>    O        7.29263        -5.15078         0.70595
| 34>    C        5.94827        -2.29331         2.30023
| 35>    C        6.64760        -1.36252         3.09225
| 36>    C        6.08587        -0.19272         3.71807
| 37>    C        4.76829         0.05814         3.81647
| 38>    C        4.16149         1.22300         4.41857
| 39>    C        2.77275         1.21315         4.62677
| 40>    C        2.15791         2.29853         5.19842
| 41>    C        2.90447         3.43421         5.55570
| 42>    C        4.27707         3.46125         5.34650
| 43>    C        4.89261         2.36037         4.78777
| 44>    C        2.00886         4.40845         6.13498
| 45>    C        0.70734         3.87181         6.14980
| 46>    C        0.68785         2.50972         5.49268
| 47>    C        0.12209         1.42392         6.41963
| 48>    C        0.92012         1.29246         7.71197
| 49>    C       -0.04605         2.53842         4.13118
| 50>    C       -1.51909         2.92221         4.17634
| 51>    C       -0.31815         4.57024         6.73472
| 52>    C       -0.08847         5.85302         7.26858
| 53>    C        1.21047         6.38452         7.20900
| 54>    C        2.25412         5.67003         6.66248
| 55>    C       -1.19589         6.55487         7.84926
| 56>    C       -1.20636         7.83008         8.32224
| 57>    C       -2.35316         8.43555         8.86458
| 58>    C       -2.41546         9.72673         9.32512
| 59>    C       -3.54610        10.37773         9.87438
| 60>    C       -3.32620        11.67057        10.24330
| 61>    C       -2.00894        12.11885        10.00792
| 62>    S       -1.05057        10.83532         9.30092
| 63>    C       -1.48696        13.37320        10.26736
| 64>    C       -2.15631        14.48061        10.83362
| 65>    C       -1.38540        15.59606        10.96274
| 66>    C       -0.05429        15.44563        10.50776
| 67>    S        0.16868        13.79686         9.91131
| 68>    C        1.00663        16.31437        10.47175
| 69>    C        1.07595        17.67447        10.84845
| 70>    C        2.32714        18.39315        10.79267
| 71>    C        2.12551        19.69159        11.20160
| 72>    C        3.01265        20.78653        11.32906
| 73>    C        2.49635        21.97388        11.76385
| 74>    C        3.10066        23.25152        11.99794
| 75>    C        2.13086        24.12935        12.43631
| 76>    C        0.88262        23.42340        12.48978
| 77>    C        1.08554        22.11579        12.08584
| 78>    C        0.20106        21.02872        11.96101
| 79>    C        0.71582        19.83060        11.52513
| 80>    C        0.10555        18.56980        11.29576
| 81>    C        2.35361        25.51356        12.77662
| 82>    C        1.42572        26.36543        13.20490
| 83>    H       13.08377         3.57719         8.20387
| 84>    H       15.04868         2.16500         7.82149
| 85>    H       14.88936         0.13581         6.39432
| 86>    H       10.89726         3.00568         7.17164
| 87>    H       10.62512        -2.20517         3.58051
| 88>    H        8.63953        -0.17114         4.39876
| 89>    H        4.90240        -2.24066         2.06105
| 90>    H        6.79084         0.51001         4.13787
| 91>    H        4.06650        -0.67284         3.43709
| 92>    H        2.20233         0.33895         4.34571
| 93>    H        4.85687         4.33116         5.61647
| 94>    H        5.95849         2.38731         4.62290
| 95>    H        0.12685         0.46879         5.88994
| 96>    H       -0.91263         1.66651         6.66504
| 97>    H        1.95196         1.01938         7.50196
| 98>    H        0.48304         0.52503         8.34696
| 99>    H        0.92011         2.23328         8.25826
|100>    H        0.05024         1.54713         3.68213
|101>    H        0.47944         3.24556         3.48363
|102>    H       -2.08402         2.25427         4.82135
|103>    H       -1.93838         2.85624         3.17445
|104>    H       -1.64293         3.94327         4.52642
|105>    H       -1.31090         4.14981         6.80248
|106>    H        1.40103         7.36489         7.61691
|107>    H        3.25124         6.08476         6.64810
|108>    H       -2.12558         5.99899         7.89468
|109>    H       -0.31285         8.43836         8.28557
|110>    H       -3.26110         7.84869         8.92365
|111>    H       -4.48767         9.86748         9.97781
|112>    H       -4.07489        12.31024        10.67523
|113>    H       -3.18790        14.42621        11.13291
|114>    H       -1.74358        16.51442        11.38660
|115>    H        1.93517        15.90053        10.09661
|116>    H        3.26010        17.95807        10.48028
|117>    H        4.05986        20.67131        11.08595
|118>    H        4.14161        23.47593        11.85199
|119>    H       -0.05659        23.84734        12.79457
|120>    H       -0.84636        21.14264        12.20296
|121>    H       -0.94031        18.38081        11.43719
|122>    H        3.37627        25.85156        12.66068
|123>    H        0.39685        26.07704        13.33575
|124>    H        1.66584        27.38745        13.44197
|125> *
|126>
|127>                          ****END OF INPUT****

CARTESIAN COORDINATES (ANGSTROEM)
---------------------------------
  C     12.994730    2.700030    7.580260
  C     14.107130    1.900180    7.363690
  C     14.028380    0.763020    6.566990
  C     12.811610    0.449880    5.995410
  C     11.686370    1.259540    6.214720
  C     11.767600    2.388960    7.007180
  C     10.530980    0.692470    5.492870
  O      9.383870    1.125700    5.448010
  C     11.019830   -0.510150    4.825780
  C     12.448850   -0.693810    5.113660
  O     13.174490   -1.580690    4.723380
  C     10.227530   -1.319510    4.061860
  N      8.929990   -1.027410    3.898600
  C      8.000170   -1.715380    3.190820
  S      8.404030   -3.163800    2.325350
  C      6.748580   -3.298200    1.825810
  N      6.398930   -4.377940    1.009350
  O      5.235640   -4.471180    0.660970
  O      7.292630   -5.150780    0.705950
  C      5.948270   -2.293310    2.300230
  C      6.647600   -1.362520    3.092250
  C      6.085870   -0.192720    3.718070
  C      4.768290    0.058140    3.816470
  C      4.161490    1.223000    4.418570
  C      2.772750    1.213150    4.626770
  C      2.157910    2.298530    5.198420
  C      2.904470    3.434210    5.555700
  C      4.277070    3.461250    5.346500
  C      4.892610    2.360370    4.787770
  C      2.008860    4.408450    6.134980
  C      0.707340    3.871810    6.149800
  C      0.687850    2.509720    5.492680
  C      0.122090    1.423920    6.419630
  C      0.920120    1.292460    7.711970
  C     -0.046050    2.538420    4.131180
  C     -1.519090    2.922210    4.176340
  C     -0.318150    4.570240    6.734720
  C     -0.088470    5.853020    7.268580
  C      1.210470    6.384520    7.209000
  C      2.254120    5.670030    6.662480
  C     -1.195890    6.554870    7.849260
  C     -1.206360    7.830080    8.322240
  C     -2.353160    8.435550    8.864580
  C     -2.415460    9.726730    9.325120
  C     -3.546100   10.377730    9.874380
  C     -3.326200   11.670570   10.243300
  C     -2.008940   12.118850   10.007920
  S     -1.050570   10.835320    9.300920
  C     -1.486960   13.373200   10.267360
  C     -2.156310   14.480610   10.833620
  C     -1.385400   15.596060   10.962740
  C     -0.054290   15.445630   10.507760
  S      0.168680   13.796860    9.911310
  C      1.006630   16.314370   10.471750
  C      1.075950   17.674470   10.848450
  C      2.327140   18.393150   10.792670
  C      2.125510   19.691590   11.201600
  C      3.012650   20.786530   11.329060
  C      2.496350   21.973880   11.763850
  C      3.100660   23.251520   11.997940
  C      2.130860   24.129350   12.436310
  C      0.882620   23.423400   12.489780
  C      1.085540   22.115790   12.085840
  C      0.201060   21.028720   11.961010
  C      0.715820   19.830600   11.525130
  C      0.105550   18.569800   11.295760
  C      2.353610   25.513560   12.776620
  C      1.425720   26.365430   13.204900
  H     13.083770    3.577190    8.203870
  H     15.048680    2.165000    7.821490
  H     14.889360    0.135810    6.394320
  H     10.897260    3.005680    7.171640
  H     10.625120   -2.205170    3.580510
  H      8.639530   -0.171140    4.398760
  H      4.902400   -2.240660    2.061050
  H      6.790840    0.510010    4.137870
  H      4.066500   -0.672840    3.437090
  H      2.202330    0.338950    4.345710
  H      4.856870    4.331160    5.616470
  H      5.958490    2.387310    4.622900
  H      0.126850    0.468790    5.889940
  H     -0.912630    1.666510    6.665040
  H      1.951960    1.019380    7.501960
  H      0.483040    0.525030    8.346960
  H      0.920110    2.233280    8.258260
  H      0.050240    1.547130    3.682130
  H      0.479440    3.245560    3.483630
  H     -2.084020    2.254270    4.821350
  H     -1.938380    2.856240    3.174450
  H     -1.642930    3.943270    4.526420
  H     -1.310900    4.149810    6.802480
  H      1.401030    7.364890    7.616910
  H      3.251240    6.084760    6.648100
  H     -2.125580    5.998990    7.894680
  H     -0.312850    8.438360    8.285570
  H     -3.261100    7.848690    8.923650
  H     -4.487670    9.867480    9.977810
  H     -4.074890   12.310240   10.675230
  H     -3.187900   14.426210   11.132910
  H     -1.743580   16.514420   11.386600
  H      1.935170   15.900530   10.096610
  H      3.260100   17.958070   10.480280
  H      4.059860   20.671310   11.085950
  H      4.141610   23.475930   11.851990
  H     -0.056590   23.847340   12.794570
  H     -0.846360   21.142640   12.202960
  H     -0.940310   18.380810   11.437190
  H      3.376270   25.851560   12.660680
  H      0.396850   26.077040   13.335750
  H      1.665840   27.387450   13.441970

 Total Charge           Charge          ....    0
 Multiplicity           Mult            ....    1
 Number of Electrons    NEL             ....  490
 Basis Dimension        Dim             .... 1174

ORBITAL ENERGIES
----------------

  NO   OCC          E(Eh)            E(eV)
   0   2.0000     -88.984733     -2421.3977
   1   2.0000     -88.937200     -2420.1042
   2   2.0000     -88.933784     -2420.0113
   3   2.0000     -19.234559      -523.3990
   4   2.0000     -19.233884      -523.3806
   5   2.0000     -19.223780      -523.1056
   6   2.0000     -19.206042      -522.6230
   7   2.0000     -14.646108      -398.5409
   8   2.0000     -14.486934      -394.2095
   9   2.0000     -10.370563      -282.1974
  10   2.0000     -10.366314      -282.0817
  11   2.0000     -10.360613      -281.9266
  12   2.0000     -10.360110      -281.9129
  13   2.0000     -10.341991      -281.4199
  14   2.0000     -10.306993      -280.4675
  15   2.0000     -10.303171      -280.3635
  16   2.0000     -10.302649      -280.3493
  17   2.0000     -10.300389      -280.2878
  18   2.0000     -10.299038      -280.2511
  19   2.0000     -10.297709      -280.2149
  20   2.0000     -10.293965      -280.1130
  21   2.0000     -10.292434      -280.0714
  22   2.0000     -10.292363      -280.0694
  23   2.0000     -10.291439      -280.0443
  24   2.0000     -10.290756      -280.0257
  25   2.0000     -10.289974      -280.0044
  26   2.0000     -10.289447      -279.9901
  27   2.0000     -10.287275      -279.9310
  28   2.0000     -10.283856      -279.8379
  29   2.0000     -10.282951      -279.8133
  30   2.0000     -10.281122      -279.7636
  31   2.0000     -10.280621      -279.7499
  32   2.0000     -10.279643      -279.7233
  33   2.0000     -10.278804      -279.7005
  34   2.0000     -10.277541      -279.6661
  35   2.0000     -10.277269      -279.6587
  36   2.0000     -10.276704      -279.6433
  37   2.0000     -10.275865      -279.6205
  38   2.0000     -10.274104      -279.5726
  39   2.0000     -10.273147      -279.5465
  40   2.0000     -10.272441      -279.5273
  41   2.0000     -10.271537      -279.5027
  42   2.0000     -10.269204      -279.4393
  43   2.0000     -10.269016      -279.4341
  44   2.0000     -10.268618      -279.4233
  45   2.0000     -10.268027      -279.4072
  46   2.0000     -10.267962      -279.4054
  47   2.0000     -10.267885      -279.4033
  48   2.0000     -10.267870      -279.4029
  49   2.0000     -10.267780      -279.4005
  50   2.0000     -10.267376      -279.3895
  51   2.0000     -10.266340      -279.3613
  52   2.0000     -10.266278      -279.3596
  53   2.0000     -10.265052      -279.3263
  54   2.0000     -10.264949      -279.3235
  55   2.0000     -10.264890      -279.3218
  56   2.0000     -10.264490      -279.3110
  57   2.0000     -10.264346      -279.3071
  58   2.0000     -10.264132      -279.3012
  59   2.0000     -10.261959      -279.2421
  60   2.0000     -10.261371      -279.2261
  61   2.0000     -10.261370      -279.2261
  62   2.0000     -10.261234      -279.2224
  63   2.0000     -10.260774      -279.2099
  64   2.0000     -10.260523      -279.2030
  65   2.0000     -10.255315      -279.0613
  66   2.0000     -10.249530      -278.9039
  67   2.0000     -10.244182      -278.7584
  68   2.0000      -8.080185      -219.8730
  69   2.0000      -8.033351      -218.5986
  70   2.0000      -8.030294      -218.5154
  71   2.0000      -6.049820      -164.6240
  72   2.0000      -6.045508      -164.5066
  73   2.0000      -6.041611      -164.4006
  74   2.0000      -6.003081      -163.3521
  75   2.0000      -6.000058      -163.2699
  76   2.0000      -5.999159      -163.2454
  77   2.0000      -5.996111      -163.1625
  78   2.0000      -5.994223      -163.1111
  79   2.0000      -5.991054      -163.0249
  80   2.0000      -1.315092       -35.7855
  81   2.0000      -1.137702       -30.9585
  82   2.0000      -1.134011       -30.8580
  83   2.0000      -1.120329       -30.4857
  84   2.0000      -1.095257       -29.8035
  85   2.0000      -1.005122       -27.3508
  86   2.0000      -0.987090       -26.8601
  87   2.0000      -0.983741       -26.7690
  88   2.0000      -0.981666       -26.7125
  89   2.0000      -0.980374       -26.6773
  90   2.0000      -0.965276       -26.2665
  91   2.0000      -0.954887       -25.9838
  92   2.0000      -0.944205       -25.6931
  93   2.0000      -0.926290       -25.2056
  94   2.0000      -0.920956       -25.0605
  95   2.0000      -0.908024       -24.7086
  96   2.0000      -0.898629       -24.4529
  97   2.0000      -0.892888       -24.2967
  98   2.0000      -0.888044       -24.1649
  99   2.0000      -0.875182       -23.8149
 100   2.0000      -0.865400       -23.5487
 101   2.0000      -0.858501       -23.3610
 102   2.0000      -0.855220       -23.2717
 103   2.0000      -0.855113       -23.2688
 104   2.0000      -0.850425       -23.1412
 105   2.0000      -0.841921       -22.9098
 106   2.0000      -0.837170       -22.7806
 107   2.0000      -0.834586       -22.7103
 108   2.0000      -0.830983       -22.6122
 109   2.0000      -0.829103       -22.5610
 110   2.0000      -0.823058       -22.3965
 111   2.0000      -0.812567       -22.1111
 112   2.0000      -0.802023       -21.8242
 113   2.0000      -0.795515       -21.6471
 114   2.0000      -0.792902       -21.5760
 115   2.0000      -0.778105       -21.1733
 116   2.0000      -0.761946       -20.7336
 117   2.0000      -0.756678       -20.5903
 118   2.0000      -0.749763       -20.4021
 119   2.0000      -0.741830       -20.1862
 120   2.0000      -0.737142       -20.0587
 121   2.0000      -0.729563       -19.8524
 122   2.0000      -0.723363       -19.6837
 123   2.0000      -0.713491       -19.4151
 124   2.0000      -0.708006       -19.2658
 125   2.0000      -0.698232       -18.9999
 126   2.0000      -0.689320       -18.7573
 127   2.0000      -0.688099       -18.7241
 128   2.0000      -0.683450       -18.5976
 129   2.0000      -0.673894       -18.3376
 130   2.0000      -0.664433       -18.0801
 131   2.0000      -0.664296       -18.0764
 132   2.0000      -0.660869       -17.9832
 133   2.0000      -0.652365       -17.7518
 134   2.0000      -0.648867       -17.6566
 135   2.0000      -0.644874       -17.5479
 136   2.0000      -0.639381       -17.3984
 137   2.0000      -0.637297       -17.3417
 138   2.0000      -0.628980       -17.1154
 139   2.0000      -0.627269       -17.0689
 140   2.0000      -0.625050       -17.0085
 141   2.0000      -0.623164       -16.9572
 142   2.0000      -0.619121       -16.8471
 143   2.0000      -0.615096       -16.7376
 144   2.0000      -0.609029       -16.5725
 145   2.0000      -0.601636       -16.3714
 146   2.0000      -0.599194       -16.3049
 147   2.0000      -0.592042       -16.1103
 148   2.0000      -0.590583       -16.0706
 149   2.0000      -0.588119       -16.0035
 150   2.0000      -0.576644       -15.6913
 151   2.0000      -0.574706       -15.6385
 152   2.0000      -0.571838       -15.5605
 153   2.0000      -0.568104       -15.4589
 154   2.0000      -0.563522       -15.3342
 155   2.0000      -0.555526       -15.1166
 156   2.0000      -0.554273       -15.0825
 157   2.0000      -0.550068       -14.9681
 158   2.0000      -0.548942       -14.9375
 159   2.0000      -0.546125       -14.8608
 160   2.0000      -0.540500       -14.7078
 161   2.0000      -0.537438       -14.6244
 162   2.0000      -0.536978       -14.6119
 163   2.0000      -0.530875       -14.4459
 164   2.0000      -0.528590       -14.3837
 165   2.0000      -0.528275       -14.3751
 166   2.0000      -0.527054       -14.3419
 167   2.0000      -0.524111       -14.2618
 168   2.0000      -0.523566       -14.2470
 169   2.0000      -0.519007       -14.1229
 170   2.0000      -0.515877       -14.0377
 171   2.0000      -0.514186       -13.9917
 172   2.0000      -0.513059       -13.9610
 173   2.0000      -0.508918       -13.8484
 174   2.0000      -0.505772       -13.7627
 175   2.0000      -0.504277       -13.7221
 176   2.0000      -0.500670       -13.6239
 177   2.0000      -0.498304       -13.5596
 178   2.0000      -0.494733       -13.4624
 179   2.0000      -0.491621       -13.3777
 180   2.0000      -0.489373       -13.3165
 181   2.0000      -0.487744       -13.2722
 182   2.0000      -0.487510       -13.2658
 183   2.0000      -0.480666       -13.0796
 184   2.0000      -0.478954       -13.0330
 185   2.0000      -0.477472       -12.9927
 186   2.0000      -0.473563       -12.8863
 187   2.0000      -0.470045       -12.7906
 188   2.0000      -0.468937       -12.7604
 189   2.0000      -0.466603       -12.6969
 190   2.0000      -0.465886       -12.6774
 191   2.0000      -0.462188       -12.5768
 192   2.0000      -0.459815       -12.5122
 193   2.0000      -0.458207       -12.4684
 194   2.0000      -0.455786       -12.4026
 195   2.0000      -0.452914       -12.3244
 196   2.0000      -0.450842       -12.2680
 197   2.0000      -0.450540       -12.2598
 198   2.0000      -0.448912       -12.2155
 199   2.0000      -0.447562       -12.1788
 200   2.0000      -0.445454       -12.1214
 201   2.0000      -0.444255       -12.0888
 202   2.0000      -0.441644       -12.0177
 203   2.0000      -0.441011       -12.0005
 204   2.0000      -0.439711       -11.9652
 205   2.0000      -0.432953       -11.7812
 206   2.0000      -0.429843       -11.6966
 207   2.0000      -0.428474       -11.6594
 208   2.0000      -0.421728       -11.4758
 209   2.0000      -0.419017       -11.4020
 210   2.0000      -0.417563       -11.3625
 211   2.0000      -0.416054       -11.3214
 212   2.0000      -0.413403       -11.2493
 213   2.0000      -0.410953       -11.1826
 214   2.0000      -0.408124       -11.1056
 215   2.0000      -0.399472       -10.8702
 216   2.0000      -0.399216       -10.8632
 217   2.0000      -0.391011       -10.6400
 218   2.0000      -0.390701       -10.6315
 219   2.0000      -0.385873       -10.5001
 220   2.0000      -0.382369       -10.4048
 221   2.0000      -0.381727       -10.3873
 222   2.0000      -0.376915       -10.2564
 223   2.0000      -0.374542       -10.1918
 224   2.0000      -0.368270       -10.0211
 225   2.0000      -0.363255        -9.8847
 226   2.0000      -0.362090        -9.8530
 227   2.0000      -0.355227        -9.6662
 228   2.0000      -0.354650        -9.6505
 229   2.0000      -0.351594        -9.5674
 230   2.0000      -0.340688        -9.2706
 231   2.0000      -0.338587        -9.2134
 232   2.0000      -0.332798        -9.0559
 233   2.0000      -0.329666        -8.9707
 234   2.0000      -0.325787        -8.8651
 235   2.0000      -0.317783        -8.6473
 236   2.0000      -0.317592        -8.6421
 237   2.0000      -0.312504        -8.5037
 238   2.0000      -0.310629        -8.4526
 239   2.0000      -0.293012        -7.9733
 240   2.0000      -0.274921        -7.4810
 241   2.0000      -0.265124        -7.2144
 242   2.0000      -0.253674        -6.9028
 243   2.0000      -0.238981        -6.5030
 244   2.0000      -0.194641        -5.2965
 245   0.0000      -0.094207        -2.5635
 246   0.0000      -0.071393        -1.9427
 247   0.0000      -0.067309        -1.8316
 248   0.0000      -0.044567        -1.2127
 249   0.0000      -0.038268        -1.0413

MULLIKEN ATOMIC CHARGES
-----------------------
   0 C :    0.036650
   1 C :    0.042639
   2 C :   -0.027818
   3 C :   -0.008298
   4 C :    0.002971
   5 C :   -0.022042
   6 C :    0.188104
   7 O :   -0.226246
   8 C :   -0.189870
   9 C :    0.166111
  10 O :   -0.146209
  11 C :    0.051282
  12 N :   -0.014743
  13 C :   -0.117828
  14 S :    0.162078
  15 C :   -0.002353
  16 N :    0.277203
  17 O :   -0.251402
  18 O :   -0.264697
  19 C :    0.002490
  20 C :    0.134609
  21 C :   -0.030247
  22 C :   -0.004188
  23 C :    0.128019
  24 C :   -0.109893
  25 C :    0.014911
  26 C :    0.106956
  27 C :   -0.046848
  28 C :   -0.019646
  29 C :    0.099747
  30 C :    0.031098
  31 C :   -0.124470
  32 C :    0.053459
  33 C :    0.024693
  34 C :    0.077781
  35 C :    0.029868
  36 C :   -0.119512
  37 C :    0.134972
  38 C :   -0.007438
  39 C :   -0.049512
  40 C :   -0.017314
  41 C :    0.022524
  42 C :   -0.019932
  43 C :   -0.018746
  44 C :    0.035171
  45 C :    0.022872
  46 C :   -0.042273
  47 S :    0.066290
  48 C :   -0.046476
  49 C :    0.016034
  50 C :    0.031277
  51 C :   -0.053238
  52 S :    0.077368
  53 C :    0.030824
  54 C :    0.080509
  55 C :   -0.042962
  56 C :    0.063544
  57 C :   -0.007077
  58 C :    0.063906
  59 C :   -0.033474
  60 C :    0.064848
  61 C :   -0.027806
  62 C :    0.054317
  63 C :   -0.009947
  64 C :    0.060503
  65 C :   -0.053877
  66 C :    0.009581
  67 C :   -0.025164
  68 H :   -0.001196
  69 H :   -0.001243
  70 H :   -0.003785
  71 H :   -0.007488
  72 H :    0.039161
  73 H :    0.178236
  74 H :    0.012311
  75 H :   -0.008711
  76 H :   -0.026599
  77 H :   -0.042828
  78 H :   -0.036473
  79 H :   -0.023146
  80 H :   -0.004025
  81 H :    0.004777
  82 H :    0.020425
  83 H :    0.008101
  84 H :    0.021433
  85 H :   -0.005677
  86 H :    0.005547
  87 H :    0.002839
  88 H :    0.011365
  89 H :    0.020830
  90 H :   -0.040157
  91 H :   -0.032549
  92 H :   -0.037946
  93 H :   -0.029952
  94 H :   -0.001205
  95 H :   -0.020601
  96 H :   -0.016572
  97 H :   -0.016180
  98 H :   -0.018571
  99 H :   -0.027358
 100 H :   -0.027646
 101 H :   -0.024249
 102 H :   -0.028280
 103 H :   -0.030683
 104 H :   -0.026654
 105 H :   -0.029770
 106 H :   -0.044599
 107 H :   -0.020678
 108 H :    0.007271
 109 H :    0.018864
Sum of atomic charges:   -0.0000000

LOEWDIN ATOMIC CHARGES
----------------------
   0 C :   -0.006630
   1 C :   -0.001861
   2 C :    0.008681
   3 C :   -0.040127
   4 C :   -0.045739
   5 C :    0.009099
   6 C :    0.091597
   7 O :   -0.184534
   8 C :   -0.183163
   9 C :    0.076191
  10 O :   -0.152253
  11 C :    0.119420
  12 N :    0.070718
  13 C :   -0.111649
  14 S :    0.457404
  15 C :   -0.205033
  16 N :    0.274126
  17 O :   -0.217801
  18 O :   -0.230503
  19 C :    0.004533
  20 C :   -0.085175
  21 C :   -0.037260
  22 C :   -0.004321
  23 C :   -0.029047
  24 C :   -0.020439
  25 C :    0.004721
  26 C :   -0.014779
  27 C :   -0.017270
  28 C :   -0.013149
  29 C :   -0.018658
  30 C :    0.002132
  31 C :   -0.034167
  32 C :   -0.015233
  33 C :   -0.056620
  34 C :   -0.009280
  35 C :   -0.059400
  36 C :   -0.022154
  37 C :   -0.025531
  38 C :   -0.012819
  39 C :   -0.017928
  40 C :   -0.018512
  41 C :   -0.030268
  42 C :   -0.055921
  43 C :   -0.146882
  44 C :   -0.037468
  45 C :   -0.034455
  46 C :   -0.180000
  47 S :    0.363661
  48 C :   -0.182651
  49 C :   -0.026237
  50 C :   -0.041296
  51 C :   -0.143862
  52 S :    0.364295
  53 C :   -0.055936
  54 C :   -0.055307
  55 C :    0.038850
  56 C :   -0.063243
  57 C :    0.064211
  58 C :   -0.055457
  59 C :    0.007035
  60 C :   -0.056839
  61 C :    0.039643
  62 C :   -0.058376
  63 C :    0.058326
  64 C :   -0.049738
  65 C :   -0.013760
  66 C :   -0.020514
  67 C :   -0.056296
  68 H :    0.033537
  69 H :    0.033655
  70 H :    0.038842
  71 H :    0.037557
  72 H :    0.038634
  73 H :    0.087050
  74 H :    0.044625
  75 H :    0.027548
  76 H :    0.026213
  77 H :    0.022684
  78 H :    0.026994
  79 H :    0.027687
  80 H :    0.019432
  81 H :    0.019337
  82 H :    0.024987
  83 H :    0.023391
  84 H :    0.026038
  85 H :    0.019045
  86 H :    0.026889
  87 H :    0.019455
  88 H :    0.027323
  89 H :    0.024571
  90 H :    0.022603
  91 H :    0.025902
  92 H :    0.026411
  93 H :    0.025278
  94 H :    0.020453
  95 H :    0.031069
  96 H :    0.031939
  97 H :    0.030497
  98 H :    0.030525
  99 H :    0.029295
 100 H :    0.027240
 101 H :    0.024373
 102 H :    0.033583
 103 H :    0.022863
 104 H :    0.023754
 105 H :    0.032546
 106 H :    0.016995
 107 H :    0.028872
 108 H :    0.017432
 109 H :    0.023776

  Mayer bond orders larger than 0.100000
B(  0-C ,  1-C ) :   1.3916 B(  0-C ,  5-C ) :   1.3486 B(  0-C , 68-H ) :   0.9878
B(  1-C ,  2-C ) :   1.3483 B(  1-C , 69-H ) :   0.9885 B(  2-C ,  3-C ) :   1.4045
B(  2-C , 70-H ) :   1.0031 B(  3-C ,  4-C ) :   1.3502 B(  3-C ,  9-C ) :   0.9083
B(  4-C ,  5-C ) :   1.3926 B(  4-C ,  6-C ) :   0.9628 B(  5-C , 71-H ) :   1.0054
B(  6-C ,  7-O ) :   2.0417 B(  6-C ,  8-C ) :   1.0291 B(  7-O , 73-H ) :   0.1368
B(  8-C ,  9-C ) :   0.9805 B(  8-C , 11-C ) :   1.5120 B(  9-C , 10-O ) :   2.2850
B( 11-C , 12-N ) :   1.3055 B( 11-C , 72-H ) :   0.9501 B( 12-N , 13-C ) :   1.2010
B( 12-N , 73-H ) :   0.8313 B( 13-C , 14-S ) :   1.1270 B( 13-C , 20-C ) :   1.3795
B( 14-S , 15-C ) :   1.0789 B( 15-C , 16-N ) :   0.9715 B( 15-C , 19-C ) :   1.4954
B( 16-N , 17-O ) :   1.5316 B( 16-N , 18-O ) :   1.5095 B( 17-O , 18-O ) :   0.2583
B( 19-C , 20-C ) :   1.2223 B( 19-C , 74-H ) :   1.0000 B( 20-C , 21-C ) :   1.0625
B( 21-C , 22-C ) :   1.7353 B( 21-C , 75-H ) :   0.9626 B( 22-C , 23-C ) :   1.0620
B( 22-C , 76-H ) :   0.9841 B( 23-C , 24-C ) :   1.2844 B( 23-C , 28-C ) :   1.3428
B( 24-C , 25-C ) :   1.3810 B( 24-C , 77-H ) :   1.0095 B( 25-C , 26-C ) :   1.3763
B( 25-C , 31-C ) :   0.9249 B( 26-C , 27-C ) :   1.3241 B( 26-C , 29-C ) :   1.0035
B( 27-C , 28-C ) :   1.4050 B( 27-C , 78-H ) :   0.9894 B( 28-C , 79-H ) :   0.9862
B( 29-C , 30-C ) :   1.3811 B( 29-C , 39-C ) :   1.3212 B( 30-C , 31-C ) :   0.9167
B( 30-C , 36-C ) :   1.3842 B( 31-C , 32-C ) :   1.0317 B( 31-C , 34-C ) :   1.0131
B( 32-C , 33-C ) :   1.1041 B( 32-C , 80-H ) :   0.9394 B( 32-C , 81-H ) :   0.9381
B( 33-C , 82-H ) :   0.9630 B( 33-C , 83-H ) :   0.9645 B( 33-C , 84-H ) :   0.9652
B( 34-C , 35-C ) :   1.1151 B( 34-C , 85-H ) :   0.9371 B( 34-C , 86-H ) :   0.9390
B( 35-C , 87-H ) :   0.9630 B( 35-C , 88-H ) :   0.9594 B( 35-C , 89-H ) :   0.9609
B( 36-C , 37-C ) :   1.2716 B( 36-C , 90-H ) :   1.0065 B( 37-C , 38-C ) :   1.3367
B( 37-C , 40-C ) :   1.0758 B( 38-C , 39-C ) :   1.4048 B( 38-C , 91-H ) :   0.9847
B( 39-C , 92-H ) :   0.9899 B( 40-C , 41-C ) :   1.6402 B( 40-C , 93-H ) :   0.9884
B( 41-C , 42-C ) :   1.1559 B( 41-C , 94-H ) :   0.9636 B( 42-C , 43-C ) :   1.5566
B( 42-C , 95-H ) :   0.9845 B( 43-C , 44-C ) :   1.1455 B( 43-C , 47-S ) :   1.0285
B( 44-C , 45-C ) :   1.5817 B( 44-C , 96-H ) :   0.9990 B( 45-C , 46-C ) :   1.1995
B( 45-C , 97-H ) :   0.9923 B( 46-C , 47-S ) :   1.0432 B( 46-C , 48-C ) :   1.4872
B( 48-C , 49-C ) :   1.1985 B( 48-C , 52-S ) :   1.0545 B( 49-C , 50-C ) :   1.5949
B( 49-C , 98-H ) :   0.9914 B( 50-C , 51-C ) :   1.1540 B( 50-C , 99-H ) :   0.9956
B( 51-C , 52-S ) :   1.0290 B( 51-C , 53-C ) :   1.5654 B( 53-C , 54-C ) :   1.1674
B( 53-C ,100-H ) :   0.9477 B( 54-C , 55-C ) :   1.1123 B( 54-C , 65-C ) :   1.4535
B( 55-C , 56-C ) :   1.4539 B( 55-C ,101-H ) :   1.0156 B( 56-C , 57-C ) :   1.1090
B( 56-C , 64-C ) :   1.1212 B( 57-C , 58-C ) :   1.4854 B( 57-C ,102-H ) :   1.0052
B( 58-C , 59-C ) :   1.0747 B( 58-C , 62-C ) :   1.1212 B( 59-C , 60-C ) :   1.5218
B( 59-C ,103-H ) :   1.0171 B( 60-C , 61-C ) :   1.1326 B( 60-C , 66-C ) :   1.0850
B( 61-C , 62-C ) :   1.4526 B( 61-C ,104-H ) :   1.0076 B( 62-C , 63-C ) :   1.1262
B( 63-C , 64-C ) :   1.4474 B( 63-C ,105-H ) :   1.0033 B( 64-C , 65-C ) :   1.1221
B( 65-C ,106-H ) :   1.0121 B( 66-C , 67-C ) :   1.9329 B( 66-C ,107-H ) :   0.9663
B( 67-C ,108-H ) :   0.9523 B( 67-C ,109-H ) :   0.9491

-----------------------------------------------------------------------------
         ABSORPTION SPECTRUM VIA TRANSITION ELECTRIC DIPOLE MOMENTS
-----------------------------------------------------------------------------
State   Energy  Wavelength   fosc         T2         TX        TY        TZ
        (cm-1)    (nm)                  (au**2)     (au)      (au)      (au)
-----------------------------------------------------------------------------
   0    6836.7   1462.7   0.115032387   5.53923  -0.26358  -2.25776  -0.61013
   1   14156.3    706.4   2.183263554  50.77306   0.14626   6.82015   2.05844
   2   15453.6    647.1   0.076193940   1.62318   0.30249   1.19815   0.31001
   3   20072.3    498.2   0.160221603   2.62785   1.55867   0.35672   0.26670
   4   22428.8    445.9   0.194001588   2.84757  -0.04740   1.62283   0.46014
   5   22805.7    438.5   0.027307026   0.39419   0.57730  -0.05785   0.23993
   6   23745.0    421.1   0.757217679  10.49842   2.92307   1.00925   0.96720
   7   24482.4    408.5   0.520957448   7.00526   2.25299  -0.54388  -1.27809
   8   25848.6    386.9   0.015831161   0.20163  -0.40938  -0.14701   0.11146
   9   26168.3    382.1   0.012305921   0.15482  -0.36717  -0.13792   0.03128
  10   27407.8    364.9   0.046696763   0.56090   0.51950   0.51826  -0.14977
  11   28232.0    354.2   0.285356961   3.32754   1.17530  -1.31651  -0.46154
  12   28854.0    346.6   0.013192718   0.15052   0.30338  -0.19387  -0.14456
  13   29485.7    339.1   0.003867785   0.04318   0.01246  -0.14466  -0.14867
  14   30082.7    332.4   0.536355938   5.86965   0.65425   1.81538   1.46492
  15   30201.2    331.1   0.293180054   3.19584   1.39531  -1.05587  -0.36618
  16   30783.5    324.8   0.175759047   1.87964  -0.28947   1.27060   0.42594
  17   31333.3    319.1   0.000015731   0.00017   0.00597   0.01098  -0.00300
  18   31392.2    318.6   0.103145453   1.08169  -0.42142   0.80620   0.50412
  19   31989.3    312.6   0.057406251   0.59079  -0.74895  -0.09712  -0.14295
  20   32250.4    310.1   0.000498513   0.00509  -0.02744   0.03245  -0.05730
  21   32470.9    308.0   0.000155829   0.00158   0.01747  -0.02490   0.02559
  22   32584.9    306.9   0.151311334   1.52873  -0.11669  -1.18133  -0.34579
  23   33350.5    299.8   0.242123007   2.39006  -0.01236  -1.30617  -0.82694
  24   33807.6    295.8   0.064673743   0.62978   0.28252  -0.73295  -0.11290
  25   34073.7    293.5   0.002737757   0.02645   0.09983   0.11858  -0.04922
  26   35037.4    285.4   0.188257054   1.76886   0.57054  -1.12661  -0.41725
  27   35176.0    284.3   0.177886706   1.66484  -0.38626   1.10689   0.53893
  28   35700.1    280.1   0.107928064   0.99527   0.62891  -0.65120  -0.41914
  29   35934.0    278.3   0.044680522   0.40934  -0.55807   0.21945   0.22303
  30   35982.6    277.9   0.030164427   0.27598  -0.09529  -0.45769  -0.23962
  31   37029.8    270.1   0.054241998   0.48224   0.65482  -0.20255  -0.11142
  32   37156.9    269.1   0.014654372   0.12984   0.09980  -0.33484  -0.08810
  33   37500.6    266.7   0.101139099   0.88788   0.21115   0.89388   0.21042
  34   37709.1    265.2   0.013217441   0.11539   0.31634  -0.11131  -0.05414
  35   37827.4    264.4   0.045651563   0.39731   0.37118  -0.38150  -0.33762
  36   38169.9    262.0   0.161241449   1.39069   0.04243  -1.10672  -0.40504
  37   38432.0    260.2   0.026547881   0.22741   0.26431  -0.30636  -0.25238
  38   38776.9    257.9   0.002428977   0.02062  -0.01008   0.14318  -0.00444
  39   38969.4    256.6   0.102425352   0.86529  -0.68312   0.54804   0.31352
  40   39429.3    253.6   0.000237651   0.00198   0.03150   0.00518   0.03107
  41   39569.4    252.7   0.000041031   0.00034  -0.00562  -0.01579   0.00778
  42   39853.4    250.9   0.009643687   0.07966  -0.24542  -0.13400   0.03844
  43   40203.7    248.7   0.054433554   0.44573   0.43523   0.50090   0.07353
  44   40241.9    248.5   0.008559418   0.07002   0.08278   0.23638   0.08541

FINAL SINGLE POINT ENERGY     -3874.575717506788

DIPOLE MOMENT
-------------
                                X             Y             Z
Electronic contribution:     47.29002     -35.06785     -19.49766
Nuclear contribution   :    -47.82825      37.69608      21.41835
                        -----------------------------------------
Total Dipole Moment    :     -0.53823       2.62822       1.92069
                        -----------------------------------------
Magnitude (a.u.)       :      3.29944
Magnitude (Debye)      :      8.38651

Rotational constants in cm-1:     0.001152     0.000184     0.000161
Rotational constants in MHz :    34.536611     5.503795     4.833018

                             ****ORCA TERMINATED NORMALLY****
TOTAL RUN TIME: 0 days 0 hours 11 minutes 19 seconds 580 msec
