                         Program Version 4.2.0 -  RELEASE  -
|  1> # ORCA input file
|  2> # SCF done       -196.874253006409          0.000825068843
|  3> ! CAM-B3LYP def2-SVP def2/J RIJCOSX Grid4 TightSCF
|  4> %maxcore 5000
|  5> %tddft
|  6>     Mode sTDDFT
|  7>     Ethresh 5.0
|  8>     maxcore 5000
|  9> end
| 10>
| 11> %pal
| 12>   nprocs 6
| 13>   end
| 14> * xyz 0 1
| 15>    C       -1.03340         0.92034         0.61123
| 16>    C       -0.50472         0.79728        -0.64713
| 17>    C        0.71803         0.15135        -0.92393
| 18>    N        1.70864        -0.35683        -1.20347
| 19>    C       -1.14571         1.21047        -1.83550
| 20>    N       -1.62877         1.47033        -2.84386
| 21>    C       -0.47901         0.33605         1.82536
| 22>    C       -1.43852         0.45751         2.85906
| 23>    C       -1.21958        -0.01545         4.13004
| 24>    C        0.00984        -0.62718         4.39610
| 25>    C        0.96634        -0.73482         3.35850
| 26>    C        0.74143        -0.26457         2.07054
| 27>    S        2.41965        -1.51301         3.90724
| 28>    C        1.73152        -1.68257         5.50044
| 29>    C        0.47850        -1.18300         5.61805
| 30>   Br        2.73311        -2.50049         6.85886
| 31>    C       -2.63720         1.15682         2.34868
| 32>    O       -3.65414         1.36032         2.97816
| 33>    C       -2.29645         1.54853         0.95725
| 34>    C       -2.93147         2.46798         0.16603
| 35>    C       -4.15547         3.12257         0.38767
| 36>    O       -4.99808         2.76087         1.40390
| 37>    C       -6.04795         3.56828         1.31955
| 38>    C       -7.26936         3.83061         1.94644
| 39>    C       -7.84137         3.16844         3.13503
| 40>    O       -8.94461         3.42779         3.57706
| 41>    N       -7.01702         2.25210         3.68396
| 42>    C       -7.82093         4.89271         1.19987
| 43>    O       -6.98473         5.27577         0.17534
| 44>    C       -5.90624         4.46559         0.24377
| 45>    C       -4.68932         4.18096        -0.36497
| 46>    C       -9.05071         5.53166         1.39748
| 47>    C       -9.50865         6.58231         0.63849
| 48>    C      -10.73833         7.27714         0.76178
| 49>    C      -10.90031         8.29688        -0.13122
| 50>    C       -9.80393         8.46407        -1.00239
| 51>    S       -8.56905         7.26766        -0.66372
| 52>    C       -9.55192         9.38290        -2.00731
| 53>    C      -10.29131        10.45630        -2.54688
| 54>    C       -9.63423        11.13125        -3.53810
| 55>    C       -8.33846        10.63603        -3.83411
| 56>    S       -8.00627         9.26421        -2.80201
| 57>    C       -7.41323        11.08722        -4.75145
| 58>    C       -6.15120        10.47602        -4.87911
| 59>    O       -5.91307         9.41995        -4.03420
| 60>    C       -4.67680         8.99388        -4.28957
| 61>    C       -3.76117         8.02722        -3.87661
| 62>    C       -3.97642         7.00060        -2.83099
| 63>    O       -3.18719         6.11445        -2.56882
| 64>    N       -5.16025         7.14311        -2.19941
| 65>    C       -2.62811         8.27634        -4.67253
| 66>    O       -2.84788         9.31851        -5.54516
| 67>    C       -4.09316         9.76044        -5.30796
| 68>    C       -5.03652        10.71606        -5.69496
| 69>    C       -1.41258         7.56445        -4.65926
| 70>    C       -0.23970         7.88464        -5.27463
| 71>    C        0.21786         9.10718        -5.89739
| 72>    C       -0.10902        10.38227        -5.51462
| 73>    C        0.42394        11.54137        -6.11166
| 74>    N        0.81400        12.51288        -6.58312
| 75>    C       -0.93321        10.67666        -4.40874
| 76>    N       -1.54666        10.96733        -3.48287
| 77>    C        1.29838         8.74918        -6.81043
| 78>    C        1.66573         7.40083        -6.56933
| 79>    C        0.78061         6.82941        -5.53127
| 80>    O        0.84091         5.73402        -5.02811
| 81>    C        2.69061         6.78522        -7.24552
| 82>    C        3.37582         7.53042        -8.21135
| 83>    C        2.99122         8.87096        -8.45367
| 84>    C        1.96068         9.49798        -7.76361
| 85>    S        3.96409         9.60060        -9.69428
| 86>    C        4.86591         8.11760        -9.86491
| 87>    C        4.45948         7.12532        -9.03839
| 88>   Br        6.25610         8.02102       -11.11961
| 89>    H       -1.97118         0.08598         4.89723
| 90>    H        1.50170        -0.36504         1.31411
| 91>    H       -0.09252        -1.20341         6.52826
| 92>    H       -2.44117         2.78473        -0.74517
| 93>    H       -6.09445         2.05559         3.32889
| 94>    H       -7.32971         1.76224         4.50537
| 95>    H       -4.19710         4.63862        -1.20269
| 96>    H       -9.64795         5.14404         2.21031
| 97>    H      -11.45967         6.99891         1.50924
| 98>    H      -11.76786         8.93083        -0.17970
| 99>    H      -11.27809        10.70640        -2.19935
|100>    H      -10.04084        11.97743        -4.06361
|101>    H       -7.64461        11.92988        -5.38201
|102>    H       -5.80787         7.87692        -2.42448
|103>    H       -5.42297         6.49804        -1.47345
|104>    H       -4.95217        11.48146        -6.43715
|105>    H       -1.45593         6.61108        -4.14266
|106>    H        2.95587         5.76076        -7.03676
|107>    H        1.69771        10.51965        -7.98335
|108>    H        4.90337         6.14698        -9.01090
|109> *
|110>
|111>                          ****END OF INPUT****

CARTESIAN COORDINATES (ANGSTROEM)
---------------------------------
  C     -1.033400    0.920340    0.611230
  C     -0.504720    0.797280   -0.647130
  C      0.718030    0.151350   -0.923930
  N      1.708640   -0.356830   -1.203470
  C     -1.145710    1.210470   -1.835500
  N     -1.628770    1.470330   -2.843860
  C     -0.479010    0.336050    1.825360
  C     -1.438520    0.457510    2.859060
  C     -1.219580   -0.015450    4.130040
  C      0.009840   -0.627180    4.396100
  C      0.966340   -0.734820    3.358500
  C      0.741430   -0.264570    2.070540
  S      2.419650   -1.513010    3.907240
  C      1.731520   -1.682570    5.500440
  C      0.478500   -1.183000    5.618050
  Br     2.733110   -2.500490    6.858860
  C     -2.637200    1.156820    2.348680
  O     -3.654140    1.360320    2.978160
  C     -2.296450    1.548530    0.957250
  C     -2.931470    2.467980    0.166030
  C     -4.155470    3.122570    0.387670
  O     -4.998080    2.760870    1.403900
  C     -6.047950    3.568280    1.319550
  C     -7.269360    3.830610    1.946440
  C     -7.841370    3.168440    3.135030
  O     -8.944610    3.427790    3.577060
  N     -7.017020    2.252100    3.683960
  C     -7.820930    4.892710    1.199870
  O     -6.984730    5.275770    0.175340
  C     -5.906240    4.465590    0.243770
  C     -4.689320    4.180960   -0.364970
  C     -9.050710    5.531660    1.397480
  C     -9.508650    6.582310    0.638490
  C    -10.738330    7.277140    0.761780
  C    -10.900310    8.296880   -0.131220
  C     -9.803930    8.464070   -1.002390
  S     -8.569050    7.267660   -0.663720
  C     -9.551920    9.382900   -2.007310
  C    -10.291310   10.456300   -2.546880
  C     -9.634230   11.131250   -3.538100
  C     -8.338460   10.636030   -3.834110
  S     -8.006270    9.264210   -2.802010
  C     -7.413230   11.087220   -4.751450
  C     -6.151200   10.476020   -4.879110
  O     -5.913070    9.419950   -4.034200
  C     -4.676800    8.993880   -4.289570
  C     -3.761170    8.027220   -3.876610
  C     -3.976420    7.000600   -2.830990
  O     -3.187190    6.114450   -2.568820
  N     -5.160250    7.143110   -2.199410
  C     -2.628110    8.276340   -4.672530
  O     -2.847880    9.318510   -5.545160
  C     -4.093160    9.760440   -5.307960
  C     -5.036520   10.716060   -5.694960
  C     -1.412580    7.564450   -4.659260
  C     -0.239700    7.884640   -5.274630
  C      0.217860    9.107180   -5.897390
  C     -0.109020   10.382270   -5.514620
  C      0.423940   11.541370   -6.111660
  N      0.814000   12.512880   -6.583120
  C     -0.933210   10.676660   -4.408740
  N     -1.546660   10.967330   -3.482870
  C      1.298380    8.749180   -6.810430
  C      1.665730    7.400830   -6.569330
  C      0.780610    6.829410   -5.531270
  O      0.840910    5.734020   -5.028110
  C      2.690610    6.785220   -7.245520
  C      3.375820    7.530420   -8.211350
  C      2.991220    8.870960   -8.453670
  C      1.960680    9.497980   -7.763610
  S      3.964090    9.600600   -9.694280
  C      4.865910    8.117600   -9.864910
  C      4.459480    7.125320   -9.038390
  Br     6.256100    8.021020  -11.119610
  H     -1.971180    0.085980    4.897230
  H      1.501700   -0.365040    1.314110
  H     -0.092520   -1.203410    6.528260
  H     -2.441170    2.784730   -0.745170
  H     -6.094450    2.055590    3.328890
  H     -7.329710    1.762240    4.505370
  H     -4.197100    4.638620   -1.202690
  H     -9.647950    5.144040    2.210310
  H    -11.459670    6.998910    1.509240
  H    -11.767860    8.930830   -0.179700
  H    -11.278090   10.706400   -2.199350
  H    -10.040840   11.977430   -4.063610
  H     -7.644610   11.929880   -5.382010
  H     -5.807870    7.876920   -2.424480
  H     -5.422970    6.498040   -1.473450
  H     -4.952170   11.481460   -6.437150
  H     -1.455930    6.611080   -4.142660
  H      2.955870    5.760760   -7.036760
  H      1.697710   10.519650   -7.983350
  H      4.903370    6.146980   -9.010900

 Total Charge           Charge          ....    0
 Multiplicity           Mult            ....    1
 Number of Electrons    NEL             ....  584
 Basis Dimension        Dim             .... 1188

ORBITAL ENERGIES
----------------

  NO   OCC          E(Eh)            E(eV)
   0   2.0000    -482.882516    -13139.9013
   1   2.0000    -482.881446    -13139.8722
   2   2.0000     -88.971412     -2421.0352
   3   2.0000     -88.970564     -2421.0121
   4   2.0000     -88.961834     -2420.7746
   5   2.0000     -88.960567     -2420.7401
   6   2.0000     -62.560213     -1702.3499
   7   2.0000     -62.559133     -1702.3205
   8   2.0000     -56.394161     -1534.5631
   9   2.0000     -56.393077     -1534.5336
  10   2.0000     -56.391453     -1534.4894
  11   2.0000     -56.391418     -1534.4885
  12   2.0000     -56.390373     -1534.4601
  13   2.0000     -56.390339     -1534.4591
  14   2.0000     -19.324759      -525.8534
  15   2.0000     -19.321290      -525.7590
  16   2.0000     -19.317237      -525.6488
  17   2.0000     -19.310941      -525.4774
  18   2.0000     -19.210723      -522.7504
  19   2.0000     -19.206911      -522.6466
  20   2.0000     -19.197589      -522.3930
  21   2.0000     -19.178597      -521.8761
  22   2.0000     -14.440807      -392.9543
  23   2.0000     -14.425133      -392.5278
  24   2.0000     -14.411226      -392.1494
  25   2.0000     -14.407209      -392.0401
  26   2.0000     -14.407033      -392.0353
  27   2.0000     -14.405672      -391.9983
  28   2.0000     -10.396097      -282.8922
  29   2.0000     -10.379590      -282.4430
  30   2.0000     -10.368530      -282.1420
  31   2.0000     -10.367672      -282.1187
  32   2.0000     -10.364966      -282.0451
  33   2.0000     -10.362002      -281.9644
  34   2.0000     -10.358518      -281.8696
  35   2.0000     -10.355206      -281.7795
  36   2.0000     -10.355059      -281.7755
  37   2.0000     -10.353907      -281.7441
  38   2.0000     -10.353075      -281.7215
  39   2.0000     -10.351803      -281.6869
  40   2.0000     -10.350619      -281.6547
  41   2.0000     -10.348887      -281.6075
  42   2.0000     -10.336335      -281.2660
  43   2.0000     -10.335025      -281.2303
  44   2.0000     -10.334144      -281.2063
  45   2.0000     -10.333394      -281.1860
  46   2.0000     -10.332444      -281.1601
  47   2.0000     -10.328689      -281.0579
  48   2.0000     -10.327064      -281.0137
  49   2.0000     -10.324002      -280.9304
  50   2.0000     -10.321018      -280.8492
  51   2.0000     -10.320806      -280.8434
  52   2.0000     -10.317683      -280.7584
  53   2.0000     -10.316021      -280.7132
  54   2.0000     -10.313991      -280.6580
  55   2.0000     -10.310872      -280.5731
  56   2.0000     -10.310497      -280.5629
  57   2.0000     -10.310313      -280.5579
  58   2.0000     -10.308272      -280.5023
  59   2.0000     -10.307644      -280.4852
  60   2.0000     -10.307495      -280.4812
  61   2.0000     -10.307146      -280.4717
  62   2.0000     -10.306870      -280.4642
  63   2.0000     -10.305587      -280.4293
  64   2.0000     -10.304904      -280.4107
  65   2.0000     -10.303315      -280.3675
  66   2.0000     -10.303102      -280.3617
  67   2.0000     -10.302580      -280.3475
  68   2.0000     -10.302007      -280.3319
  69   2.0000     -10.301941      -280.3301
  70   2.0000     -10.301677      -280.3229
  71   2.0000     -10.300495      -280.2907
  72   2.0000     -10.300308      -280.2856
  73   2.0000     -10.296567      -280.1838
  74   2.0000     -10.295322      -280.1499
  75   2.0000     -10.295075      -280.1432
  76   2.0000     -10.294319      -280.1227
  77   2.0000     -10.293540      -280.1015
  78   2.0000     -10.293121      -280.0901
  79   2.0000     -10.291712      -280.0517
  80   2.0000     -10.287185      -279.9285
  81   2.0000     -10.286941      -279.9219
  82   2.0000      -8.789626      -239.1779
  83   2.0000      -8.788552      -239.1486
  84   2.0000      -8.067429      -219.5259
  85   2.0000      -8.066677      -219.5054
  86   2.0000      -8.057444      -219.2542
  87   2.0000      -8.056660      -219.2329
  88   2.0000      -6.625912      -180.3002
  89   2.0000      -6.624803      -180.2701
  90   2.0000      -6.611368      -179.9045
  91   2.0000      -6.611168      -179.8990
  92   2.0000      -6.610305      -179.8755
  93   2.0000      -6.610112      -179.8703
  94   2.0000      -6.037127      -164.2786
  95   2.0000      -6.036368      -164.2579
  96   2.0000      -6.032846      -164.1621
  97   2.0000      -6.032102      -164.1419
  98   2.0000      -6.028636      -164.0475
  99   2.0000      -6.027859      -164.0264
 100   2.0000      -6.027379      -164.0133
 101   2.0000      -6.026458      -163.9882
 102   2.0000      -6.022901      -163.8915
 103   2.0000      -6.022131      -163.8705
 104   2.0000      -6.018348      -163.7676
 105   2.0000      -6.017636      -163.7482
 106   2.0000      -2.741788       -74.6078
 107   2.0000      -2.740729       -74.5790
 108   2.0000      -2.737686       -74.4962
 109   2.0000      -2.737577       -74.4933
 110   2.0000      -2.736593       -74.4665
 111   2.0000      -2.736455       -74.4627
 112   2.0000      -2.725999       -74.1782
 113   2.0000      -2.725987       -74.1779
 114   2.0000      -2.724922       -74.1489
 115   2.0000      -2.724915       -74.1487
 116   2.0000      -1.249391       -33.9977
 117   2.0000      -1.241705       -33.7885
 118   2.0000      -1.226149       -33.3652
 119   2.0000      -1.223628       -33.2966
 120   2.0000      -1.135763       -30.9057
 121   2.0000      -1.125661       -30.6308
 122   2.0000      -1.122951       -30.5570
 123   2.0000      -1.117735       -30.4151
 124   2.0000      -1.017606       -27.6905
 125   2.0000      -1.017462       -27.6865
 126   2.0000      -1.014934       -27.6178
 127   2.0000      -1.007484       -27.4150
 128   2.0000      -1.006285       -27.3824
 129   2.0000      -1.004316       -27.3288
 130   2.0000      -0.992418       -27.0051
 131   2.0000      -0.988244       -26.8915
 132   2.0000      -0.987379       -26.8680
 133   2.0000      -0.985352       -26.8128
 134   2.0000      -0.983984       -26.7756
 135   2.0000      -0.983488       -26.7621
 136   2.0000      -0.941987       -25.6328
 137   2.0000      -0.941322       -25.6147
 138   2.0000      -0.937689       -25.5158
 139   2.0000      -0.932225       -25.3671
 140   2.0000      -0.927397       -25.2358
 141   2.0000      -0.926051       -25.1991
 142   2.0000      -0.918275       -24.9875
 143   2.0000      -0.910627       -24.7794
 144   2.0000      -0.902955       -24.5707
 145   2.0000      -0.902885       -24.5688
 146   2.0000      -0.892513       -24.2865
 147   2.0000      -0.884687       -24.0736
 148   2.0000      -0.880881       -23.9700
 149   2.0000      -0.880512       -23.9600
 150   2.0000      -0.872547       -23.7432
 151   2.0000      -0.862278       -23.4638
 152   2.0000      -0.860454       -23.4141
 153   2.0000      -0.836188       -22.7538
 154   2.0000      -0.835848       -22.7446
 155   2.0000      -0.824685       -22.4408
 156   2.0000      -0.823935       -22.4204
 157   2.0000      -0.817375       -22.2419
 158   2.0000      -0.799071       -21.7438
 159   2.0000      -0.784596       -21.3499
 160   2.0000      -0.766746       -20.8642
 161   2.0000      -0.759272       -20.6608
 162   2.0000      -0.755425       -20.5561
 163   2.0000      -0.752510       -20.4768
 164   2.0000      -0.748813       -20.3762
 165   2.0000      -0.742054       -20.1923
 166   2.0000      -0.740513       -20.1504
 167   2.0000      -0.734325       -19.9820
 168   2.0000      -0.713772       -19.4227
 169   2.0000      -0.709074       -19.2949
 170   2.0000      -0.701870       -19.0989
 171   2.0000      -0.689318       -18.7573
 172   2.0000      -0.689291       -18.7566
 173   2.0000      -0.685156       -18.6440
 174   2.0000      -0.682814       -18.5803
 175   2.0000      -0.680554       -18.5188
 176   2.0000      -0.678626       -18.4663
 177   2.0000      -0.665661       -18.1136
 178   2.0000      -0.657942       -17.9035
 179   2.0000      -0.653310       -17.7775
 180   2.0000      -0.649205       -17.6658
 181   2.0000      -0.645453       -17.5637
 182   2.0000      -0.640917       -17.4402
 183   2.0000      -0.638439       -17.3728
 184   2.0000      -0.629346       -17.1254
 185   2.0000      -0.626275       -17.0418
 186   2.0000      -0.625420       -17.0186
 187   2.0000      -0.617584       -16.8053
 188   2.0000      -0.615411       -16.7462
 189   2.0000      -0.606609       -16.5067
 190   2.0000      -0.602675       -16.3996
 191   2.0000      -0.600407       -16.3379
 192   2.0000      -0.599750       -16.3200
 193   2.0000      -0.595657       -16.2087
 194   2.0000      -0.593337       -16.1455
 195   2.0000      -0.592527       -16.1235
 196   2.0000      -0.584161       -15.8958
 197   2.0000      -0.583233       -15.8706
 198   2.0000      -0.579750       -15.7758
 199   2.0000      -0.571610       -15.5543
 200   2.0000      -0.570262       -15.5176
 201   2.0000      -0.565451       -15.3867
 202   2.0000      -0.556669       -15.1477
 203   2.0000      -0.553855       -15.0712
 204   2.0000      -0.550331       -14.9753
 205   2.0000      -0.546533       -14.8719
 206   2.0000      -0.546211       -14.8632
 207   2.0000      -0.544076       -14.8051
 208   2.0000      -0.542317       -14.7572
 209   2.0000      -0.535986       -14.5849
 210   2.0000      -0.533578       -14.5194
 211   2.0000      -0.533003       -14.5038
 212   2.0000      -0.530268       -14.4293
 213   2.0000      -0.528063       -14.3693
 214   2.0000      -0.525807       -14.3079
 215   2.0000      -0.522387       -14.2149
 216   2.0000      -0.519266       -14.1300
 217   2.0000      -0.516836       -14.0638
 218   2.0000      -0.515142       -14.0177
 219   2.0000      -0.513869       -13.9831
 220   2.0000      -0.512074       -13.9342
 221   2.0000      -0.508366       -13.8334
 222   2.0000      -0.506764       -13.7898
 223   2.0000      -0.506446       -13.7811
 224   2.0000      -0.503927       -13.7126
 225   2.0000      -0.502874       -13.6839
 226   2.0000      -0.501401       -13.6438
 227   2.0000      -0.499605       -13.5949
 228   2.0000      -0.498298       -13.5594
 229   2.0000      -0.495870       -13.4933
 230   2.0000      -0.491131       -13.3643
 231   2.0000      -0.490380       -13.3439
 232   2.0000      -0.486659       -13.2427
 233   2.0000      -0.486576       -13.2404
 234   2.0000      -0.485718       -13.2171
 235   2.0000      -0.482157       -13.1202
 236   2.0000      -0.479824       -13.0567
 237   2.0000      -0.477895       -13.0042
 238   2.0000      -0.468608       -12.7515
 239   2.0000      -0.467094       -12.7103
 240   2.0000      -0.459484       -12.5032
 241   2.0000      -0.455495       -12.3947
 242   2.0000      -0.453116       -12.3299
 243   2.0000      -0.452923       -12.3247
 244   2.0000      -0.444264       -12.0890
 245   2.0000      -0.442626       -12.0445
 246   2.0000      -0.441204       -12.0058
 247   2.0000      -0.440595       -11.9892
 248   2.0000      -0.440039       -11.9741
 249   2.0000      -0.438662       -11.9366
 250   2.0000      -0.435882       -11.8610
 251   2.0000      -0.434667       -11.8279
 252   2.0000      -0.434189       -11.8149
 253   2.0000      -0.433291       -11.7904
 254   2.0000      -0.427488       -11.6325
 255   2.0000      -0.423829       -11.5330
 256   2.0000      -0.421661       -11.4740
 257   2.0000      -0.418076       -11.3764
 258   2.0000      -0.417274       -11.3546
 259   2.0000      -0.415455       -11.3051
 260   2.0000      -0.413675       -11.2567
 261   2.0000      -0.404946       -11.0191
 262   2.0000      -0.403415       -10.9775
 263   2.0000      -0.401094       -10.9143
 264   2.0000      -0.398432       -10.8419
 265   2.0000      -0.394383       -10.7317
 266   2.0000      -0.386040       -10.5047
 267   2.0000      -0.382446       -10.4069
 268   2.0000      -0.379385       -10.3236
 269   2.0000      -0.371969       -10.1218
 270   2.0000      -0.370796       -10.0899
 271   2.0000      -0.367781       -10.0078
 272   2.0000      -0.366363        -9.9692
 273   2.0000      -0.362693        -9.8694
 274   2.0000      -0.357396        -9.7252
 275   2.0000      -0.355853        -9.6833
 276   2.0000      -0.352688        -9.5971
 277   2.0000      -0.351746        -9.5715
 278   2.0000      -0.342698        -9.3253
 279   2.0000      -0.340387        -9.2624
 280   2.0000      -0.337940        -9.1958
 281   2.0000      -0.335486        -9.1290
 282   2.0000      -0.330969        -9.0061
 283   2.0000      -0.328277        -8.9329
 284   2.0000      -0.319307        -8.6888
 285   2.0000      -0.311017        -8.4632
 286   2.0000      -0.309742        -8.4285
 287   2.0000      -0.293866        -7.9965
 288   2.0000      -0.288934        -7.8623
 289   2.0000      -0.286844        -7.8054
 290   2.0000      -0.263601        -7.1729
 291   2.0000      -0.223001        -6.0682
 292   0.0000      -0.116825        -3.1790
 293   0.0000      -0.089287        -2.4296
 294   0.0000      -0.073922        -2.0115
 295   0.0000      -0.054898        -1.4938
 296   0.0000      -0.050470        -1.3734

MULLIKEN ATOMIC CHARGES
-----------------------
   0 C :    0.285979
   1 C :   -0.338612
   2 C :   -0.184210
   3 N :    0.146031
   4 C :   -0.207041
   5 N :    0.166529
   6 C :    0.022057
   7 C :   -0.011685
   8 C :   -0.081074
   9 C :    0.119974
  10 C :   -0.088177
  11 C :   -0.024647
  12 S :    0.184705
  13 C :   -0.123304
  14 C :    0.037060
  15 Br:    0.019971
  16 C :    0.144797
  17 O :   -0.153859
  18 C :   -0.075445
  19 C :   -0.034007
  20 C :    0.135468
  21 O :   -0.173974
  22 C :    0.129287
  23 C :   -0.056446
  24 C :    0.063173
  25 O :   -0.215600
  26 N :   -0.086230
  27 C :    0.107487
  28 O :   -0.247847
  29 C :    0.221937
  30 C :   -0.112042
  31 C :   -0.047974
  32 C :    0.010295
  33 C :    0.033255
  34 C :    0.037937
  35 C :   -0.036035
  36 S :    0.077101
  37 C :   -0.021257
  38 C :    0.038466
  39 C :    0.031950
  40 C :    0.002769
  41 S :    0.043235
  42 C :   -0.031783
  43 C :    0.196611
  44 O :   -0.254210
  45 C :    0.104345
  46 C :    0.008008
  47 C :    0.092463
  48 O :   -0.215683
  49 N :   -0.080514
  50 C :    0.072425
  51 O :   -0.204491
  52 C :    0.251761
  53 C :   -0.128478
  54 C :    0.002714
  55 C :   -0.096039
  56 C :    0.262599
  57 C :   -0.320415
  58 C :   -0.184618
  59 N :    0.150126
  60 C :   -0.197449
  61 N :    0.152807
  62 C :    0.005977
  63 C :   -0.004041
  64 C :    0.136501
  65 O :   -0.130168
  66 C :   -0.067935
  67 C :    0.109022
  68 C :   -0.087040
  69 C :   -0.021958
  70 S :    0.180737
  71 C :   -0.124600
  72 C :    0.041864
  73 Br:    0.021117
  74 H :   -0.015098
  75 H :   -0.004419
  76 H :   -0.004835
  77 H :    0.038922
  78 H :    0.139453
  79 H :    0.130714
  80 H :    0.011120
  81 H :    0.027069
  82 H :    0.003445
  83 H :   -0.005409
  84 H :   -0.007356
  85 H :   -0.004349
  86 H :    0.000067
  87 H :    0.141081
  88 H :    0.128692
  89 H :    0.006529
  90 H :    0.048533
  91 H :   -0.006311
  92 H :   -0.004702
  93 H :   -0.002797
Sum of atomic charges:   -0.0000000

LOEWDIN ATOMIC CHARGES
----------------------
   0 C :    0.073287
   1 C :   -0.141504
   2 C :   -0.017773
   3 N :   -0.056555
   4 C :   -0.027621
   5 N :   -0.046706
   6 C :   -0.019290
   7 C :   -0.050260
   8 C :    0.018378
   9 C :   -0.034014
  10 C :   -0.143945
  11 C :   -0.011021
  12 S :    0.431379
  13 C :   -0.272611
  14 C :   -0.071297
  15 Br:    0.134455
  16 C :    0.082566
  17 O :   -0.156691
  18 C :   -0.098559
  19 C :    0.048344
  20 C :    0.024492
  21 O :    0.035049
  22 C :    0.027937
  23 C :   -0.115775
  24 C :    0.063802
  25 O :   -0.224132
  26 N :    0.006373
  27 C :    0.087633
  28 O :   -0.014357
  29 C :   -0.009113
  30 C :   -0.026046
  31 C :   -0.065327
  32 C :   -0.129716
  33 C :   -0.023802
  34 C :   -0.024903
  35 C :   -0.172527
  36 S :    0.389367
  37 C :   -0.180977
  38 C :   -0.024790
  39 C :   -0.030843
  40 C :   -0.132294
  41 S :    0.404563
  42 C :   -0.074535
  43 C :    0.061805
  44 O :   -0.007230
  45 C :   -0.000276
  46 C :   -0.072898
  47 C :    0.075903
  48 O :   -0.206857
  49 N :    0.012793
  50 C :    0.055015
  51 O :    0.023393
  52 C :    0.033880
  53 C :   -0.067802
  54 C :    0.047838
  55 C :   -0.082234
  56 C :    0.069455
  57 C :   -0.137268
  58 C :   -0.020080
  59 N :   -0.057121
  60 C :   -0.022052
  61 N :   -0.062576
  62 C :   -0.016794
  63 C :   -0.051489
  64 C :    0.081586
  65 O :   -0.131220
  66 C :    0.023145
  67 C :   -0.033952
  68 C :   -0.143502
  69 C :   -0.014498
  70 S :    0.428687
  71 C :   -0.272883
  72 C :   -0.069053
  73 Br:    0.134882
  74 H :    0.038461
  75 H :    0.041099
  76 H :    0.038075
  77 H :    0.060836
  78 H :    0.078239
  79 H :    0.084226
  80 H :    0.038867
  81 H :    0.053221
  82 H :    0.039721
  83 H :    0.035811
  84 H :    0.034927
  85 H :    0.036268
  86 H :    0.045324
  87 H :    0.061191
  88 H :    0.079167
  89 H :    0.042218
  90 H :    0.061256
  91 H :    0.042465
  92 H :    0.040164
  93 H :    0.039223

  Mayer bond orders larger than 0.100000
B(  0-C ,  1-C ) :   1.6356 B(  0-C ,  6-C ) :   1.0020 B(  0-C , 18-C ) :   1.0736
B(  1-C ,  2-C ) :   1.1420 B(  1-C ,  4-C ) :   1.1363 B(  2-C ,  3-N ) :   2.9741
B(  4-C ,  5-N ) :   3.0054 B(  6-C ,  7-C ) :   1.2773 B(  6-C , 11-C ) :   1.4133
B(  7-C ,  8-C ) :   1.4227 B(  7-C , 16-C ) :   0.9442 B(  8-C ,  9-C ) :   1.2475
B(  8-C , 74-H ) :   1.0161 B(  9-C , 10-C ) :   1.3088 B(  9-C , 14-C ) :   1.1618
B( 10-C , 11-C ) :   1.3259 B( 10-C , 12-S ) :   1.0841 B( 11-C , 75-H ) :   0.9814
B( 12-S , 13-C ) :   1.0868 B( 13-C , 14-C ) :   1.6190 B( 13-C , 15-Br) :   1.0169
B( 14-C , 76-H ) :   1.0001 B( 16-C , 17-O ) :   2.2057 B( 16-C , 18-C ) :   0.9437
B( 18-C , 19-C ) :   1.5090 B( 19-C , 20-C ) :   1.2591 B( 19-C , 77-H ) :   0.9372
B( 20-C , 21-O ) :   1.0921 B( 20-C , 30-C ) :   1.3474 B( 21-O , 22-C ) :   1.1889
B( 22-C , 23-C ) :   1.2197 B( 22-C , 29-C ) :   1.3154 B( 23-C , 24-C ) :   0.8953
B( 23-C , 27-C ) :   1.3686 B( 24-C , 25-O ) :   2.1316 B( 24-C , 26-N ) :   1.3283
B( 26-N , 78-H ) :   0.9219 B( 26-N , 79-H ) :   0.9331 B( 27-C , 28-O ) :   1.0941
B( 27-C , 31-C ) :   1.2754 B( 28-O , 29-C ) :   1.0704 B( 29-C , 30-C ) :   1.2422
B( 30-C , 80-H ) :   0.9992 B( 31-C , 32-C ) :   1.4868 B( 31-C , 81-H ) :   0.9437
B( 32-C , 33-C ) :   1.1584 B( 32-C , 36-S ) :   1.0598 B( 33-C , 34-C ) :   1.5676
B( 33-C , 82-H ) :   1.0005 B( 34-C , 35-C ) :   1.2052 B( 34-C , 83-H ) :   0.9968
B( 35-C , 36-S ) :   1.0385 B( 35-C , 37-C ) :   1.4786 B( 37-C , 38-C ) :   1.2046
B( 37-C , 41-S ) :   1.0313 B( 38-C , 39-C ) :   1.5793 B( 38-C , 84-H ) :   0.9956
B( 39-C , 40-C ) :   1.1624 B( 39-C , 85-H ) :   0.9983 B( 40-C , 41-S ) :   1.0609
B( 40-C , 42-C ) :   1.5298 B( 42-C , 43-C ) :   1.2069 B( 42-C , 86-H ) :   0.9696
B( 43-C , 44-O ) :   1.0472 B( 43-C , 53-C ) :   1.3717 B( 44-O , 45-C ) :   1.1112
B( 45-C , 46-C ) :   1.2538 B( 45-C , 52-C ) :   1.3313 B( 46-C , 47-C ) :   0.8949
B( 46-C , 50-C ) :   1.3857 B( 47-C , 48-O ) :   2.0399 B( 47-C , 49-N ) :   1.3371
B( 48-O , 80-H ) :   0.1056 B( 49-N , 87-H ) :   0.9284 B( 49-N , 88-H ) :   0.9326
B( 50-C , 51-O ) :   1.0945 B( 50-C , 54-C ) :   1.1980 B( 51-O , 52-C ) :   1.1342
B( 52-C , 53-C ) :   1.2453 B( 53-C , 89-H ) :   1.0306 B( 54-C , 55-C ) :   1.5694
B( 54-C , 90-H ) :   0.9305 B( 55-C , 56-C ) :   1.0466 B( 55-C , 64-C ) :   0.9367
B( 56-C , 57-C ) :   1.6579 B( 56-C , 62-C ) :   1.0142 B( 57-C , 58-C ) :   1.1351
B( 57-C , 60-C ) :   1.1616 B( 58-C , 59-N ) :   2.9881 B( 60-C , 61-N ) :   3.0008
B( 62-C , 63-C ) :   1.2713 B( 62-C , 69-C ) :   1.4168 B( 63-C , 64-C ) :   0.9155
B( 63-C , 66-C ) :   1.4309 B( 64-C , 65-O ) :   2.2806 B( 66-C , 67-C ) :   1.2537
B( 66-C , 91-H ) :   1.0152 B( 67-C , 68-C ) :   1.3064 B( 67-C , 72-C ) :   1.1629
B( 68-C , 69-C ) :   1.3271 B( 68-C , 70-S ) :   1.0827 B( 69-C , 92-H ) :   0.9826
B( 70-S , 71-C ) :   1.0843 B( 71-C , 72-C ) :   1.6224 B( 71-C , 73-Br) :   1.0177
B( 72-C , 93-H ) :   0.9999

-----------------------------------------------------------------------------
         ABSORPTION SPECTRUM VIA TRANSITION ELECTRIC DIPOLE MOMENTS
-----------------------------------------------------------------------------
State   Energy  Wavelength   fosc         T2         TX        TY        TZ
        (cm-1)    (nm)                  (au**2)     (au)      (au)      (au)
-----------------------------------------------------------------------------
   0    9449.8   1058.2   0.682262424  23.76855   0.96029   3.42087  -3.33827
   1   15686.3    637.5   0.501137744  10.51748   2.88927  -1.47033   0.08788
   2   18406.4    543.3   1.361044267  24.34323  -4.52460   1.95719   0.20153
   3   19985.5    500.4   0.433754250   7.14502   2.36987  -0.44472  -1.15367
   4   23677.0    422.4   0.038211500   0.53130  -0.33915   0.03847  -0.64405
   5   23770.1    420.7   0.246637256   3.41589   1.41604  -1.17189  -0.19339
   6   24355.4    410.6   0.090851550   1.22804   0.53462   0.13937  -0.96063
   7   24528.0    407.7   0.011197826   0.15030  -0.16078   0.33484   0.11103
   8   25685.4    389.3   0.292462191   3.74852   1.55015  -1.15965   0.02783
   9   26412.3    378.6   0.096714278   1.20548  -0.18341   0.20127  -1.06364
  10   27322.5    366.0   0.057436565   0.69206   0.81792  -0.09400  -0.11933
  11   27656.1    361.6   0.010935442   0.13017   0.18950  -0.28958   0.10200
  12   28197.2    354.6   0.014573246   0.17015  -0.33491   0.17530   0.16508
  13   28328.5    353.0   0.069840098   0.81163  -0.66392   0.58128  -0.18153
  14   28739.4    348.0   0.007670573   0.08787   0.24049  -0.15307  -0.08124
  15   28830.4    346.9   0.019191493   0.21915  -0.31654   0.32546   0.11411
  16   29531.5    338.6   0.002184937   0.02436   0.02330  -0.00629   0.15419
  17   30312.0    329.9   0.031465725   0.34174  -0.22532  -0.47857   0.24889
  18   30874.5    323.9   0.001026392   0.01094   0.01751  -0.06284  -0.08178
  19   31151.8    321.0   0.179819296   1.90033  -0.64810   0.11549   1.21118
  20   31732.6    315.1   0.056154645   0.58258   0.58090  -0.14380   0.47377
  21   31942.7    313.1   0.306413739   3.15800  -0.19311   0.13556   1.76134
  22   32315.8    309.4   0.008063094   0.08214   0.22743   0.12263  -0.12401
  23   32491.9    307.8   0.410223445   4.15643  -1.48534   1.34678  -0.36933
  24   32742.6    305.4   0.049137290   0.49405  -0.24108   0.11385  -0.65036
  25   33020.3    302.8   0.043202556   0.43073  -0.25532   0.16430   0.58184
  26   33110.0    302.0   0.068512163   0.68121   0.04114  -0.26894   0.77922
  27   33146.3    301.7   0.114341317   1.13565   0.85029  -0.15569  -0.62323
  28   33404.4    299.4   0.059432995   0.58573  -0.28058   0.01806   0.71181
  29   33515.6    298.4   0.009274732   0.09110  -0.29210  -0.02278   0.07253
  30   33755.0    296.3   0.027680066   0.26996   0.33549  -0.29540   0.26485
  31   34345.7    291.2   0.069384236   0.66506   0.29962  -0.65847   0.37644
  32   34542.8    289.5   0.002105485   0.02007  -0.06445  -0.02170  -0.12427
  33   34788.3    287.5   0.056473116   0.53442  -0.17151  -0.46447   0.53784
  34   35625.0    280.7   0.148193637   1.36946   0.48106   0.08984  -1.06300
  35   35701.2    280.1   0.142839282   1.31717   0.71786  -0.80610  -0.38993
  36   36181.7    276.4   0.200981474   1.82870  -0.44566  -0.12049   1.27105
  37   36276.3    275.7   0.024571952   0.22299   0.02848  -0.46143  -0.09624
  38   36357.9    275.0   0.004908384   0.04444   0.07889  -0.16475  -0.10526
  39   36624.1    273.0   0.074475633   0.66946  -0.26039  -0.14467   0.76205
  40   36982.5    270.4   0.001639571   0.01460  -0.04660   0.08799   0.06842
  41   37073.7    269.7   0.207258683   1.84044   0.20813   0.76527  -1.10068
  42   37461.9    266.9   0.057743585   0.50745   0.22107   0.28627  -0.61370
  43   37582.6    266.1   0.030084885   0.26353  -0.02021   0.26088  -0.44167
  44   37749.3    264.9   0.014045165   0.12249  -0.22019   0.25704  -0.08907
  45   37887.1    263.9   0.005502113   0.04781   0.20644  -0.01292   0.07089
  46   37906.1    263.8   0.011763452   0.10216  -0.00325   0.27323  -0.16584
  47   38304.0    261.1   0.021539369   0.18512  -0.09237   0.25458  -0.33434
  48   38487.2    259.8   0.042653403   0.36485   0.15198   0.53471  -0.23631
  49   38828.4    257.5   0.037029389   0.31396  -0.48359  -0.15211   0.23866
  50   39012.3    256.3   0.100531675   0.84835  -0.85370   0.11113   0.32743
  51   39723.4    251.7   0.194684808   1.61347  -0.13584   1.00499  -0.76486
  52   39900.1    250.6   0.139698658   1.15264  -0.42406   0.98446   0.06041
  53   40180.5    248.9   0.004588491   0.03759  -0.16188  -0.07182   0.07894
  54   40294.3    248.2   0.111261422   0.90903  -0.72730  -0.34240   0.51266

FINAL SINGLE POINT ENERGY     -9736.458790888308

DIPOLE MOMENT
-------------
                                X             Y             Z
Electronic contribution:    165.02846     -59.24659     -13.46971
Nuclear contribution   :   -168.25968      60.53088      13.81957
                        -----------------------------------------
Total Dipole Moment    :     -3.23122       1.28429       0.34986
                        -----------------------------------------
Magnitude (a.u.)       :      3.49465
Magnitude (Debye)      :      8.88270

Rotational constants in cm-1:     0.000529     0.000352     0.000219
Rotational constants in MHz :    15.866614    10.553834     6.561177

                             ****ORCA TERMINATED NORMALLY****
TOTAL RUN TIME: 0 days 0 hours 13 minutes 51 seconds 690 msec
