                         Program Version 4.2.0 -  RELEASE  -
|  1> # ORCA input file
|  2> # SCF done       -195.073530023530          0.000819778787
|  3> ! CAM-B3LYP def2-SVP def2/J RIJCOSX Grid4 TightSCF
|  4> %maxcore 5000
|  5> %tddft
|  6>     Mode sTDDFT
|  7>     Ethresh 5.0
|  8>     maxcore 5000
|  9> end
| 10>
| 11> %pal
| 12>   nprocs 6
| 13>   end
| 14> * xyz 0 1
| 15>    C       -5.09224        -1.89227        -0.25696
| 16>    C       -3.97691        -1.74601        -1.04231
| 17>    C       -3.29700        -2.82035        -1.65510
| 18>    N       -2.69441        -3.63984        -2.18806
| 19>    C       -3.30557        -0.54287        -1.34929
| 20>    N       -2.67253         0.36729        -1.65321
| 21>    C       -5.69583        -3.17363         0.08559
| 22>    C       -6.73026        -2.94535         1.02167
| 23>    C       -7.49062        -3.95794         1.55382
| 24>    C       -7.22122        -5.26411         1.13374
| 25>    C       -6.18987        -5.48420         0.19004
| 26>    C       -5.41826        -4.45953        -0.34268
| 27>    S       -6.02918        -7.17072        -0.19867
| 28>    C       -7.33011        -7.55083         0.89863
| 29>    C       -7.85969        -6.47314         1.52398
| 30>   Br       -7.86808        -9.33501         1.11220
| 31>    C       -6.84050        -1.49936         1.29995
| 32>    O       -7.61146        -1.00859         2.09784
| 33>    C       -5.84400        -0.84041         0.42249
| 34>    C       -5.63221         0.48305         0.15388
| 35>    C       -6.17902         1.71563         0.62734
| 36>    C       -5.67976         2.88375         0.00446
| 37>    C       -6.12262         4.11924         0.39464
| 38>    C       -7.11977         4.22616         1.38564
| 39>    C       -7.61929         3.08860         2.00980
| 40>    C       -7.14319         1.84957         1.64173
| 41>    C       -7.45482         5.61722         1.55368
| 42>    C       -6.66526         6.38166         0.67331
| 43>    C       -5.74847         5.48799        -0.13908
| 44>    C       -4.29186         5.87628         0.19194
| 45>    C       -3.20467         5.04483        -0.47670
| 46>    C       -6.07613         5.51110        -1.64719
| 47>    C       -5.83660         6.83172        -2.36713
| 48>    C       -6.76123         7.75095         0.68608
| 49>    C       -7.68632         8.38953         1.53222
| 50>    C       -8.48269         7.60496         2.38229
| 51>    C       -8.36477         6.23319         2.40618
| 52>    C       -7.76611         9.82458         1.47613
| 53>    C       -8.62336        10.61036         2.16691
| 54>    C       -8.69331        12.03218         2.06819
| 55>    C       -9.65354        12.73427         2.83878
| 56>    C       -9.81021        14.16855         2.75852
| 57>    N      -10.67037        14.79784         3.58185
| 58>    C      -11.40825        14.08536         4.39925
| 59>    C      -11.31094        12.65703         4.42321
| 60>    N      -10.44022        12.02824         3.66694
| 61>    C      -12.15518        11.90989         5.27765
| 62>    N      -12.85976        11.34254         5.98228
| 63>    C      -12.33139        14.75456         5.23772
| 64>    N      -13.11249        15.27890         5.89389
| 65>    C       -9.03970        14.94838         1.87981
| 66>    C       -8.03953        14.26742         1.16623
| 67>    C       -7.86909        12.83265         1.24321
| 68>    N       -6.87427        12.42095         0.45555
| 69>    S       -6.22480        13.69099        -0.29192
| 70>    N       -7.16742        14.83513         0.33031
| 71>    C       -9.18496        16.38322         1.77226
| 72>    C      -10.33433        17.06572         1.68499
| 73>    C      -11.69219        16.45964         1.54525
| 74>    C      -10.32297        18.56515         1.84968
| 75>    N      -10.51806        18.84321         3.26220
| 76>    C      -11.73179        18.75859         3.84367
| 77>    C      -11.92984        18.52090         5.17096
| 78>    C      -13.19935        18.44577         5.75905
| 79>    C      -13.43128        18.15864         7.08055
| 80>    C      -14.68841        18.00132         7.70952
| 81>    C      -14.62002        17.71004         9.03647
| 82>    C      -13.29845        17.62857         9.53768
| 83>    S      -12.14676        17.92122         8.25605
| 84>    C      -12.90527        17.37272        10.83413
| 85>    C      -13.74091        17.12275        11.95492
| 86>    C      -13.07457        16.91448        13.11403
| 87>    C      -11.64769        16.98508        12.99652
| 88>    S      -11.22042        17.32910        11.31311
| 89>    C      -10.73404        16.82738        13.96577
| 90>    H       -8.26966        -3.74745         2.26970
| 91>    H       -4.64701        -4.68189        -1.06045
| 92>    H       -8.66731        -6.52590         2.23102
| 93>    H       -4.88254         0.65374        -0.61074
| 94>    H       -4.95225         2.77927        -0.78665
| 95>    H       -8.37540         3.17276         2.77559
| 96>    H       -7.52331         0.96843         2.12901
| 97>    H       -4.17286         5.80521         1.27675
| 98>    H       -4.15496         6.92454        -0.07870
| 99>    H       -3.22432         4.01652        -0.12824
|100>    H       -2.23134         5.46175        -0.22611
|101>    H       -3.30408         5.05294        -1.55856
|102>    H       -7.12889         5.23597        -1.75811
|103>    H       -5.48575         4.73156        -2.13132
|104>    H       -6.50349         7.60520        -1.99736
|105>    H       -6.03330         6.70040        -3.42939
|106>    H       -4.80845         7.16493        -2.25460
|107>    H       -6.13223         8.36326         0.05771
|108>    H       -9.19123         8.08422         3.03918
|109>    H       -8.96857         5.64317         3.07932
|110>    H       -7.07194        10.30644         0.80115
|111>    H       -9.34165        10.18417         2.85241
|112>    H       -8.24675        16.92391         1.72714
|113>    H      -12.26791        17.01354         0.80365
|114>    H      -12.23095        16.49868         2.49325
|115>    H      -11.62996        15.42207         1.23119
|116>    H      -11.13035        19.04037         1.28885
|117>    H       -9.36802        18.99800         1.54424
|118>    H       -9.74079        18.56692         3.84938
|119>    H      -12.57480        18.93963         3.19012
|120>    H      -11.07244        18.34689         5.80783
|121>    H      -14.06553        18.58998         5.12661
|122>    H      -15.60488        18.09928         7.15487
|123>    H      -15.47652        17.55196         9.66665
|124>    H      -14.81231        17.10492        11.86187
|125>    H      -13.53795        16.71068        14.06287
|126>    H      -11.03748        16.61950        14.97656
|127>    H       -9.68064        16.90140        13.76768
|128> *
|129>
|130>                          ****END OF INPUT****

CARTESIAN COORDINATES (ANGSTROEM)
---------------------------------
  C     -5.092240   -1.892270   -0.256960
  C     -3.976910   -1.746010   -1.042310
  C     -3.297000   -2.820350   -1.655100
  N     -2.694410   -3.639840   -2.188060
  C     -3.305570   -0.542870   -1.349290
  N     -2.672530    0.367290   -1.653210
  C     -5.695830   -3.173630    0.085590
  C     -6.730260   -2.945350    1.021670
  C     -7.490620   -3.957940    1.553820
  C     -7.221220   -5.264110    1.133740
  C     -6.189870   -5.484200    0.190040
  C     -5.418260   -4.459530   -0.342680
  S     -6.029180   -7.170720   -0.198670
  C     -7.330110   -7.550830    0.898630
  C     -7.859690   -6.473140    1.523980
  Br    -7.868080   -9.335010    1.112200
  C     -6.840500   -1.499360    1.299950
  O     -7.611460   -1.008590    2.097840
  C     -5.844000   -0.840410    0.422490
  C     -5.632210    0.483050    0.153880
  C     -6.179020    1.715630    0.627340
  C     -5.679760    2.883750    0.004460
  C     -6.122620    4.119240    0.394640
  C     -7.119770    4.226160    1.385640
  C     -7.619290    3.088600    2.009800
  C     -7.143190    1.849570    1.641730
  C     -7.454820    5.617220    1.553680
  C     -6.665260    6.381660    0.673310
  C     -5.748470    5.487990   -0.139080
  C     -4.291860    5.876280    0.191940
  C     -3.204670    5.044830   -0.476700
  C     -6.076130    5.511100   -1.647190
  C     -5.836600    6.831720   -2.367130
  C     -6.761230    7.750950    0.686080
  C     -7.686320    8.389530    1.532220
  C     -8.482690    7.604960    2.382290
  C     -8.364770    6.233190    2.406180
  C     -7.766110    9.824580    1.476130
  C     -8.623360   10.610360    2.166910
  C     -8.693310   12.032180    2.068190
  C     -9.653540   12.734270    2.838780
  C     -9.810210   14.168550    2.758520
  N    -10.670370   14.797840    3.581850
  C    -11.408250   14.085360    4.399250
  C    -11.310940   12.657030    4.423210
  N    -10.440220   12.028240    3.666940
  C    -12.155180   11.909890    5.277650
  N    -12.859760   11.342540    5.982280
  C    -12.331390   14.754560    5.237720
  N    -13.112490   15.278900    5.893890
  C     -9.039700   14.948380    1.879810
  C     -8.039530   14.267420    1.166230
  C     -7.869090   12.832650    1.243210
  N     -6.874270   12.420950    0.455550
  S     -6.224800   13.690990   -0.291920
  N     -7.167420   14.835130    0.330310
  C     -9.184960   16.383220    1.772260
  C    -10.334330   17.065720    1.684990
  C    -11.692190   16.459640    1.545250
  C    -10.322970   18.565150    1.849680
  N    -10.518060   18.843210    3.262200
  C    -11.731790   18.758590    3.843670
  C    -11.929840   18.520900    5.170960
  C    -13.199350   18.445770    5.759050
  C    -13.431280   18.158640    7.080550
  C    -14.688410   18.001320    7.709520
  C    -14.620020   17.710040    9.036470
  C    -13.298450   17.628570    9.537680
  S    -12.146760   17.921220    8.256050
  C    -12.905270   17.372720   10.834130
  C    -13.740910   17.122750   11.954920
  C    -13.074570   16.914480   13.114030
  C    -11.647690   16.985080   12.996520
  S    -11.220420   17.329100   11.313110
  C    -10.734040   16.827380   13.965770
  H     -8.269660   -3.747450    2.269700
  H     -4.647010   -4.681890   -1.060450
  H     -8.667310   -6.525900    2.231020
  H     -4.882540    0.653740   -0.610740
  H     -4.952250    2.779270   -0.786650
  H     -8.375400    3.172760    2.775590
  H     -7.523310    0.968430    2.129010
  H     -4.172860    5.805210    1.276750
  H     -4.154960    6.924540   -0.078700
  H     -3.224320    4.016520   -0.128240
  H     -2.231340    5.461750   -0.226110
  H     -3.304080    5.052940   -1.558560
  H     -7.128890    5.235970   -1.758110
  H     -5.485750    4.731560   -2.131320
  H     -6.503490    7.605200   -1.997360
  H     -6.033300    6.700400   -3.429390
  H     -4.808450    7.164930   -2.254600
  H     -6.132230    8.363260    0.057710
  H     -9.191230    8.084220    3.039180
  H     -8.968570    5.643170    3.079320
  H     -7.071940   10.306440    0.801150
  H     -9.341650   10.184170    2.852410
  H     -8.246750   16.923910    1.727140
  H    -12.267910   17.013540    0.803650
  H    -12.230950   16.498680    2.493250
  H    -11.629960   15.422070    1.231190
  H    -11.130350   19.040370    1.288850
  H     -9.368020   18.998000    1.544240
  H     -9.740790   18.566920    3.849380
  H    -12.574800   18.939630    3.190120
  H    -11.072440   18.346890    5.807830
  H    -14.065530   18.589980    5.126610
  H    -15.604880   18.099280    7.154870
  H    -15.476520   17.551960    9.666650
  H    -14.812310   17.104920   11.861870
  H    -13.537950   16.710680   14.062870
  H    -11.037480   16.619500   14.976560
  H     -9.680640   16.901400   13.767680

 Total Charge           Charge          ....    0
 Multiplicity           Mult            ....    1
 Number of Electrons    NEL             ....  568
 Basis Dimension        Dim             .... 1274

ORBITAL ENERGIES
----------------

  NO   OCC          E(Eh)            E(eV)
   0   2.0000    -482.886311    -13140.0045
   1   2.0000     -89.048450     -2423.1315
   2   2.0000     -88.976153     -2421.1642
   3   2.0000     -88.915566     -2419.5156
   4   2.0000     -88.911597     -2419.4076
   5   2.0000     -62.564020     -1702.4535
   6   2.0000     -56.397974     -1534.6669
   7   2.0000     -56.395250     -1534.5928
   8   2.0000     -56.395221     -1534.5920
   9   2.0000     -19.219852      -522.9988
  10   2.0000     -14.461953      -393.5298
  11   2.0000     -14.458521      -393.4364
  12   2.0000     -14.458122      -393.4255
  13   2.0000     -14.456916      -393.3927
  14   2.0000     -14.433812      -392.7640
  15   2.0000     -14.427244      -392.5853
  16   2.0000     -14.425545      -392.5390
  17   2.0000     -14.418145      -392.3377
  18   2.0000     -14.414662      -392.2429
  19   2.0000     -10.378809      -282.4217
  20   2.0000     -10.378365      -282.4097
  21   2.0000     -10.371220      -282.2152
  22   2.0000     -10.359851      -281.9059
  23   2.0000     -10.345619      -281.5186
  24   2.0000     -10.344593      -281.4907
  25   2.0000     -10.344402      -281.4855
  26   2.0000     -10.342712      -281.4395
  27   2.0000     -10.342434      -281.4319
  28   2.0000     -10.341928      -281.4182
  29   2.0000     -10.326341      -280.9940
  30   2.0000     -10.321589      -280.8647
  31   2.0000     -10.320626      -280.8385
  32   2.0000     -10.318056      -280.7686
  33   2.0000     -10.317777      -280.7610
  34   2.0000     -10.317599      -280.7561
  35   2.0000     -10.317018      -280.7403
  36   2.0000     -10.316330      -280.7216
  37   2.0000     -10.311106      -280.5795
  38   2.0000     -10.308506      -280.5087
  39   2.0000     -10.308327      -280.5038
  40   2.0000     -10.307931      -280.4931
  41   2.0000     -10.306111      -280.4435
  42   2.0000     -10.301402      -280.3154
  43   2.0000     -10.300014      -280.2776
  44   2.0000     -10.297455      -280.2080
  45   2.0000     -10.293503      -280.1005
  46   2.0000     -10.292430      -280.0713
  47   2.0000     -10.291993      -280.0594
  48   2.0000     -10.289220      -279.9839
  49   2.0000     -10.288964      -279.9770
  50   2.0000     -10.287924      -279.9486
  51   2.0000     -10.285935      -279.8945
  52   2.0000     -10.284505      -279.8556
  53   2.0000     -10.284276      -279.8494
  54   2.0000     -10.282709      -279.8068
  55   2.0000     -10.282074      -279.7895
  56   2.0000     -10.281793      -279.7818
  57   2.0000     -10.281327      -279.7691
  58   2.0000     -10.280179      -279.7379
  59   2.0000     -10.279908      -279.7305
  60   2.0000     -10.279626      -279.7228
  61   2.0000     -10.279426      -279.7174
  62   2.0000     -10.278964      -279.7048
  63   2.0000     -10.278668      -279.6968
  64   2.0000     -10.277570      -279.6669
  65   2.0000     -10.275440      -279.6089
  66   2.0000     -10.272658      -279.5332
  67   2.0000     -10.270990      -279.4878
  68   2.0000     -10.270696      -279.4799
  69   2.0000     -10.269697      -279.4527
  70   2.0000     -10.264519      -279.3118
  71   2.0000     -10.260498      -279.2023
  72   2.0000     -10.259743      -279.1818
  73   2.0000     -10.259617      -279.1784
  74   2.0000     -10.257849      -279.1302
  75   2.0000     -10.256191      -279.0851
  76   2.0000     -10.255325      -279.0616
  77   2.0000     -10.249499      -278.9030
  78   2.0000     -10.241710      -278.6911
  79   2.0000      -8.793444      -239.2818
  80   2.0000      -8.139774      -221.4945
  81   2.0000      -8.072160      -219.6546
  82   2.0000      -8.011964      -218.0166
  83   2.0000      -8.008344      -217.9181
  84   2.0000      -6.629757      -180.4049
  85   2.0000      -6.615184      -180.0083
  86   2.0000      -6.614960      -180.0022
  87   2.0000      -6.110834      -166.2843
  88   2.0000      -6.103015      -166.0715
  89   2.0000      -6.102632      -166.0611
  90   2.0000      -6.041825      -164.4064
  91   2.0000      -6.037588      -164.2911
  92   2.0000      -6.033377      -164.1765
  93   2.0000      -5.981700      -162.7703
  94   2.0000      -5.978173      -162.6744
  95   2.0000      -5.977833      -162.6651
  96   2.0000      -5.974320      -162.5695
  97   2.0000      -5.972746      -162.5267
  98   2.0000      -5.968835      -162.4203
  99   2.0000      -2.745620       -74.7121
 100   2.0000      -2.741532       -74.6009
 101   2.0000      -2.741395       -74.5971
 102   2.0000      -2.729794       -74.2815
 103   2.0000      -2.729777       -74.2810
 104   2.0000      -1.143106       -31.1055
 105   2.0000      -1.134959       -30.8838
 106   2.0000      -1.117296       -30.4032
 107   2.0000      -1.044390       -28.4193
 108   2.0000      -1.038239       -28.2519
 109   2.0000      -1.023924       -27.8624
 110   2.0000      -1.014726       -27.6121
 111   2.0000      -1.010436       -27.4954
 112   2.0000      -1.000778       -27.2325
 113   2.0000      -0.998088       -27.1593
 114   2.0000      -0.997275       -27.1372
 115   2.0000      -0.994982       -27.0748
 116   2.0000      -0.990225       -26.9454
 117   2.0000      -0.977576       -26.6012
 118   2.0000      -0.964982       -26.2585
 119   2.0000      -0.957988       -26.0682
 120   2.0000      -0.943387       -25.6709
 121   2.0000      -0.942357       -25.6428
 122   2.0000      -0.929769       -25.3003
 123   2.0000      -0.920551       -25.0495
 124   2.0000      -0.909073       -24.7371
 125   2.0000      -0.907110       -24.6837
 126   2.0000      -0.903031       -24.5727
 127   2.0000      -0.897450       -24.4209
 128   2.0000      -0.886567       -24.1247
 129   2.0000      -0.884448       -24.0671
 130   2.0000      -0.875927       -23.8352
 131   2.0000      -0.864178       -23.5155
 132   2.0000      -0.848548       -23.0902
 133   2.0000      -0.845219       -22.9996
 134   2.0000      -0.843444       -22.9513
 135   2.0000      -0.839945       -22.8561
 136   2.0000      -0.838329       -22.8121
 137   2.0000      -0.832421       -22.6513
 138   2.0000      -0.829442       -22.5703
 139   2.0000      -0.818026       -22.2596
 140   2.0000      -0.814538       -22.1647
 141   2.0000      -0.808526       -22.0011
 142   2.0000      -0.805306       -21.9135
 143   2.0000      -0.792597       -21.5677
 144   2.0000      -0.781322       -21.2608
 145   2.0000      -0.777169       -21.1479
 146   2.0000      -0.775358       -21.0986
 147   2.0000      -0.764050       -20.7909
 148   2.0000      -0.759692       -20.6723
 149   2.0000      -0.743623       -20.2350
 150   2.0000      -0.736453       -20.0399
 151   2.0000      -0.732507       -19.9325
 152   2.0000      -0.719874       -19.5888
 153   2.0000      -0.713619       -19.4186
 154   2.0000      -0.710187       -19.3252
 155   2.0000      -0.701967       -19.1015
 156   2.0000      -0.699187       -19.0258
 157   2.0000      -0.695067       -18.9137
 158   2.0000      -0.692360       -18.8401
 159   2.0000      -0.688688       -18.7401
 160   2.0000      -0.682416       -18.5695
 161   2.0000      -0.672945       -18.3118
 162   2.0000      -0.668917       -18.2022
 163   2.0000      -0.662912       -18.0388
 164   2.0000      -0.659500       -17.9459
 165   2.0000      -0.654029       -17.7970
 166   2.0000      -0.649650       -17.6779
 167   2.0000      -0.644657       -17.5420
 168   2.0000      -0.633430       -17.2365
 169   2.0000      -0.624864       -17.0034
 170   2.0000      -0.624285       -16.9877
 171   2.0000      -0.617119       -16.7927
 172   2.0000      -0.609874       -16.5955
 173   2.0000      -0.604461       -16.4482
 174   2.0000      -0.601366       -16.3640
 175   2.0000      -0.600513       -16.3408
 176   2.0000      -0.599542       -16.3144
 177   2.0000      -0.595363       -16.2006
 178   2.0000      -0.592412       -16.1203
 179   2.0000      -0.585035       -15.9196
 180   2.0000      -0.580541       -15.7973
 181   2.0000      -0.575610       -15.6631
 182   2.0000      -0.573280       -15.5998
 183   2.0000      -0.568560       -15.4713
 184   2.0000      -0.566317       -15.4103
 185   2.0000      -0.560978       -15.2650
 186   2.0000      -0.557476       -15.1697
 187   2.0000      -0.555594       -15.1185
 188   2.0000      -0.555393       -15.1130
 189   2.0000      -0.552551       -15.0357
 190   2.0000      -0.547383       -14.8950
 191   2.0000      -0.543982       -14.8025
 192   2.0000      -0.541565       -14.7367
 193   2.0000      -0.539501       -14.6806
 194   2.0000      -0.538362       -14.6496
 195   2.0000      -0.532691       -14.4953
 196   2.0000      -0.529038       -14.3959
 197   2.0000      -0.525770       -14.3069
 198   2.0000      -0.524145       -14.2627
 199   2.0000      -0.518634       -14.1127
 200   2.0000      -0.515932       -14.0392
 201   2.0000      -0.511054       -13.9065
 202   2.0000      -0.509592       -13.8667
 203   2.0000      -0.508700       -13.8424
 204   2.0000      -0.505025       -13.7424
 205   2.0000      -0.501451       -13.6452
 206   2.0000      -0.499380       -13.5888
 207   2.0000      -0.496906       -13.5215
 208   2.0000      -0.495510       -13.4835
 209   2.0000      -0.490813       -13.3557
 210   2.0000      -0.489704       -13.3255
 211   2.0000      -0.488459       -13.2917
 212   2.0000      -0.486532       -13.2392
 213   2.0000      -0.483638       -13.1605
 214   2.0000      -0.480673       -13.0798
 215   2.0000      -0.479663       -13.0523
 216   2.0000      -0.477872       -13.0036
 217   2.0000      -0.475411       -12.9366
 218   2.0000      -0.475012       -12.9257
 219   2.0000      -0.471983       -12.8433
 220   2.0000      -0.468825       -12.7574
 221   2.0000      -0.463931       -12.6242
 222   2.0000      -0.463455       -12.6113
 223   2.0000      -0.461340       -12.5537
 224   2.0000      -0.460466       -12.5299
 225   2.0000      -0.458978       -12.4894
 226   2.0000      -0.456022       -12.4090
 227   2.0000      -0.453659       -12.3447
 228   2.0000      -0.453573       -12.3423
 229   2.0000      -0.451944       -12.2980
 230   2.0000      -0.450895       -12.2695
 231   2.0000      -0.449822       -12.2403
 232   2.0000      -0.448944       -12.2164
 233   2.0000      -0.445987       -12.1359
 234   2.0000      -0.444771       -12.1028
 235   2.0000      -0.444019       -12.0824
 236   2.0000      -0.442986       -12.0543
 237   2.0000      -0.441355       -12.0099
 238   2.0000      -0.440112       -11.9761
 239   2.0000      -0.439216       -11.9517
 240   2.0000      -0.436734       -11.8841
 241   2.0000      -0.435415       -11.8483
 242   2.0000      -0.434049       -11.8111
 243   2.0000      -0.429384       -11.6841
 244   2.0000      -0.427782       -11.6405
 245   2.0000      -0.427712       -11.6386
 246   2.0000      -0.426844       -11.6150
 247   2.0000      -0.421167       -11.4605
 248   2.0000      -0.420625       -11.4458
 249   2.0000      -0.417280       -11.3548
 250   2.0000      -0.415785       -11.3141
 251   2.0000      -0.413526       -11.2526
 252   2.0000      -0.410531       -11.1711
 253   2.0000      -0.406309       -11.0562
 254   2.0000      -0.404205       -10.9990
 255   2.0000      -0.402685       -10.9576
 256   2.0000      -0.402154       -10.9432
 257   2.0000      -0.397103       -10.8057
 258   2.0000      -0.394612       -10.7379
 259   2.0000      -0.390916       -10.6374
 260   2.0000      -0.387932       -10.5562
 261   2.0000      -0.384577       -10.4649
 262   2.0000      -0.381693       -10.3864
 263   2.0000      -0.377251       -10.2655
 264   2.0000      -0.375654       -10.2221
 265   2.0000      -0.371629       -10.1125
 266   2.0000      -0.364721        -9.9246
 267   2.0000      -0.358946        -9.7674
 268   2.0000      -0.356852        -9.7104
 269   2.0000      -0.347977        -9.4689
 270   2.0000      -0.345913        -9.4128
 271   2.0000      -0.338813        -9.2196
 272   2.0000      -0.331671        -9.0252
 273   2.0000      -0.325530        -8.8581
 274   2.0000      -0.323693        -8.8081
 275   2.0000      -0.319469        -8.6932
 276   2.0000      -0.316318        -8.6075
 277   2.0000      -0.311344        -8.4721
 278   2.0000      -0.296156        -8.0588
 279   2.0000      -0.295331        -8.0364
 280   2.0000      -0.288212        -7.8426
 281   2.0000      -0.260074        -7.0770
 282   2.0000      -0.251951        -6.8559
 283   2.0000      -0.184682        -5.0254
 284   0.0000      -0.121925        -3.3177
 285   0.0000      -0.090612        -2.4657
 286   0.0000      -0.061804        -1.6818
 287   0.0000      -0.048137        -1.3099
 288   0.0000      -0.039569        -1.0767

MULLIKEN ATOMIC CHARGES
-----------------------
   0 C :    0.310259
   1 C :   -0.360854
   2 C :   -0.188940
   3 N :    0.151015
   4 C :   -0.190806
   5 N :    0.149448
   6 C :    0.012635
   7 C :   -0.006087
   8 C :   -0.074494
   9 C :    0.121106
  10 C :   -0.091632
  11 C :   -0.019785
  12 S :    0.186540
  13 C :   -0.121934
  14 C :    0.036925
  15 Br:    0.024770
  16 C :    0.154433
  17 O :   -0.149957
  18 C :   -0.041957
  19 C :   -0.024022
  20 C :    0.079842
  21 C :   -0.119619
  22 C :    0.047116
  23 C :    0.111156
  24 C :   -0.059621
  25 C :    0.006179
  26 C :    0.090149
  27 C :    0.049639
  28 C :   -0.123404
  29 C :    0.051133
  30 C :    0.029738
  31 C :    0.052037
  32 C :    0.030305
  33 C :   -0.123102
  34 C :    0.128348
  35 C :   -0.004820
  36 C :   -0.038886
  37 C :    0.015366
  38 C :   -0.064751
  39 C :    0.101823
  40 C :   -0.034251
  41 C :   -0.069067
  42 N :    0.045847
  43 C :   -0.142505
  44 C :   -0.131328
  45 N :    0.054366
  46 C :   -0.213831
  47 N :    0.234080
  48 C :   -0.210393
  49 N :    0.255890
  50 C :    0.047909
  51 C :    0.009896
  52 C :    0.004793
  53 N :   -0.286797
  54 S :    0.540321
  55 N :   -0.265558
  56 C :   -0.068274
  57 C :   -0.170348
  58 C :    0.113165
  59 C :    0.184921
  60 N :   -0.136178
  61 C :    0.037165
  62 C :   -0.013237
  63 C :   -0.008792
  64 C :   -0.010404
  65 C :    0.049126
  66 C :    0.010296
  67 C :   -0.033298
  68 S :    0.045935
  69 C :   -0.077100
  70 C :    0.028110
  71 C :    0.039341
  72 C :   -0.053922
  73 S :    0.056857
  74 C :   -0.049592
  75 H :   -0.009759
  76 H :   -0.005432
  77 H :   -0.002108
  78 H :   -0.004874
  79 H :   -0.004554
  80 H :   -0.025949
  81 H :   -0.003496
  82 H :    0.008339
  83 H :    0.003514
  84 H :    0.026014
  85 H :    0.015557
  86 H :    0.009893
  87 H :    0.007173
  88 H :    0.008999
  89 H :    0.017381
  90 H :    0.016525
  91 H :    0.005808
  92 H :   -0.027311
  93 H :   -0.018109
  94 H :   -0.027354
  95 H :   -0.003718
  96 H :   -0.006956
  97 H :   -0.002064
  98 H :    0.012930
  99 H :    0.053034
 100 H :    0.011493
 101 H :    0.013210
 102 H :    0.017201
 103 H :    0.118880
 104 H :   -0.002139
 105 H :   -0.017129
 106 H :   -0.030738
 107 H :   -0.025381
 108 H :   -0.025170
 109 H :   -0.018048
 110 H :   -0.023438
 111 H :    0.008344
 112 H :    0.011003
Sum of atomic charges:   -0.0000000

LOEWDIN ATOMIC CHARGES
----------------------
   0 C :    0.080519
   1 C :   -0.144447
   2 C :   -0.017602
   3 N :   -0.055292
   4 C :   -0.024004
   5 N :   -0.056530
   6 C :   -0.022479
   7 C :   -0.049542
   8 C :    0.022012
   9 C :   -0.031837
  10 C :   -0.143388
  11 C :   -0.009360
  12 S :    0.432564
  13 C :   -0.270691
  14 C :   -0.070524
  15 Br:    0.137477
  16 C :    0.088883
  17 O :   -0.137342
  18 C :   -0.098754
  19 C :    0.083051
  20 C :   -0.046859
  21 C :    0.005443
  22 C :   -0.002267
  23 C :    0.011304
  24 C :   -0.022540
  25 C :    0.018150
  26 C :   -0.015350
  27 C :    0.009239
  28 C :   -0.032788
  29 C :   -0.014613
  30 C :   -0.057328
  31 C :   -0.014069
  32 C :   -0.058659
  33 C :   -0.013331
  34 C :   -0.023505
  35 C :   -0.004132
  36 C :   -0.010467
  37 C :    0.016187
  38 C :   -0.028520
  39 C :   -0.010234
  40 C :   -0.012170
  41 C :   -0.014942
  42 N :    0.007999
  43 C :   -0.027636
  44 C :   -0.033521
  45 N :    0.003025
  46 C :   -0.036811
  47 N :   -0.007923
  48 C :   -0.039166
  49 N :    0.006503
  50 C :   -0.026408
  51 C :   -0.043305
  52 C :   -0.040296
  53 N :   -0.278217
  54 S :    0.672074
  55 N :   -0.280095
  56 C :   -0.049984
  57 C :   -0.005382
  58 C :   -0.053549
  59 C :    0.048160
  60 N :    0.002606
  61 C :    0.032496
  62 C :   -0.110679
  63 C :   -0.039253
  64 C :   -0.164364
  65 C :   -0.023175
  66 C :   -0.049108
  67 C :   -0.169459
  68 S :    0.352014
  69 C :   -0.198719
  70 C :   -0.025025
  71 C :   -0.050275
  72 C :   -0.136194
  73 S :    0.334880
  74 C :   -0.103941
  75 H :    0.040896
  76 H :    0.041129
  77 H :    0.039143
  78 H :    0.044478
  79 H :    0.031310
  80 H :    0.030452
  81 H :    0.028854
  82 H :    0.028514
  83 H :    0.019086
  84 H :    0.026626
  85 H :    0.030078
  86 H :    0.022248
  87 H :    0.028095
  88 H :    0.021358
  89 H :    0.023261
  90 H :    0.029800
  91 H :    0.020950
  92 H :    0.025946
  93 H :    0.030866
  94 H :    0.030433
  95 H :    0.026823
  96 H :    0.028767
  97 H :    0.031193
  98 H :    0.029567
  99 H :    0.040925
 100 H :    0.028310
 101 H :    0.026916
 102 H :    0.029204
 103 H :    0.078980
 104 H :    0.024071
 105 H :    0.017793
 106 H :    0.027288
 107 H :    0.029251
 108 H :    0.026879
 109 H :    0.029615
 110 H :    0.028275
 111 H :    0.023231
 112 H :    0.020853

  Mayer bond orders larger than 0.100000
B(  0-C ,  1-C ) :   1.6151 B(  0-C ,  6-C ) :   0.9984 B(  0-C , 18-C ) :   1.0797
B(  1-C ,  2-C ) :   1.1479 B(  1-C ,  4-C ) :   1.1402 B(  2-C ,  3-N ) :   2.9694
B(  4-C ,  5-N ) :   2.9809 B(  6-C ,  7-C ) :   1.2784 B(  6-C , 11-C ) :   1.4041
B(  7-C ,  8-C ) :   1.4187 B(  7-C , 16-C ) :   0.9570 B(  8-C ,  9-C ) :   1.2461
B(  8-C , 75-H ) :   1.0180 B(  9-C , 10-C ) :   1.3034 B(  9-C , 14-C ) :   1.1620
B( 10-C , 11-C ) :   1.3348 B( 10-C , 12-S ) :   1.0856 B( 11-C , 76-H ) :   0.9802
B( 12-S , 13-C ) :   1.0859 B( 13-C , 14-C ) :   1.6172 B( 13-C , 15-Br) :   1.0197
B( 14-C , 77-H ) :   1.0013 B( 16-C , 17-O ) :   2.1667 B( 16-C , 18-C ) :   0.9240
B( 17-O , 81-H ) :   0.1054 B( 18-C , 19-C ) :   1.5409 B( 19-C , 20-C ) :   1.1631
B( 19-C , 78-H ) :   0.9370 B( 20-C , 21-C ) :   1.2309 B( 20-C , 25-C ) :   1.3220
B( 21-C , 22-C ) :   1.3925 B( 21-C , 79-H ) :   1.0037 B( 22-C , 23-C ) :   1.3712
B( 22-C , 28-C ) :   0.9292 B( 23-C , 24-C ) :   1.3081 B( 23-C , 26-C ) :   1.0111
B( 24-C , 25-C ) :   1.4002 B( 24-C , 80-H ) :   0.9967 B( 25-C , 81-H ) :   0.9663
B( 26-C , 27-C ) :   1.3849 B( 26-C , 36-C ) :   1.3121 B( 27-C , 28-C ) :   0.9282
B( 27-C , 33-C ) :   1.3760 B( 28-C , 29-C ) :   1.0060 B( 28-C , 31-C ) :   1.0075
B( 29-C , 30-C ) :   1.1106 B( 29-C , 82-H ) :   0.9378 B( 29-C , 83-H ) :   0.9396
B( 30-C , 84-H ) :   0.9614 B( 30-C , 85-H ) :   0.9600 B( 30-C , 86-H ) :   0.9628
B( 31-C , 32-C ) :   1.1135 B( 31-C , 87-H ) :   0.9383 B( 31-C , 88-H ) :   0.9398
B( 32-C , 89-H ) :   0.9607 B( 32-C , 90-H ) :   0.9601 B( 32-C , 91-H ) :   0.9621
B( 33-C , 34-C ) :   1.2812 B( 33-C , 92-H ) :   1.0063 B( 34-C , 35-C ) :   1.3293
B( 34-C , 37-C ) :   1.0673 B( 35-C , 36-C ) :   1.4142 B( 35-C , 93-H ) :   0.9873
B( 36-C , 94-H ) :   0.9910 B( 37-C , 38-C ) :   1.5812 B( 37-C , 95-H ) :   0.9697
B( 38-C , 39-C ) :   1.2007 B( 38-C , 96-H ) :   0.9556 B( 39-C , 40-C ) :   1.2520
B( 39-C , 50-C ) :   0.1316 B( 39-C , 52-C ) :   1.1729 B( 40-C , 41-C ) :   1.0995
B( 40-C , 45-N ) :   1.4340 B( 41-C , 42-N ) :   1.4145 B( 41-C , 50-C ) :   1.3194
B( 42-N , 43-C ) :   1.7425 B( 43-C , 44-C ) :   1.1909 B( 43-C , 48-C ) :   1.1625
B( 44-C , 45-N ) :   1.7470 B( 44-C , 46-C ) :   1.1559 B( 46-C , 47-N ) :   3.0426
B( 48-C , 49-N ) :   3.0231 B( 50-C , 51-C ) :   1.2204 B( 50-C , 56-C ) :   1.0440
B( 51-C , 52-C ) :   1.1045 B( 51-C , 55-N ) :   1.5409 B( 52-C , 53-N ) :   1.5019
B( 53-N , 54-S ) :   1.2747 B( 53-N , 55-N ) :   0.1552 B( 54-S , 55-N ) :   1.2846
B( 56-C , 57-C ) :   1.8080 B( 56-C , 97-H ) :   0.9550 B( 57-C , 58-C ) :   1.0949
B( 57-C , 59-C ) :   1.0264 B( 58-C , 98-H ) :   0.9421 B( 58-C , 99-H ) :   0.9293
B( 58-C ,100-H ) :   0.9427 B( 59-C , 60-N ) :   1.0297 B( 59-C ,101-H ) :   0.9368
B( 59-C ,102-H ) :   0.9461 B( 60-N , 61-C ) :   1.2086 B( 60-N ,103-H ) :   0.9364
B( 61-C , 62-C ) :   1.6083 B( 61-C ,104-H ) :   0.9636 B( 62-C , 63-C ) :   1.1715
B( 62-C ,105-H ) :   0.9601 B( 63-C , 64-C ) :   1.5903 B( 63-C ,106-H ) :   0.9772
B( 64-C , 65-C ) :   1.1451 B( 64-C , 68-S ) :   1.0070 B( 65-C , 66-C ) :   1.5999
B( 65-C ,107-H ) :   0.9972 B( 66-C , 67-C ) :   1.1772 B( 66-C ,108-H ) :   0.9928
B( 67-C , 68-S ) :   1.0475 B( 67-C , 69-C ) :   1.5431 B( 69-C , 70-C ) :   1.1652
B( 69-C , 73-S ) :   1.0262 B( 70-C , 71-C ) :   1.6472 B( 70-C ,109-H ) :   0.9918
B( 71-C , 72-C ) :   1.0864 B( 71-C ,110-H ) :   0.9927 B( 72-C , 73-S ) :   1.0127
B( 72-C , 74-C ) :   1.8531 B( 74-C ,111-H ) :   0.9503 B( 74-C ,112-H ) :   0.9422

-----------------------------------------------------------------------------
         ABSORPTION SPECTRUM VIA TRANSITION ELECTRIC DIPOLE MOMENTS
-----------------------------------------------------------------------------
State   Energy  Wavelength   fosc         T2         TX        TY        TZ
        (cm-1)    (nm)                  (au**2)     (au)      (au)      (au)
-----------------------------------------------------------------------------
   0    1430.8   6988.9   0.019137509   4.40322   0.73166  -1.41666  -1.36418
   1   12803.1    781.1   0.487749774  12.54169  -0.90622   3.35424   0.68521
   2   14197.4    704.4   0.079294659   1.83870   0.39824  -1.23731  -0.38623
   3   15712.4    636.4   0.002773187   0.05810  -0.00683  -0.05348   0.23494
   4   16780.1    595.9   0.037223773   0.73030  -0.06646   0.80264  -0.28575
   5   18590.9    537.9   0.185825503   3.29064   0.32132  -0.15089  -1.77894
   6   19855.4    503.6   1.151942202  19.09979   0.10120  -0.66912   4.31762
   7   21698.3    460.9   0.045749915   0.69413   0.15459  -0.78316   0.23850
   8   22194.7    450.6   1.076831462  15.97254   1.12373  -3.73722  -0.86194
   9   23416.2    427.1   0.270451201   3.80232   0.57057  -1.86392  -0.05065
  10   25240.0    396.2   0.029089460   0.37942  -0.15068   0.41805  -0.42656
  11   25718.7    388.8   0.007262552   0.09296   0.11038  -0.18483  -0.21591
  12   26101.3    383.1   0.006363932   0.08027   0.18336  -0.12439   0.17656
  13   27126.5    368.6   0.005344195   0.06486   0.09621   0.22546  -0.06907
  14   27669.5    361.4   0.106818612   1.27093   0.63480   0.89249  -0.26725
  15   27973.7    357.5   0.061815000   0.72748   0.15568  -0.79713   0.26044
  16   28507.5    350.8   0.019187949   0.22159  -0.17090  -0.29514   0.32446
  17   29018.3    344.6   0.288640935   3.27463  -0.44791  -1.70530   0.40736
  18   29553.4    338.4   0.064845745   0.72235  -0.02214   0.82907   0.18577
  19   29558.4    338.3   0.012593261   0.14026  -0.20593   0.31081  -0.03533
  20   29682.8    336.9   0.028679165   0.31808   0.24296   0.49533  -0.11707
  21   29830.9    335.2   0.059911130   0.66118  -0.16032  -0.79264   0.08482
  22   30176.2    331.4   0.007772534   0.08480  -0.15055   0.05278   0.24361
  23   30478.5    328.1   0.069509742   0.75081   0.05584  -0.83113  -0.23857
  24   30790.8    324.8   0.056784084   0.60713   0.14213  -0.75588  -0.12478
  25   31025.2    322.3   0.035676932   0.37857  -0.42765   0.38799  -0.21250
  26   31512.9    317.3   0.023756988   0.24819  -0.25834  -0.35451   0.23616
  27   31733.4    315.1   0.069985995   0.72606   0.64364   0.22175  -0.51245
  28   31756.9    314.9   0.114905693   1.19119  -0.38729  -0.98885   0.25171
  29   32167.2    310.9   0.052752122   0.53989   0.35459   0.63881  -0.07794
  30   32332.6    309.3   0.052588802   0.53546   0.16848   0.66393  -0.25744
  31   32854.2    304.4   0.089064457   0.89246   0.80209  -0.07593  -0.49330
  32   32920.6    303.8   0.005094747   0.05095  -0.04746  -0.13643   0.17344
  33   33017.7    302.9   0.247124855   2.46403  -1.17227   0.69359   0.78021
  34   33135.5    301.8   0.543476041   5.39961  -1.52781   0.14104   1.74514
  35   33701.0    296.7   0.281890927   2.75369  -0.28360   1.62848  -0.14596
  36   33831.8    295.6   0.532655923   5.18320  -1.83963  -0.75151   1.11094
  37   34185.3    292.5   0.170868528   1.64550  -0.41794  -1.03210   0.63686
  38   34537.0    289.5   0.060022396   0.57214  -0.02544   0.66184  -0.36533
  39   34899.1    286.5   0.228227262   2.15293   1.35553   0.34695  -0.44169
  40   34972.2    285.9   0.010176109   0.09579  -0.30869  -0.00835  -0.02089
  41   35398.2    282.5   0.078043745   0.72583   0.57307   0.49612  -0.38895
  42   35877.6    278.7   0.000142451   0.00131  -0.02273   0.02806  -0.00173
  43   36274.9    275.7   0.188201289   1.70802  -0.14684  -1.28516   0.18662
  44   36512.5    273.9   0.077538549   0.69912  -0.62359  -0.20594   0.51754
  45   36692.5    272.5   0.025982905   0.23312   0.04414   0.48080  -0.00305
  46   37122.2    269.4   0.008630537   0.07654  -0.11045   0.25365   0.00122
  47   37144.2    269.2   0.038453780   0.34082   0.34058   0.34902  -0.32095
  48   37812.3    264.5   0.039225658   0.34152   0.24599   0.50150  -0.17176
  49   38030.2    262.9   0.017446219   0.15102  -0.24537  -0.03820   0.29893
  50   38290.7    261.2   0.012308676   0.10583  -0.20145  -0.13507   0.21680
  51   38580.9    259.2   0.000726479   0.00620  -0.05511   0.02626   0.04972
  52   39090.8    255.8   0.016625399   0.14001  -0.22894  -0.12952   0.26613
  53   39371.7    254.0   0.035604702   0.29771   0.33742  -0.16877  -0.39418
  54   39490.9    253.2   0.209787639   1.74887   0.81644  -0.59986  -0.84999
  55   39706.2    251.8   0.134437740   1.11465   0.35881  -0.92335  -0.36515
  56   39770.5    251.4   0.002332802   0.01931  -0.05418  -0.12377   0.03249
  57   39996.1    250.0   0.034359107   0.28281   0.33766   0.18373  -0.36748
  58   40241.9    248.5   0.041676072   0.34094  -0.38246  -0.14143   0.41794

FINAL SINGLE POINT ENERGY     -7039.666065600640

DIPOLE MOMENT
-------------
                                X             Y             Z
Electronic contribution:      9.43585    -247.21659     -14.55961
Nuclear contribution   :     -9.64555     247.65999      11.95896
                        -----------------------------------------
Total Dipole Moment    :     -0.20970       0.44340      -2.60065
                        -----------------------------------------
Magnitude (a.u.)       :      2.64650
Magnitude (Debye)      :      6.72686

Rotational constants in cm-1:     0.001215     0.000153     0.000140
Rotational constants in MHz :    36.410205     4.584675     4.206469

                             ****ORCA TERMINATED NORMALLY****
TOTAL RUN TIME: 0 days 0 hours 12 minutes 2 seconds 346 msec
