                         Program Version 4.2.0 -  RELEASE  -
|  1> # ORCA input file
|  2> # SCF done       -185.902108496584          0.000716987631
|  3> ! CAM-B3LYP def2-SVP def2/J RIJCOSX Grid4 TightSCF
|  4> %maxcore 5000
|  5> %tddft
|  6>     Mode sTDDFT
|  7>     Ethresh 5.0
|  8>     maxcore 5000
|  9> end
| 10>
| 11> %pal
| 12>   nprocs 6
| 13>   end
| 14> * xyz 0 1
| 15>    C       -7.72372        -3.02319        -2.73890
| 16>    C       -8.20529        -4.05040        -1.96938
| 17>    C       -7.84074        -5.40233        -2.13243
| 18>    N       -7.57991        -6.51649        -2.22178
| 19>    C       -9.12418        -3.87909        -0.91412
| 20>    N       -9.86907        -3.77878        -0.04631
| 21>    C       -6.76526        -3.14833        -3.83346
| 22>    C       -6.50810        -1.86019        -4.37269
| 23>    C       -5.64591        -1.65531        -5.42315
| 24>    C       -5.00576        -2.77246        -5.96938
| 25>    C       -5.26608        -4.05274        -5.42407
| 26>    C       -6.13811        -4.26012        -4.36122
| 27>    S       -4.37132        -5.29183        -6.24731
| 28>    C       -3.66924        -4.09204        -7.30036
| 29>    C       -4.08248        -2.82659        -7.04854
| 30>   Br       -2.45815        -4.62140        -8.63035
| 31>    C       -7.29938        -0.87205        -3.63339
| 32>    O       -7.33529         0.34377        -3.81014
| 33>    C       -8.05648        -1.62122        -2.62663
| 34>    C       -8.92864        -0.99342        -1.77137
| 35>    N       -9.09151         0.33317        -1.83986
| 36>    C       -9.92006         1.10074        -1.09002
| 37>    S      -10.95660         0.40721         0.11772
| 38>    C      -11.55471         1.99370         0.47690
| 39>    N      -12.52323         2.12203         1.48305
| 40>    O      -12.93406         3.24112         1.72656
| 41>    O      -12.87777         1.09804         2.03763
| 42>    C      -10.99199         2.98201        -0.28369
| 43>    C      -10.03960         2.49332        -1.19993
| 44>    C       -9.26689         3.29264        -2.11369
| 45>    C       -9.37413         4.62838        -2.24771
| 46>    C       -8.53567         5.38410        -3.13153
| 47>    C       -8.53961         6.72081        -3.25793
| 48>    C       -9.47495         7.62963        -2.52326
| 49>    C       -7.50810         7.40071        -4.13185
| 50>    N       -8.07926         8.30490        -5.09708
| 51>    C       -8.21945         9.62534        -4.88976
| 52>    C       -8.90897        10.47845        -5.69946
| 53>    C       -9.00645        11.85115        -5.42884
| 54>    C       -9.65684        12.77279        -6.21027
| 55>    C       -9.81275        14.15150        -5.94025
| 56>    C      -10.49831        14.83597        -6.89840
| 57>    C      -10.91188        14.03673        -7.98690
| 58>    S      -10.42436        12.38112        -7.74721
| 59>    C      -11.59098        14.45367        -9.12170
| 60>    C      -12.04853        15.75131        -9.41773
| 61>    C      -12.66460        15.85311       -10.63298
| 62>    C      -12.71338        14.64473       -11.35738
| 63>    S      -11.97754        13.35981       -10.43494
| 64>    C      -13.25731        14.47115       -12.61961
| 65>    C      -13.21797        13.27980       -13.32515
| 66>    C      -13.73053        13.02865       -14.58553
| 67>    C      -14.65814        13.75958       -15.39778
| 68>    C      -15.64900        14.61688       -14.96971
| 69>    C      -16.53847        15.28346       -15.83183
| 70>    N      -17.27507        15.87406       -16.48750
| 71>    C      -15.97166        14.84691       -13.61908
| 72>    N      -16.31643        15.03752       -12.53963
| 73>    C      -14.51726        13.27123       -16.77111
| 74>    C      -13.66918        12.13670       -16.76007
| 75>    C      -13.19283        11.90661       -15.37661
| 76>    O      -12.47450        11.00811       -14.98728
| 77>    C      -13.36331        11.43350       -17.89786
| 78>    C      -13.91015        11.87835       -19.10775
| 79>    C      -14.74509        13.01806       -19.10892
| 80>    C      -15.06396        13.72490       -17.95424
| 81>    S      -15.30014        13.40305       -20.71100
| 82>    C      -14.41616        12.04134       -21.34699
| 83>    C      -13.73961        11.33521       -20.41160
| 84>   Br      -14.46694        11.68317       -23.18870
| 85>    H       -5.47078        -0.66493        -5.81325
| 86>    H       -6.30382        -5.25473        -3.98244
| 87>    H       -3.75086        -1.96673        -7.60141
| 88>    H       -9.50616        -1.52945        -1.02958
| 89>    H       -8.51003         0.78246        -2.57088
| 90>    H      -11.26762         4.01316        -0.16443
| 91>    H       -8.53711         2.77420        -2.72157
| 92>    H      -10.09049         5.17387        -1.65456
| 93>    H       -7.82049         4.80711        -3.70431
| 94>    H      -10.47053         7.20028        -2.45087
| 95>    H       -9.55625         8.59163        -3.02448
| 96>    H       -9.10912         7.80774        -1.51133
| 97>    H       -6.91702         6.64769        -4.66072
| 98>    H       -6.83237         7.97922        -3.49221
| 99>    H       -8.60650         7.89134        -5.85247
|100>    H       -7.69717        10.01410        -4.02447
|101>    H       -9.40812        10.09764        -6.57975
|102>    H       -8.54000        12.22202        -4.52465
|103>    H       -9.41530        14.59488        -5.04414
|104>    H      -10.70859        15.88899        -6.85511
|105>    H      -11.91796        16.57411        -8.73817
|106>    H      -13.08491        16.76009       -11.02909
|107>    H      -13.69404        15.34992       -13.07142
|108>    H      -12.63492        12.46681       -12.90228
|109>    H      -12.72085        10.56772       -17.86009
|110>    H      -15.70213        14.59137       -18.00625
|111>    H      -13.14295        10.46806       -20.62886
|112> *
|113>
|114>                          ****END OF INPUT****

CARTESIAN COORDINATES (ANGSTROEM)
---------------------------------
  C     -7.723720   -3.023190   -2.738900
  C     -8.205290   -4.050400   -1.969380
  C     -7.840740   -5.402330   -2.132430
  N     -7.579910   -6.516490   -2.221780
  C     -9.124180   -3.879090   -0.914120
  N     -9.869070   -3.778780   -0.046310
  C     -6.765260   -3.148330   -3.833460
  C     -6.508100   -1.860190   -4.372690
  C     -5.645910   -1.655310   -5.423150
  C     -5.005760   -2.772460   -5.969380
  C     -5.266080   -4.052740   -5.424070
  C     -6.138110   -4.260120   -4.361220
  S     -4.371320   -5.291830   -6.247310
  C     -3.669240   -4.092040   -7.300360
  C     -4.082480   -2.826590   -7.048540
  Br    -2.458150   -4.621400   -8.630350
  C     -7.299380   -0.872050   -3.633390
  O     -7.335290    0.343770   -3.810140
  C     -8.056480   -1.621220   -2.626630
  C     -8.928640   -0.993420   -1.771370
  N     -9.091510    0.333170   -1.839860
  C     -9.920060    1.100740   -1.090020
  S    -10.956600    0.407210    0.117720
  C    -11.554710    1.993700    0.476900
  N    -12.523230    2.122030    1.483050
  O    -12.934060    3.241120    1.726560
  O    -12.877770    1.098040    2.037630
  C    -10.991990    2.982010   -0.283690
  C    -10.039600    2.493320   -1.199930
  C     -9.266890    3.292640   -2.113690
  C     -9.374130    4.628380   -2.247710
  C     -8.535670    5.384100   -3.131530
  C     -8.539610    6.720810   -3.257930
  C     -9.474950    7.629630   -2.523260
  C     -7.508100    7.400710   -4.131850
  N     -8.079260    8.304900   -5.097080
  C     -8.219450    9.625340   -4.889760
  C     -8.908970   10.478450   -5.699460
  C     -9.006450   11.851150   -5.428840
  C     -9.656840   12.772790   -6.210270
  C     -9.812750   14.151500   -5.940250
  C    -10.498310   14.835970   -6.898400
  C    -10.911880   14.036730   -7.986900
  S    -10.424360   12.381120   -7.747210
  C    -11.590980   14.453670   -9.121700
  C    -12.048530   15.751310   -9.417730
  C    -12.664600   15.853110  -10.632980
  C    -12.713380   14.644730  -11.357380
  S    -11.977540   13.359810  -10.434940
  C    -13.257310   14.471150  -12.619610
  C    -13.217970   13.279800  -13.325150
  C    -13.730530   13.028650  -14.585530
  C    -14.658140   13.759580  -15.397780
  C    -15.649000   14.616880  -14.969710
  C    -16.538470   15.283460  -15.831830
  N    -17.275070   15.874060  -16.487500
  C    -15.971660   14.846910  -13.619080
  N    -16.316430   15.037520  -12.539630
  C    -14.517260   13.271230  -16.771110
  C    -13.669180   12.136700  -16.760070
  C    -13.192830   11.906610  -15.376610
  O    -12.474500   11.008110  -14.987280
  C    -13.363310   11.433500  -17.897860
  C    -13.910150   11.878350  -19.107750
  C    -14.745090   13.018060  -19.108920
  C    -15.063960   13.724900  -17.954240
  S    -15.300140   13.403050  -20.711000
  C    -14.416160   12.041340  -21.346990
  C    -13.739610   11.335210  -20.411600
  Br   -14.466940   11.683170  -23.188700
  H     -5.470780   -0.664930   -5.813250
  H     -6.303820   -5.254730   -3.982440
  H     -3.750860   -1.966730   -7.601410
  H     -9.506160   -1.529450   -1.029580
  H     -8.510030    0.782460   -2.570880
  H    -11.267620    4.013160   -0.164430
  H     -8.537110    2.774200   -2.721570
  H    -10.090490    5.173870   -1.654560
  H     -7.820490    4.807110   -3.704310
  H    -10.470530    7.200280   -2.450870
  H     -9.556250    8.591630   -3.024480
  H     -9.109120    7.807740   -1.511330
  H     -6.917020    6.647690   -4.660720
  H     -6.832370    7.979220   -3.492210
  H     -8.606500    7.891340   -5.852470
  H     -7.697170   10.014100   -4.024470
  H     -9.408120   10.097640   -6.579750
  H     -8.540000   12.222020   -4.524650
  H     -9.415300   14.594880   -5.044140
  H    -10.708590   15.888990   -6.855110
  H    -11.917960   16.574110   -8.738170
  H    -13.084910   16.760090  -11.029090
  H    -13.694040   15.349920  -13.071420
  H    -12.634920   12.466810  -12.902280
  H    -12.720850   10.567720  -17.860090
  H    -15.702130   14.591370  -18.006250
  H    -13.142950   10.468060  -20.628860

 Total Charge           Charge          ....    0
 Multiplicity           Mult            ....    1
 Number of Electrons    NEL             ....  570
 Basis Dimension        Dim             .... 1171

ORBITAL ENERGIES
----------------

  NO   OCC          E(Eh)            E(eV)
   0   2.0000    -482.895899    -13140.2655
   1   2.0000    -482.870063    -13139.5624
   2   2.0000     -89.001276     -2421.8478
   3   2.0000     -88.988374     -2421.4968
   4   2.0000     -88.959146     -2420.7014
   5   2.0000     -88.956127     -2420.6193
   6   2.0000     -88.950183     -2420.4575
   7   2.0000     -62.573623     -1702.7149
   8   2.0000     -62.547771     -1702.0114
   9   2.0000     -56.407590     -1534.9285
  10   2.0000     -56.404843     -1534.8538
  11   2.0000     -56.404817     -1534.8531
  12   2.0000     -56.381699     -1534.2240
  13   2.0000     -56.379030     -1534.1514
  14   2.0000     -56.378983     -1534.1501
  15   2.0000     -19.249579      -523.8077
  16   2.0000     -19.248543      -523.7795
  17   2.0000     -19.246329      -523.7192
  18   2.0000     -19.183311      -522.0044
  19   2.0000     -14.660902      -398.9434
  20   2.0000     -14.507720      -394.7751
  21   2.0000     -14.473180      -393.8352
  22   2.0000     -14.429980      -392.6597
  23   2.0000     -14.425241      -392.5308
  24   2.0000     -14.387203      -391.4957
  25   2.0000     -14.384043      -391.4097
  26   2.0000     -10.392773      -282.8017
  27   2.0000     -10.383984      -282.5626
  28   2.0000     -10.381922      -282.5064
  29   2.0000     -10.370844      -282.2050
  30   2.0000     -10.358863      -281.8790
  31   2.0000     -10.357716      -281.8478
  32   2.0000     -10.353847      -281.7425
  33   2.0000     -10.353762      -281.7402
  34   2.0000     -10.342570      -281.4356
  35   2.0000     -10.339533      -281.3530
  36   2.0000     -10.339196      -281.3438
  37   2.0000     -10.334559      -281.2177
  38   2.0000     -10.332152      -281.1521
  39   2.0000     -10.331087      -281.1232
  40   2.0000     -10.328139      -281.0429
  41   2.0000     -10.323234      -280.9095
  42   2.0000     -10.323200      -280.9086
  43   2.0000     -10.321186      -280.8538
  44   2.0000     -10.319533      -280.8088
  45   2.0000     -10.319293      -280.8022
  46   2.0000     -10.317899      -280.7643
  47   2.0000     -10.315841      -280.7083
  48   2.0000     -10.311542      -280.5913
  49   2.0000     -10.311399      -280.5874
  50   2.0000     -10.311077      -280.5787
  51   2.0000     -10.310627      -280.5664
  52   2.0000     -10.309919      -280.5472
  53   2.0000     -10.308911      -280.5197
  54   2.0000     -10.308610      -280.5115
  55   2.0000     -10.308388      -280.5055
  56   2.0000     -10.307700      -280.4868
  57   2.0000     -10.306210      -280.4462
  58   2.0000     -10.303404      -280.3699
  59   2.0000     -10.302092      -280.3342
  60   2.0000     -10.301451      -280.3167
  61   2.0000     -10.294503      -280.1277
  62   2.0000     -10.293808      -280.1087
  63   2.0000     -10.292122      -280.0629
  64   2.0000     -10.291832      -280.0550
  65   2.0000     -10.291021      -280.0329
  66   2.0000     -10.288148      -279.9547
  67   2.0000     -10.285972      -279.8955
  68   2.0000     -10.284730      -279.8617
  69   2.0000     -10.284430      -279.8536
  70   2.0000     -10.282901      -279.8120
  71   2.0000     -10.281001      -279.7603
  72   2.0000     -10.278512      -279.6925
  73   2.0000     -10.277718      -279.6709
  74   2.0000     -10.277465      -279.6640
  75   2.0000     -10.266795      -279.3737
  76   2.0000     -10.263834      -279.2931
  77   2.0000     -10.258267      -279.1416
  78   2.0000      -8.803067      -239.5436
  79   2.0000      -8.777181      -238.8392
  80   2.0000      -8.096494      -220.3168
  81   2.0000      -8.084305      -219.9851
  82   2.0000      -8.055306      -219.1960
  83   2.0000      -8.052082      -219.1083
  84   2.0000      -8.046346      -218.9522
  85   2.0000      -6.639448      -180.6686
  86   2.0000      -6.624776      -180.2693
  87   2.0000      -6.624538      -180.2628
  88   2.0000      -6.613386      -179.9594
  89   2.0000      -6.598931      -179.5660
  90   2.0000      -6.598812      -179.5628
  91   2.0000      -6.066116      -165.0674
  92   2.0000      -6.061768      -164.9491
  93   2.0000      -6.057990      -164.8463
  94   2.0000      -6.053992      -164.7375
  95   2.0000      -6.049665      -164.6197
  96   2.0000      -6.045581      -164.5086
  97   2.0000      -6.024913      -163.9462
  98   2.0000      -6.021787      -163.8611
  99   2.0000      -6.020957      -163.8386
 100   2.0000      -6.017526      -163.7452
 101   2.0000      -6.016428      -163.7153
 102   2.0000      -6.015895      -163.7008
 103   2.0000      -6.013306      -163.6304
 104   2.0000      -6.011930      -163.5929
 105   2.0000      -6.007581      -163.4746
 106   2.0000      -2.755252       -74.9742
 107   2.0000      -2.751174       -74.8633
 108   2.0000      -2.751076       -74.8606
 109   2.0000      -2.739374       -74.5422
 110   2.0000      -2.739343       -74.5413
 111   2.0000      -2.729265       -74.2671
 112   2.0000      -2.725221       -74.1570
 113   2.0000      -2.725109       -74.1540
 114   2.0000      -2.713625       -73.8415
 115   2.0000      -2.713622       -73.8414
 116   2.0000      -1.330702       -36.2102
 117   2.0000      -1.160588       -31.5812
 118   2.0000      -1.149981       -31.2926
 119   2.0000      -1.115708       -30.3600
 120   2.0000      -1.097186       -29.8560
 121   2.0000      -1.073085       -29.2001
 122   2.0000      -1.037037       -28.2192
 123   2.0000      -1.026456       -27.9313
 124   2.0000      -1.021869       -27.8065
 125   2.0000      -1.007040       -27.4030
 126   2.0000      -1.003732       -27.3129
 127   2.0000      -1.003326       -27.3019
 128   2.0000      -0.999298       -27.1923
 129   2.0000      -0.986297       -26.8385
 130   2.0000      -0.979781       -26.6612
 131   2.0000      -0.964930       -26.2571
 132   2.0000      -0.962391       -26.1880
 133   2.0000      -0.955657       -26.0047
 134   2.0000      -0.949187       -25.8287
 135   2.0000      -0.931081       -25.3360
 136   2.0000      -0.922417       -25.1002
 137   2.0000      -0.920749       -25.0549
 138   2.0000      -0.918319       -24.9887
 139   2.0000      -0.908627       -24.7250
 140   2.0000      -0.899870       -24.4867
 141   2.0000      -0.894452       -24.3393
 142   2.0000      -0.891457       -24.2578
 143   2.0000      -0.884096       -24.0575
 144   2.0000      -0.871409       -23.7122
 145   2.0000      -0.863748       -23.5038
 146   2.0000      -0.863078       -23.4855
 147   2.0000      -0.861855       -23.4523
 148   2.0000      -0.852831       -23.2067
 149   2.0000      -0.848616       -23.0920
 150   2.0000      -0.843433       -22.9510
 151   2.0000      -0.828263       -22.5382
 152   2.0000      -0.824869       -22.4458
 153   2.0000      -0.811853       -22.0916
 154   2.0000      -0.807387       -21.9701
 155   2.0000      -0.804526       -21.8923
 156   2.0000      -0.796580       -21.6760
 157   2.0000      -0.777686       -21.1619
 158   2.0000      -0.776125       -21.1194
 159   2.0000      -0.762650       -20.7528
 160   2.0000      -0.751512       -20.4497
 161   2.0000      -0.744935       -20.2707
 162   2.0000      -0.735354       -20.0100
 163   2.0000      -0.727727       -19.8024
 164   2.0000      -0.725269       -19.7356
 165   2.0000      -0.707109       -19.2414
 166   2.0000      -0.704516       -19.1708
 167   2.0000      -0.700419       -19.0594
 168   2.0000      -0.688553       -18.7365
 169   2.0000      -0.681278       -18.5385
 170   2.0000      -0.675694       -18.3866
 171   2.0000      -0.671643       -18.2763
 172   2.0000      -0.667275       -18.1575
 173   2.0000      -0.663342       -18.0505
 174   2.0000      -0.652234       -17.7482
 175   2.0000      -0.649903       -17.6848
 176   2.0000      -0.644701       -17.5432
 177   2.0000      -0.642201       -17.4752
 178   2.0000      -0.640665       -17.4334
 179   2.0000      -0.638080       -17.3630
 180   2.0000      -0.634331       -17.2610
 181   2.0000      -0.632047       -17.1989
 182   2.0000      -0.628355       -17.0984
 183   2.0000      -0.619339       -16.8531
 184   2.0000      -0.617175       -16.7942
 185   2.0000      -0.608673       -16.5628
 186   2.0000      -0.607392       -16.5280
 187   2.0000      -0.605587       -16.4789
 188   2.0000      -0.599071       -16.3016
 189   2.0000      -0.598330       -16.2814
 190   2.0000      -0.593776       -16.1575
 191   2.0000      -0.591770       -16.1029
 192   2.0000      -0.579515       -15.7694
 193   2.0000      -0.574962       -15.6455
 194   2.0000      -0.573400       -15.6030
 195   2.0000      -0.571167       -15.5422
 196   2.0000      -0.570900       -15.5350
 197   2.0000      -0.561140       -15.2694
 198   2.0000      -0.560487       -15.2516
 199   2.0000      -0.556784       -15.1509
 200   2.0000      -0.551696       -15.0124
 201   2.0000      -0.547655       -14.9024
 202   2.0000      -0.545725       -14.8499
 203   2.0000      -0.542150       -14.7527
 204   2.0000      -0.538013       -14.6401
 205   2.0000      -0.533367       -14.5137
 206   2.0000      -0.532871       -14.5002
 207   2.0000      -0.525050       -14.2873
 208   2.0000      -0.522222       -14.2104
 209   2.0000      -0.521730       -14.1970
 210   2.0000      -0.516681       -14.0596
 211   2.0000      -0.512653       -13.9500
 212   2.0000      -0.511293       -13.9130
 213   2.0000      -0.511184       -13.9100
 214   2.0000      -0.509524       -13.8648
 215   2.0000      -0.507479       -13.8092
 216   2.0000      -0.505399       -13.7526
 217   2.0000      -0.504534       -13.7291
 218   2.0000      -0.499620       -13.5953
 219   2.0000      -0.495409       -13.4808
 220   2.0000      -0.491348       -13.3703
 221   2.0000      -0.489806       -13.3283
 222   2.0000      -0.488857       -13.3025
 223   2.0000      -0.487314       -13.2605
 224   2.0000      -0.484811       -13.1924
 225   2.0000      -0.482229       -13.1221
 226   2.0000      -0.477672       -12.9981
 227   2.0000      -0.475846       -12.9484
 228   2.0000      -0.474781       -12.9194
 229   2.0000      -0.472356       -12.8535
 230   2.0000      -0.471894       -12.8409
 231   2.0000      -0.469839       -12.7850
 232   2.0000      -0.468239       -12.7414
 233   2.0000      -0.465671       -12.6715
 234   2.0000      -0.462595       -12.5879
 235   2.0000      -0.461430       -12.5562
 236   2.0000      -0.459636       -12.5073
 237   2.0000      -0.459041       -12.4912
 238   2.0000      -0.455039       -12.3823
 239   2.0000      -0.452172       -12.3042
 240   2.0000      -0.446543       -12.1511
 241   2.0000      -0.440699       -11.9920
 242   2.0000      -0.439738       -11.9659
 243   2.0000      -0.439462       -11.9584
 244   2.0000      -0.439333       -11.9549
 245   2.0000      -0.437001       -11.8914
 246   2.0000      -0.434653       -11.8275
 247   2.0000      -0.428255       -11.6534
 248   2.0000      -0.425372       -11.5750
 249   2.0000      -0.423978       -11.5370
 250   2.0000      -0.422209       -11.4889
 251   2.0000      -0.422064       -11.4849
 252   2.0000      -0.418614       -11.3911
 253   2.0000      -0.416019       -11.3204
 254   2.0000      -0.411723       -11.2036
 255   2.0000      -0.404545       -11.0082
 256   2.0000      -0.401765       -10.9326
 257   2.0000      -0.397893       -10.8272
 258   2.0000      -0.396194       -10.7810
 259   2.0000      -0.394329       -10.7302
 260   2.0000      -0.389266       -10.5925
 261   2.0000      -0.388502       -10.5717
 262   2.0000      -0.385334       -10.4855
 263   2.0000      -0.384737       -10.4692
 264   2.0000      -0.382597       -10.4110
 265   2.0000      -0.378023       -10.2865
 266   2.0000      -0.373735       -10.1698
 267   2.0000      -0.370056       -10.0697
 268   2.0000      -0.369103       -10.0438
 269   2.0000      -0.362814        -9.8727
 270   2.0000      -0.359852        -9.7921
 271   2.0000      -0.352775        -9.5995
 272   2.0000      -0.347198        -9.4477
 273   2.0000      -0.339986        -9.2515
 274   2.0000      -0.331310        -9.0154
 275   2.0000      -0.328084        -8.9276
 276   2.0000      -0.319412        -8.6916
 277   2.0000      -0.316223        -8.6049
 278   2.0000      -0.306579        -8.3424
 279   2.0000      -0.305958        -8.3255
 280   2.0000      -0.293268        -7.9802
 281   2.0000      -0.279445        -7.6041
 282   2.0000      -0.274714        -7.4753
 283   2.0000      -0.269263        -7.3270
 284   2.0000      -0.212462        -5.7814
 285   0.0000      -0.099878        -2.7178
 286   0.0000      -0.094064        -2.5596
 287   0.0000      -0.081619        -2.2210
 288   0.0000      -0.056096        -1.5264
 289   0.0000      -0.045383        -1.2349

MULLIKEN ATOMIC CHARGES
-----------------------
   0 C :    0.324803
   1 C :   -0.340522
   2 C :   -0.185695
   3 N :    0.156011
   4 C :   -0.195238
   5 N :    0.146826
   6 C :    0.008642
   7 C :   -0.007327
   8 C :   -0.062961
   9 C :    0.114897
  10 C :   -0.092503
  11 C :   -0.015955
  12 S :    0.196052
  13 C :   -0.124584
  14 C :    0.039852
  15 Br:    0.031585
  16 C :    0.165225
  17 O :   -0.228261
  18 C :   -0.125661
  19 C :    0.027510
  20 N :   -0.007706
  21 C :   -0.119690
  22 S :    0.180976
  23 C :    0.001223
  24 N :    0.277316
  25 O :   -0.245483
  26 O :   -0.252215
  27 C :    0.005768
  28 C :    0.140738
  29 C :   -0.036543
  30 C :    0.003750
  31 C :    0.011712
  32 C :   -0.198827
  33 C :    0.082901
  34 C :    0.203476
  35 N :   -0.138083
  36 C :    0.063878
  37 C :   -0.032605
  38 C :    0.009553
  39 C :   -0.050305
  40 C :    0.055681
  41 C :    0.007307
  42 C :   -0.023273
  43 S :    0.094340
  44 C :   -0.071003
  45 C :    0.038571
  46 C :    0.028272
  47 C :   -0.014219
  48 S :    0.105197
  49 C :   -0.009194
  50 C :    0.026470
  51 C :   -0.141625
  52 C :    0.289937
  53 C :   -0.358564
  54 C :   -0.180305
  55 N :    0.128084
  56 C :   -0.222414
  57 N :    0.151166
  58 C :    0.008101
  59 C :   -0.002595
  60 C :    0.136819
  61 O :   -0.168545
  62 C :   -0.081892
  63 C :    0.113932
  64 C :   -0.090366
  65 C :   -0.030268
  66 S :    0.172605
  67 C :   -0.124584
  68 C :    0.037480
  69 Br:    0.006032
  70 H :   -0.011880
  71 H :   -0.003400
  72 H :   -0.002756
  73 H :    0.047504
  74 H :    0.182894
  75 H :    0.011005
  76 H :   -0.008365
  77 H :   -0.014625
  78 H :   -0.022908
  79 H :    0.038161
  80 H :    0.016866
  81 H :    0.036747
  82 H :    0.016007
  83 H :    0.031198
  84 H :    0.131077
  85 H :    0.014861
  86 H :   -0.003696
  87 H :   -0.011016
  88 H :   -0.009456
  89 H :   -0.010428
  90 H :   -0.009026
  91 H :   -0.004132
  92 H :    0.003157
  93 H :    0.005989
  94 H :   -0.018524
  95 H :   -0.009427
  96 H :   -0.009504
Sum of atomic charges:   -0.0000000

LOEWDIN ATOMIC CHARGES
----------------------
   0 C :    0.078231
   1 C :   -0.145521
   2 C :   -0.020296
   3 N :   -0.049691
   4 C :   -0.020322
   5 N :   -0.050544
   6 C :   -0.018148
   7 C :   -0.052735
   8 C :    0.024443
   9 C :   -0.033490
  10 C :   -0.142971
  11 C :   -0.005918
  12 S :    0.441142
  13 C :   -0.269971
  14 C :   -0.070291
  15 Br:    0.142753
  16 C :    0.097661
  17 O :   -0.181931
  18 C :   -0.144891
  19 C :    0.112371
  20 N :    0.078315
  21 C :   -0.112384
  22 S :    0.476042
  23 C :   -0.199213
  24 N :    0.273533
  25 O :   -0.212473
  26 O :   -0.218375
  27 C :    0.002771
  28 C :   -0.086326
  29 C :   -0.025113
  30 C :   -0.016589
  31 C :   -0.043922
  32 C :   -0.041714
  33 C :   -0.054844
  34 C :    0.045748
  35 N :    0.019938
  36 C :    0.062989
  37 C :   -0.125009
  38 C :   -0.002451
  39 C :   -0.187315
  40 C :   -0.006873
  41 C :   -0.056377
  42 C :   -0.137773
  43 S :    0.386202
  44 C :   -0.210588
  45 C :   -0.006914
  46 C :   -0.050371
  47 C :   -0.098101
  48 S :    0.399857
  49 C :   -0.081122
  50 C :    0.050192
  51 C :   -0.121517
  52 C :    0.068024
  53 C :   -0.164571
  54 C :   -0.020324
  55 N :   -0.075998
  56 C :   -0.024443
  57 N :   -0.070508
  58 C :   -0.013831
  59 C :   -0.049427
  60 C :    0.076265
  61 O :   -0.168737
  62 C :    0.014235
  63 C :   -0.039785
  64 C :   -0.146337
  65 C :   -0.019064
  66 S :    0.422419
  67 C :   -0.278084
  68 C :   -0.071388
  69 Br:    0.123426
  70 H :    0.040810
  71 H :    0.042680
  72 H :    0.039182
  73 H :    0.036457
  74 H :    0.084159
  75 H :    0.044293
  76 H :    0.030701
  77 H :    0.025541
  78 H :    0.027263
  79 H :    0.037760
  80 H :    0.031621
  81 H :    0.042195
  82 H :    0.031577
  83 H :    0.036100
  84 H :    0.087527
  85 H :    0.031531
  86 H :    0.023182
  87 H :    0.035320
  88 H :    0.035202
  89 H :    0.032727
  90 H :    0.033676
  91 H :    0.037570
  92 H :    0.036413
  93 H :    0.031975
  94 H :    0.037355
  95 H :    0.039025
  96 H :    0.036185

  Mayer bond orders larger than 0.100000
B(  0-C ,  1-C ) :   1.6317 B(  0-C ,  6-C ) :   1.0067 B(  0-C , 18-C ) :   1.0941
B(  1-C ,  2-C ) :   1.1426 B(  1-C ,  4-C ) :   1.1480 B(  2-C ,  3-N ) :   2.9695
B(  4-C ,  5-N ) :   2.9533 B(  6-C ,  7-C ) :   1.2715 B(  6-C , 11-C ) :   1.4234
B(  7-C ,  8-C ) :   1.4227 B(  7-C , 16-C ) :   0.9845 B(  8-C ,  9-C ) :   1.2435
B(  8-C , 70-H ) :   1.0177 B(  9-C , 10-C ) :   1.3067 B(  9-C , 14-C ) :   1.1641
B( 10-C , 11-C ) :   1.3215 B( 10-C , 12-S ) :   1.0929 B( 11-C , 71-H ) :   0.9801
B( 12-S , 13-C ) :   1.0893 B( 13-C , 14-C ) :   1.6154 B( 13-C , 15-Br) :   1.0227
B( 14-C , 72-H ) :   1.0003 B( 16-C , 17-O ) :   2.0276 B( 16-C , 18-C ) :   1.0069
B( 17-O , 74-H ) :   0.1420 B( 18-C , 19-C ) :   1.4592 B( 19-C , 20-N ) :   1.3358
B( 19-C , 73-H ) :   0.9302 B( 20-N , 21-C ) :   1.1936 B( 20-N , 74-H ) :   0.8247
B( 21-C , 22-S ) :   1.1372 B( 21-C , 28-C ) :   1.3790 B( 22-S , 23-C ) :   1.0832
B( 23-C , 24-N ) :   0.9631 B( 23-C , 27-C ) :   1.5121 B( 24-N , 25-O ) :   1.5329
B( 24-N , 26-O ) :   1.5187 B( 25-O , 26-O ) :   0.2643 B( 27-C , 28-C ) :   1.2172
B( 27-C , 75-H ) :   0.9981 B( 28-C , 29-C ) :   1.0445 B( 29-C , 30-C ) :   1.7412
B( 29-C , 76-H ) :   0.9807 B( 30-C , 31-C ) :   1.0953 B( 30-C , 77-H ) :   0.9714
B( 31-C , 32-C ) :   1.7709 B( 31-C , 78-H ) :   0.9793 B( 32-C , 33-C ) :   1.0690
B( 32-C , 34-C ) :   1.0436 B( 33-C , 79-H ) :   0.9467 B( 33-C , 80-H ) :   0.9481
B( 33-C , 81-H ) :   0.9450 B( 34-C , 35-N ) :   0.9903 B( 34-C , 82-H ) :   0.9408
B( 34-C , 83-H ) :   0.9289 B( 35-N , 36-C ) :   1.2721 B( 35-N , 84-H ) :   0.9368
B( 36-C , 37-C ) :   1.5411 B( 36-C , 85-H ) :   0.9639 B( 37-C , 38-C ) :   1.2105
B( 37-C , 86-H ) :   0.9653 B( 38-C , 39-C ) :   1.5427 B( 38-C , 87-H ) :   0.9780
B( 39-C , 40-C ) :   1.1714 B( 39-C , 43-S ) :   1.0106 B( 40-C , 41-C ) :   1.5566
B( 40-C , 88-H ) :   0.9982 B( 41-C , 42-C ) :   1.2167 B( 41-C , 89-H ) :   0.9945
B( 42-C , 43-S ) :   1.0960 B( 42-C , 44-C ) :   1.4356 B( 44-C , 45-C ) :   1.2454
B( 44-C , 48-S ) :   1.0358 B( 45-C , 46-C ) :   1.5129 B( 45-C , 90-H ) :   0.9937
B( 46-C , 47-C ) :   1.2107 B( 46-C , 91-H ) :   1.0009 B( 47-C , 48-S ) :   1.0985
B( 47-C , 49-C ) :   1.4496 B( 49-C , 50-C ) :   1.2742 B( 49-C , 92-H ) :   0.9623
B( 50-C , 51-C ) :   1.4709 B( 50-C , 93-H ) :   0.9428 B( 51-C , 52-C ) :   1.1160
B( 51-C , 60-C ) :   0.9819 B( 52-C , 53-C ) :   1.5750 B( 52-C , 58-C ) :   0.9999
B( 53-C , 54-C ) :   1.1384 B( 53-C , 56-C ) :   1.1706 B( 54-C , 55-N ) :   2.9714
B( 56-C , 57-N ) :   3.0119 B( 58-C , 59-C ) :   1.2788 B( 58-C , 65-C ) :   1.4267
B( 59-C , 60-C ) :   0.9133 B( 59-C , 62-C ) :   1.4388 B( 60-C , 61-O ) :   2.2356
B( 62-C , 63-C ) :   1.2380 B( 62-C , 94-H ) :   1.0161 B( 63-C , 64-C ) :   1.3247
B( 63-C , 68-C ) :   1.1607 B( 64-C , 65-C ) :   1.3129 B( 64-C , 66-S ) :   1.0796
B( 65-C , 95-H ) :   0.9822 B( 66-S , 67-C ) :   1.0848 B( 67-C , 68-C ) :   1.6214
B( 67-C , 69-Br) :   1.0080 B( 68-C , 96-H ) :   1.0001

-----------------------------------------------------------------------------
         ABSORPTION SPECTRUM VIA TRANSITION ELECTRIC DIPOLE MOMENTS
-----------------------------------------------------------------------------
State   Energy  Wavelength   fosc         T2         TX        TY        TZ
        (cm-1)    (nm)                  (au**2)     (au)      (au)      (au)
-----------------------------------------------------------------------------
   0   12130.3    824.4   1.573848005  42.71355  -3.09678   1.77957  -5.47327
   1   17862.5    559.8   0.020207009   0.37242   0.07840  -0.59807  -0.09266
   2   21483.4    465.5   0.045789716   0.70168  -0.04216   0.77172  -0.32305
   3   21868.6    457.3   0.008946234   0.13468   0.14204  -0.22087  -0.25635
   4   22484.1    444.8   1.008501324  14.76648  -1.56434   3.24981   1.32590
   5   23849.3    419.3   0.018181547   0.25098  -0.29084  -0.28694   0.28992
   6   25138.5    397.8   0.167564673   2.19441   0.14309   1.35677  -0.57716
   7   25456.4    392.8   0.114893687   1.48585   0.78211  -0.40544  -0.84248
   8   25969.3    385.1   0.039301209   0.49822  -0.00942  -0.35942  -0.60741
   9   27246.6    367.0   0.546572402   6.60407  -0.30844   2.38480   0.90645
  10   28582.7    349.9   0.020407502   0.23505   0.00740  -0.40284   0.26966
  11   29169.7    342.8   0.350253449   3.95300  -1.25277  -0.25953   1.52191
  12   29715.0    336.5   0.055283339   0.61248  -0.53571   0.32179   0.47112
  13   29807.1    335.5   0.090169852   0.99590   0.52683  -0.52620  -0.66443
  14   30021.2    333.1   0.080435938   0.88206  -0.40890   0.77887   0.32898
  15   30404.7    328.9   0.058541330   0.63387   0.17009   0.72997  -0.26847
  16   30591.9    326.9   0.063190363   0.68002   0.55623   0.15763  -0.58803
  17   31124.3    321.3   0.069460036   0.73470  -0.47652   0.55158   0.45099
  18   31668.5    315.8   0.002573042   0.02675   0.00352   0.09096   0.13587
  19   32157.2    311.0   0.263437013   2.69696  -1.08160  -0.63383   1.06083
  20   32432.7    308.3   0.495849034   5.03318   0.66706  -1.23769  -1.74824
  21   32629.9    306.5   0.021986625   0.22183  -0.36001   0.29639   0.06618
  22   32974.8    303.3   0.007335008   0.07323  -0.18149  -0.05940   0.19173
  23   33443.0    299.0   0.149286770   1.46958   0.35566  -0.59304  -0.99568
  24   33669.3    297.0   0.075553505   0.73875  -0.08361   0.23139   0.82354
  25   33808.7    295.8   0.136071590   1.32500  -0.51049  -0.69710   0.76056
  26   33917.1    294.8   0.000400990   0.00389  -0.04286  -0.02739   0.03612
  27   34152.3    292.8   0.339044665   3.26823   1.07585   0.45660  -1.37924
  28   34507.9    289.8   0.221455141   2.11272  -0.41957   0.53970   1.28273
  29   34900.8    286.5   0.000135874   0.00128   0.00183   0.00137  -0.03573
  30   35203.8    284.1   0.165186396   1.54476  -0.84867  -0.11551   0.90065
  31   35605.5    280.9   0.169583650   1.56799  -0.25022   1.06781  -0.60429
  32   36453.7    274.3   0.000163421   0.00148   0.00033   0.03667   0.01144
  33   36582.1    273.4   0.064212084   0.57786   0.64660  -0.38761  -0.09762
  34   36833.9    271.5   0.008801519   0.07867  -0.22237   0.15355   0.07511
  35   37353.1    267.7   0.007383552   0.06508  -0.02441   0.12951  -0.21842
  36   37419.8    267.2   0.014102561   0.12407   0.15794  -0.09175   0.30118
  37   37506.6    266.6   0.088328794   0.77530   0.38236   0.78717  -0.09728
  38   37721.3    265.1   0.468532167   4.08910  -0.71629  -1.59331   1.01853
  39   38125.4    262.3   0.003238548   0.02796  -0.07668  -0.13851  -0.05386
  40   38185.2    261.9   0.271140774   2.33763  -0.60327   1.28323   0.57186
  41   38232.0    261.6   0.074217544   0.63908   0.24357  -0.36209  -0.66981
  42   38896.4    257.1   0.089626162   0.75858  -0.47454   0.72997  -0.02321
  43   39113.0    255.7   0.019915037   0.16762   0.09418  -0.38207   0.11303
  44   39499.4    253.2   0.070390881   0.58668  -0.18978  -0.64722   0.36300
  45   40296.5    248.2   0.201537492   1.64651  -0.05928   1.24145  -0.31906

FINAL SINGLE POINT ENERGY     -9816.626985666824

DIPOLE MOMENT
-------------
                                X             Y             Z
Electronic contribution:     25.33528     -94.86424    -184.48408
Nuclear contribution   :    -18.55665      93.83312     187.47346
                        -----------------------------------------
Total Dipole Moment    :      6.77862      -1.03112       2.98938
                        -----------------------------------------
Magnitude (a.u.)       :      7.47993
Magnitude (Debye)      :     19.01247

Rotational constants in cm-1:     0.000575     0.000145     0.000124
Rotational constants in MHz :    17.247604     4.350383     3.730060

                             ****ORCA TERMINATED NORMALLY****
TOTAL RUN TIME: 0 days 0 hours 15 minutes 9 seconds 361 msec
