                         Program Version 4.2.0 -  RELEASE  -
|  1> # ORCA input file
|  2> # SCF done       -170.981451598216          0.000733015712
|  3> ! CAM-B3LYP def2-SVP def2/J RIJCOSX Grid4 TightSCF
|  4> %maxcore 5000
|  5> %tddft
|  6>     Mode sTDDFT
|  7>     Ethresh 5.0
|  8>     maxcore 5000
|  9> end
| 10>
| 11> %pal
| 12>   nprocs 6
| 13>   end
| 14> * xyz 0 1
| 15>    C        2.10226       -17.01539        11.84938
| 16>    C        3.11260       -16.90708        10.97337
| 17>    C        3.56360       -17.88054        10.02422
| 18>    C        4.61406       -17.47861         9.26966
| 19>    C        5.07318       -16.16744         9.55801
| 20>    S        4.11663       -15.45450        10.83644
| 21>    C        6.11460       -15.49255         8.94855
| 22>    C        6.95412       -15.94847         7.91269
| 23>    C        7.88674       -15.03079         7.51540
| 24>    C        7.83187       -13.81088         8.21310
| 25>    S        6.55384       -13.86081         9.40848
| 26>    C        8.63614       -12.69949         8.00280
| 27>    C        8.54089       -11.51185         8.69791
| 28>    C        9.31384       -10.38657         8.44206
| 29>    C        9.23976        -9.14182         9.08783
| 30>    C       10.09270        -8.19424         8.58547
| 31>    C       10.88378        -8.65489         7.52000
| 32>    S       10.52715       -10.33414         7.18105
| 33>    C       11.80112        -7.94256         6.76071
| 34>    C       12.11960        -6.57232         6.83617
| 35>    C       13.00901        -6.14990         5.89195
| 36>    C       13.45050        -7.17119         5.01785
| 37>    S       12.69833        -8.70500         5.46761
| 38>    C       14.27663        -7.04741         3.93804
| 39>    N       14.66428        -8.11263         3.19331
| 40>    C       15.12738        -8.09847         1.91756
| 41>    S       15.33139        -9.62560         1.11027
| 42>    C       15.71967        -8.78708        -0.35907
| 43>    N       16.00198        -9.55237        -1.48294
| 44>    O       16.26267        -8.96980        -2.52399
| 45>    O       15.96015       -10.76856        -1.34471
| 46>    C       15.69333        -7.41926        -0.21361
| 47>    C       15.37466        -7.00898         1.08428
| 48>    C       15.32813        -5.58928         1.45322
| 49>    C       14.43090        -4.72252         0.97560
| 50>    C       13.24924        -5.06247         0.20823
| 51>    C       12.78773        -4.19932        -0.79704
| 52>    C       11.61238        -4.48344        -1.59039
| 53>    N       11.28671        -3.65578        -2.59021
| 54>    C       12.00527        -2.58088        -2.81382
| 55>    C       13.12774        -2.26522        -1.98054
| 56>    N       13.49438        -3.07122        -1.01944
| 57>    C       13.84872        -1.06307        -2.19273
| 58>    N       14.40419        -0.08112        -2.39279
| 59>    C       11.64170        -1.72593        -3.88095
| 60>    N       11.35593        -1.00866        -4.72821
| 61>    C       10.80544        -5.63030        -1.35679
| 62>    C       11.24856        -6.46437        -0.30080
| 63>    C       12.44759        -6.18610         0.46145
| 64>    N       12.62534        -7.07287         1.44628
| 65>    S       11.42931        -8.14706         1.40866
| 66>    N       10.62347        -7.54960         0.15997
| 67>    C        9.62624        -5.92757        -2.10473
| 68>    C        8.92821        -5.07279        -2.98681
| 69>    C        7.81635        -5.75978        -3.49795
| 70>    C        6.82074        -5.36767        -4.38546
| 71>    C        5.83488        -6.29635        -4.69710
| 72>    C        4.71378        -6.21882        -5.53831
| 73>    C        4.02777        -7.45188        -5.50223
| 74>    C        4.71996        -8.30817        -4.63682
| 75>    C        5.84514        -7.62881        -4.11840
| 76>    C        6.83344        -8.02193        -3.23689
| 77>    C        7.82475        -7.08916        -2.91852
| 78>    C        8.93145        -7.16818        -2.07400
| 79>    C        2.82417        -7.80984        -6.21374
| 80>    C        2.15580        -7.01925        -7.04939
| 81>    H        1.51564       -17.91545        11.90114
| 82>    H        1.84829       -16.21639        12.52132
| 83>    H        3.08110       -18.83848         9.94725
| 84>    H        5.07804       -18.08084         8.50889
| 85>    H        6.85371       -16.92973         7.48544
| 86>    H        8.60992       -15.19996         6.73699
| 87>    H        9.38210       -12.78025         7.22159
| 88>    H        7.80496       -11.43122         9.48798
| 89>    H        8.55582        -8.97022         9.90022
| 90>    H       10.16310        -7.18791         8.95703
| 91>    H       11.67310        -5.93005         7.57351
| 92>    H       13.35546        -5.13746         5.78914
| 93>    H       14.61972        -6.07648         3.62081
| 94>    H       14.37675        -9.01997         3.54461
| 95>    H       15.90645        -6.74690        -1.02510
| 96>    H       16.14914        -5.23157         2.06317
| 97>    H       14.56825        -3.66338         1.14725
| 98>    H        9.19469        -4.06017        -3.21726
| 99>    H        6.81660        -4.37739        -4.81851
|100>    H        4.42924        -5.35656        -6.11224
|101>    H        4.44110        -9.32017        -4.40412
|102>    H        6.84335        -9.01194        -2.80325
|103>    H        9.22695        -8.02353        -1.49803
|104>    H        2.46678        -8.81526        -6.02806
|105>    H        2.47446        -6.01455        -7.26748
|106>    H        1.26373        -7.35466        -7.54904
|107> *
|108>
|109>                          ****END OF INPUT****

CARTESIAN COORDINATES (ANGSTROEM)
---------------------------------
  C      2.102260  -17.015390   11.849380
  C      3.112600  -16.907080   10.973370
  C      3.563600  -17.880540   10.024220
  C      4.614060  -17.478610    9.269660
  C      5.073180  -16.167440    9.558010
  S      4.116630  -15.454500   10.836440
  C      6.114600  -15.492550    8.948550
  C      6.954120  -15.948470    7.912690
  C      7.886740  -15.030790    7.515400
  C      7.831870  -13.810880    8.213100
  S      6.553840  -13.860810    9.408480
  C      8.636140  -12.699490    8.002800
  C      8.540890  -11.511850    8.697910
  C      9.313840  -10.386570    8.442060
  C      9.239760   -9.141820    9.087830
  C     10.092700   -8.194240    8.585470
  C     10.883780   -8.654890    7.520000
  S     10.527150  -10.334140    7.181050
  C     11.801120   -7.942560    6.760710
  C     12.119600   -6.572320    6.836170
  C     13.009010   -6.149900    5.891950
  C     13.450500   -7.171190    5.017850
  S     12.698330   -8.705000    5.467610
  C     14.276630   -7.047410    3.938040
  N     14.664280   -8.112630    3.193310
  C     15.127380   -8.098470    1.917560
  S     15.331390   -9.625600    1.110270
  C     15.719670   -8.787080   -0.359070
  N     16.001980   -9.552370   -1.482940
  O     16.262670   -8.969800   -2.523990
  O     15.960150  -10.768560   -1.344710
  C     15.693330   -7.419260   -0.213610
  C     15.374660   -7.008980    1.084280
  C     15.328130   -5.589280    1.453220
  C     14.430900   -4.722520    0.975600
  C     13.249240   -5.062470    0.208230
  C     12.787730   -4.199320   -0.797040
  C     11.612380   -4.483440   -1.590390
  N     11.286710   -3.655780   -2.590210
  C     12.005270   -2.580880   -2.813820
  C     13.127740   -2.265220   -1.980540
  N     13.494380   -3.071220   -1.019440
  C     13.848720   -1.063070   -2.192730
  N     14.404190   -0.081120   -2.392790
  C     11.641700   -1.725930   -3.880950
  N     11.355930   -1.008660   -4.728210
  C     10.805440   -5.630300   -1.356790
  C     11.248560   -6.464370   -0.300800
  C     12.447590   -6.186100    0.461450
  N     12.625340   -7.072870    1.446280
  S     11.429310   -8.147060    1.408660
  N     10.623470   -7.549600    0.159970
  C      9.626240   -5.927570   -2.104730
  C      8.928210   -5.072790   -2.986810
  C      7.816350   -5.759780   -3.497950
  C      6.820740   -5.367670   -4.385460
  C      5.834880   -6.296350   -4.697100
  C      4.713780   -6.218820   -5.538310
  C      4.027770   -7.451880   -5.502230
  C      4.719960   -8.308170   -4.636820
  C      5.845140   -7.628810   -4.118400
  C      6.833440   -8.021930   -3.236890
  C      7.824750   -7.089160   -2.918520
  C      8.931450   -7.168180   -2.074000
  C      2.824170   -7.809840   -6.213740
  C      2.155800   -7.019250   -7.049390
  H      1.515640  -17.915450   11.901140
  H      1.848290  -16.216390   12.521320
  H      3.081100  -18.838480    9.947250
  H      5.078040  -18.080840    8.508890
  H      6.853710  -16.929730    7.485440
  H      8.609920  -15.199960    6.736990
  H      9.382100  -12.780250    7.221590
  H      7.804960  -11.431220    9.487980
  H      8.555820   -8.970220    9.900220
  H     10.163100   -7.187910    8.957030
  H     11.673100   -5.930050    7.573510
  H     13.355460   -5.137460    5.789140
  H     14.619720   -6.076480    3.620810
  H     14.376750   -9.019970    3.544610
  H     15.906450   -6.746900   -1.025100
  H     16.149140   -5.231570    2.063170
  H     14.568250   -3.663380    1.147250
  H      9.194690   -4.060170   -3.217260
  H      6.816600   -4.377390   -4.818510
  H      4.429240   -5.356560   -6.112240
  H      4.441100   -9.320170   -4.404120
  H      6.843350   -9.011940   -2.803250
  H      9.226950   -8.023530   -1.498030
  H      2.466780   -8.815260   -6.028060
  H      2.474460   -6.014550   -7.267480
  H      1.263730   -7.354660   -7.549040

 Total Charge           Charge          ....    0
 Multiplicity           Mult            ....    1
 Number of Electrons    NEL             ....  494
 Basis Dimension        Dim             .... 1078

ORBITAL ENERGIES
----------------

  NO   OCC          E(Eh)            E(eV)
   0   2.0000     -89.046290     -2423.0727
   1   2.0000     -88.976472     -2421.1729
   2   2.0000     -88.951208     -2420.4854
   3   2.0000     -88.941928     -2420.2329
   4   2.0000     -88.939327     -2420.1621
   5   2.0000     -88.934652     -2420.0349
   6   2.0000     -19.222870      -523.0809
   7   2.0000     -19.222439      -523.0691
   8   2.0000     -14.635149      -398.2426
   9   2.0000     -14.482715      -394.0947
  10   2.0000     -14.460935      -393.5020
  11   2.0000     -14.458855      -393.4454
  12   2.0000     -14.456075      -393.3698
  13   2.0000     -14.450581      -393.2203
  14   2.0000     -14.429748      -392.6534
  15   2.0000     -14.427363      -392.5885
  16   2.0000     -10.381440      -282.4933
  17   2.0000     -10.376198      -282.3507
  18   2.0000     -10.363613      -282.0083
  19   2.0000     -10.345502      -281.5154
  20   2.0000     -10.344755      -281.4951
  21   2.0000     -10.342856      -281.4434
  22   2.0000     -10.341247      -281.3996
  23   2.0000     -10.330291      -281.1015
  24   2.0000     -10.329552      -281.0814
  25   2.0000     -10.325079      -280.9597
  26   2.0000     -10.322693      -280.8948
  27   2.0000     -10.321432      -280.8604
  28   2.0000     -10.317393      -280.7505
  29   2.0000     -10.314955      -280.6842
  30   2.0000     -10.312584      -280.6197
  31   2.0000     -10.306639      -280.4579
  32   2.0000     -10.305638      -280.4307
  33   2.0000     -10.304831      -280.4087
  34   2.0000     -10.304358      -280.3958
  35   2.0000     -10.304222      -280.3921
  36   2.0000     -10.302382      -280.3421
  37   2.0000     -10.301789      -280.3259
  38   2.0000     -10.301382      -280.3149
  39   2.0000     -10.300500      -280.2908
  40   2.0000     -10.295279      -280.1488
  41   2.0000     -10.293555      -280.1019
  42   2.0000     -10.293007      -280.0870
  43   2.0000     -10.291697      -280.0513
  44   2.0000     -10.291106      -280.0352
  45   2.0000     -10.290565      -280.0205
  46   2.0000     -10.290286      -280.0129
  47   2.0000     -10.289367      -279.9879
  48   2.0000     -10.286125      -279.8997
  49   2.0000     -10.285800      -279.8908
  50   2.0000     -10.285060      -279.8707
  51   2.0000     -10.282855      -279.8107
  52   2.0000     -10.281394      -279.7710
  53   2.0000     -10.279554      -279.7209
  54   2.0000     -10.279004      -279.7059
  55   2.0000     -10.278813      -279.7007
  56   2.0000     -10.278515      -279.6926
  57   2.0000     -10.276298      -279.6323
  58   2.0000     -10.275927      -279.6222
  59   2.0000     -10.275018      -279.5974
  60   2.0000     -10.274843      -279.5927
  61   2.0000     -10.274290      -279.5776
  62   2.0000     -10.273144      -279.5465
  63   2.0000     -10.272046      -279.5166
  64   2.0000     -10.265681      -279.3434
  65   2.0000     -10.264784      -279.3190
  66   2.0000      -8.137301      -221.4272
  67   2.0000      -8.072339      -219.6595
  68   2.0000      -8.047621      -218.9869
  69   2.0000      -8.038229      -218.7313
  70   2.0000      -8.035589      -218.6595
  71   2.0000      -8.031439      -218.5466
  72   2.0000      -6.108304      -166.2154
  73   2.0000      -6.100580      -166.0052
  74   2.0000      -6.100240      -165.9960
  75   2.0000      -6.042072      -164.4131
  76   2.0000      -6.037701      -164.2942
  77   2.0000      -6.033608      -164.1828
  78   2.0000      -6.017395      -163.7416
  79   2.0000      -6.013512      -163.6360
  80   2.0000      -6.008390      -163.4966
  81   2.0000      -6.007885      -163.4829
  82   2.0000      -6.005254      -163.4113
  83   2.0000      -6.003970      -163.3763
  84   2.0000      -6.001325      -163.3044
  85   2.0000      -6.001233      -163.3018
  86   2.0000      -5.999246      -163.2478
  87   2.0000      -5.997322      -163.1954
  88   2.0000      -5.996592      -163.1756
  89   2.0000      -5.992009      -163.0509
  90   2.0000      -1.301861       -35.4254
  91   2.0000      -1.141521       -31.0624
  92   2.0000      -1.120679       -30.4952
  93   2.0000      -1.117898       -30.4195
  94   2.0000      -1.088968       -29.6323
  95   2.0000      -1.045137       -28.4396
  96   2.0000      -1.012757       -27.5585
  97   2.0000      -1.003975       -27.3196
  98   2.0000      -1.000924       -27.2365
  99   2.0000      -0.999678       -27.2026
 100   2.0000      -0.994516       -27.0622
 101   2.0000      -0.991076       -26.9685
 102   2.0000      -0.988037       -26.8858
 103   2.0000      -0.980098       -26.6698
 104   2.0000      -0.970757       -26.4156
 105   2.0000      -0.966566       -26.3016
 106   2.0000      -0.964767       -26.2526
 107   2.0000      -0.918900       -25.0045
 108   2.0000      -0.909218       -24.7411
 109   2.0000      -0.902689       -24.5634
 110   2.0000      -0.900812       -24.5124
 111   2.0000      -0.891383       -24.2558
 112   2.0000      -0.879985       -23.9456
 113   2.0000      -0.876075       -23.8392
 114   2.0000      -0.869644       -23.6642
 115   2.0000      -0.858810       -23.3694
 116   2.0000      -0.854788       -23.2600
 117   2.0000      -0.844487       -22.9797
 118   2.0000      -0.839645       -22.8479
 119   2.0000      -0.838486       -22.8164
 120   2.0000      -0.831484       -22.6258
 121   2.0000      -0.827038       -22.5048
 122   2.0000      -0.819637       -22.3035
 123   2.0000      -0.813594       -22.1390
 124   2.0000      -0.810377       -22.0515
 125   2.0000      -0.801371       -21.8064
 126   2.0000      -0.796049       -21.6616
 127   2.0000      -0.782730       -21.2992
 128   2.0000      -0.771209       -20.9857
 129   2.0000      -0.762612       -20.7517
 130   2.0000      -0.757671       -20.6173
 131   2.0000      -0.745098       -20.2751
 132   2.0000      -0.736682       -20.0461
 133   2.0000      -0.730326       -19.8732
 134   2.0000      -0.713389       -19.4123
 135   2.0000      -0.706403       -19.2222
 136   2.0000      -0.697002       -18.9664
 137   2.0000      -0.689574       -18.7643
 138   2.0000      -0.684028       -18.6134
 139   2.0000      -0.681023       -18.5316
 140   2.0000      -0.678909       -18.4741
 141   2.0000      -0.670356       -18.2413
 142   2.0000      -0.665752       -18.1160
 143   2.0000      -0.657506       -17.8916
 144   2.0000      -0.652273       -17.7493
 145   2.0000      -0.644738       -17.5442
 146   2.0000      -0.636473       -17.3193
 147   2.0000      -0.634088       -17.2544
 148   2.0000      -0.631173       -17.1751
 149   2.0000      -0.626864       -17.0578
 150   2.0000      -0.622473       -16.9384
 151   2.0000      -0.621955       -16.9243
 152   2.0000      -0.618464       -16.8293
 153   2.0000      -0.617647       -16.8070
 154   2.0000      -0.616462       -16.7748
 155   2.0000      -0.609929       -16.5970
 156   2.0000      -0.604222       -16.4417
 157   2.0000      -0.598453       -16.2847
 158   2.0000      -0.593521       -16.1505
 159   2.0000      -0.590115       -16.0578
 160   2.0000      -0.589688       -16.0462
 161   2.0000      -0.584999       -15.9186
 162   2.0000      -0.581291       -15.8177
 163   2.0000      -0.578518       -15.7423
 164   2.0000      -0.575101       -15.6493
 165   2.0000      -0.566766       -15.4225
 166   2.0000      -0.561078       -15.2677
 167   2.0000      -0.557752       -15.1772
 168   2.0000      -0.552179       -15.0255
 169   2.0000      -0.548507       -14.9256
 170   2.0000      -0.542196       -14.7539
 171   2.0000      -0.539065       -14.6687
 172   2.0000      -0.535732       -14.5780
 173   2.0000      -0.528259       -14.3747
 174   2.0000      -0.526308       -14.3216
 175   2.0000      -0.518338       -14.1047
 176   2.0000      -0.516339       -14.0503
 177   2.0000      -0.515308       -14.0223
 178   2.0000      -0.508768       -13.8443
 179   2.0000      -0.506284       -13.7767
 180   2.0000      -0.504714       -13.7340
 181   2.0000      -0.499373       -13.5886
 182   2.0000      -0.496088       -13.4992
 183   2.0000      -0.494956       -13.4684
 184   2.0000      -0.493290       -13.4231
 185   2.0000      -0.490831       -13.3562
 186   2.0000      -0.489965       -13.3326
 187   2.0000      -0.488603       -13.2956
 188   2.0000      -0.487747       -13.2723
 189   2.0000      -0.485212       -13.2033
 190   2.0000      -0.483531       -13.1575
 191   2.0000      -0.478686       -13.0257
 192   2.0000      -0.478094       -13.0096
 193   2.0000      -0.474069       -12.9001
 194   2.0000      -0.468638       -12.7523
 195   2.0000      -0.467842       -12.7306
 196   2.0000      -0.464993       -12.6531
 197   2.0000      -0.464273       -12.6335
 198   2.0000      -0.462450       -12.5839
 199   2.0000      -0.460262       -12.5244
 200   2.0000      -0.456623       -12.4253
 201   2.0000      -0.454996       -12.3811
 202   2.0000      -0.452892       -12.3238
 203   2.0000      -0.451171       -12.2770
 204   2.0000      -0.450257       -12.2521
 205   2.0000      -0.443969       -12.0810
 206   2.0000      -0.443154       -12.0588
 207   2.0000      -0.442070       -12.0293
 208   2.0000      -0.438235       -11.9250
 209   2.0000      -0.436723       -11.8839
 210   2.0000      -0.435387       -11.8475
 211   2.0000      -0.430769       -11.7218
 212   2.0000      -0.429733       -11.6936
 213   2.0000      -0.424486       -11.5508
 214   2.0000      -0.420623       -11.4457
 215   2.0000      -0.418523       -11.3886
 216   2.0000      -0.416706       -11.3392
 217   2.0000      -0.412935       -11.2365
 218   2.0000      -0.409541       -11.1442
 219   2.0000      -0.406011       -11.0481
 220   2.0000      -0.402429       -10.9507
 221   2.0000      -0.401111       -10.9148
 222   2.0000      -0.391333       -10.6487
 223   2.0000      -0.389925       -10.6104
 224   2.0000      -0.383007       -10.4222
 225   2.0000      -0.377512       -10.2726
 226   2.0000      -0.373936       -10.1753
 227   2.0000      -0.372606       -10.1391
 228   2.0000      -0.366388        -9.9699
 229   2.0000      -0.363655        -9.8956
 230   2.0000      -0.356737        -9.7073
 231   2.0000      -0.351887        -9.5753
 232   2.0000      -0.349418        -9.5081
 233   2.0000      -0.344938        -9.3862
 234   2.0000      -0.340110        -9.2549
 235   2.0000      -0.338674        -9.2158
 236   2.0000      -0.332300        -9.0423
 237   2.0000      -0.332164        -9.0386
 238   2.0000      -0.323942        -8.8149
 239   2.0000      -0.318678        -8.6717
 240   2.0000      -0.305291        -8.3074
 241   2.0000      -0.290455        -7.9037
 242   2.0000      -0.278048        -7.5661
 243   2.0000      -0.276314        -7.5189
 244   2.0000      -0.243900        -6.6369
 245   2.0000      -0.238279        -6.4839
 246   2.0000      -0.187098        -5.0912
 247   0.0000      -0.119560        -3.2534
 248   0.0000      -0.109159        -2.9704
 249   0.0000      -0.087104        -2.3702
 250   0.0000      -0.052445        -1.4271
 251   0.0000      -0.046165        -1.2562

MULLIKEN ATOMIC CHARGES
-----------------------
   0 C :   -0.033312
   1 C :   -0.063781
   2 C :    0.049028
   3 C :    0.026429
   4 C :   -0.065686
   5 S :    0.078246
   6 C :   -0.044255
   7 C :    0.018587
   8 C :    0.027416
   9 C :   -0.024601
  10 S :    0.074157
  11 C :   -0.016164
  12 C :   -0.013521
  13 C :   -0.023841
  14 C :    0.026256
  15 C :    0.016830
  16 C :   -0.044622
  17 S :    0.060659
  18 C :   -0.043300
  19 C :    0.016492
  20 C :    0.040688
  21 C :   -0.060476
  22 S :    0.023623
  23 C :    0.063928
  24 N :   -0.005333
  25 C :   -0.083651
  26 S :    0.145367
  27 C :   -0.021706
  28 N :    0.282547
  29 O :   -0.265552
  30 O :   -0.283145
  31 C :    0.021652
  32 C :    0.026893
  33 C :   -0.015964
  34 C :   -0.028068
  35 C :    0.004880
  36 C :   -0.044334
  37 C :   -0.090927
  38 N :    0.043246
  39 C :   -0.128107
  40 C :   -0.132811
  41 N :    0.055924
  42 C :   -0.211386
  43 N :    0.238280
  44 C :   -0.224104
  45 N :    0.230095
  46 C :    0.236842
  47 C :   -0.024248
  48 C :    0.052414
  49 N :   -0.291812
  50 S :    0.547092
  51 N :   -0.291146
  52 C :   -0.108872
  53 C :    0.001530
  54 C :    0.055562
  55 C :    0.021154
  56 C :    0.036270
  57 C :   -0.007711
  58 C :    0.056596
  59 C :   -0.015182
  60 C :    0.051501
  61 C :    0.016349
  62 C :    0.052839
  63 C :   -0.001737
  64 C :    0.010466
  65 C :   -0.019442
  66 H :    0.018829
  67 H :    0.021135
  68 H :   -0.014564
  69 H :   -0.013030
  70 H :   -0.018036
  71 H :   -0.015476
  72 H :   -0.010177
  73 H :   -0.007875
  74 H :   -0.014034
  75 H :   -0.017375
  76 H :   -0.014613
  77 H :   -0.013490
  78 H :    0.003044
  79 H :    0.134260
  80 H :    0.006956
  81 H :    0.027318
  82 H :    0.012038
  83 H :   -0.005150
  84 H :   -0.013154
  85 H :   -0.018036
  86 H :   -0.020121
  87 H :   -0.019179
  88 H :   -0.005811
  89 H :   -0.017974
  90 H :    0.009850
  91 H :    0.023628
Sum of atomic charges:   -0.0000000

LOEWDIN ATOMIC CHARGES
----------------------
   0 C :   -0.080640
   1 C :   -0.139166
   2 C :   -0.036098
   3 C :   -0.027405
   4 C :   -0.181593
   5 S :    0.352509
   6 C :   -0.179755
   7 C :   -0.038410
   8 C :   -0.037805
   9 C :   -0.148985
  10 S :    0.371250
  11 C :   -0.065648
  12 C :   -0.065830
  13 C :   -0.147490
  14 C :   -0.039856
  15 C :   -0.038328
  16 C :   -0.187677
  17 S :    0.364879
  18 C :   -0.175755
  19 C :   -0.045634
  20 C :   -0.030225
  21 C :   -0.194758
  22 S :    0.331341
  23 C :    0.008500
  24 N :    0.048478
  25 C :   -0.098537
  26 S :    0.437250
  27 C :   -0.226764
  28 N :    0.273876
  29 O :   -0.231299
  30 O :   -0.248954
  31 C :    0.005941
  32 C :   -0.112889
  33 C :   -0.024722
  34 C :   -0.004291
  35 C :   -0.055842
  36 C :    0.000981
  37 C :   -0.020702
  38 N :    0.012655
  39 C :   -0.042320
  40 C :   -0.023047
  41 N :   -0.004931
  42 C :   -0.034847
  43 N :   -0.004459
  44 C :   -0.039883
  45 N :   -0.014031
  46 C :    0.012544
  47 C :   -0.043591
  48 C :   -0.034440
  49 N :   -0.272005
  50 S :    0.675984
  51 N :   -0.274640
  52 C :   -0.076748
  53 C :    0.068020
  54 C :   -0.074684
  55 C :    0.099546
  56 C :   -0.067952
  57 C :    0.053878
  58 C :   -0.061521
  59 C :    0.038274
  60 C :   -0.068920
  61 C :    0.092325
  62 C :   -0.076977
  63 C :    0.065413
  64 C :   -0.023867
  65 C :   -0.046411
  66 H :    0.027874
  67 H :    0.025588
  68 H :    0.032192
  69 H :    0.031802
  70 H :    0.029798
  71 H :    0.032402
  72 H :    0.026257
  73 H :    0.028046
  74 H :    0.033041
  75 H :    0.030168
  76 H :    0.032206
  77 H :    0.033197
  78 H :    0.036282
  79 H :    0.078724
  80 H :    0.046396
  81 H :    0.034150
  82 H :    0.037844
  83 H :    0.027168
  84 H :    0.040172
  85 H :    0.027809
  86 H :    0.027227
  87 H :    0.038028
  88 H :    0.025979
  89 H :    0.029397
  90 H :    0.018936
  91 H :    0.026005

  Mayer bond orders larger than 0.100000
B(  0-C ,  1-C ) :   1.8515 B(  0-C , 66-H ) :   0.9510 B(  0-C , 67-H ) :   0.9418
B(  1-C ,  2-C ) :   1.0894 B(  1-C ,  5-S ) :   1.0091 B(  2-C ,  3-C ) :   1.6414
B(  2-C , 68-H ) :   0.9929 B(  3-C ,  4-C ) :   1.1704 B(  3-C , 69-H ) :   0.9928
B(  4-C ,  5-S ) :   1.0477 B(  4-C ,  6-C ) :   1.5106 B(  6-C ,  7-C ) :   1.2042
B(  6-C , 10-S ) :   1.0437 B(  7-C ,  8-C ) :   1.5534 B(  7-C , 70-H ) :   0.9938
B(  8-C ,  9-C ) :   1.1839 B(  8-C , 71-H ) :   1.0006 B(  9-C , 10-S ) :   1.0435
B(  9-C , 11-C ) :   1.5082 B( 11-C , 12-C ) :   1.2241 B( 11-C , 72-H ) :   0.9714
B( 12-C , 13-C ) :   1.5008 B( 12-C , 73-H ) :   0.9736 B( 13-C , 14-C ) :   1.1938
B( 13-C , 17-S ) :   1.0433 B( 14-C , 15-C ) :   1.5367 B( 14-C , 74-H ) :   1.0009
B( 15-C , 16-C ) :   1.2236 B( 15-C , 75-H ) :   0.9948 B( 16-C , 17-S ) :   1.0418
B( 16-C , 18-C ) :   1.4744 B( 18-C , 19-C ) :   1.2069 B( 18-C , 22-S ) :   1.0425
B( 19-C , 20-C ) :   1.5882 B( 19-C , 76-H ) :   0.9929 B( 20-C , 21-C ) :   1.1631
B( 20-C , 77-H ) :   0.9964 B( 21-C , 22-S ) :   0.9986 B( 21-C , 23-C ) :   1.5937
B( 23-C , 24-N ) :   1.1622 B( 23-C , 78-H ) :   0.9474 B( 24-N , 25-C ) :   1.2139
B( 24-N , 79-H ) :   0.9003 B( 25-C , 26-S ) :   1.1363 B( 25-C , 32-C ) :   1.3908
B( 26-S , 27-C ) :   1.0678 B( 27-C , 28-N ) :   0.9973 B( 27-C , 31-C ) :   1.4272
B( 28-N , 29-O ) :   1.5209 B( 28-N , 30-O ) :   1.4915 B( 29-O , 30-O ) :   0.2461
B( 31-C , 32-C ) :   1.3045 B( 31-C , 80-H ) :   1.0132 B( 32-C , 33-C ) :   0.9757
B( 33-C , 34-C ) :   1.8555 B( 33-C , 81-H ) :   0.9446 B( 34-C , 35-C ) :   1.0700
B( 34-C , 82-H ) :   0.9581 B( 35-C , 36-C ) :   1.3149 B( 35-C , 46-C ) :   0.1285
B( 35-C , 48-C ) :   1.2312 B( 36-C , 37-C ) :   1.0874 B( 36-C , 41-N ) :   1.4465
B( 37-C , 38-N ) :   1.4622 B( 37-C , 46-C ) :   1.2318 B( 38-N , 39-C ) :   1.7163
B( 39-C , 40-C ) :   1.2040 B( 39-C , 44-C ) :   1.1478 B( 40-C , 41-N ) :   1.7536
B( 40-C , 42-C ) :   1.1550 B( 42-C , 43-N ) :   3.0504 B( 44-C , 45-N ) :   3.0452
B( 46-C , 47-C ) :   1.1998 B( 46-C , 52-C ) :   1.1137 B( 47-C , 48-C ) :   1.0940
B( 47-C , 51-N ) :   1.5053 B( 48-C , 49-N ) :   1.4909 B( 49-N , 50-S ) :   1.2714
B( 49-N , 51-N ) :   0.1504 B( 50-S , 51-N ) :   1.2922 B( 52-C , 53-C ) :   1.3164
B( 52-C , 63-C ) :   1.2429 B( 53-C , 54-C ) :   1.2051 B( 53-C , 83-H ) :   1.0079
B( 54-C , 55-C ) :   1.2832 B( 54-C , 62-C ) :   1.1429 B( 55-C , 56-C ) :   1.2590
B( 55-C , 84-H ) :   1.0047 B( 56-C , 57-C ) :   1.2827 B( 56-C , 60-C ) :   1.1325
B( 57-C , 58-C ) :   1.2780 B( 57-C , 85-H ) :   1.0094 B( 58-C , 59-C ) :   1.3686
B( 58-C , 64-C ) :   1.0774 B( 59-C , 60-C ) :   1.1831 B( 59-C , 86-H ) :   1.0158
B( 60-C , 61-C ) :   1.3491 B( 61-C , 62-C ) :   1.2057 B( 61-C , 87-H ) :   1.0048
B( 62-C , 63-C ) :   1.2967 B( 63-C , 88-H ) :   1.0011 B( 64-C , 65-C ) :   1.9418
B( 64-C , 89-H ) :   0.9664 B( 65-C , 90-H ) :   0.9533 B( 65-C , 91-H ) :   0.9495

-----------------------------------------------------------------------------
         ABSORPTION SPECTRUM VIA TRANSITION ELECTRIC DIPOLE MOMENTS
-----------------------------------------------------------------------------
State   Energy  Wavelength   fosc         T2         TX        TY        TZ
        (cm-1)    (nm)                  (au**2)     (au)      (au)      (au)
-----------------------------------------------------------------------------
   0    3552.3   2815.1   0.041874402   3.88074  -0.27422  -0.99641   1.67712
   1    7072.2   1414.0   0.003164685   0.14732   0.31104   0.17178   0.14513
   2    8657.7   1155.0   0.005344876   0.20324  -0.04273  -0.17505   0.41324
   3   10167.1    983.6   1.285943461  41.63899  -3.31088  -3.89444   3.93832
   4   11657.8    857.8   0.848389773  23.95829  -4.36150  -2.16794  -0.48540
   5   14452.0    691.9   0.004063339   0.09256  -0.08298   0.21986  -0.19323
   6   17508.9    571.1   0.006752105   0.12696   0.27719   0.08368   0.20766
   7   17545.7    569.9   0.035591935   0.66782  -0.12646  -0.63861  -0.49396
   8   19649.3    508.9   0.114347771   1.91582  -0.21816  -0.93638  -0.99570
   9   19814.1    504.7   0.059690064   0.99175   0.16951   0.60821   0.77013
  10   20326.0    492.0   0.093565425   1.51544   1.04467   0.19364   0.62179
  11   20807.4    480.6   0.094290980   1.49186  -0.28052  -0.88636  -0.79218
  12   21038.1    475.3   0.024243595   0.37937  -0.38718   0.39506   0.27091
  13   21819.8    458.3   0.020077843   0.30293  -0.41040   0.22911   0.28638
  14   22970.0    435.4   0.206667792   2.96202  -1.27741  -0.75036  -0.87591
  15   23175.9    431.5   0.020899798   0.29688  -0.14454  -0.23710   0.46879
  16   23871.7    418.9   0.182016048   2.51017   1.32720  -0.14768   0.85259
  17   24037.9    416.0   0.139595052   1.91183  -0.91713  -0.83197  -0.61525
  18   25677.7    389.4   0.025419903   0.32591   0.37977  -0.41334   0.10407
  19   25865.4    386.6   0.070110499   0.89236   0.75977   0.53814   0.15971
  20   26661.0    375.1   0.006845367   0.08453   0.27811   0.01867  -0.08267
  21   26751.6    373.8   0.076264377   0.93853  -0.77772   0.17840  -0.54942
  22   27295.2    366.4   0.086842985   1.04743  -0.04013  -0.73216  -0.71397
  23   27409.6    364.8   0.001694195   0.02035   0.06297   0.05764   0.11429
  24   27813.1    359.5   0.020556871   0.24332  -0.03924   0.29161   0.39591
  25   28388.9    352.3   0.016822137   0.19508   0.10949  -0.40202   0.14652
  26   29340.2    340.8   0.286950172   3.21973  -0.79581   0.69293   1.45130
  27   29831.3    335.2   0.205596168   2.26892  -0.58056   0.70558   1.19751
  28   29951.7    333.9   0.021554819   0.23692  -0.07180  -0.20729  -0.43450
  29   30122.7    332.0   0.040737036   0.44522  -0.38060  -0.53170   0.13287
  30   30664.4    326.1   0.209679905   2.25112  -1.07907  -1.03458   0.12796
  31   30968.8    322.9   0.002736162   0.02909  -0.02545   0.04525   0.16245
  32   31232.1    320.2   0.134030168   1.41279   0.92352   0.67251   0.32808
  33   31672.4    315.7   0.051643507   0.53680   0.41452  -0.50783  -0.32724
  34   31879.3    313.7   0.045295149   0.46775  -0.06441   0.68009   0.03285
  35   31934.9    313.1   0.303499342   3.12872   0.98710   1.28142  -0.71577
  36   32305.0    309.5   0.083959031   0.85560   0.51712  -0.19474   0.74180
  37   32490.8    307.8   0.134306623   1.36086  -0.62448   0.26434  -0.94921
  38   32549.1    307.2   0.168262743   1.70186   0.85660  -0.09184   0.97962
  39   32614.6    306.6   0.249492606   2.51838  -0.68002   0.49605  -1.34532
  40   32959.8    303.4   0.336133563   3.35740  -1.47330   0.48546  -0.97525
  41   33182.6    301.4   0.011400856   0.11311  -0.14286   0.14660  -0.26685
  42   33388.4    299.5   0.219576296   2.16504   1.26698   0.45341   0.59516
  43   33779.3    296.0   0.007416828   0.07228  -0.24772  -0.07490  -0.07287
  44   33932.8    294.7   0.381512475   3.70138   1.75608   0.37747   0.68927
  45   34089.0    293.3   0.009966035   0.09625   0.26465   0.04782   0.15466
  46   34347.5    291.1   0.029340884   0.28122  -0.32048   0.09959   0.41061
  47   34397.3    290.7   0.073199822   0.70058  -0.14938  -0.82028   0.07353
  48   34789.0    287.4   0.014705872   0.13916   0.36661   0.05302  -0.04416
  49   35195.4    284.1   0.013819815   0.12927  -0.19134   0.10954   0.28401
  50   35321.4    283.1   0.012064780   0.11245   0.23601  -0.16201   0.17466
  51   35629.2    280.7   0.005141202   0.04750   0.20514  -0.05376   0.05031
  52   35698.7    280.1   0.010752938   0.09916  -0.08111   0.30155   0.04067
  53   36099.0    277.0   0.028408748   0.25908   0.47975   0.05430   0.16114
  54   36347.0    275.1   0.038860981   0.35198   0.34024  -0.30704   0.37676
  55   36487.4    274.1   0.008840657   0.07977  -0.23492   0.13104  -0.08606
  56   36613.6    273.1   0.149097053   1.34061   0.25578   0.92918   0.64173
  57   36721.9    272.3   0.001298659   0.01164   0.09075   0.02560   0.05245
  58   36880.1    271.1   0.003574080   0.03190   0.16607   0.00887  -0.06516
  59   36887.5    271.1   0.015792686   0.14095   0.10733  -0.16313   0.32065
  60   37284.3    268.2   0.041042686   0.36240   0.56297  -0.19383   0.08882
  61   37404.2    267.3   0.015908701   0.14002   0.13298   0.23527  -0.25882
  62   37555.8    266.3   0.069061621   0.60539  -0.37814  -0.12473   0.66846
  63   37572.3    266.2   0.059868774   0.52458   0.43046   0.12198  -0.56956
  64   38118.5    262.3   0.306139700   2.64398  -0.06907   1.49193  -0.64293
  65   38198.9    261.8   0.002230169   0.01922   0.03154   0.12359  -0.05432
  66   38245.9    261.5   0.008034828   0.06916  -0.09783   0.01621  -0.24357
  67   38443.3    260.1   0.045056243   0.38584  -0.20225   0.42311  -0.40733
  68   38472.7    259.9   0.107752110   0.92204   0.22539   0.54514  -0.75767
  69   38653.2    258.7   0.366543624   3.12188   0.10579   1.33362  -1.15418
  70   38904.7    257.0   0.038471673   0.32555   0.50519   0.03122  -0.26335
  71   38942.3    256.8   0.023369138   0.19756  -0.28482   0.18059  -0.28952
  72   39072.4    255.9   0.008618526   0.07262  -0.08430   0.18746  -0.17426
  73   39454.8    253.5   0.057672206   0.48122  -0.38387  -0.25907  -0.51648
  74   39631.4    252.3   0.070257463   0.58362   0.17202  -0.29861   0.68181
  75   39912.8    250.5   0.000945947   0.00780   0.04151   0.01169   0.07709
  76   39920.6    250.5   0.003282816   0.02707   0.05610  -0.05957   0.14275
  77   40011.6    249.9   0.007086706   0.05831   0.00644  -0.16327   0.17779
  78   40057.8    249.6   0.030612407   0.25159   0.09198  -0.32619   0.36976
  79   40122.4    249.2   0.033765277   0.27705   0.12973   0.25256  -0.44321

FINAL SINGLE POINT ENERGY     -4894.324526773356

DIPOLE MOMENT
-------------
                                X             Y             Z
Electronic contribution:     46.89569      21.29185      -9.27875
Nuclear contribution   :    -49.70894     -22.56134      11.16407
                        -----------------------------------------
Total Dipole Moment    :     -2.81325      -1.26948       1.88532
                        -----------------------------------------
Magnitude (a.u.)       :      3.61668
Magnitude (Debye)      :      9.19287

Rotational constants in cm-1:     0.000959     0.000373     0.000301
Rotational constants in MHz :    28.743299    11.182833     9.014184

                             ****ORCA TERMINATED NORMALLY****
TOTAL RUN TIME: 0 days 0 hours 41 minutes 17 seconds 270 msec
