                         Program Version 4.2.0 -  RELEASE  -
|  1> # ORCA input file
|  2> # SCF done       -215.429569258873          0.000907090876
|  3> ! CAM-B3LYP def2-SVP def2/J RIJCOSX Grid4 TightSCF
|  4> %maxcore 5000
|  5> %tddft
|  6>     Mode sTDDFT
|  7>     Ethresh 5.0
|  8>     maxcore 5000
|  9> end
| 10>
| 11> %pal
| 12>   nprocs 6
| 13>   end
| 14> * xyz 0 1
| 15>    C       -3.86925        -4.84894        -6.00280
| 16>    C       -4.71606        -5.33251        -5.03773
| 17>    C       -5.64610        -4.54762        -4.33159
| 18>    N       -6.38610        -3.95666        -3.68120
| 19>    C       -4.78480        -6.69505        -4.67914
| 20>    N       -4.91943        -7.79881        -4.39184
| 21>    C       -3.99177        -3.54700        -6.65202
| 22>    C       -3.31431        -3.59043        -7.88484
| 23>    C       -3.30269        -2.50855        -8.74056
| 24>    C       -3.97257        -1.35333        -8.35358
| 25>    C       -4.63948        -1.30047        -7.12414
| 26>    C       -4.65868        -2.39640        -6.26837
| 27>   Cl       -5.45075         0.13794        -6.65451
| 28>   Cl       -3.97905         0.01416        -9.39117
| 29>    C       -2.66438        -4.91189        -8.04527
| 30>    O       -2.04254        -5.32428        -8.99567
| 31>    C       -2.89402        -5.60906        -6.75343
| 32>    C       -2.13544        -6.69590        -6.42903
| 33>    C       -1.88806        -7.23728        -5.14701
| 34>    S       -2.07266        -6.27128        -3.71031
| 35>    C       -1.56661        -7.57762        -2.70266
| 36>    C       -1.24463        -8.70047        -3.44546
| 37>    C       -1.41244        -8.50700        -4.83134
| 38>    C       -1.11629        -9.51466        -5.90219
| 39>    C       -1.14735       -10.94487        -5.40648
| 40>    S        0.01712       -11.02514        -4.01851
| 41>    O        0.09686       -12.36374        -3.50653
| 42>    O        1.24051       -10.37396        -4.39309
| 43>    C       -0.87186        -9.99704        -2.81384
| 44>    C       -1.63448        -7.34932        -1.27217
| 45>    C       -2.75255        -6.71374        -0.78981
| 46>    C       -2.86631        -6.40851         0.57956
| 47>    C       -3.86200        -5.76316         1.29519
| 48>    C       -5.22618        -5.34350         0.86039
| 49>    C       -5.24113        -4.54268        -0.45412
| 50>    N       -6.35491        -3.61083        -0.44814
| 51>    C       -6.12765        -6.58990         0.74640
| 52>    N       -6.22307        -7.27280         2.03166
| 53>    C       -3.39539        -5.68585         2.66016
| 54>    C       -3.94625        -5.10743         3.74159
| 55>    C       -3.30387        -5.18167         5.07826
| 56>    C       -2.00322        -5.93084         5.10526
| 57>    C       -1.44363        -6.45980         4.00179
| 58>    C       -2.09088        -6.35500         2.74643
| 59>    C       -1.76710        -6.77111         1.46994
| 60>    C       -0.62936        -7.42257         0.93846
| 61>    C       -0.56618        -7.70514        -0.38868
| 62>    C       -4.24446        -5.76830         6.09833
| 63>    C       -5.31635        -6.49979         5.77398
| 64>    C       -6.23428        -7.03999         6.73209
| 65>    S       -6.06459        -6.70008         8.41279
| 66>    C       -7.47540        -7.64838         8.78408
| 67>    C       -8.02433        -8.21511         7.61519
| 68>    C       -7.33677        -7.85068         6.45571
| 69>    C       -7.67568        -8.28753         5.06003
| 70>    C       -9.13623        -8.65282         4.90855
| 71>    S       -9.42083       -10.00076         6.08687
| 72>    O      -10.77465       -10.46495         6.00059
| 73>    O       -8.36730       -10.96544         5.94305
| 74>    C       -9.21204        -9.11374         7.66296
| 75>    C       -8.04488        -7.80456        10.05623
| 76>    C       -7.65935        -7.31513        11.27907
| 77>    C       -8.37465        -7.52302        12.52615
| 78>    C       -9.57829        -8.15391        12.70364
| 79>    C      -10.21265        -8.31064        13.95539
| 80>    N      -10.78072        -8.47437        14.93900
| 81>    C      -10.37054        -8.71883        11.68191
| 82>    N      -11.07403        -9.18967        10.90512
| 83>    C       -7.58995        -6.89704        13.58929
| 84>    C       -6.45010        -6.30204        13.02137
| 85>    C       -6.45215        -6.52870        11.56325
| 86>    O       -5.61197        -6.13829        10.77457
| 87>    C       -5.52161        -5.62510        13.78498
| 88>    C       -5.73370        -5.53866        15.15532
| 89>    C       -6.86467        -6.12882        15.73136
| 90>    C       -7.79792        -6.80943        14.95600
| 91>   Cl       -7.11552        -6.01563        17.42550
| 92>   Cl       -4.60391        -4.70468        16.14186
| 93>    H       -2.78739        -2.55961        -9.68661
| 94>    H       -5.17734        -2.32302        -5.32627
| 95>    H       -1.58500        -7.13319        -7.25562
| 96>    H       -0.10414        -9.31342        -6.27181
| 97>    H       -1.81488        -9.38992        -6.73221
| 98>    H       -0.82251       -11.64630        -6.16972
| 99>    H       -2.11731       -11.24166        -5.01819
|100>    H       -0.23113        -9.87138        -1.94643
|101>    H       -1.74837       -10.57488        -2.52232
|102>    H       -3.55272        -6.45913        -1.46708
|103>    H       -5.65319        -4.69541         1.63015
|104>    H       -5.27095        -5.23502        -1.31155
|105>    H       -4.32190        -3.95416        -0.52722
|106>    H       -7.23297        -4.11941        -0.41549
|107>    H       -6.35925        -3.07864        -1.31235
|108>    H       -5.73004        -7.23691        -0.05211
|109>    H       -7.13798        -6.28152         0.46528
|110>    H       -5.30290        -7.61562         2.29561
|111>    H       -6.82889        -8.08209         1.93657
|112>    H       -4.88371        -4.57214         3.68667
|113>    H       -3.09638        -4.14830         5.40276
|114>    H       -1.53079        -6.02019         6.07100
|115>    H       -0.49713        -6.97711         4.06175
|116>    H        0.19298        -7.67172         1.59243
|117>    H        0.32191        -8.15353        -0.80693
|118>    H       -3.99654        -5.59052         7.13563
|119>    H       -5.52949        -6.69924         4.73278
|120>    H       -7.08604        -9.18126         4.83084
|121>    H       -7.40393        -7.50998         4.34247
|122>    H       -9.36867        -9.01424         3.91118
|123>    H       -9.81359        -7.84852         5.17971
|124>    H       -9.11225        -9.88457         8.42532
|125>    H      -10.14505        -8.57596         7.82830
|126>    H       -8.94501        -8.40383        10.05153
|127>    H       -4.65483        -5.17562        13.32703
|128>    H       -8.65505        -7.25053        15.43725
|129> *
|130>
|131>                          ****END OF INPUT****

CARTESIAN COORDINATES (ANGSTROEM)
---------------------------------
  C     -3.869250   -4.848940   -6.002800
  C     -4.716060   -5.332510   -5.037730
  C     -5.646100   -4.547620   -4.331590
  N     -6.386100   -3.956660   -3.681200
  C     -4.784800   -6.695050   -4.679140
  N     -4.919430   -7.798810   -4.391840
  C     -3.991770   -3.547000   -6.652020
  C     -3.314310   -3.590430   -7.884840
  C     -3.302690   -2.508550   -8.740560
  C     -3.972570   -1.353330   -8.353580
  C     -4.639480   -1.300470   -7.124140
  C     -4.658680   -2.396400   -6.268370
  Cl    -5.450750    0.137940   -6.654510
  Cl    -3.979050    0.014160   -9.391170
  C     -2.664380   -4.911890   -8.045270
  O     -2.042540   -5.324280   -8.995670
  C     -2.894020   -5.609060   -6.753430
  C     -2.135440   -6.695900   -6.429030
  C     -1.888060   -7.237280   -5.147010
  S     -2.072660   -6.271280   -3.710310
  C     -1.566610   -7.577620   -2.702660
  C     -1.244630   -8.700470   -3.445460
  C     -1.412440   -8.507000   -4.831340
  C     -1.116290   -9.514660   -5.902190
  C     -1.147350  -10.944870   -5.406480
  S      0.017120  -11.025140   -4.018510
  O      0.096860  -12.363740   -3.506530
  O      1.240510  -10.373960   -4.393090
  C     -0.871860   -9.997040   -2.813840
  C     -1.634480   -7.349320   -1.272170
  C     -2.752550   -6.713740   -0.789810
  C     -2.866310   -6.408510    0.579560
  C     -3.862000   -5.763160    1.295190
  C     -5.226180   -5.343500    0.860390
  C     -5.241130   -4.542680   -0.454120
  N     -6.354910   -3.610830   -0.448140
  C     -6.127650   -6.589900    0.746400
  N     -6.223070   -7.272800    2.031660
  C     -3.395390   -5.685850    2.660160
  C     -3.946250   -5.107430    3.741590
  C     -3.303870   -5.181670    5.078260
  C     -2.003220   -5.930840    5.105260
  C     -1.443630   -6.459800    4.001790
  C     -2.090880   -6.355000    2.746430
  C     -1.767100   -6.771110    1.469940
  C     -0.629360   -7.422570    0.938460
  C     -0.566180   -7.705140   -0.388680
  C     -4.244460   -5.768300    6.098330
  C     -5.316350   -6.499790    5.773980
  C     -6.234280   -7.039990    6.732090
  S     -6.064590   -6.700080    8.412790
  C     -7.475400   -7.648380    8.784080
  C     -8.024330   -8.215110    7.615190
  C     -7.336770   -7.850680    6.455710
  C     -7.675680   -8.287530    5.060030
  C     -9.136230   -8.652820    4.908550
  S     -9.420830  -10.000760    6.086870
  O    -10.774650  -10.464950    6.000590
  O     -8.367300  -10.965440    5.943050
  C     -9.212040   -9.113740    7.662960
  C     -8.044880   -7.804560   10.056230
  C     -7.659350   -7.315130   11.279070
  C     -8.374650   -7.523020   12.526150
  C     -9.578290   -8.153910   12.703640
  C    -10.212650   -8.310640   13.955390
  N    -10.780720   -8.474370   14.939000
  C    -10.370540   -8.718830   11.681910
  N    -11.074030   -9.189670   10.905120
  C     -7.589950   -6.897040   13.589290
  C     -6.450100   -6.302040   13.021370
  C     -6.452150   -6.528700   11.563250
  O     -5.611970   -6.138290   10.774570
  C     -5.521610   -5.625100   13.784980
  C     -5.733700   -5.538660   15.155320
  C     -6.864670   -6.128820   15.731360
  C     -7.797920   -6.809430   14.956000
  Cl    -7.115520   -6.015630   17.425500
  Cl    -4.603910   -4.704680   16.141860
  H     -2.787390   -2.559610   -9.686610
  H     -5.177340   -2.323020   -5.326270
  H     -1.585000   -7.133190   -7.255620
  H     -0.104140   -9.313420   -6.271810
  H     -1.814880   -9.389920   -6.732210
  H     -0.822510  -11.646300   -6.169720
  H     -2.117310  -11.241660   -5.018190
  H     -0.231130   -9.871380   -1.946430
  H     -1.748370  -10.574880   -2.522320
  H     -3.552720   -6.459130   -1.467080
  H     -5.653190   -4.695410    1.630150
  H     -5.270950   -5.235020   -1.311550
  H     -4.321900   -3.954160   -0.527220
  H     -7.232970   -4.119410   -0.415490
  H     -6.359250   -3.078640   -1.312350
  H     -5.730040   -7.236910   -0.052110
  H     -7.137980   -6.281520    0.465280
  H     -5.302900   -7.615620    2.295610
  H     -6.828890   -8.082090    1.936570
  H     -4.883710   -4.572140    3.686670
  H     -3.096380   -4.148300    5.402760
  H     -1.530790   -6.020190    6.071000
  H     -0.497130   -6.977110    4.061750
  H      0.192980   -7.671720    1.592430
  H      0.321910   -8.153530   -0.806930
  H     -3.996540   -5.590520    7.135630
  H     -5.529490   -6.699240    4.732780
  H     -7.086040   -9.181260    4.830840
  H     -7.403930   -7.509980    4.342470
  H     -9.368670   -9.014240    3.911180
  H     -9.813590   -7.848520    5.179710
  H     -9.112250   -9.884570    8.425320
  H    -10.145050   -8.575960    7.828300
  H     -8.945010   -8.403830   10.051530
  H     -4.654830   -5.175620   13.327030
  H     -8.655050   -7.250530   15.437250

 Total Charge           Charge          ....    0
 Multiplicity           Mult            ....    1
 Number of Electrons    NEL             ....  606
 Basis Dimension        Dim             .... 1304

ORBITAL ENERGIES
----------------

  NO   OCC          E(Eh)            E(eV)
   0   2.0000    -101.607691     -2764.8858
   1   2.0000    -101.607562     -2764.8823
   2   2.0000    -101.605126     -2764.8160
   3   2.0000    -101.602954     -2764.7569
   4   2.0000     -89.140563     -2425.6380
   5   2.0000     -89.137491     -2425.5544
   6   2.0000     -88.977553     -2421.2023
   7   2.0000     -88.972151     -2421.0553
   8   2.0000     -19.231809      -523.3241
   9   2.0000     -19.228070      -523.2224
  10   2.0000     -19.197430      -522.3886
  11   2.0000     -19.193576      -522.2838
  12   2.0000     -19.192565      -522.2562
  13   2.0000     -19.188994      -522.1591
  14   2.0000     -14.435490      -392.8097
  15   2.0000     -14.427905      -392.6033
  16   2.0000     -14.427885      -392.6027
  17   2.0000     -14.421435      -392.4272
  18   2.0000     -14.402314      -391.9069
  19   2.0000     -14.373703      -391.1283
  20   2.0000     -10.380974      -282.4807
  21   2.0000     -10.379937      -282.4525
  22   2.0000     -10.365364      -282.0559
  23   2.0000     -10.364597      -282.0350
  24   2.0000     -10.361118      -281.9404
  25   2.0000     -10.360565      -281.9253
  26   2.0000     -10.357928      -281.8536
  27   2.0000     -10.357247      -281.8350
  28   2.0000     -10.352212      -281.6980
  29   2.0000     -10.351578      -281.6808
  30   2.0000     -10.338771      -281.3323
  31   2.0000     -10.334343      -281.2118
  32   2.0000     -10.332467      -281.1607
  33   2.0000     -10.332004      -281.1481
  34   2.0000     -10.330768      -281.1145
  35   2.0000     -10.330541      -281.1083
  36   2.0000     -10.326078      -280.9869
  37   2.0000     -10.324105      -280.9332
  38   2.0000     -10.323689      -280.9219
  39   2.0000     -10.321280      -280.8563
  40   2.0000     -10.321158      -280.8530
  41   2.0000     -10.320985      -280.8483
  42   2.0000     -10.319187      -280.7994
  43   2.0000     -10.319131      -280.7978
  44   2.0000     -10.318143      -280.7709
  45   2.0000     -10.318061      -280.7687
  46   2.0000     -10.316421      -280.7241
  47   2.0000     -10.315801      -280.7072
  48   2.0000     -10.315741      -280.7056
  49   2.0000     -10.315476      -280.6984
  50   2.0000     -10.314931      -280.6836
  51   2.0000     -10.313711      -280.6504
  52   2.0000     -10.311483      -280.5897
  53   2.0000     -10.311272      -280.5840
  54   2.0000     -10.310736      -280.5694
  55   2.0000     -10.309703      -280.5413
  56   2.0000     -10.308195      -280.5002
  57   2.0000     -10.307057      -280.4693
  58   2.0000     -10.306945      -280.4662
  59   2.0000     -10.306694      -280.4594
  60   2.0000     -10.306624      -280.4575
  61   2.0000     -10.303041      -280.3600
  62   2.0000     -10.301551      -280.3195
  63   2.0000     -10.297310      -280.2040
  64   2.0000     -10.297106      -280.1985
  65   2.0000     -10.294718      -280.1335
  66   2.0000     -10.289101      -279.9807
  67   2.0000     -10.287410      -279.9346
  68   2.0000     -10.286792      -279.9178
  69   2.0000     -10.286434      -279.9081
  70   2.0000     -10.286407      -279.9074
  71   2.0000     -10.285086      -279.8714
  72   2.0000     -10.285027      -279.8698
  73   2.0000     -10.279296      -279.7139
  74   2.0000     -10.278056      -279.6801
  75   2.0000     -10.277619      -279.6682
  76   2.0000     -10.275405      -279.6080
  77   2.0000     -10.273156      -279.5468
  78   2.0000      -9.562707      -260.2145
  79   2.0000      -9.562600      -260.2116
  80   2.0000      -9.560099      -260.1435
  81   2.0000      -9.557958      -260.0853
  82   2.0000      -8.206998      -223.3238
  83   2.0000      -8.203816      -223.2372
  84   2.0000      -8.072635      -219.6676
  85   2.0000      -8.065990      -219.4868
  86   2.0000      -7.333085      -199.5434
  87   2.0000      -7.333016      -199.5415
  88   2.0000      -7.330469      -199.4722
  89   2.0000      -7.328376      -199.4153
  90   2.0000      -7.322964      -199.2680
  91   2.0000      -7.322847      -199.2648
  92   2.0000      -7.322222      -199.2478
  93   2.0000      -7.322127      -199.2452
  94   2.0000      -7.320382      -199.1977
  95   2.0000      -7.319641      -199.1776
  96   2.0000      -7.318199      -199.1383
  97   2.0000      -7.317474      -199.1186
  98   2.0000      -6.175861      -168.0537
  99   2.0000      -6.175449      -168.0425
 100   2.0000      -6.175196      -168.0356
 101   2.0000      -6.172647      -167.9663
 102   2.0000      -6.172437      -167.9605
 103   2.0000      -6.171925      -167.9466
 104   2.0000      -6.041880      -164.4079
 105   2.0000      -6.037731      -164.2950
 106   2.0000      -6.035183      -164.2257
 107   2.0000      -6.034785      -164.2149
 108   2.0000      -6.030860      -164.1080
 109   2.0000      -6.028350      -164.0397
 110   2.0000      -1.202946       -32.7338
 111   2.0000      -1.199761       -32.6472
 112   2.0000      -1.147673       -31.2298
 113   2.0000      -1.143634       -31.1199
 114   2.0000      -1.081856       -29.4388
 115   2.0000      -1.078603       -29.3503
 116   2.0000      -1.041638       -28.3444
 117   2.0000      -1.036779       -28.2122
 118   2.0000      -1.030364       -28.0376
 119   2.0000      -1.024065       -27.8662
 120   2.0000      -1.019933       -27.7538
 121   2.0000      -1.013672       -27.5834
 122   2.0000      -1.008720       -27.4487
 123   2.0000      -1.003386       -27.3035
 124   2.0000      -1.002058       -27.2674
 125   2.0000      -0.999253       -27.1911
 126   2.0000      -0.997358       -27.1395
 127   2.0000      -0.979489       -26.6533
 128   2.0000      -0.970053       -26.3965
 129   2.0000      -0.966398       -26.2970
 130   2.0000      -0.963728       -26.2244
 131   2.0000      -0.955701       -26.0060
 132   2.0000      -0.946933       -25.7674
 133   2.0000      -0.943609       -25.6769
 134   2.0000      -0.940883       -25.6027
 135   2.0000      -0.933068       -25.3901
 136   2.0000      -0.930278       -25.3141
 137   2.0000      -0.922848       -25.1120
 138   2.0000      -0.913990       -24.8709
 139   2.0000      -0.902299       -24.5528
 140   2.0000      -0.898862       -24.4593
 141   2.0000      -0.888089       -24.1661
 142   2.0000      -0.876214       -23.8430
 143   2.0000      -0.874255       -23.7897
 144   2.0000      -0.870658       -23.6918
 145   2.0000      -0.868545       -23.6343
 146   2.0000      -0.866222       -23.5711
 147   2.0000      -0.854440       -23.2505
 148   2.0000      -0.849406       -23.1135
 149   2.0000      -0.840337       -22.8667
 150   2.0000      -0.839842       -22.8533
 151   2.0000      -0.832067       -22.6417
 152   2.0000      -0.814570       -22.1656
 153   2.0000      -0.805692       -21.9240
 154   2.0000      -0.786900       -21.4126
 155   2.0000      -0.777589       -21.1593
 156   2.0000      -0.775007       -21.0890
 157   2.0000      -0.773185       -21.0394
 158   2.0000      -0.766744       -20.8642
 159   2.0000      -0.758429       -20.6379
 160   2.0000      -0.748155       -20.3583
 161   2.0000      -0.746415       -20.3110
 162   2.0000      -0.730427       -19.8759
 163   2.0000      -0.729124       -19.8405
 164   2.0000      -0.722089       -19.6490
 165   2.0000      -0.709463       -19.3055
 166   2.0000      -0.706284       -19.2190
 167   2.0000      -0.702011       -19.1027
 168   2.0000      -0.701743       -19.0954
 169   2.0000      -0.694891       -18.9089
 170   2.0000      -0.688146       -18.7254
 171   2.0000      -0.683442       -18.5974
 172   2.0000      -0.680055       -18.5052
 173   2.0000      -0.676517       -18.4090
 174   2.0000      -0.668950       -18.2031
 175   2.0000      -0.666974       -18.1493
 176   2.0000      -0.648961       -17.6591
 177   2.0000      -0.641954       -17.4684
 178   2.0000      -0.638604       -17.3773
 179   2.0000      -0.634487       -17.2653
 180   2.0000      -0.633816       -17.2470
 181   2.0000      -0.627076       -17.0636
 182   2.0000      -0.620484       -16.8842
 183   2.0000      -0.615940       -16.7606
 184   2.0000      -0.613857       -16.7039
 185   2.0000      -0.609152       -16.5759
 186   2.0000      -0.604726       -16.4554
 187   2.0000      -0.602854       -16.4045
 188   2.0000      -0.594459       -16.1760
 189   2.0000      -0.593811       -16.1584
 190   2.0000      -0.592955       -16.1351
 191   2.0000      -0.590405       -16.0657
 192   2.0000      -0.581398       -15.8207
 193   2.0000      -0.577225       -15.7071
 194   2.0000      -0.572374       -15.5751
 195   2.0000      -0.571180       -15.5426
 196   2.0000      -0.568723       -15.4757
 197   2.0000      -0.567661       -15.4468
 198   2.0000      -0.564102       -15.3500
 199   2.0000      -0.562781       -15.3141
 200   2.0000      -0.561399       -15.2764
 201   2.0000      -0.559223       -15.2172
 202   2.0000      -0.558414       -15.1952
 203   2.0000      -0.556556       -15.1446
 204   2.0000      -0.553792       -15.0694
 205   2.0000      -0.553053       -15.0493
 206   2.0000      -0.548841       -14.9347
 207   2.0000      -0.544838       -14.8258
 208   2.0000      -0.542802       -14.7704
 209   2.0000      -0.540415       -14.7054
 210   2.0000      -0.539799       -14.6887
 211   2.0000      -0.537459       -14.6250
 212   2.0000      -0.536211       -14.5911
 213   2.0000      -0.533329       -14.5126
 214   2.0000      -0.531856       -14.4725
 215   2.0000      -0.529292       -14.4028
 216   2.0000      -0.527372       -14.3505
 217   2.0000      -0.522593       -14.2205
 218   2.0000      -0.521594       -14.1933
 219   2.0000      -0.519070       -14.1246
 220   2.0000      -0.518353       -14.1051
 221   2.0000      -0.516006       -14.0412
 222   2.0000      -0.514158       -13.9910
 223   2.0000      -0.513551       -13.9744
 224   2.0000      -0.512418       -13.9436
 225   2.0000      -0.510479       -13.8908
 226   2.0000      -0.509318       -13.8593
 227   2.0000      -0.506411       -13.7801
 228   2.0000      -0.504765       -13.7353
 229   2.0000      -0.501685       -13.6515
 230   2.0000      -0.497973       -13.5505
 231   2.0000      -0.495361       -13.4795
 232   2.0000      -0.493791       -13.4367
 233   2.0000      -0.492688       -13.4067
 234   2.0000      -0.489629       -13.3235
 235   2.0000      -0.487628       -13.2690
 236   2.0000      -0.483189       -13.1482
 237   2.0000      -0.480603       -13.0779
 238   2.0000      -0.477504       -12.9935
 239   2.0000      -0.476281       -12.9603
 240   2.0000      -0.475363       -12.9353
 241   2.0000      -0.472421       -12.8552
 242   2.0000      -0.469706       -12.7814
 243   2.0000      -0.468520       -12.7491
 244   2.0000      -0.467103       -12.7105
 245   2.0000      -0.465367       -12.6633
 246   2.0000      -0.459446       -12.5022
 247   2.0000      -0.458245       -12.4695
 248   2.0000      -0.457500       -12.4492
 249   2.0000      -0.456642       -12.4259
 250   2.0000      -0.450910       -12.2699
 251   2.0000      -0.449895       -12.2423
 252   2.0000      -0.448392       -12.2014
 253   2.0000      -0.445634       -12.1263
 254   2.0000      -0.445159       -12.1134
 255   2.0000      -0.444752       -12.1023
 256   2.0000      -0.441456       -12.0126
 257   2.0000      -0.437522       -11.9056
 258   2.0000      -0.436483       -11.8773
 259   2.0000      -0.436313       -11.8727
 260   2.0000      -0.435548       -11.8519
 261   2.0000      -0.433584       -11.7984
 262   2.0000      -0.430777       -11.7220
 263   2.0000      -0.427363       -11.6291
 264   2.0000      -0.422607       -11.4997
 265   2.0000      -0.422082       -11.4854
 266   2.0000      -0.421092       -11.4585
 267   2.0000      -0.417459       -11.3596
 268   2.0000      -0.414998       -11.2927
 269   2.0000      -0.414408       -11.2766
 270   2.0000      -0.412186       -11.2161
 271   2.0000      -0.407422       -11.0865
 272   2.0000      -0.404922       -11.0185
 273   2.0000      -0.403201       -10.9716
 274   2.0000      -0.402115       -10.9421
 275   2.0000      -0.400020       -10.8851
 276   2.0000      -0.393066       -10.6959
 277   2.0000      -0.392285       -10.6746
 278   2.0000      -0.389550       -10.6002
 279   2.0000      -0.388609       -10.5746
 280   2.0000      -0.385659       -10.4943
 281   2.0000      -0.379786       -10.3345
 282   2.0000      -0.374188       -10.1822
 283   2.0000      -0.370153       -10.0724
 284   2.0000      -0.366428        -9.9710
 285   2.0000      -0.358340        -9.7509
 286   2.0000      -0.356755        -9.7078
 287   2.0000      -0.353492        -9.6190
 288   2.0000      -0.352043        -9.5796
 289   2.0000      -0.348677        -9.4880
 290   2.0000      -0.345408        -9.3990
 291   2.0000      -0.344394        -9.3714
 292   2.0000      -0.340666        -9.2700
 293   2.0000      -0.332801        -9.0560
 294   2.0000      -0.331733        -9.0269
 295   2.0000      -0.330162        -8.9842
 296   2.0000      -0.324958        -8.8425
 297   2.0000      -0.318966        -8.6795
 298   2.0000      -0.317461        -8.6386
 299   2.0000      -0.300586        -8.1794
 300   2.0000      -0.289042        -7.8652
 301   2.0000      -0.279164        -7.5964
 302   2.0000      -0.238299        -6.4844
 303   0.0000      -0.107357        -2.9213
 304   0.0000      -0.102370        -2.7856
 305   0.0000      -0.083262        -2.2657
 306   0.0000      -0.075003        -2.0409
 307   0.0000      -0.071371        -1.9421

MULLIKEN ATOMIC CHARGES
-----------------------
   0 C :    0.256565
   1 C :   -0.336030
   2 C :   -0.149051
   3 N :    0.136500
   4 C :   -0.207795
   5 N :    0.172909
   6 C :    0.021217
   7 C :    0.000080
   8 C :   -0.025807
   9 C :    0.057949
  10 C :    0.051492
  11 C :   -0.016930
  12 Cl:   -0.034456
  13 Cl:   -0.038283
  14 C :    0.139446
  15 O :   -0.136063
  16 C :   -0.137422
  17 C :    0.033870
  18 C :   -0.166183
  19 S :    0.157908
  20 C :   -0.113387
  21 C :   -0.039826
  22 C :   -0.034274
  23 C :    0.121428
  24 C :   -0.051899
  25 S :    0.671787
  26 O :   -0.448635
  27 O :   -0.453103
  28 C :    0.076517
  29 C :    0.053847
  30 C :   -0.069712
  31 C :    0.044513
  32 C :   -0.080306
  33 C :   -0.011864
  34 C :    0.103520
  35 N :   -0.201616
  36 C :    0.139599
  37 N :   -0.223045
  38 C :    0.076566
  39 C :   -0.139715
  40 C :    0.173757
  41 C :   -0.032894
  42 C :    0.020871
  43 C :    0.026487
  44 C :    0.028945
  45 C :    0.000639
  46 C :   -0.013260
  47 C :   -0.096593
  48 C :    0.005650
  49 C :   -0.051979
  50 S :    0.179325
  51 C :   -0.075810
  52 C :   -0.071399
  53 C :   -0.079480
  54 C :    0.098364
  55 C :   -0.049663
  56 S :    0.681546
  57 O :   -0.444511
  58 O :   -0.453779
  59 C :    0.064160
  60 C :   -0.050011
  61 C :   -0.089826
  62 C :    0.318411
  63 C :   -0.349275
  64 C :   -0.185426
  65 N :    0.157099
  66 C :   -0.179364
  67 N :    0.145288
  68 C :    0.029800
  69 C :   -0.011132
  70 C :    0.157253
  71 O :   -0.170327
  72 C :   -0.031975
  73 C :    0.060310
  74 C :    0.046160
  75 C :   -0.013984
  76 Cl:   -0.033025
  77 Cl:   -0.041407
  78 H :    0.002162
  79 H :   -0.000174
  80 H :    0.031024
  81 H :    0.064443
  82 H :    0.038564
  83 H :    0.070581
  84 H :    0.062436
  85 H :    0.059695
  86 H :    0.071024
  87 H :   -0.032463
  88 H :   -0.019804
  89 H :   -0.000154
  90 H :   -0.001039
  91 H :    0.083147
  92 H :    0.097113
  93 H :   -0.004895
  94 H :   -0.005890
  95 H :    0.117143
  96 H :    0.104233
  97 H :    0.014024
  98 H :    0.047815
  99 H :   -0.005853
 100 H :   -0.031430
 101 H :   -0.027630
 102 H :   -0.009076
 103 H :    0.021385
 104 H :    0.005150
 105 H :    0.053121
 106 H :    0.043491
 107 H :    0.062627
 108 H :    0.055517
 109 H :    0.090606
 110 H :    0.081032
 111 H :   -0.007376
 112 H :   -0.001978
 113 H :    0.002173
Sum of atomic charges:   -0.0000000

LOEWDIN ATOMIC CHARGES
----------------------
   0 C :    0.065370
   1 C :   -0.149235
   2 C :   -0.008907
   3 N :   -0.057146
   4 C :   -0.036055
   5 N :   -0.053329
   6 C :   -0.011827
   7 C :   -0.043768
   8 C :    0.002815
   9 C :   -0.133939
  10 C :   -0.129619
  11 C :   -0.016276
  12 Cl:    0.163462
  13 Cl:    0.162115
  14 C :    0.083449
  15 O :   -0.136557
  16 C :   -0.107576
  17 C :    0.058577
  18 C :   -0.199943
  19 S :    0.499786
  20 C :   -0.117853
  21 C :   -0.090610
  22 C :   -0.010814
  23 C :   -0.042617
  24 C :   -0.135541
  25 S :    1.161870
  26 O :   -0.512915
  27 O :   -0.512059
  28 C :   -0.133431
  29 C :   -0.057070
  30 C :   -0.007510
  31 C :   -0.027159
  32 C :   -0.031357
  33 C :   -0.038818
  34 C :    0.026936
  35 N :   -0.115812
  36 C :    0.031104
  37 N :   -0.115536
  38 C :   -0.024193
  39 C :    0.080431
  40 C :   -0.031635
  41 C :   -0.023129
  42 C :   -0.017256
  43 C :   -0.033641
  44 C :   -0.032769
  45 C :    0.001554
  46 C :   -0.034761
  47 C :    0.016125
  48 C :   -0.051824
  49 C :   -0.146628
  50 S :    0.520289
  51 C :   -0.192785
  52 C :   -0.039794
  53 C :   -0.067174
  54 C :   -0.050317
  55 C :   -0.135791
  56 S :    1.163869
  57 O :   -0.508361
  58 O :   -0.511756
  59 C :   -0.141361
  60 C :    0.053885
  61 C :   -0.111544
  62 C :    0.076587
  63 C :   -0.138585
  64 C :   -0.020283
  65 N :   -0.045313
  66 C :   -0.019554
  67 N :   -0.050291
  68 C :   -0.013532
  69 C :   -0.043425
  70 C :    0.082843
  71 O :   -0.161620
  72 C :   -0.000012
  73 C :   -0.134473
  74 C :   -0.130574
  75 C :   -0.011380
  76 Cl:    0.164269
  77 Cl:    0.160325
  78 H :    0.047244
  79 H :    0.043070
  80 H :    0.049446
  81 H :    0.051926
  82 H :    0.042168
  83 H :    0.045513
  84 H :    0.036810
  85 H :    0.044687
  86 H :    0.045695
  87 H :    0.019694
  88 H :    0.027335
  89 H :   -0.003530
  90 H :    0.019412
  91 H :    0.048899
  92 H :    0.051558
  93 H :    0.005343
  94 H :    0.014763
  95 H :    0.056120
  96 H :    0.059146
  97 H :    0.036762
  98 H :    0.067654
  99 H :    0.026912
 100 H :    0.031961
 101 H :    0.031322
 102 H :    0.029165
 103 H :    0.024687
 104 H :    0.033680
 105 H :    0.043193
 106 H :    0.034909
 107 H :    0.041614
 108 H :    0.033566
 109 H :    0.054233
 110 H :    0.049812
 111 H :    0.046393
 112 H :    0.045221
 113 H :    0.044998

  Mayer bond orders larger than 0.100000
B(  0-C ,  1-C ) :   1.6344 B(  0-C ,  6-C ) :   1.0142 B(  0-C , 16-C ) :   1.0456
B(  1-C ,  2-C ) :   1.1499 B(  1-C ,  4-C ) :   1.1613 B(  2-C ,  3-N ) :   2.9196
B(  4-C ,  5-N ) :   3.0067 B(  6-C ,  7-C ) :   1.3292 B(  6-C , 11-C ) :   1.3454
B(  7-C ,  8-C ) :   1.3521 B(  7-C , 14-C ) :   0.9185 B(  8-C ,  9-C ) :   1.3429
B(  8-C , 78-H ) :   1.0155 B(  9-C , 10-C ) :   1.4100 B(  9-C , 13-Cl) :   1.0515
B( 10-C , 11-C ) :   1.3580 B( 10-C , 12-Cl) :   1.0709 B( 11-C , 79-H ) :   0.9891
B( 14-C , 15-O ) :   2.2710 B( 14-C , 16-C ) :   0.9466 B( 16-C , 17-C ) :   1.6246
B( 17-C , 18-C ) :   1.1533 B( 17-C , 80-H ) :   0.9415 B( 18-C , 19-S ) :   1.0963
B( 18-C , 20-C ) :   0.1004 B( 18-C , 22-C ) :   1.4635 B( 19-S , 20-C ) :   1.1925
B( 20-C , 21-C ) :   1.5336 B( 20-C , 29-C ) :   1.0039 B( 21-C , 22-C ) :   1.3211
B( 21-C , 28-C ) :   0.9948 B( 22-C , 23-C ) :   1.0668 B( 23-C , 24-C ) :   1.0287
B( 23-C , 81-H ) :   0.8983 B( 23-C , 82-H ) :   0.9069 B( 24-C , 25-S ) :   0.8633
B( 24-C , 83-H ) :   0.9285 B( 24-C , 84-H ) :   0.9403 B( 25-S , 26-O ) :   1.7461
B( 25-S , 27-O ) :   1.6999 B( 25-S , 28-C ) :   0.8504 B( 28-C , 85-H ) :   0.8984
B( 28-C , 86-H ) :   0.9147 B( 29-C , 30-C ) :   1.5297 B( 29-C , 46-C ) :   1.1365
B( 30-C , 31-C ) :   1.1387 B( 30-C , 87-H ) :   0.9834 B( 31-C , 32-C ) :   1.4574
B( 31-C , 44-C ) :   1.1221 B( 32-C , 33-C ) :   1.0482 B( 32-C , 38-C ) :   1.1176
B( 33-C , 34-C ) :   1.0308 B( 33-C , 36-C ) :   1.0330 B( 33-C , 88-H ) :   0.8673
B( 34-C , 35-N ) :   1.1179 B( 34-C , 89-H ) :   0.9153 B( 34-C , 90-H ) :   0.9501
B( 35-N , 91-H ) :   0.9690 B( 35-N , 92-H ) :   0.9628 B( 36-C , 37-N ) :   1.0805
B( 36-C , 93-H ) :   0.9329 B( 36-C , 94-H ) :   0.9403 B( 37-N , 95-H ) :   0.9491
B( 37-N , 96-H ) :   0.9517 B( 38-C , 39-C ) :   1.6485 B( 38-C , 43-C ) :   1.0604
B( 39-C , 40-C ) :   0.9777 B( 39-C , 97-H ) :   0.9672 B( 40-C , 41-C ) :   0.9839
B( 40-C , 47-C ) :   0.9542 B( 40-C , 98-H ) :   0.8435 B( 41-C , 42-C ) :   1.7382
B( 41-C , 99-H ) :   0.9678 B( 42-C , 43-C ) :   1.1264 B( 42-C ,100-H ) :   0.9881
B( 43-C , 44-C ) :   1.4284 B( 44-C , 45-C ) :   1.1486 B( 45-C , 46-C ) :   1.6052
B( 45-C ,101-H ) :   0.9916 B( 46-C ,102-H ) :   0.9800 B( 47-C , 48-C ) :   1.8175
B( 47-C ,103-H ) :   0.9721 B( 48-C , 49-C ) :   1.1263 B( 48-C ,104-H ) :   0.9375
B( 49-C , 50-S ) :   1.1395 B( 49-C , 53-C ) :   1.4389 B( 50-S , 51-C ) :   1.0969
B( 51-C , 52-C ) :   1.3837 B( 51-C , 60-C ) :   1.2812 B( 52-C , 53-C ) :   1.3882
B( 52-C , 59-C ) :   1.0135 B( 53-C , 54-C ) :   1.0517 B( 54-C , 55-C ) :   1.0263
B( 54-C ,105-H ) :   0.9042 B( 54-C ,106-H ) :   0.8908 B( 55-C , 56-S ) :   0.8724
B( 55-C ,107-H ) :   0.9308 B( 55-C ,108-H ) :   0.9414 B( 56-S , 57-O ) :   1.7544
B( 56-S , 58-O ) :   1.7012 B( 56-S , 59-C ) :   0.8342 B( 59-C ,109-H ) :   0.8877
B( 59-C ,110-H ) :   0.9063 B( 60-C , 61-C ) :   1.5103 B( 60-C ,111-H ) :   0.9238
B( 61-C , 62-C ) :   1.0866 B( 61-C , 70-C ) :   0.9703 B( 62-C , 63-C ) :   1.6267
B( 62-C , 68-C ) :   0.9865 B( 63-C , 64-C ) :   1.1427 B( 63-C , 66-C ) :   1.1485
B( 64-C , 65-N ) :   2.9694 B( 66-C , 67-N ) :   2.9530 B( 68-C , 69-C ) :   1.3303
B( 68-C , 75-C ) :   1.3458 B( 69-C , 70-C ) :   0.9563 B( 69-C , 72-C ) :   1.3443
B( 70-C , 71-O ) :   2.1544 B( 72-C , 73-C ) :   1.3385 B( 72-C ,112-H ) :   1.0173
B( 73-C , 74-C ) :   1.4090 B( 73-C , 77-Cl) :   1.0477 B( 74-C , 75-C ) :   1.3562
B( 74-C , 76-Cl) :   1.0784 B( 75-C ,113-H ) :   0.9853

-----------------------------------------------------------------------------
         ABSORPTION SPECTRUM VIA TRANSITION ELECTRIC DIPOLE MOMENTS
-----------------------------------------------------------------------------
State   Energy  Wavelength   fosc         T2         TX        TY        TZ
        (cm-1)    (nm)                  (au**2)     (au)      (au)      (au)
-----------------------------------------------------------------------------
   0   13409.0    745.8   0.040560677   0.99582   0.31615   0.13513  -0.93681
   1   15955.3    626.8   0.244174359   5.03814   0.79445  -0.55828   2.02369
   2   17808.9    561.5   0.136193859   2.51765  -0.63638  -0.11494   1.44895
   3   21347.8    468.4   0.372813032   5.74928   0.65265  -1.01164   2.07362
   4   22019.0    454.2   0.896425350  13.40268   1.74881   0.03656  -3.21605
   5   23390.2    427.5   0.084313618   1.18670  -0.21534   0.17706  -1.05308
   6   25273.9    395.7   0.048939687   0.63748  -0.09387   0.11629  -0.78431
   7   25305.3    395.2   0.072765721   0.94665  -0.20984   0.26413   0.91261
   8   26682.9    374.8   0.061260416   0.75583  -0.07387   0.17517   0.84834
   9   26814.6    372.9   0.002288888   0.02810  -0.02773   0.01179   0.16491
  10   27674.9    361.3   0.066606403   0.79233  -0.21811   0.61233   0.60812
  11   28256.1    353.9   0.241433832   2.81294  -0.62140  -0.51170   1.47138
  12   28835.5    346.8   0.005914633   0.06753  -0.05260   0.01812  -0.25383
  13   29355.0    340.7   0.026416524   0.29626   0.38177  -0.38544   0.04404
  14   29567.7    338.2   0.081018762   0.90208  -0.38771  -0.06628   0.86450
  15   29874.5    334.7   0.165090969   1.81927  -0.86010  -0.63243  -0.82434
  16   30569.6    327.1   0.025957236   0.27954   0.25202  -0.29173   0.36182
  17   30662.0    326.1   0.026644838   0.28608  -0.05527  -0.43248   0.30981
  18   30741.6    325.3   0.283434712   3.03530  -0.25332   1.25866  -1.17768
  19   31084.4    321.7   0.034543675   0.36585   0.43099  -0.37854   0.19185
  20   31753.8    314.9   0.016734170   0.17349  -0.31238  -0.15447  -0.22815
  21   31936.9    313.1   0.030810530   0.31760  -0.51667  -0.19483  -0.11268
  22   32032.3    312.2   0.092287959   0.94849  -0.40633  -0.35994   0.80859
  23   32174.2    310.8   0.089948461   0.92037   0.17876   0.32773   0.88375
  24   32366.8    309.0   0.113299995   1.15241   0.40426   0.07045  -0.99198
  25   33098.0    302.1   0.164674192   1.63794   0.67348  -0.83245  -0.70099
  26   33240.5    300.8   0.013326927   0.13199   0.21058  -0.15530  -0.25205
  27   33347.5    299.9   0.111944081   1.10513   0.52370  -0.40530  -0.81645
  28   34139.9    292.9   0.274669845   2.64865   1.30796   0.83026   0.49856
  29   34336.0    291.2   0.266699208   2.55710   0.24132  -1.40407   0.72626
  30   34812.9    287.2   0.294109427   2.78128  -1.41734  -0.86611   0.14921
  31   35327.3    283.1   0.023713365   0.22098  -0.22952   0.36762  -0.18209
  32   35512.7    281.6   0.072572688   0.67277  -0.60688  -0.40085   0.37919
  33   35623.9    280.7   0.002147159   0.01984  -0.08227  -0.09602  -0.06209
  34   35766.8    279.6   0.228730428   2.10533  -0.79423  -0.24420   1.18949
  35   36088.7    277.1   0.063609164   0.58026   0.32609   0.27979  -0.62900
  36   36504.7    273.9   0.007959635   0.07178  -0.20048  -0.17164  -0.04619
  37   37001.0    270.3   0.013316733   0.11848  -0.07663   0.00592   0.33553
  38   37289.6    268.2   0.012993361   0.11471   0.05051  -0.00352  -0.33489
  39   37669.3    265.5   0.058311535   0.50962  -0.11288  -0.16710  -0.68480
  40   37827.4    264.4   0.040552948   0.35293   0.14797   0.23547  -0.52497
  41   37966.9    263.4   0.039792086   0.34504   0.05420  -0.13892  -0.56816
  42   38096.4    262.5   0.003399917   0.02938   0.15735   0.06768  -0.00639
  43   38258.3    261.4   0.014734249   0.12679   0.33572  -0.11556  -0.02694
  44   38587.0    259.2   0.014049381   0.11986  -0.19214   0.04007   0.28520
  45   38830.6    257.5   0.174896338   1.48280   0.66649   0.22113  -0.99483
  46   39336.4    254.2   0.030483294   0.25512   0.14822  -0.19715  -0.44077
  47   39565.0    252.7   0.054753486   0.45559   0.46429   0.13600  -0.47067
  48   39643.6    252.2   0.017679075   0.14681  -0.11042   0.04678  -0.36391
  49   39693.7    251.9   0.147999884   1.22748   0.58230  -0.03147  -0.94203
  50   39892.3    250.7   0.004538169   0.03745   0.03404  -0.15165   0.11531
  51   40167.6    249.0   0.012072904   0.09895  -0.01604   0.29644   0.10400

FINAL SINGLE POINT ENERGY     -6440.176059381685

DIPOLE MOMENT
-------------
                                X             Y             Z
Electronic contribution:     -8.06498      41.94069      40.33635
Nuclear contribution   :      9.87757     -39.02301     -41.71154
                        -----------------------------------------
Total Dipole Moment    :      1.81259       2.91767      -1.37519
                        -----------------------------------------
Magnitude (a.u.)       :      3.69993
Magnitude (Debye)      :      9.40446

Rotational constants in cm-1:     0.001188     0.000197     0.000189
Rotational constants in MHz :    35.627721     5.898305     5.668288

                             ****ORCA TERMINATED NORMALLY****
TOTAL RUN TIME: 0 days 0 hours 14 minutes 14 seconds 14 msec
