                         Program Version 4.2.0 -  RELEASE  -
|  1> # ORCA input file
|  2> # SCF done       -210.147504096293          0.000656243489
|  3> ! CAM-B3LYP def2-SVP def2/J RIJCOSX Grid4 TightSCF
|  4> %maxcore 5000
|  5> %tddft
|  6>     Mode sTDDFT
|  7>     Ethresh 5.0
|  8>     maxcore 5000
|  9> end
| 10>
| 11> %pal
| 12>   nprocs 6
| 13>   end
| 14> * xyz 0 1
| 15>    C        3.32545         7.15379         4.05789
| 16>    C        3.11908         7.40956         5.38644
| 17>    C        3.66330         6.56224         6.36278
| 18>    C        4.40489         5.47101         5.99820
| 19>    C        4.63573         5.17663         4.63965
| 20>    C        5.39496         4.04499         4.25791
| 21>    C        5.59856         3.79054         2.92986
| 22>    C        5.06371         4.67067         1.94342
| 23>    C        4.31911         5.76429         2.28275
| 24>    C        4.08479         6.03984         3.64853
| 25>    C        5.47091         4.20519         0.61198
| 26>    O        5.17259         4.65143        -0.47205
| 27>    C        6.40769         3.05843         0.86253
| 28>    C        6.31076         2.70870         2.25509
| 29>    C        6.65082         1.50542         2.82112
| 30>    C        7.09381         0.40468         2.06450
| 31>    N        7.44381        -0.50829         1.46338
| 32>    C        6.45720         1.19152         4.18285
| 33>    N        6.31462         0.88407         5.27868
| 34>    C        7.18587         2.65337        -0.18163
| 35>    C        8.38827         1.91519        -0.22589
| 36>    C        9.34484         1.62618         0.75230
| 37>    C       10.44227         0.98748         0.12762
| 38>    C       10.14534         0.84526        -1.28410
| 39>    O       10.75081         0.34215        -2.20645
| 40>    N        8.88963         1.45815        -1.42411
| 41>    C        8.20959         1.49051        -2.69006
| 42>    C       11.36496         0.63881         1.10908
| 43>    N       10.86895         1.03987         2.31345
| 44>    C        9.64108         1.71195         2.16397
| 45>    O        9.04534         2.22832         3.09040
| 46>    C       11.51837         0.96362         3.59341
| 47>    C       12.63379         0.01248         0.85307
| 48>    C       13.17308        -1.07801         1.55783
| 49>    C       14.38334        -1.71737         1.10585
| 50>    N       14.98084        -2.61834         1.89085
| 51>    C       14.32846        -3.11562         2.90863
| 52>    C       13.00234        -2.65447         3.21072
| 53>    N       12.50588        -1.61268         2.59560
| 54>    C       12.25973        -3.26840         4.25020
| 55>    N       11.69600        -3.77697         5.10730
| 56>    C       14.96144        -4.08648         3.72210
| 57>    N       15.44779        -4.89475         4.37162
| 58>    C       14.98645        -1.42138        -0.14194
| 59>    C       14.44964        -0.33127        -0.84636
| 60>    C       13.31982         0.40121        -0.31575
| 61>    N       12.98025         1.42303        -1.10123
| 62>    S       13.88516         1.39886        -2.41297
| 63>    N       14.81518         0.14398        -2.04063
| 64>    C       15.99137        -2.33409        -0.59818
| 65>    C       15.98838        -3.71098        -0.35386
| 66>    C       17.17304        -4.25202        -0.90620
| 67>    C       17.92565        -3.17945        -1.51582
| 68>    O       18.98922        -3.14949        -2.09102
| 69>    N       17.12553        -2.03131        -1.29039
| 70>    C       17.60745        -0.72275        -1.63822
| 71>    C       17.14671        -5.63434        -0.74928
| 72>    N       15.99799        -5.95711        -0.09379
| 73>    C       15.20814        -4.81528         0.17354
| 74>    O       14.13937        -4.87468         0.74349
| 75>    C       15.60389        -7.25138         0.38907
| 76>    C       18.19342        -6.51869        -1.16854
| 77>    C       18.06773        -7.66787        -1.87289
| 78>    C       19.14872        -8.55568        -2.27954
| 79>    C       20.38516        -8.62451        -1.69894
| 80>    C       21.39507        -9.52471        -2.10133
| 81>    N       22.24784       -10.23486        -2.39282
| 82>    C       20.78851        -7.84527        -0.59241
| 83>    N       21.16330        -7.26745         0.32530
| 84>    C       18.64089        -9.41179        -3.34056
| 85>    C       17.25362        -9.13899        -3.52463
| 86>    C       16.50821        -9.79785        -4.46078
| 87>    C       17.12707       -10.77525        -5.27098
| 88>    C       16.40902       -11.48490        -6.25361
| 89>    C       17.03121       -12.42137        -7.03404
| 90>    C       18.39782       -12.69052        -6.86488
| 91>    C       19.12397       -12.02005        -5.91846
| 92>    C       18.51556       -11.04866        -5.09758
| 93>    C       19.26189       -10.35236        -4.12016
| 94>    C       16.82950        -8.07644        -2.60245
| 95>    O       15.73075        -7.57767        -2.50687
| 96>    H        2.90975         7.80293         3.30107
| 97>    H        2.53637         8.26579         5.69166
| 98>    H        3.49151         6.77809         7.40666
| 99>    H        4.82349         4.81464         6.74675
|100>    H        5.81061         3.41372         5.02710
|101>    H        3.91699         6.41404         1.51951
|102>    H        6.86251         3.06036        -1.13666
|103>    H        8.83603         0.94646        -3.39711
|104>    H        8.08098         2.51560        -3.04437
|105>    H        7.23561         1.00384        -2.62128
|106>    H       12.55200         1.30482         3.52021
|107>    H       11.49991        -0.05897         3.97224
|108>    H       10.96329         1.60950         4.27397
|109>    H       18.59227        -0.85924        -2.08483
|110>    H       17.69296        -0.09759        -0.74735
|111>    H       16.93737        -0.24088        -2.35029
|112>    H       16.48225        -7.83027         0.67195
|113>    H       15.04031        -7.78891        -0.37643
|114>    H       14.96178        -7.09953         1.25691
|115>    H       19.18602        -6.13176        -0.96547
|116>    H       15.45891        -9.57344        -4.58259
|117>    H       15.35744       -11.27314        -6.37978
|118>    H       16.47412       -12.95924        -7.78630
|119>    H       18.87284       -13.43232        -7.48903
|120>    H       20.17587       -12.22456        -5.78378
|121>    H       20.31253       -10.57362        -4.01793
|122> *
|123>
|124>                          ****END OF INPUT****

CARTESIAN COORDINATES (ANGSTROEM)
---------------------------------
  C      3.325450    7.153790    4.057890
  C      3.119080    7.409560    5.386440
  C      3.663300    6.562240    6.362780
  C      4.404890    5.471010    5.998200
  C      4.635730    5.176630    4.639650
  C      5.394960    4.044990    4.257910
  C      5.598560    3.790540    2.929860
  C      5.063710    4.670670    1.943420
  C      4.319110    5.764290    2.282750
  C      4.084790    6.039840    3.648530
  C      5.470910    4.205190    0.611980
  O      5.172590    4.651430   -0.472050
  C      6.407690    3.058430    0.862530
  C      6.310760    2.708700    2.255090
  C      6.650820    1.505420    2.821120
  C      7.093810    0.404680    2.064500
  N      7.443810   -0.508290    1.463380
  C      6.457200    1.191520    4.182850
  N      6.314620    0.884070    5.278680
  C      7.185870    2.653370   -0.181630
  C      8.388270    1.915190   -0.225890
  C      9.344840    1.626180    0.752300
  C     10.442270    0.987480    0.127620
  C     10.145340    0.845260   -1.284100
  O     10.750810    0.342150   -2.206450
  N      8.889630    1.458150   -1.424110
  C      8.209590    1.490510   -2.690060
  C     11.364960    0.638810    1.109080
  N     10.868950    1.039870    2.313450
  C      9.641080    1.711950    2.163970
  O      9.045340    2.228320    3.090400
  C     11.518370    0.963620    3.593410
  C     12.633790    0.012480    0.853070
  C     13.173080   -1.078010    1.557830
  C     14.383340   -1.717370    1.105850
  N     14.980840   -2.618340    1.890850
  C     14.328460   -3.115620    2.908630
  C     13.002340   -2.654470    3.210720
  N     12.505880   -1.612680    2.595600
  C     12.259730   -3.268400    4.250200
  N     11.696000   -3.776970    5.107300
  C     14.961440   -4.086480    3.722100
  N     15.447790   -4.894750    4.371620
  C     14.986450   -1.421380   -0.141940
  C     14.449640   -0.331270   -0.846360
  C     13.319820    0.401210   -0.315750
  N     12.980250    1.423030   -1.101230
  S     13.885160    1.398860   -2.412970
  N     14.815180    0.143980   -2.040630
  C     15.991370   -2.334090   -0.598180
  C     15.988380   -3.710980   -0.353860
  C     17.173040   -4.252020   -0.906200
  C     17.925650   -3.179450   -1.515820
  O     18.989220   -3.149490   -2.091020
  N     17.125530   -2.031310   -1.290390
  C     17.607450   -0.722750   -1.638220
  C     17.146710   -5.634340   -0.749280
  N     15.997990   -5.957110   -0.093790
  C     15.208140   -4.815280    0.173540
  O     14.139370   -4.874680    0.743490
  C     15.603890   -7.251380    0.389070
  C     18.193420   -6.518690   -1.168540
  C     18.067730   -7.667870   -1.872890
  C     19.148720   -8.555680   -2.279540
  C     20.385160   -8.624510   -1.698940
  C     21.395070   -9.524710   -2.101330
  N     22.247840  -10.234860   -2.392820
  C     20.788510   -7.845270   -0.592410
  N     21.163300   -7.267450    0.325300
  C     18.640890   -9.411790   -3.340560
  C     17.253620   -9.138990   -3.524630
  C     16.508210   -9.797850   -4.460780
  C     17.127070  -10.775250   -5.270980
  C     16.409020  -11.484900   -6.253610
  C     17.031210  -12.421370   -7.034040
  C     18.397820  -12.690520   -6.864880
  C     19.123970  -12.020050   -5.918460
  C     18.515560  -11.048660   -5.097580
  C     19.261890  -10.352360   -4.120160
  C     16.829500   -8.076440   -2.602450
  O     15.730750   -7.577670   -2.506870
  H      2.909750    7.802930    3.301070
  H      2.536370    8.265790    5.691660
  H      3.491510    6.778090    7.406660
  H      4.823490    4.814640    6.746750
  H      5.810610    3.413720    5.027100
  H      3.916990    6.414040    1.519510
  H      6.862510    3.060360   -1.136660
  H      8.836030    0.946460   -3.397110
  H      8.080980    2.515600   -3.044370
  H      7.235610    1.003840   -2.621280
  H     12.552000    1.304820    3.520210
  H     11.499910   -0.058970    3.972240
  H     10.963290    1.609500    4.273970
  H     18.592270   -0.859240   -2.084830
  H     17.692960   -0.097590   -0.747350
  H     16.937370   -0.240880   -2.350290
  H     16.482250   -7.830270    0.671950
  H     15.040310   -7.788910   -0.376430
  H     14.961780   -7.099530    1.256910
  H     19.186020   -6.131760   -0.965470
  H     15.458910   -9.573440   -4.582590
  H     15.357440  -11.273140   -6.379780
  H     16.474120  -12.959240   -7.786300
  H     18.872840  -13.432320   -7.489030
  H     20.175870  -12.224560   -5.783780
  H     20.312530  -10.573620   -4.017930

 Total Charge           Charge          ....    0
 Multiplicity           Mult            ....    1
 Number of Electrons    NEL             ....  548
 Basis Dimension        Dim             .... 1268

ORBITAL ENERGIES
----------------

  NO   OCC          E(Eh)            E(eV)
   0   2.0000     -89.052669     -2423.2463
   1   2.0000     -19.231741      -523.3223
   2   2.0000     -19.221356      -523.0397
   3   2.0000     -19.213908      -522.8370
   4   2.0000     -19.206529      -522.6362
   5   2.0000     -19.202881      -522.5370
   6   2.0000     -19.199978      -522.4580
   7   2.0000     -14.473046      -393.8316
   8   2.0000     -14.468706      -393.7135
   9   2.0000     -14.467350      -393.6766
  10   2.0000     -14.466086      -393.6422
  11   2.0000     -14.464043      -393.5866
  12   2.0000     -14.460098      -393.4793
  13   2.0000     -14.459466      -393.4621
  14   2.0000     -14.458614      -393.4389
  15   2.0000     -14.430959      -392.6864
  16   2.0000     -14.427206      -392.5842
  17   2.0000     -14.425732      -392.5441
  18   2.0000     -14.424188      -392.5021
  19   2.0000     -14.417715      -392.3260
  20   2.0000     -14.411852      -392.1664
  21   2.0000     -10.390514      -282.7403
  22   2.0000     -10.387302      -282.6528
  23   2.0000     -10.386504      -282.6311
  24   2.0000     -10.386449      -282.6297
  25   2.0000     -10.384562      -282.5783
  26   2.0000     -10.382066      -282.5104
  27   2.0000     -10.381122      -282.4847
  28   2.0000     -10.369692      -282.1737
  29   2.0000     -10.361065      -281.9389
  30   2.0000     -10.360542      -281.9247
  31   2.0000     -10.359914      -281.9076
  32   2.0000     -10.359017      -281.8832
  33   2.0000     -10.358156      -281.8598
  34   2.0000     -10.356637      -281.8184
  35   2.0000     -10.356289      -281.8090
  36   2.0000     -10.355024      -281.7745
  37   2.0000     -10.352646      -281.7098
  38   2.0000     -10.351194      -281.6703
  39   2.0000     -10.346605      -281.5454
  40   2.0000     -10.333835      -281.1980
  41   2.0000     -10.333614      -281.1919
  42   2.0000     -10.332640      -281.1654
  43   2.0000     -10.331710      -281.1401
  44   2.0000     -10.327301      -281.0202
  45   2.0000     -10.325530      -280.9720
  46   2.0000     -10.323269      -280.9104
  47   2.0000     -10.321923      -280.8738
  48   2.0000     -10.321099      -280.8514
  49   2.0000     -10.317707      -280.7591
  50   2.0000     -10.317098      -280.7425
  51   2.0000     -10.313833      -280.6537
  52   2.0000     -10.313517      -280.6451
  53   2.0000     -10.311952      -280.6025
  54   2.0000     -10.311290      -280.5845
  55   2.0000     -10.307243      -280.4743
  56   2.0000     -10.306910      -280.4653
  57   2.0000     -10.306577      -280.4562
  58   2.0000     -10.306379      -280.4508
  59   2.0000     -10.305790      -280.4348
  60   2.0000     -10.301581      -280.3203
  61   2.0000     -10.300091      -280.2797
  62   2.0000     -10.299900      -280.2745
  63   2.0000     -10.299750      -280.2704
  64   2.0000     -10.296932      -280.1938
  65   2.0000     -10.295163      -280.1456
  66   2.0000     -10.294515      -280.1280
  67   2.0000     -10.294330      -280.1229
  68   2.0000     -10.293880      -280.1107
  69   2.0000     -10.293615      -280.1035
  70   2.0000     -10.293116      -280.0899
  71   2.0000     -10.290997      -280.0323
  72   2.0000     -10.287887      -279.9476
  73   2.0000     -10.286201      -279.9018
  74   2.0000     -10.284341      -279.8512
  75   2.0000     -10.283756      -279.8352
  76   2.0000     -10.283607      -279.8312
  77   2.0000     -10.283283      -279.8224
  78   2.0000     -10.282249      -279.7942
  79   2.0000     -10.280160      -279.7374
  80   2.0000     -10.277896      -279.6758
  81   2.0000      -8.143720      -221.6019
  82   2.0000      -6.114697      -166.3894
  83   2.0000      -6.106897      -166.1771
  84   2.0000      -6.106739      -166.1728
  85   2.0000      -1.152903       -31.3721
  86   2.0000      -1.150170       -31.2977
  87   2.0000      -1.148766       -31.2595
  88   2.0000      -1.145821       -31.1794
  89   2.0000      -1.139924       -31.0189
  90   2.0000      -1.138904       -30.9912
  91   2.0000      -1.135619       -30.9018
  92   2.0000      -1.125602       -30.6292
  93   2.0000      -1.081264       -29.4227
  94   2.0000      -1.078520       -29.3480
  95   2.0000      -1.069972       -29.1154
  96   2.0000      -1.068550       -29.0767
  97   2.0000      -1.049504       -28.5584
  98   2.0000      -1.028488       -27.9866
  99   2.0000      -1.016367       -27.6568
 100   2.0000      -1.014312       -27.6008
 101   2.0000      -1.008293       -27.4371
 102   2.0000      -1.004775       -27.3413
 103   2.0000      -1.002993       -27.2928
 104   2.0000      -1.002260       -27.2729
 105   2.0000      -0.997562       -27.1450
 106   2.0000      -0.991951       -26.9923
 107   2.0000      -0.985705       -26.8224
 108   2.0000      -0.981506       -26.7081
 109   2.0000      -0.969630       -26.3850
 110   2.0000      -0.936144       -25.4738
 111   2.0000      -0.935296       -25.4507
 112   2.0000      -0.932944       -25.3867
 113   2.0000      -0.923696       -25.1350
 114   2.0000      -0.918457       -24.9925
 115   2.0000      -0.913278       -24.8516
 116   2.0000      -0.911524       -24.8038
 117   2.0000      -0.905859       -24.6497
 118   2.0000      -0.891172       -24.2500
 119   2.0000      -0.886928       -24.1345
 120   2.0000      -0.879793       -23.9404
 121   2.0000      -0.877178       -23.8692
 122   2.0000      -0.860888       -23.4260
 123   2.0000      -0.852476       -23.1970
 124   2.0000      -0.843853       -22.9624
 125   2.0000      -0.837524       -22.7902
 126   2.0000      -0.831803       -22.6345
 127   2.0000      -0.828006       -22.5312
 128   2.0000      -0.826038       -22.4776
 129   2.0000      -0.819605       -22.3026
 130   2.0000      -0.814669       -22.1683
 131   2.0000      -0.788037       -21.4436
 132   2.0000      -0.775384       -21.0993
 133   2.0000      -0.774819       -21.0839
 134   2.0000      -0.772719       -21.0268
 135   2.0000      -0.770739       -20.9729
 136   2.0000      -0.764084       -20.7918
 137   2.0000      -0.756577       -20.5875
 138   2.0000      -0.744994       -20.2723
 139   2.0000      -0.722708       -19.6659
 140   2.0000      -0.718530       -19.5522
 141   2.0000      -0.713469       -19.4145
 142   2.0000      -0.712498       -19.3881
 143   2.0000      -0.707611       -19.2551
 144   2.0000      -0.704804       -19.1787
 145   2.0000      -0.701898       -19.0996
 146   2.0000      -0.699840       -19.0436
 147   2.0000      -0.693053       -18.8589
 148   2.0000      -0.685884       -18.6638
 149   2.0000      -0.683932       -18.6107
 150   2.0000      -0.681389       -18.5415
 151   2.0000      -0.678896       -18.4737
 152   2.0000      -0.675148       -18.3717
 153   2.0000      -0.673673       -18.3316
 154   2.0000      -0.659267       -17.9396
 155   2.0000      -0.652462       -17.7544
 156   2.0000      -0.642429       -17.4814
 157   2.0000      -0.637270       -17.3410
 158   2.0000      -0.636762       -17.3272
 159   2.0000      -0.625534       -17.0216
 160   2.0000      -0.620630       -16.8882
 161   2.0000      -0.616487       -16.7755
 162   2.0000      -0.613715       -16.7000
 163   2.0000      -0.611334       -16.6352
 164   2.0000      -0.605062       -16.4646
 165   2.0000      -0.604555       -16.4508
 166   2.0000      -0.594563       -16.1789
 167   2.0000      -0.592066       -16.1109
 168   2.0000      -0.589671       -16.0458
 169   2.0000      -0.585049       -15.9200
 170   2.0000      -0.583430       -15.8759
 171   2.0000      -0.578126       -15.7316
 172   2.0000      -0.572262       -15.5720
 173   2.0000      -0.569935       -15.5087
 174   2.0000      -0.566712       -15.4210
 175   2.0000      -0.566455       -15.4140
 176   2.0000      -0.565327       -15.3833
 177   2.0000      -0.563315       -15.3286
 178   2.0000      -0.560122       -15.2417
 179   2.0000      -0.555813       -15.1244
 180   2.0000      -0.553096       -15.0505
 181   2.0000      -0.549488       -14.9523
 182   2.0000      -0.547461       -14.8972
 183   2.0000      -0.544348       -14.8125
 184   2.0000      -0.543414       -14.7870
 185   2.0000      -0.542481       -14.7617
 186   2.0000      -0.541093       -14.7239
 187   2.0000      -0.539500       -14.6805
 188   2.0000      -0.530770       -14.4430
 189   2.0000      -0.529974       -14.4213
 190   2.0000      -0.527297       -14.3485
 191   2.0000      -0.525730       -14.3058
 192   2.0000      -0.524158       -14.2631
 193   2.0000      -0.521782       -14.1984
 194   2.0000      -0.519392       -14.1334
 195   2.0000      -0.517814       -14.0904
 196   2.0000      -0.515427       -14.0255
 197   2.0000      -0.514572       -14.0022
 198   2.0000      -0.511842       -13.9279
 199   2.0000      -0.508702       -13.8425
 200   2.0000      -0.507109       -13.7991
 201   2.0000      -0.505622       -13.7587
 202   2.0000      -0.505294       -13.7498
 203   2.0000      -0.500152       -13.6098
 204   2.0000      -0.498652       -13.5690
 205   2.0000      -0.497239       -13.5306
 206   2.0000      -0.493632       -13.4324
 207   2.0000      -0.491524       -13.3750
 208   2.0000      -0.490869       -13.3572
 209   2.0000      -0.485010       -13.1978
 210   2.0000      -0.484418       -13.1817
 211   2.0000      -0.483318       -13.1517
 212   2.0000      -0.480092       -13.0640
 213   2.0000      -0.477452       -12.9921
 214   2.0000      -0.476005       -12.9528
 215   2.0000      -0.475083       -12.9277
 216   2.0000      -0.472760       -12.8644
 217   2.0000      -0.470366       -12.7993
 218   2.0000      -0.470151       -12.7935
 219   2.0000      -0.465214       -12.6591
 220   2.0000      -0.462461       -12.5842
 221   2.0000      -0.457149       -12.4397
 222   2.0000      -0.455202       -12.3867
 223   2.0000      -0.452516       -12.3136
 224   2.0000      -0.451976       -12.2989
 225   2.0000      -0.450086       -12.2475
 226   2.0000      -0.449147       -12.2219
 227   2.0000      -0.449130       -12.2214
 228   2.0000      -0.447690       -12.1823
 229   2.0000      -0.442891       -12.0517
 230   2.0000      -0.442525       -12.0417
 231   2.0000      -0.441172       -12.0049
 232   2.0000      -0.440733       -11.9930
 233   2.0000      -0.436784       -11.8855
 234   2.0000      -0.435720       -11.8565
 235   2.0000      -0.435477       -11.8499
 236   2.0000      -0.430824       -11.7233
 237   2.0000      -0.430664       -11.7190
 238   2.0000      -0.428966       -11.6728
 239   2.0000      -0.428688       -11.6652
 240   2.0000      -0.427273       -11.6267
 241   2.0000      -0.426251       -11.5989
 242   2.0000      -0.423692       -11.5292
 243   2.0000      -0.419007       -11.4018
 244   2.0000      -0.418051       -11.3757
 245   2.0000      -0.416602       -11.3363
 246   2.0000      -0.412713       -11.2305
 247   2.0000      -0.409879       -11.1534
 248   2.0000      -0.407425       -11.0866
 249   2.0000      -0.406278       -11.0554
 250   2.0000      -0.399538       -10.8720
 251   2.0000      -0.392950       -10.6927
 252   2.0000      -0.386342       -10.5129
 253   2.0000      -0.385512       -10.4903
 254   2.0000      -0.374172       -10.1817
 255   2.0000      -0.368958       -10.0399
 256   2.0000      -0.364979        -9.9316
 257   2.0000      -0.360586        -9.8120
 258   2.0000      -0.355994        -9.6871
 259   2.0000      -0.351785        -9.5725
 260   2.0000      -0.348815        -9.4917
 261   2.0000      -0.345628        -9.4050
 262   2.0000      -0.344508        -9.3745
 263   2.0000      -0.343548        -9.3484
 264   2.0000      -0.334154        -9.0928
 265   2.0000      -0.327465        -8.9108
 266   2.0000      -0.326146        -8.8749
 267   2.0000      -0.323547        -8.8042
 268   2.0000      -0.320186        -8.7127
 269   2.0000      -0.309511        -8.4222
 270   2.0000      -0.302693        -8.2367
 271   2.0000      -0.289371        -7.8742
 272   2.0000      -0.269900        -7.3443
 273   2.0000      -0.252002        -6.8573
 274   0.0000      -0.139149        -3.7864
 275   0.0000      -0.106177        -2.8892
 276   0.0000      -0.095731        -2.6050
 277   0.0000      -0.071021        -1.9326
 278   0.0000      -0.061947        -1.6857

MULLIKEN ATOMIC CHARGES
-----------------------
   0 C :   -0.012870
   1 C :    0.033440
   2 C :    0.036223
   3 C :   -0.018996
   4 C :    0.095303
   5 C :   -0.085042
   6 C :    0.043696
   7 C :    0.012184
   8 C :   -0.077078
   9 C :    0.090793
  10 C :    0.129875
  11 O :   -0.140568
  12 C :   -0.093737
  13 C :    0.296129
  14 C :   -0.268712
  15 C :   -0.244846
  16 N :    0.177061
  17 C :   -0.175311
  18 N :    0.161379
  19 C :   -0.051807
  20 C :    0.186524
  21 C :   -0.062866
  22 C :   -0.026907
  23 C :    0.147412
  24 O :   -0.193405
  25 N :   -0.277511
  26 C :    0.117907
  27 C :    0.038587
  28 N :   -0.235012
  29 C :    0.158631
  30 O :   -0.178776
  31 C :    0.124440
  32 C :    0.083122
  33 C :   -0.038402
  34 C :   -0.063235
  35 N :    0.046960
  36 C :   -0.106412
  37 C :   -0.104725
  38 N :    0.039769
  39 C :   -0.205240
  40 N :    0.239931
  41 C :   -0.201341
  42 N :    0.230881
  43 C :    0.051834
  44 C :    0.054295
  45 C :   -0.037888
  46 N :   -0.237025
  47 S :    0.573143
  48 N :   -0.286466
  49 C :    0.049802
  50 C :   -0.013546
  51 C :   -0.061756
  52 C :    0.159472
  53 O :   -0.169037
  54 N :   -0.261671
  55 C :    0.120386
  56 C :    0.114969
  57 N :   -0.237653
  58 C :    0.156415
  59 O :   -0.191715
  60 C :    0.119416
  61 C :   -0.078153
  62 C :   -0.065762
  63 C :    0.290317
  64 C :   -0.315350
  65 C :   -0.182466
  66 N :    0.157880
  67 C :   -0.204928
  68 N :    0.178751
  69 C :    0.057203
  70 C :   -0.011997
  71 C :   -0.070702
  72 C :    0.095888
  73 C :   -0.015171
  74 C :    0.037030
  75 C :    0.038080
  76 C :   -0.018136
  77 C :    0.096359
  78 C :   -0.079729
  79 C :    0.144017
  80 O :   -0.141364
  81 H :   -0.018712
  82 H :   -0.006638
  83 H :   -0.005110
  84 H :   -0.010261
  85 H :   -0.003959
  86 H :   -0.013577
  87 H :    0.011015
  88 H :    0.060635
  89 H :    0.041542
  90 H :    0.042881
  91 H :    0.026179
  92 H :    0.060114
  93 H :    0.058859
  94 H :    0.054707
  95 H :    0.025328
  96 H :    0.051577
  97 H :    0.034196
  98 H :    0.058871
  99 H :    0.056602
 100 H :    0.067430
 101 H :   -0.008379
 102 H :   -0.013276
 103 H :   -0.000929
 104 H :   -0.000731
 105 H :   -0.005835
 106 H :   -0.004722
Sum of atomic charges:    0.0000000

LOEWDIN ATOMIC CHARGES
----------------------
   0 C :   -0.008791
   1 C :   -0.016025
   2 C :   -0.011781
   3 C :   -0.007157
   4 C :   -0.002360
   5 C :    0.013477
   6 C :   -0.015177
   7 C :   -0.062927
   8 C :    0.036061
   9 C :   -0.012773
  10 C :    0.086538
  11 O :   -0.137287
  12 C :   -0.038108
  13 C :    0.050812
  14 C :   -0.100109
  15 C :   -0.016493
  16 N :   -0.042890
  17 C :   -0.013575
  18 N :   -0.044852
  19 C :    0.013029
  20 C :    0.073099
  21 C :   -0.085922
  22 C :   -0.093936
  23 C :    0.083999
  24 O :   -0.197826
  25 N :   -0.002317
  26 C :    0.029446
  27 C :    0.091074
  28 N :    0.019524
  29 C :    0.083445
  30 O :   -0.163728
  31 C :    0.027156
  32 C :   -0.031258
  33 C :    0.001608
  34 C :    0.015144
  35 N :    0.014485
  36 C :   -0.019266
  37 C :   -0.007823
  38 N :   -0.003906
  39 C :   -0.035379
  40 N :    0.005203
  41 C :   -0.034684
  42 N :   -0.008191
  43 C :   -0.036563
  44 C :   -0.033066
  45 C :   -0.032398
  46 N :   -0.255299
  47 S :    0.707697
  48 N :   -0.282176
  49 C :    0.091713
  50 C :   -0.091144
  51 C :   -0.108725
  52 C :    0.084946
  53 O :   -0.173980
  54 N :    0.003793
  55 C :    0.021728
  56 C :    0.076926
  57 N :    0.020720
  58 C :    0.087700
  59 O :   -0.183797
  60 C :    0.028091
  61 C :    0.055908
  62 C :   -0.058435
  63 C :    0.069042
  64 C :   -0.120171
  65 C :   -0.016459
  66 N :   -0.040854
  67 C :   -0.026562
  68 N :   -0.033584
  69 C :   -0.025550
  70 C :   -0.058461
  71 C :    0.037835
  72 C :   -0.007344
  73 C :   -0.007570
  74 C :   -0.009035
  75 C :   -0.009171
  76 C :   -0.004435
  77 C :   -0.003840
  78 C :    0.021955
  79 C :    0.085284
  80 O :   -0.128637
  81 H :    0.031255
  82 H :    0.032119
  83 H :    0.032936
  84 H :    0.034592
  85 H :    0.039816
  86 H :    0.038757
  87 H :    0.046937
  88 H :    0.042303
  89 H :    0.028307
  90 H :    0.032267
  91 H :    0.025735
  92 H :    0.030319
  93 H :    0.039872
  94 H :    0.038506
  95 H :    0.024683
  96 H :    0.023118
  97 H :    0.029916
  98 H :    0.029932
  99 H :    0.040242
 100 H :    0.063027
 101 H :    0.040978
 102 H :    0.033371
 103 H :    0.034490
 104 H :    0.034883
 105 H :    0.035921
 106 H :    0.040076

  Mayer bond orders larger than 0.100000
B(  0-C ,  1-C ) :   1.4884 B(  0-C ,  9-C ) :   1.2435 B(  0-C , 81-H ) :   0.9972
B(  1-C ,  2-C ) :   1.2616 B(  1-C , 82-H ) :   0.9887 B(  2-C ,  3-C ) :   1.4871
B(  2-C , 83-H ) :   0.9890 B(  3-C ,  4-C ) :   1.2453 B(  3-C , 84-H ) :   0.9974
B(  4-C ,  5-C ) :   1.1961 B(  4-C ,  9-C ) :   1.2581 B(  5-C ,  6-C ) :   1.4722
B(  5-C , 85-H ) :   0.9934 B(  6-C ,  7-C ) :   1.2067 B(  6-C , 13-C ) :   0.9934
B(  7-C ,  8-C ) :   1.4697 B(  7-C , 10-C ) :   0.9327 B(  8-C ,  9-C ) :   1.1863
B(  8-C , 86-H ) :   1.0153 B( 10-C , 11-O ) :   2.2491 B( 10-C , 12-C ) :   0.9220
B( 12-C , 13-C ) :   1.0695 B( 12-C , 19-C ) :   1.6243 B( 13-C , 14-C ) :   1.6177
B( 14-C , 15-C ) :   1.1764 B( 14-C , 17-C ) :   1.1314 B( 14-C , 30-O ) :   0.1056
B( 15-C , 16-N ) :   2.9804 B( 17-C , 18-N ) :   2.9904 B( 19-C , 20-C ) :   1.1352
B( 19-C , 87-H ) :   0.9213 B( 20-C , 21-C ) :   1.3246 B( 20-C , 25-N ) :   1.1751
B( 21-C , 22-C ) :   1.2699 B( 21-C , 29-C ) :   0.9757 B( 22-C , 23-C ) :   0.9570
B( 22-C , 27-C ) :   1.4112 B( 23-C , 24-O ) :   2.1420 B( 23-C , 25-N ) :   1.0482
B( 25-N , 26-C ) :   0.9674 B( 26-C , 88-H ) :   0.9500 B( 26-C , 89-H ) :   0.9674
B( 26-C , 90-H ) :   0.9735 B( 27-C , 28-N ) :   1.2581 B( 27-C , 32-C ) :   0.9949
B( 28-N , 29-C ) :   1.0445 B( 28-N , 31-C ) :   0.9552 B( 29-C , 30-O ) :   2.0546
B( 31-C , 91-H ) :   0.9712 B( 31-C , 92-H ) :   0.9611 B( 31-C , 93-H ) :   0.9503
B( 32-C , 33-C ) :   1.2961 B( 32-C , 43-C ) :   0.1279 B( 32-C , 45-C ) :   1.2525
B( 33-C , 34-C ) :   1.1030 B( 33-C , 38-N ) :   1.4294 B( 34-C , 35-N ) :   1.4492
B( 34-C , 43-C ) :   1.2843 B( 35-N , 36-C ) :   1.7017 B( 36-C , 37-C ) :   1.1816
B( 36-C , 41-C ) :   1.1549 B( 37-C , 38-N ) :   1.7225 B( 37-C , 39-C ) :   1.1539
B( 39-C , 40-N ) :   3.0433 B( 41-C , 42-N ) :   3.0489 B( 43-C , 44-C ) :   1.2197
B( 43-C , 49-C ) :   1.0505 B( 44-C , 45-C ) :   1.0877 B( 44-C , 48-N ) :   1.4991
B( 45-C , 46-N ) :   1.5283 B( 46-N , 47-S ) :   1.3102 B( 46-N , 48-N ) :   0.1438
B( 47-S , 48-N ) :   1.2770 B( 49-C , 50-C ) :   1.3762 B( 49-C , 54-N ) :   1.2635
B( 50-C , 51-C ) :   1.2529 B( 50-C , 58-C ) :   0.9601 B( 51-C , 52-C ) :   0.9715
B( 51-C , 56-C ) :   1.3597 B( 52-C , 53-O ) :   2.1705 B( 52-C , 54-N ) :   1.0041
B( 54-N , 55-C ) :   0.9564 B( 55-C , 94-H ) :   0.9489 B( 55-C , 95-H ) :   0.9722
B( 55-C , 96-H ) :   0.9523 B( 56-C , 57-N ) :   1.2275 B( 56-C , 61-C ) :   1.0900
B( 57-N , 58-C ) :   1.0421 B( 57-N , 60-C ) :   0.9541 B( 58-C , 59-O ) :   2.0967
B( 60-C , 97-H ) :   0.9697 B( 60-C , 98-H ) :   0.9610 B( 60-C , 99-H ) :   0.9563
B( 61-C , 62-C ) :   1.6875 B( 61-C ,100-H ) :   0.9330 B( 62-C , 63-C ) :   1.0234
B( 62-C , 79-C ) :   0.9191 B( 63-C , 64-C ) :   1.6728 B( 63-C , 69-C ) :   1.0029
B( 64-C , 65-C ) :   1.1412 B( 64-C , 67-C ) :   1.1352 B( 65-C , 66-N ) :   2.9704
B( 67-C , 68-N ) :   3.0006 B( 69-C , 70-C ) :   1.2062 B( 69-C , 78-C ) :   1.4487
B( 70-C , 71-C ) :   1.4711 B( 70-C , 79-C ) :   0.9553 B( 71-C , 72-C ) :   1.1860
B( 71-C ,101-H ) :   1.0156 B( 72-C , 73-C ) :   1.2442 B( 72-C , 77-C ) :   1.2474
B( 73-C , 74-C ) :   1.4903 B( 73-C ,102-H ) :   0.9972 B( 74-C , 75-C ) :   1.2574
B( 74-C ,103-H ) :   0.9893 B( 75-C , 76-C ) :   1.4905 B( 75-C ,104-H ) :   0.9892
B( 76-C , 77-C ) :   1.2401 B( 76-C ,105-H ) :   0.9969 B( 77-C , 78-C ) :   1.2115
B( 78-C ,106-H ) :   0.9897 B( 79-C , 80-O ) :   2.2023

-----------------------------------------------------------------------------
         ABSORPTION SPECTRUM VIA TRANSITION ELECTRIC DIPOLE MOMENTS
-----------------------------------------------------------------------------
State   Energy  Wavelength   fosc         T2         TX        TY        TZ
        (cm-1)    (nm)                  (au**2)     (au)      (au)      (au)
-----------------------------------------------------------------------------
   0    8764.5   1141.0   0.587826586  22.07983  -3.21564   3.32758   0.81652
   1   12166.1    822.0   0.059373610   1.60664  -0.99332  -0.56217  -0.55129
   2   16425.1    608.8   0.137126873   2.74846  -0.09008   1.60032   0.42346
   3   18105.3    552.3   0.200690395   3.64918  -1.73400   0.80148   0.00871
   4   19699.8    507.6   0.069803009   1.16651  -1.01052   0.09635   0.36888
   5   20858.6    479.4   0.000467705   0.00738   0.06614   0.00739  -0.05434
   6   21805.0    458.6   0.003420759   0.05165  -0.12875  -0.06735  -0.17474
   7   22667.1    441.2   0.062581300   0.90892  -0.66043   0.58709   0.35787
   8   23425.2    426.9   0.056537798   0.79457   0.55652  -0.00533  -0.69629
   9   23469.6    426.1   0.003712957   0.05208   0.14320  -0.03842   0.17350
  10   23826.9    419.7   0.015240591   0.21058  -0.13770   0.19100   0.39387
  11   24217.4    412.9   0.004189171   0.05695  -0.10839   0.10683   0.18381
  12   24386.4    410.1   0.024313505   0.32823   0.40791   0.38495   0.11684
  13   24523.9    407.8   0.029132967   0.39108  -0.58115  -0.11364  -0.20108
  14   24828.6    402.8   0.011202759   0.14854  -0.31707  -0.11764   0.18485
  15   25465.1    392.7   0.035126218   0.45411   0.03997  -0.38453  -0.55195
  16   25675.2    389.5   0.035660094   0.45724   0.43075  -0.49892  -0.15088
  17   26121.8    382.8   0.031187788   0.39306   0.03753  -0.42633   0.45814
  18   26317.2    380.0   0.006801594   0.08508   0.13624  -0.16537   0.19793
  19   26432.0    378.3   0.056592841   0.70487  -0.44892   0.13128   0.69721
  20   26842.4    372.5   0.019726689   0.24194  -0.25758   0.09190  -0.40883
  21   27345.7    365.7   0.002957095   0.03560  -0.06128   0.17589  -0.03013
  22   27510.3    363.5   0.016320425   0.19530   0.30151   0.14138   0.29053
  23   27892.0    358.5   0.008043053   0.09493  -0.20759  -0.15560   0.16622
  24   28622.6    349.4   0.015201850   0.17485  -0.12488   0.36992   0.14970
  25   28870.4    346.4   0.004969337   0.05667   0.12057  -0.16323   0.12444
  26   28977.2    345.1   0.093764943   1.06527   0.25710  -0.28593   0.95782
  27   29156.5    343.0   0.096580560   1.09051  -0.36591  -0.79068  -0.57571
  28   29228.3    342.1   0.034111121   0.38421  -0.12518   0.10375   0.59814
  29   29659.4    337.2   0.211178666   2.34403   0.26636   1.04270  -1.08897
  30   29937.2    334.0   0.003671122   0.04037  -0.03813  -0.17066  -0.09895
  31   30289.0    330.2   0.126071325   1.37027  -0.88917   0.75536   0.09528
  32   30889.0    323.7   0.198261323   2.11305  -0.34123  -0.75062   1.19716
  33   31104.3    321.5   0.079658147   0.84311   0.47358  -0.00899   0.78661
  34   31238.1    320.1   0.146022149   1.53890   0.82653  -0.85448  -0.35442
  35   31324.1    319.2   0.078761200   0.82777   0.89465   0.15889  -0.04599
  36   32152.2    311.0   0.429584135   4.39859  -0.76159   1.14691   1.58214
  37   32207.3    310.5   0.004069028   0.04159   0.10737  -0.10880   0.13501
  38   32385.2    308.8   0.025935407   0.26365   0.00633  -0.51015  -0.05788
  39   32475.5    307.9   0.081657522   0.82778  -0.57256  -0.68562   0.17289
  40   32916.4    303.8   0.548867910   5.48947   0.64770  -1.71576  -1.45813
  41   32976.0    303.3   0.215972384   2.15614  -0.04467  -1.07741  -0.99666
  42   33370.2    299.7   0.099012824   0.97681  -0.21880   0.90643  -0.32759
  43   33590.3    297.7   0.209512727   2.05339  -1.08948   0.62773   0.68730
  44   33726.4    296.5   0.063412515   0.61899   0.42063  -0.55884  -0.36021
  45   33905.0    294.9   0.052898432   0.51363  -0.05286  -0.40631   0.58801
  46   34065.0    293.6   0.219897549   2.12514  -0.95167  -0.30369  -1.06172
  47   34408.5    290.6   0.031917904   0.30538  -0.31769  -0.22967  -0.38949
  48   34464.4    290.2   0.280258622   2.67710  -0.98199   1.29994   0.15151
  49   34933.5    286.3   0.212780452   2.00523  -0.66125  -0.81268  -0.95265
  50   35359.6    282.8   0.026358139   0.24540   0.43963  -0.11078  -0.19966
  51   35525.9    281.5   0.027087083   0.25101  -0.16228  -0.31998  -0.34970
  52   35785.2    279.4   0.004973334   0.04575   0.10327   0.01134  -0.18697
  53   36126.5    276.8   0.194466483   1.77213   0.44230  -0.41977  -1.18334
  54   36164.2    276.5   0.032190420   0.29304  -0.38370  -0.06474   0.37633
  55   36465.9    274.2   0.012223637   0.11035   0.03629   0.27582   0.18154
  56   36755.0    272.1   0.024615931   0.22048  -0.26623   0.05975  -0.38215
  57   36911.3    270.9   0.009556776   0.08524  -0.04233   0.24788  -0.14833
  58   37183.0    268.9   0.011069869   0.09801   0.00484  -0.16675  -0.26492
  59   37406.9    267.3   0.011773696   0.10362   0.22243  -0.07970  -0.21861
  60   37596.1    266.0   0.012351326   0.10815  -0.14474  -0.15959   0.24846
  61   37951.2    263.5   0.063395457   0.54993   0.32504   0.30596   0.59218
  62   38030.9    262.9   0.027418299   0.23734  -0.15752  -0.42229   0.18494
  63   38053.4    262.8   0.007054808   0.06103  -0.18109   0.11703  -0.12060
  64   38162.1    262.0   0.110943611   0.95707  -0.43892  -0.32225   0.81276
  65   38301.4    261.1   0.050979886   0.43819   0.19450  -0.06178  -0.62972
  66   38615.3    259.0   0.078053643   0.66544  -0.54737   0.35418  -0.49029
  67   38993.2    256.5   0.144669842   1.22142  -0.62248   0.91015   0.07454
  68   39028.9    256.2   0.139953110   1.18052   0.89076  -0.62186  -0.01874
  69   39046.0    256.1   0.069951519   0.58979  -0.43354   0.63388  -0.00518
  70   39368.5    254.0   0.004317735   0.03611   0.15153  -0.06351  -0.09546
  71   39463.6    253.4   0.128677061   1.07345  -0.74407   0.65122   0.30940
  72   39597.0    252.5   0.032927362   0.27376  -0.36495  -0.12746   0.35260
  73   39830.7    251.1   0.031129959   0.25730  -0.13163   0.48146   0.09040
  74   39916.3    250.5   0.001334060   0.01100   0.02083  -0.04167   0.09398
  75   40103.6    249.4   0.117624322   0.96558  -0.56523   0.80313  -0.03293
  76   40309.7    248.1   0.252168585   2.05948  -0.89695  -0.07240   1.11791

FINAL SINGLE POINT ENERGY     -3913.489533531520

DIPOLE MOMENT
-------------
                                X             Y             Z
Electronic contribution:     14.70462       0.51444       8.22386
Nuclear contribution   :    -15.65030       1.42472     -11.51563
                        -----------------------------------------
Total Dipole Moment    :     -0.94568       1.93915      -3.29178
                        -----------------------------------------
Magnitude (a.u.)       :      3.93579
Magnitude (Debye)      :     10.00397

Rotational constants in cm-1:     0.002012     0.000267     0.000261
Rotational constants in MHz :    60.315115     7.997156     7.826130

                             ****ORCA TERMINATED NORMALLY****
TOTAL RUN TIME: 0 days 0 hours 12 minutes 52 seconds 429 msec
