                         Program Version 4.2.0 -  RELEASE  -
|  1> # ORCA input file
|  2> # SCF done       -137.700386373795          0.000714354942
|  3> ! CAM-B3LYP def2-SVP def2/J RIJCOSX Grid4 TightSCF
|  4> %maxcore 5000
|  5> %tddft
|  6>     Mode sTDDFT
|  7>     Ethresh 5.0
|  8>     maxcore 5000
|  9> end
| 10>
| 11> %pal
| 12>   nprocs 6
| 13>   end
| 14> * xyz 0 1
| 15>    C        1.63499        -1.41501         5.40554
| 16>    C        2.67403        -2.25384         5.14436
| 17>    C        2.33408        -3.27294         4.23947
| 18>    C        1.02880        -3.20125         3.81546
| 19>    S        0.21166        -1.84962         4.55114
| 20>    C        0.34960        -4.05681         2.90401
| 21>    C       -0.95884        -3.96576         2.47543
| 22>    C       -1.28434        -4.97550         1.56680
| 23>    C       -0.21038        -5.84377         1.30445
| 24>    S        1.19565        -5.41569         2.17651
| 25>    C       -0.62572        -6.82193         0.36884
| 26>    C       -1.97225        -6.56847         0.03789
| 27>    C       -2.42890        -5.40403         0.78080
| 28>    C       -3.66796        -4.83399         0.74209
| 29>    C       -3.99523        -3.69627         1.50900
| 30>    N       -4.26896        -2.77062         2.12856
| 31>    C       -4.70771        -5.33909        -0.06651
| 32>    N       -5.56461        -5.73552        -0.71761
| 33>    C       -2.47933        -7.46599        -0.89145
| 34>    C       -1.53475        -8.40789        -1.27980
| 35>    S        0.00834        -8.17164        -0.46430
| 36>    C       -1.67525        -9.45912        -2.22410
| 37>    C       -2.86186        -9.71872        -2.96076
| 38>    C       -2.91279       -10.77072        -3.93427
| 39>    N       -4.04383       -10.98732        -4.62866
| 40>    C       -5.08786       -10.23866        -4.40574
| 41>    C       -5.04014        -9.21052        -3.44516
| 42>    N       -3.96056        -8.96778        -2.75459
| 43>    C       -1.81531       -11.61669        -4.22645
| 44>    C       -0.64535       -11.37874        -3.47493
| 45>    C       -0.58974       -10.31817        -2.49931
| 46>    N        0.60475       -10.25518        -1.90780
| 47>    S        1.55487       -11.40446        -2.50826
| 48>    N        0.51241       -12.03821        -3.54611
| 49>    C       -1.91457       -12.61233        -5.22887
| 50>    C       -0.92158       -13.49786        -5.62933
| 51>    C       -1.34661       -14.32132        -6.66268
| 52>    C       -2.67627       -14.06387        -7.05425
| 53>    S       -3.40210       -12.80850        -6.14029
| 54>    C       -2.99472       -14.93999        -8.11984
| 55>    C       -1.87857       -15.74611        -8.40400
| 56>    C       -0.80583       -15.38739        -7.49149
| 57>    C        0.44260       -15.93379        -7.42533
| 58>    C        1.40782       -15.50227        -6.49127
| 59>    N        2.20557       -15.16481        -5.73955
| 60>    C        0.85550       -16.97106        -8.28726
| 61>    N        1.19896       -17.81451        -8.98449
| 62>    C       -2.10075       -16.63272        -9.45972
| 63>    C       -3.37311       -16.50949        -9.98013
| 64>    S       -4.31549       -15.27906        -9.15010
| 65>    C       -3.94564       -17.23576       -11.06107
| 66>    C       -5.21312       -17.13013       -11.58154
| 67>    C       -5.43836       -18.00199       -12.65948
| 68>    C       -4.35039       -18.76335       -12.95553
| 69>    S       -3.02032       -18.43454       -11.92241
| 70>    H        1.61675        -0.56077         6.05250
| 71>    H        3.64937        -2.14642         5.58358
| 72>    H        3.01484        -4.03534         3.90442
| 73>    H       -1.62779        -3.19555         2.81515
| 74>    H       -3.47528        -7.46701        -1.29287
| 75>    H       -5.97537       -10.44766        -4.98570
| 76>    H       -5.89426        -8.58065        -3.23931
| 77>    H        0.04992       -13.50829        -5.17054
| 78>    H       -1.38319       -17.33577        -9.84316
| 79>    H       -5.94718       -16.44639       -11.19394
| 80>    H       -6.36897       -18.06225       -13.19420
| 81>    H       -4.24604       -19.50346       -13.72361
| 82> *
| 83>
| 84>                          ****END OF INPUT****

CARTESIAN COORDINATES (ANGSTROEM)
---------------------------------
  C      1.634990   -1.415010    5.405540
  C      2.674030   -2.253840    5.144360
  C      2.334080   -3.272940    4.239470
  C      1.028800   -3.201250    3.815460
  S      0.211660   -1.849620    4.551140
  C      0.349600   -4.056810    2.904010
  C     -0.958840   -3.965760    2.475430
  C     -1.284340   -4.975500    1.566800
  C     -0.210380   -5.843770    1.304450
  S      1.195650   -5.415690    2.176510
  C     -0.625720   -6.821930    0.368840
  C     -1.972250   -6.568470    0.037890
  C     -2.428900   -5.404030    0.780800
  C     -3.667960   -4.833990    0.742090
  C     -3.995230   -3.696270    1.509000
  N     -4.268960   -2.770620    2.128560
  C     -4.707710   -5.339090   -0.066510
  N     -5.564610   -5.735520   -0.717610
  C     -2.479330   -7.465990   -0.891450
  C     -1.534750   -8.407890   -1.279800
  S      0.008340   -8.171640   -0.464300
  C     -1.675250   -9.459120   -2.224100
  C     -2.861860   -9.718720   -2.960760
  C     -2.912790  -10.770720   -3.934270
  N     -4.043830  -10.987320   -4.628660
  C     -5.087860  -10.238660   -4.405740
  C     -5.040140   -9.210520   -3.445160
  N     -3.960560   -8.967780   -2.754590
  C     -1.815310  -11.616690   -4.226450
  C     -0.645350  -11.378740   -3.474930
  C     -0.589740  -10.318170   -2.499310
  N      0.604750  -10.255180   -1.907800
  S      1.554870  -11.404460   -2.508260
  N      0.512410  -12.038210   -3.546110
  C     -1.914570  -12.612330   -5.228870
  C     -0.921580  -13.497860   -5.629330
  C     -1.346610  -14.321320   -6.662680
  C     -2.676270  -14.063870   -7.054250
  S     -3.402100  -12.808500   -6.140290
  C     -2.994720  -14.939990   -8.119840
  C     -1.878570  -15.746110   -8.404000
  C     -0.805830  -15.387390   -7.491490
  C      0.442600  -15.933790   -7.425330
  C      1.407820  -15.502270   -6.491270
  N      2.205570  -15.164810   -5.739550
  C      0.855500  -16.971060   -8.287260
  N      1.198960  -17.814510   -8.984490
  C     -2.100750  -16.632720   -9.459720
  C     -3.373110  -16.509490   -9.980130
  S     -4.315490  -15.279060   -9.150100
  C     -3.945640  -17.235760  -11.061070
  C     -5.213120  -17.130130  -11.581540
  C     -5.438360  -18.001990  -12.659480
  C     -4.350390  -18.763350  -12.955530
  S     -3.020320  -18.434540  -11.922410
  H      1.616750   -0.560770    6.052500
  H      3.649370   -2.146420    5.583580
  H      3.014840   -4.035340    3.904420
  H     -1.627790   -3.195550    2.815150
  H     -3.475280   -7.467010   -1.292870
  H     -5.975370  -10.447660   -4.985700
  H     -5.894260   -8.580650   -3.239310
  H      0.049920  -13.508290   -5.170540
  H     -1.383190  -17.335770   -9.843160
  H     -5.947180  -16.446390  -11.193940
  H     -6.368970  -18.062250  -13.194200
  H     -4.246040  -19.503460  -13.723610

 Total Charge           Charge          ....    0
 Multiplicity           Mult            ....    1
 Number of Electrons    NEL             ....  420
 Basis Dimension        Dim             ....  858

ORBITAL ENERGIES
----------------

  NO   OCC          E(Eh)            E(eV)
   0   2.0000     -89.041833     -2422.9515
   1   2.0000     -88.980810     -2421.2909
   2   2.0000     -88.980133     -2421.2725
   3   2.0000     -88.973670     -2421.0966
   4   2.0000     -88.972395     -2421.0620
   5   2.0000     -88.957679     -2420.6615
   6   2.0000     -88.957639     -2420.6604
   7   2.0000     -14.450636      -393.2218
   8   2.0000     -14.450456      -393.2169
   9   2.0000     -14.444138      -393.0450
  10   2.0000     -14.437405      -392.8618
  11   2.0000     -14.422159      -392.4469
  12   2.0000     -14.421725      -392.4351
  13   2.0000     -14.420891      -392.4124
  14   2.0000     -14.420210      -392.3939
  15   2.0000     -10.354098      -281.7493
  16   2.0000     -10.353158      -281.7237
  17   2.0000     -10.342215      -281.4260
  18   2.0000     -10.341049      -281.3943
  19   2.0000     -10.337541      -281.2988
  20   2.0000     -10.337302      -281.2923
  21   2.0000     -10.336386      -281.2674
  22   2.0000     -10.334555      -281.2175
  23   2.0000     -10.332713      -281.1674
  24   2.0000     -10.332558      -281.1632
  25   2.0000     -10.323065      -280.9049
  26   2.0000     -10.322532      -280.8904
  27   2.0000     -10.321896      -280.8731
  28   2.0000     -10.321675      -280.8671
  29   2.0000     -10.320952      -280.8474
  30   2.0000     -10.320439      -280.8334
  31   2.0000     -10.319705      -280.8134
  32   2.0000     -10.319538      -280.8089
  33   2.0000     -10.315514      -280.6994
  34   2.0000     -10.312348      -280.6133
  35   2.0000     -10.310815      -280.5716
  36   2.0000     -10.310553      -280.5644
  37   2.0000     -10.310195      -280.5547
  38   2.0000     -10.310109      -280.5523
  39   2.0000     -10.308211      -280.5007
  40   2.0000     -10.308175      -280.4997
  41   2.0000     -10.294537      -280.1286
  42   2.0000     -10.294492      -280.1274
  43   2.0000     -10.294464      -280.1266
  44   2.0000     -10.293949      -280.1126
  45   2.0000     -10.291264      -280.0395
  46   2.0000     -10.290790      -280.0266
  47   2.0000     -10.287146      -279.9275
  48   2.0000     -10.286246      -279.9030
  49   2.0000     -10.284961      -279.8680
  50   2.0000     -10.282568      -279.8029
  51   2.0000     -10.276830      -279.6468
  52   2.0000     -10.276712      -279.6435
  53   2.0000     -10.274650      -279.5874
  54   2.0000     -10.274599      -279.5861
  55   2.0000      -8.132878      -221.3069
  56   2.0000      -8.075487      -219.7452
  57   2.0000      -8.074817      -219.7269
  58   2.0000      -8.066852      -219.5102
  59   2.0000      -8.064468      -219.4453
  60   2.0000      -8.053543      -219.1480
  61   2.0000      -8.053486      -219.1465
  62   2.0000      -6.103991      -166.0980
  63   2.0000      -6.096191      -165.8858
  64   2.0000      -6.095626      -165.8704
  65   2.0000      -6.044758      -164.4862
  66   2.0000      -6.044067      -164.4674
  67   2.0000      -6.040618      -164.3736
  68   2.0000      -6.039935      -164.3550
  69   2.0000      -6.037753      -164.2956
  70   2.0000      -6.037120      -164.2784
  71   2.0000      -6.036293      -164.2559
  72   2.0000      -6.034140      -164.1973
  73   2.0000      -6.031679      -164.1303
  74   2.0000      -6.029271      -164.0648
  75   2.0000      -6.029184      -164.0624
  76   2.0000      -6.026932      -164.0012
  77   2.0000      -6.022894      -163.8913
  78   2.0000      -6.022834      -163.8896
  79   2.0000      -6.018542      -163.7729
  80   2.0000      -6.018485      -163.7713
  81   2.0000      -6.015717      -163.6960
  82   2.0000      -6.015674      -163.6948
  83   2.0000      -1.138641       -30.9840
  84   2.0000      -1.098438       -29.8900
  85   2.0000      -1.033683       -28.1279
  86   2.0000      -1.032255       -28.0891
  87   2.0000      -1.023415       -27.8485
  88   2.0000      -1.013178       -27.5700
  89   2.0000      -1.011705       -27.5299
  90   2.0000      -0.999645       -27.2017
  91   2.0000      -0.998316       -27.1656
  92   2.0000      -0.997871       -27.1534
  93   2.0000      -0.993308       -27.0293
  94   2.0000      -0.989081       -26.9143
  95   2.0000      -0.979390       -26.6506
  96   2.0000      -0.972190       -26.4546
  97   2.0000      -0.962028       -26.1781
  98   2.0000      -0.945975       -25.7413
  99   2.0000      -0.941974       -25.6324
 100   2.0000      -0.907451       -24.6930
 101   2.0000      -0.899382       -24.4734
 102   2.0000      -0.881723       -23.9929
 103   2.0000      -0.873985       -23.7824
 104   2.0000      -0.860014       -23.4022
 105   2.0000      -0.859002       -23.3746
 106   2.0000      -0.844828       -22.9889
 107   2.0000      -0.842961       -22.9381
 108   2.0000      -0.837781       -22.7972
 109   2.0000      -0.828140       -22.5348
 110   2.0000      -0.827945       -22.5295
 111   2.0000      -0.827091       -22.5063
 112   2.0000      -0.805396       -21.9159
 113   2.0000      -0.786819       -21.4104
 114   2.0000      -0.770949       -20.9786
 115   2.0000      -0.766056       -20.8454
 116   2.0000      -0.764126       -20.7929
 117   2.0000      -0.751726       -20.4555
 118   2.0000      -0.735585       -20.0163
 119   2.0000      -0.711672       -19.3656
 120   2.0000      -0.706457       -19.2237
 121   2.0000      -0.696349       -18.9486
 122   2.0000      -0.693451       -18.8698
 123   2.0000      -0.675833       -18.3904
 124   2.0000      -0.674595       -18.3567
 125   2.0000      -0.668830       -18.1998
 126   2.0000      -0.664040       -18.0694
 127   2.0000      -0.653298       -17.7771
 128   2.0000      -0.645311       -17.5598
 129   2.0000      -0.639014       -17.3885
 130   2.0000      -0.636535       -17.3210
 131   2.0000      -0.634486       -17.2652
 132   2.0000      -0.616138       -16.7660
 133   2.0000      -0.614626       -16.7248
 134   2.0000      -0.613845       -16.7036
 135   2.0000      -0.608795       -16.5662
 136   2.0000      -0.608039       -16.5456
 137   2.0000      -0.601475       -16.3670
 138   2.0000      -0.598689       -16.2912
 139   2.0000      -0.586461       -15.9584
 140   2.0000      -0.582550       -15.8520
 141   2.0000      -0.568166       -15.4606
 142   2.0000      -0.565605       -15.3909
 143   2.0000      -0.562761       -15.3135
 144   2.0000      -0.551078       -14.9956
 145   2.0000      -0.537621       -14.6294
 146   2.0000      -0.537519       -14.6266
 147   2.0000      -0.536409       -14.5964
 148   2.0000      -0.533878       -14.5275
 149   2.0000      -0.524720       -14.2783
 150   2.0000      -0.519396       -14.1335
 151   2.0000      -0.508143       -13.8273
 152   2.0000      -0.504813       -13.7367
 153   2.0000      -0.498198       -13.5567
 154   2.0000      -0.497279       -13.5316
 155   2.0000      -0.495843       -13.4926
 156   2.0000      -0.491406       -13.3718
 157   2.0000      -0.489008       -13.3066
 158   2.0000      -0.486504       -13.2385
 159   2.0000      -0.485271       -13.2049
 160   2.0000      -0.484784       -13.1916
 161   2.0000      -0.482914       -13.1408
 162   2.0000      -0.481293       -13.0967
 163   2.0000      -0.478482       -13.0202
 164   2.0000      -0.476439       -12.9646
 165   2.0000      -0.472340       -12.8530
 166   2.0000      -0.469930       -12.7875
 167   2.0000      -0.469051       -12.7635
 168   2.0000      -0.461068       -12.5463
 169   2.0000      -0.457117       -12.4388
 170   2.0000      -0.455900       -12.4057
 171   2.0000      -0.454405       -12.3650
 172   2.0000      -0.453089       -12.3292
 173   2.0000      -0.452245       -12.3062
 174   2.0000      -0.449415       -12.2292
 175   2.0000      -0.446639       -12.1537
 176   2.0000      -0.441356       -12.0099
 177   2.0000      -0.440235       -11.9794
 178   2.0000      -0.436204       -11.8697
 179   2.0000      -0.435798       -11.8587
 180   2.0000      -0.434430       -11.8214
 181   2.0000      -0.432206       -11.7609
 182   2.0000      -0.430708       -11.7202
 183   2.0000      -0.430573       -11.7165
 184   2.0000      -0.429340       -11.6829
 185   2.0000      -0.420728       -11.4486
 186   2.0000      -0.419553       -11.4166
 187   2.0000      -0.418758       -11.3950
 188   2.0000      -0.414625       -11.2825
 189   2.0000      -0.414150       -11.2696
 190   2.0000      -0.401072       -10.9137
 191   2.0000      -0.398578       -10.8459
 192   2.0000      -0.397849       -10.8260
 193   2.0000      -0.378279       -10.2935
 194   2.0000      -0.375762       -10.2250
 195   2.0000      -0.371061       -10.0971
 196   2.0000      -0.367950       -10.0124
 197   2.0000      -0.346780        -9.4364
 198   2.0000      -0.341452        -9.2914
 199   2.0000      -0.336571        -9.1586
 200   2.0000      -0.334917        -9.1136
 201   2.0000      -0.329219        -8.9585
 202   2.0000      -0.324480        -8.8295
 203   2.0000      -0.324021        -8.8171
 204   2.0000      -0.318057        -8.6548
 205   2.0000      -0.311255        -8.4697
 206   2.0000      -0.309696        -8.4273
 207   2.0000      -0.284007        -7.7282
 208   2.0000      -0.255061        -6.9406
 209   2.0000      -0.222936        -6.0664
 210   0.0000      -0.115870        -3.1530
 211   0.0000      -0.092289        -2.5113
 212   0.0000      -0.086909        -2.3649
 213   0.0000      -0.027277        -0.7423
 214   0.0000      -0.024253        -0.6600

MULLIKEN ATOMIC CHARGES
-----------------------
   0 C :   -0.065561
   1 C :    0.050296
   2 C :   -0.016732
   3 C :   -0.099656
   4 S :    0.129989
   5 C :   -0.014487
   6 C :   -0.069094
   7 C :    0.009458
   8 C :   -0.107417
   9 S :    0.179726
  10 C :   -0.070789
  11 C :    0.040417
  12 C :    0.310852
  13 C :   -0.307621
  14 C :   -0.194491
  15 N :    0.169827
  16 C :   -0.185930
  17 N :    0.165547
  18 C :   -0.068007
  19 C :   -0.190270
  20 S :    0.198941
  21 C :    0.194538
  22 C :   -0.066530
  23 C :   -0.042820
  24 N :   -0.095200
  25 C :    0.051979
  26 C :    0.036146
  27 N :   -0.022665
  28 C :    0.165605
  29 C :    0.000036
  30 C :   -0.020468
  31 N :   -0.344996
  32 S :    0.562083
  33 N :   -0.280590
  34 C :   -0.174859
  35 C :   -0.067406
  36 C :    0.030009
  37 C :   -0.064161
  38 S :    0.193074
  39 C :   -0.110689
  40 C :    0.009675
  41 C :    0.308127
  42 C :   -0.304442
  43 C :   -0.188186
  44 N :    0.167803
  45 C :   -0.193114
  46 N :    0.168136
  47 C :   -0.069148
  48 C :   -0.014395
  49 S :    0.177828
  50 C :   -0.099374
  51 C :   -0.015964
  52 C :    0.049358
  53 C :   -0.066404
  54 S :    0.130486
  55 H :    0.032083
  56 H :   -0.008290
  57 H :   -0.009961
  58 H :    0.011099
  59 H :    0.016272
  60 H :    0.018456
  61 H :    0.031393
  62 H :    0.015304
  63 H :    0.011324
  64 H :   -0.010631
  65 H :   -0.008126
  66 H :    0.032605
Sum of atomic charges:   -0.0000000

LOEWDIN ATOMIC CHARGES
----------------------
   0 C :   -0.180261
   1 C :   -0.061258
   2 C :   -0.067234
   3 C :   -0.192339
   4 S :    0.444537
   5 C :   -0.170482
   6 C :   -0.040824
   7 C :   -0.067388
   8 C :   -0.181199
   9 S :    0.472099
  10 C :   -0.182973
  11 C :   -0.079042
  12 C :    0.085336
  13 C :   -0.108588
  14 C :   -0.017125
  15 N :   -0.038519
  16 C :   -0.013588
  17 N :   -0.041929
  18 C :   -0.013705
  19 C :   -0.164918
  20 S :    0.505419
  21 C :   -0.048590
  22 C :   -0.008125
  23 C :   -0.017495
  24 N :   -0.050982
  25 C :    0.020020
  26 C :    0.018343
  27 N :   -0.018286
  28 C :   -0.043938
  29 C :   -0.040502
  30 C :   -0.048114
  31 N :   -0.309394
  32 S :    0.681018
  33 N :   -0.272101
  34 C :   -0.167846
  35 C :   -0.013055
  36 C :   -0.079651
  37 C :   -0.183422
  38 S :    0.502595
  39 C :   -0.182210
  40 C :   -0.066345
  41 C :    0.084430
  42 C :   -0.107935
  43 C :   -0.016086
  44 N :   -0.038052
  45 C :   -0.016941
  46 N :   -0.038879
  47 C :   -0.040987
  48 C :   -0.170321
  49 S :    0.470889
  50 C :   -0.192346
  51 C :   -0.067219
  52 C :   -0.061516
  53 C :   -0.180446
  54 S :    0.444961
  55 H :    0.025389
  56 H :    0.031727
  57 H :    0.024749
  58 H :    0.036286
  59 H :    0.035199
  60 H :    0.030041
  61 H :    0.034407
  62 H :    0.036724
  63 H :    0.036315
  64 H :    0.024545
  65 H :    0.031678
  66 H :    0.025454

  Mayer bond orders larger than 0.100000
B(  0-C ,  1-C ) :   1.5761 B(  0-C ,  4-S ) :   1.1593 B(  0-C , 55-H ) :   0.9730
B(  1-C ,  2-C ) :   1.2605 B(  1-C , 56-H ) :   0.9936 B(  2-C ,  3-C ) :   1.5215
B(  2-C , 57-H ) :   0.9911 B(  3-C ,  4-S ) :   1.1469 B(  3-C ,  5-C ) :   1.1509
B(  5-C ,  6-C ) :   1.4732 B(  5-C ,  9-S ) :   1.1065 B(  6-C ,  7-C ) :   1.2869
B(  6-C , 58-H ) :   0.9909 B(  7-C ,  8-C ) :   1.4439 B(  7-C , 12-C ) :   0.9947
B(  8-C ,  9-S ) :   1.1139 B(  8-C , 10-C ) :   1.1923 B( 10-C , 11-C ) :   1.4037
B( 10-C , 20-S ) :   1.1001 B( 11-C , 12-C ) :   0.9932 B( 11-C , 18-C ) :   1.2588
B( 12-C , 13-C ) :   1.7043 B( 13-C , 14-C ) :   1.1315 B( 13-C , 16-C ) :   1.1410
B( 14-C , 15-N ) :   2.9953 B( 16-C , 17-N ) :   2.9890 B( 18-C , 19-C ) :   1.4157
B( 18-C , 59-H ) :   0.9810 B( 19-C , 20-S ) :   1.0915 B( 19-C , 21-C ) :   1.1930
B( 21-C , 22-C ) :   1.2673 B( 21-C , 28-C ) :   0.1329 B( 21-C , 30-C ) :   1.1925
B( 22-C , 23-C ) :   1.1263 B( 22-C , 27-N ) :   1.4693 B( 23-C , 24-N ) :   1.3894
B( 23-C , 28-C ) :   1.2643 B( 24-N , 25-C ) :   1.6495 B( 25-C , 26-C ) :   1.1947
B( 25-C , 60-H ) :   0.9734 B( 26-C , 27-N ) :   1.6679 B( 26-C , 61-H ) :   0.9754
B( 28-C , 29-C ) :   1.2053 B( 28-C , 34-C ) :   1.2057 B( 29-C , 30-C ) :   1.1107
B( 29-C , 33-N ) :   1.5074 B( 30-C , 31-N ) :   1.4605 B( 31-N , 32-S ) :   1.2674
B( 31-N , 33-N ) :   0.1537 B( 32-S , 33-N ) :   1.2874 B( 34-C , 35-C ) :   1.4201
B( 34-C , 38-S ) :   1.0814 B( 35-C , 36-C ) :   1.2761 B( 35-C , 62-H ) :   0.9835
B( 36-C , 37-C ) :   1.4076 B( 36-C , 41-C ) :   0.9904 B( 37-C , 38-S ) :   1.0729
B( 37-C , 39-C ) :   1.1976 B( 39-C , 40-C ) :   1.4433 B( 39-C , 49-S ) :   1.1124
B( 40-C , 41-C ) :   0.9948 B( 40-C , 47-C ) :   1.2874 B( 41-C , 42-C ) :   1.7041
B( 42-C , 43-C ) :   1.1409 B( 42-C , 45-C ) :   1.1306 B( 43-C , 44-N ) :   2.9866
B( 45-C , 46-N ) :   2.9947 B( 47-C , 48-C ) :   1.4710 B( 47-C , 63-H ) :   0.9910
B( 48-C , 49-S ) :   1.1075 B( 48-C , 50-C ) :   1.1518 B( 50-C , 51-C ) :   1.5212
B( 50-C , 54-S ) :   1.1468 B( 51-C , 52-C ) :   1.2592 B( 51-C , 64-H ) :   0.9915
B( 52-C , 53-C ) :   1.5764 B( 52-C , 65-H ) :   0.9939 B( 53-C , 54-S ) :   1.1594
B( 53-C , 66-H ) :   0.9731

-----------------------------------------------------------------------------
         ABSORPTION SPECTRUM VIA TRANSITION ELECTRIC DIPOLE MOMENTS
-----------------------------------------------------------------------------
State   Energy  Wavelength   fosc         T2         TX        TY        TZ
        (cm-1)    (nm)                  (au**2)     (au)      (au)      (au)
-----------------------------------------------------------------------------
   0    8462.0   1181.8   0.719030788  27.97363   0.65475   3.74850   3.67338
   1   11462.4    872.4   0.000583443   0.01676  -0.09923  -0.04771   0.06807
   2   12416.4    805.4   0.020048275   0.53156  -0.09876   0.56835   0.44586
   3   16825.1    594.3   0.001950244   0.03816   0.09923   0.03865  -0.16376
   4   21115.2    473.6   0.005955109   0.09285  -0.10255   0.24112   0.15553
   5   22548.6    443.5   0.004081420   0.05959  -0.13285  -0.17191  -0.11130
   6   23818.1    419.8   0.018760487   0.25931   0.15341   0.41943   0.24465
   7   23930.8    417.9   0.277973814   3.82403   0.49829   1.25214   1.41700
   8   25851.0    386.8   0.002146636   0.02734  -0.06261  -0.09726  -0.11815
   9   26527.1    377.0   0.070012107   0.86888   0.71411   0.25148   0.54377
  10   26885.3    372.0   0.067413992   0.82549  -0.64644  -0.32078  -0.55201
  11   27810.0    359.6   1.780527985  21.07772  -0.72608  -3.21452  -3.19647
  12   28486.6    351.0   0.006082270   0.07029   0.11674   0.06997   0.22752
  13   29159.0    342.9   0.067004643   0.75650   0.23752   0.38577   0.74247
  14   29385.8    340.3   0.053093578   0.59481   0.15223  -0.63963  -0.40313
  15   30490.3    328.0   0.016220315   0.17513  -0.38956   0.13643   0.06900
  16   30893.0    323.7   0.078569701   0.83728  -0.87013  -0.09807  -0.26560
  17   31602.2    316.4   0.085788272   0.89369   0.23076  -0.80396  -0.44056
  18   31648.1    316.0   0.216086970   2.24780  -0.89451  -0.60469  -1.04019
  19   31656.3    315.9   0.016630741   0.17295   0.11003  -0.28228  -0.28489
  20   31853.6    313.9   0.808528681   8.35626   2.69411  -1.01232   0.27068
  21   32144.8    311.1   0.103851609   1.06360  -0.91529   0.45451   0.13882
  22   33575.2    297.8   0.104513163   1.02477   0.82218  -0.56948  -0.15649
  23   33779.3    296.0   0.022205663   0.21642  -0.42949   0.17482  -0.03728
  24   33846.4    295.5   0.025505775   0.24809  -0.35809  -0.15917  -0.30744
  25   34307.8    291.5   0.003133026   0.03006   0.04582   0.14684  -0.08001
  26   34658.2    288.5   0.006940915   0.06593  -0.09041  -0.18939  -0.14795
  27   34864.9    286.8   0.112927976   1.06632  -0.25178   0.78966   0.61592
  28   35088.8    285.0   0.041571791   0.39004  -0.06584  -0.45575  -0.42190
  29   35419.6    282.3   0.554896951   5.15756  -2.13355   0.64159  -0.44034
  30   35780.0    279.5   0.001563255   0.01438  -0.09130   0.03258  -0.07061
  31   35937.8    278.3   0.002181491   0.01998   0.08848  -0.03681   0.10392
  32   36156.0    276.6   0.359016556   3.26896   1.48943   0.31237   0.97621
  33   36377.0    274.9   0.002069839   0.01873  -0.00482  -0.13676   0.00256
  34   36723.3    272.3   0.149612084   1.34122   1.09346  -0.30887   0.22396
  35   37217.3    268.7   0.089452518   0.79127  -0.87348   0.03157  -0.16521
  36   38167.3    262.0   0.135768990   1.17107  -0.51442  -0.56908  -0.76328
  37   38308.5    261.0   0.052867362   0.45433  -0.35488  -0.35058  -0.45330
  38   38331.2    260.9   0.007971162   0.06846   0.00534  -0.19081  -0.17895
  39   38474.9    259.9   0.052030953   0.44520   0.07002   0.46895   0.46945
  40   38676.6    258.6   0.013071045   0.11126   0.27130   0.05937   0.18475
  41   40281.4    248.3   0.025038104   0.20463   0.40917  -0.12198   0.14944

FINAL SINGLE POINT ENERGY     -4753.344983520352

DIPOLE MOMENT
-------------
                                X             Y             Z
Electronic contribution:      6.86686      -3.04232       3.15489
Nuclear contribution   :     -7.22803       3.19671      -3.31463
                        -----------------------------------------
Total Dipole Moment    :     -0.36117       0.15440      -0.15973
                        -----------------------------------------
Magnitude (a.u.)       :      0.42402
Magnitude (Debye)      :      1.07777

Rotational constants in cm-1:     0.004034     0.000391     0.000357
Rotational constants in MHz :   120.922100    11.726156    10.713904

                             ****ORCA TERMINATED NORMALLY****
TOTAL RUN TIME: 0 days 0 hours 5 minutes 39 seconds 776 msec
