                         Program Version 4.2.0 -  RELEASE  -
|  1> # ORCA input file
|  2> # SCF done       -193.365492522573          0.000557146682
|  3> ! CAM-B3LYP def2-SVP def2/J RIJCOSX Grid4 TightSCF
|  4> %maxcore 5000
|  5> %tddft
|  6>     Mode sTDDFT
|  7>     Ethresh 5.0
|  8>     maxcore 5000
|  9> end
| 10>
| 11> %pal
| 12>   nprocs 6
| 13>   end
| 14> * xyz 0 1
| 15>    C        0.43673         3.60277         3.86659
| 16>    C        1.28714         4.49278         3.26224
| 17>    C        2.68416         4.50657         3.45853
| 18>    N        3.82329         4.57437         3.58255
| 19>    C        0.90739         5.48897         2.33813
| 20>    N        0.68258         6.31015         1.56706
| 21>    C        0.84195         2.50569         4.73594
| 22>    C       -0.29815         1.72122         5.03389
| 23>    C       -0.24399         0.60246         5.82911
| 24>    C        0.99835         0.24088         6.35976
| 25>    C        2.13287         1.03413         6.06238
| 26>    C        2.07696         2.16404         5.25585
| 27>    S        3.56388         0.41373         6.82748
| 28>    C        2.63283        -0.88533         7.52504
| 29>    C        1.31759        -0.85806         7.20295
| 30>   Br        3.48450        -2.15234         8.61350
| 31>    C       -1.48571         2.30130         4.37888
| 32>    O       -2.61813         1.87626         4.45818
| 33>    C       -1.00379         3.52512         3.69257
| 34>    C       -1.76712         4.52115         3.14713
| 35>    C       -3.14274         4.53980         2.84450
| 36>    C       -4.07817         3.52246         2.70268
| 37>    C       -5.33348         4.00823         2.36558
| 38>    C       -5.37260         5.41659         2.24904
| 39>    S       -3.85391         6.12885         2.51773
| 40>    C       -6.70141         5.80540         1.96038
| 41>    C       -7.50384         4.65282         1.88672
| 42>    C       -6.66630         3.48401         2.11845
| 43>    C       -7.05472         2.17812         2.09069
| 44>    C       -6.15544         1.10538         2.27919
| 45>    N       -5.44183         0.21730         2.40350
| 46>    C       -8.39430         1.80527         1.84547
| 47>    N       -9.48291         1.50410         1.65006
| 48>    C       -8.84300         4.93936         1.63161
| 49>    C       -9.06848         6.30030         1.51503
| 50>    S       -7.59828         7.23997         1.71023
| 51>    C      -10.31048         6.94947         1.30162
| 52>    C      -10.56149         8.30509         1.21211
| 53>    C      -11.90976         8.60612         1.04651
| 54>    C      -12.71900         7.48722         1.00295
| 55>    S      -11.78167         6.02981         1.16220
| 56>    C      -14.13070         7.43116         0.88346
| 57>    C      -14.92392         6.29925         0.81228
| 58>    C      -16.27897         6.61656         0.74450
| 59>    C      -16.52029         8.00197         0.76486
| 60>    S      -15.07636         8.91095         0.85571
| 61>    C      -17.91860         8.22220         0.71881
| 62>    C      -18.56243         6.96826         0.67132
| 63>    C      -17.55527         5.92206         0.66681
| 64>    C      -17.77256         4.57928         0.57407
| 65>    C      -16.71558         3.64458         0.56215
| 66>    N      -15.85343         2.88937         0.55872
| 67>    C      -19.07902         4.05325         0.48328
| 68>    N      -20.14774         3.64323         0.41709
| 69>    C      -19.94522         7.07123         0.61842
| 70>    C      -20.37517         8.39098         0.62011
| 71>    S      -19.02301         9.51568         0.71689
| 72>    C      -21.69276         8.89520         0.61820
| 73>    C      -22.85182         8.26007         0.28731
| 74>    C      -23.15007         7.02757        -0.41125
| 75>    C      -22.41064         6.44710        -1.40954
| 76>    C      -22.83750         5.32592        -2.15211
| 77>    N      -23.14273         4.42151        -2.78856
| 78>    C      -21.18698         6.96033        -1.88033
| 79>    N      -20.19918         7.35873        -2.30930
| 80>    C      -24.52006         6.65897        -0.06838
| 81>    C      -25.12875         7.74489         0.61063
| 82>    C      -24.13938         8.82515         0.78317
| 83>    O      -24.30627         9.92073         1.26669
| 84>    C      -26.43659         7.71092         1.03018
| 85>    C      -27.17187         6.54745         0.77957
| 86>    C      -26.54800         5.46191         0.11782
| 87>    C      -25.22792         5.49874        -0.31495
| 88>    S      -27.63397         4.12065        -0.07384
| 89>    C      -28.89639         5.02391         0.72043
| 90>    C      -28.52497         6.26599         1.11257
| 91>   Br      -30.58373         4.24215         0.95879
| 92>    H       -1.13207         0.02514         6.03294
| 93>    H        2.96847         2.73697         5.06341
| 94>    H        0.60045        -1.58155         7.54530
| 95>    H       -1.26414         5.45755         2.93433
| 96>    H       -3.83767         2.48626         2.85046
| 97>    H       -9.62988         4.21242         1.53981
| 98>    H       -9.78184         9.04364         1.27251
| 99>    H      -12.29854         9.60547         0.96263
|100>    H      -14.51685         5.30395         0.81501
|101>    H      -20.62057         6.23547         0.62864
|102>    H      -21.82103         9.90339         1.00083
|103>    H      -26.87915         8.55404         1.53688
|104>    H      -24.78962         4.64557        -0.80579
|105>    H      -29.17671         6.95623         1.61626
|106> *
|107>
|108>                          ****END OF INPUT****

CARTESIAN COORDINATES (ANGSTROEM)
---------------------------------
  C      0.436730    3.602770    3.866590
  C      1.287140    4.492780    3.262240
  C      2.684160    4.506570    3.458530
  N      3.823290    4.574370    3.582550
  C      0.907390    5.488970    2.338130
  N      0.682580    6.310150    1.567060
  C      0.841950    2.505690    4.735940
  C     -0.298150    1.721220    5.033890
  C     -0.243990    0.602460    5.829110
  C      0.998350    0.240880    6.359760
  C      2.132870    1.034130    6.062380
  C      2.076960    2.164040    5.255850
  S      3.563880    0.413730    6.827480
  C      2.632830   -0.885330    7.525040
  C      1.317590   -0.858060    7.202950
  Br     3.484500   -2.152340    8.613500
  C     -1.485710    2.301300    4.378880
  O     -2.618130    1.876260    4.458180
  C     -1.003790    3.525120    3.692570
  C     -1.767120    4.521150    3.147130
  C     -3.142740    4.539800    2.844500
  C     -4.078170    3.522460    2.702680
  C     -5.333480    4.008230    2.365580
  C     -5.372600    5.416590    2.249040
  S     -3.853910    6.128850    2.517730
  C     -6.701410    5.805400    1.960380
  C     -7.503840    4.652820    1.886720
  C     -6.666300    3.484010    2.118450
  C     -7.054720    2.178120    2.090690
  C     -6.155440    1.105380    2.279190
  N     -5.441830    0.217300    2.403500
  C     -8.394300    1.805270    1.845470
  N     -9.482910    1.504100    1.650060
  C     -8.843000    4.939360    1.631610
  C     -9.068480    6.300300    1.515030
  S     -7.598280    7.239970    1.710230
  C    -10.310480    6.949470    1.301620
  C    -10.561490    8.305090    1.212110
  C    -11.909760    8.606120    1.046510
  C    -12.719000    7.487220    1.002950
  S    -11.781670    6.029810    1.162200
  C    -14.130700    7.431160    0.883460
  C    -14.923920    6.299250    0.812280
  C    -16.278970    6.616560    0.744500
  C    -16.520290    8.001970    0.764860
  S    -15.076360    8.910950    0.855710
  C    -17.918600    8.222200    0.718810
  C    -18.562430    6.968260    0.671320
  C    -17.555270    5.922060    0.666810
  C    -17.772560    4.579280    0.574070
  C    -16.715580    3.644580    0.562150
  N    -15.853430    2.889370    0.558720
  C    -19.079020    4.053250    0.483280
  N    -20.147740    3.643230    0.417090
  C    -19.945220    7.071230    0.618420
  C    -20.375170    8.390980    0.620110
  S    -19.023010    9.515680    0.716890
  C    -21.692760    8.895200    0.618200
  C    -22.851820    8.260070    0.287310
  C    -23.150070    7.027570   -0.411250
  C    -22.410640    6.447100   -1.409540
  C    -22.837500    5.325920   -2.152110
  N    -23.142730    4.421510   -2.788560
  C    -21.186980    6.960330   -1.880330
  N    -20.199180    7.358730   -2.309300
  C    -24.520060    6.658970   -0.068380
  C    -25.128750    7.744890    0.610630
  C    -24.139380    8.825150    0.783170
  O    -24.306270    9.920730    1.266690
  C    -26.436590    7.710920    1.030180
  C    -27.171870    6.547450    0.779570
  C    -26.548000    5.461910    0.117820
  C    -25.227920    5.498740   -0.314950
  S    -27.633970    4.120650   -0.073840
  C    -28.896390    5.023910    0.720430
  C    -28.524970    6.265990    1.112570
  Br   -30.583730    4.242150    0.958790
  H     -1.132070    0.025140    6.032940
  H      2.968470    2.736970    5.063410
  H      0.600450   -1.581550    7.545300
  H     -1.264140    5.457550    2.934330
  H     -3.837670    2.486260    2.850460
  H     -9.629880    4.212420    1.539810
  H     -9.781840    9.043640    1.272510
  H    -12.298540    9.605470    0.962630
  H    -14.516850    5.303950    0.815010
  H    -20.620570    6.235470    0.628640
  H    -21.821030    9.903390    1.000830
  H    -26.879150    8.554040    1.536880
  H    -24.789620    4.645570   -0.805790
  H    -29.176710    6.956230    1.616260

 Total Charge           Charge          ....    0
 Multiplicity           Mult            ....    1
 Number of Electrons    NEL             ....  616
 Basis Dimension        Dim             .... 1212

ORBITAL ENERGIES
----------------

  NO   OCC          E(Eh)            E(eV)
   0   2.0000    -482.886381    -13140.0065
   1   2.0000    -482.886363    -13140.0060
   2   2.0000     -89.001620     -2421.8572
   3   2.0000     -89.001189     -2421.8455
   4   2.0000     -89.000408     -2421.8242
   5   2.0000     -88.999330     -2421.7949
   6   2.0000     -88.983116     -2421.3537
   7   2.0000     -88.976978     -2421.1867
   8   2.0000     -88.976672     -2421.1783
   9   2.0000     -62.564091     -1702.4555
  10   2.0000     -62.564086     -1702.4553
  11   2.0000     -56.398045     -1534.6688
  12   2.0000     -56.398038     -1534.6686
  13   2.0000     -56.395321     -1534.5947
  14   2.0000     -56.395318     -1534.5946
  15   2.0000     -56.395291     -1534.5939
  16   2.0000     -56.395289     -1534.5938
  17   2.0000     -19.220431      -523.0145
  18   2.0000     -19.218234      -522.9547
  19   2.0000     -14.437151      -392.8549
  20   2.0000     -14.435664      -392.8144
  21   2.0000     -14.435575      -392.8120
  22   2.0000     -14.432983      -392.7414
  23   2.0000     -14.419963      -392.3871
  24   2.0000     -14.418382      -392.3441
  25   2.0000     -14.416218      -392.2852
  26   2.0000     -14.415565      -392.2675
  27   2.0000     -10.372553      -282.2515
  28   2.0000     -10.372520      -282.2506
  29   2.0000     -10.372093      -282.2390
  30   2.0000     -10.369548      -282.1697
  31   2.0000     -10.359999      -281.9099
  32   2.0000     -10.359904      -281.9073
  33   2.0000     -10.359118      -281.8859
  34   2.0000     -10.358545      -281.8703
  35   2.0000     -10.350169      -281.6424
  36   2.0000     -10.347978      -281.5828
  37   2.0000     -10.346305      -281.5373
  38   2.0000     -10.345628      -281.5189
  39   2.0000     -10.344053      -281.4760
  40   2.0000     -10.343488      -281.4606
  41   2.0000     -10.343232      -281.4536
  42   2.0000     -10.341565      -281.4083
  43   2.0000     -10.341432      -281.4047
  44   2.0000     -10.341205      -281.3985
  45   2.0000     -10.337144      -281.2880
  46   2.0000     -10.335352      -281.2392
  47   2.0000     -10.335324      -281.2385
  48   2.0000     -10.333793      -281.1968
  49   2.0000     -10.333392      -281.1859
  50   2.0000     -10.332073      -281.1500
  51   2.0000     -10.331190      -281.1260
  52   2.0000     -10.330773      -281.1146
  53   2.0000     -10.330131      -281.0972
  54   2.0000     -10.327814      -281.0341
  55   2.0000     -10.327575      -281.0276
  56   2.0000     -10.326987      -281.0116
  57   2.0000     -10.321504      -280.8624
  58   2.0000     -10.321198      -280.8541
  59   2.0000     -10.319250      -280.8011
  60   2.0000     -10.318201      -280.7725
  61   2.0000     -10.317921      -280.7649
  62   2.0000     -10.316422      -280.7241
  63   2.0000     -10.316252      -280.7195
  64   2.0000     -10.311683      -280.5951
  65   2.0000     -10.311480      -280.5896
  66   2.0000     -10.311449      -280.5888
  67   2.0000     -10.311408      -280.5877
  68   2.0000     -10.310881      -280.5733
  69   2.0000     -10.310781      -280.5706
  70   2.0000     -10.309662      -280.5402
  71   2.0000     -10.309137      -280.5259
  72   2.0000     -10.308898      -280.5194
  73   2.0000     -10.307422      -280.4792
  74   2.0000     -10.307094      -280.4703
  75   2.0000     -10.303625      -280.3759
  76   2.0000     -10.303521      -280.3730
  77   2.0000     -10.302939      -280.3572
  78   2.0000     -10.302715      -280.3511
  79   2.0000     -10.302081      -280.3339
  80   2.0000     -10.301934      -280.3299
  81   2.0000     -10.297773      -280.2167
  82   2.0000     -10.297525      -280.2099
  83   2.0000     -10.295346      -280.1506
  84   2.0000     -10.293781      -280.1080
  85   2.0000      -8.793529      -239.2841
  86   2.0000      -8.793514      -239.2837
  87   2.0000      -8.096163      -220.3078
  88   2.0000      -8.095718      -220.2957
  89   2.0000      -8.094962      -220.2751
  90   2.0000      -8.094097      -220.2516
  91   2.0000      -8.078356      -219.8232
  92   2.0000      -8.072901      -219.6748
  93   2.0000      -8.072664      -219.6684
  94   2.0000      -6.629851      -180.4074
  95   2.0000      -6.629819      -180.4066
  96   2.0000      -6.615265      -180.0105
  97   2.0000      -6.615260      -180.0104
  98   2.0000      -6.615045      -180.0045
  99   2.0000      -6.615032      -180.0042
 100   2.0000      -6.065482      -165.0502
 101   2.0000      -6.065021      -165.0376
 102   2.0000      -6.064135      -165.0135
 103   2.0000      -6.063230      -164.9889
 104   2.0000      -6.061314      -164.9367
 105   2.0000      -6.060854      -164.9242
 106   2.0000      -6.059957      -164.8998
 107   2.0000      -6.059080      -164.8759
 108   2.0000      -6.058368      -164.8566
 109   2.0000      -6.057963      -164.8456
 110   2.0000      -6.057507      -164.8331
 111   2.0000      -6.056612      -164.8088
 112   2.0000      -6.047762      -164.5680
 113   2.0000      -6.043632      -164.4556
 114   2.0000      -6.042600      -164.4275
 115   2.0000      -6.042342      -164.4205
 116   2.0000      -6.040226      -164.3629
 117   2.0000      -6.038297      -164.3104
 118   2.0000      -6.038087      -164.3047
 119   2.0000      -6.034146      -164.1975
 120   2.0000      -6.033883      -164.1903
 121   2.0000      -2.745712       -74.7146
 122   2.0000      -2.745700       -74.7143
 123   2.0000      -2.741601       -74.6027
 124   2.0000      -2.741599       -74.6027
 125   2.0000      -2.741494       -74.5999
 126   2.0000      -2.741445       -74.5985
 127   2.0000      -2.729880       -74.2838
 128   2.0000      -2.729865       -74.2834
 129   2.0000      -2.729863       -74.2833
 130   2.0000      -2.729849       -74.2830
 131   2.0000      -1.136300       -30.9203
 132   2.0000      -1.133891       -30.8548
 133   2.0000      -1.055326       -28.7169
 134   2.0000      -1.054841       -28.7037
 135   2.0000      -1.028909       -27.9980
 136   2.0000      -1.027357       -27.9558
 137   2.0000      -1.025835       -27.9144
 138   2.0000      -1.024863       -27.8880
 139   2.0000      -1.021159       -27.7872
 140   2.0000      -1.015923       -27.6447
 141   2.0000      -1.015200       -27.6250
 142   2.0000      -1.013806       -27.5871
 143   2.0000      -1.011427       -27.5223
 144   2.0000      -1.008786       -27.4504
 145   2.0000      -0.998348       -27.1664
 146   2.0000      -0.996167       -27.1071
 147   2.0000      -0.995980       -27.1020
 148   2.0000      -0.991728       -26.9863
 149   2.0000      -0.991079       -26.9686
 150   2.0000      -0.969552       -26.3829
 151   2.0000      -0.964852       -26.2550
 152   2.0000      -0.945279       -25.7224
 153   2.0000      -0.945106       -25.7176
 154   2.0000      -0.929327       -25.2883
 155   2.0000      -0.924005       -25.1435
 156   2.0000      -0.910665       -24.7804
 157   2.0000      -0.910017       -24.7628
 158   2.0000      -0.902456       -24.5571
 159   2.0000      -0.897808       -24.4306
 160   2.0000      -0.887828       -24.1590
 161   2.0000      -0.887262       -24.1436
 162   2.0000      -0.884862       -24.0783
 163   2.0000      -0.881329       -23.9822
 164   2.0000      -0.874253       -23.7896
 165   2.0000      -0.869344       -23.6560
 166   2.0000      -0.865688       -23.5566
 167   2.0000      -0.864650       -23.5283
 168   2.0000      -0.850719       -23.1492
 169   2.0000      -0.850468       -23.1424
 170   2.0000      -0.831206       -22.6183
 171   2.0000      -0.830666       -22.6036
 172   2.0000      -0.813969       -22.1492
 173   2.0000      -0.801418       -21.8077
 174   2.0000      -0.792461       -21.5640
 175   2.0000      -0.783447       -21.3187
 176   2.0000      -0.776426       -21.1276
 177   2.0000      -0.767664       -20.8892
 178   2.0000      -0.762066       -20.7369
 179   2.0000      -0.758273       -20.6337
 180   2.0000      -0.737739       -20.0749
 181   2.0000      -0.725059       -19.7299
 182   2.0000      -0.717463       -19.5232
 183   2.0000      -0.708314       -19.2742
 184   2.0000      -0.705576       -19.1997
 185   2.0000      -0.698786       -19.0149
 186   2.0000      -0.696247       -18.9458
 187   2.0000      -0.693860       -18.8809
 188   2.0000      -0.690325       -18.7847
 189   2.0000      -0.687785       -18.7156
 190   2.0000      -0.684481       -18.6257
 191   2.0000      -0.676817       -18.4171
 192   2.0000      -0.663528       -18.0555
 193   2.0000      -0.661021       -17.9873
 194   2.0000      -0.651716       -17.7341
 195   2.0000      -0.646338       -17.5878
 196   2.0000      -0.641626       -17.4595
 197   2.0000      -0.640068       -17.4171
 198   2.0000      -0.634902       -17.2766
 199   2.0000      -0.630658       -17.1611
 200   2.0000      -0.627532       -17.0760
 201   2.0000      -0.625456       -17.0195
 202   2.0000      -0.624419       -16.9913
 203   2.0000      -0.622228       -16.9317
 204   2.0000      -0.611605       -16.6426
 205   2.0000      -0.602466       -16.3939
 206   2.0000      -0.598897       -16.2968
 207   2.0000      -0.595448       -16.2030
 208   2.0000      -0.593278       -16.1439
 209   2.0000      -0.583586       -15.8802
 210   2.0000      -0.579596       -15.7716
 211   2.0000      -0.561591       -15.2817
 212   2.0000      -0.557501       -15.1704
 213   2.0000      -0.556854       -15.1528
 214   2.0000      -0.555223       -15.1084
 215   2.0000      -0.552181       -15.0256
 216   2.0000      -0.550535       -14.9808
 217   2.0000      -0.544613       -14.8197
 218   2.0000      -0.544262       -14.8101
 219   2.0000      -0.541491       -14.7347
 220   2.0000      -0.541039       -14.7224
 221   2.0000      -0.535230       -14.5644
 222   2.0000      -0.532868       -14.5001
 223   2.0000      -0.526843       -14.3361
 224   2.0000      -0.524604       -14.2752
 225   2.0000      -0.522281       -14.2120
 226   2.0000      -0.519833       -14.1454
 227   2.0000      -0.519020       -14.1233
 228   2.0000      -0.517082       -14.0705
 229   2.0000      -0.513914       -13.9843
 230   2.0000      -0.512111       -13.9352
 231   2.0000      -0.511733       -13.9250
 232   2.0000      -0.509425       -13.8622
 233   2.0000      -0.508321       -13.8321
 234   2.0000      -0.505687       -13.7604
 235   2.0000      -0.504298       -13.7226
 236   2.0000      -0.501833       -13.6556
 237   2.0000      -0.500177       -13.6105
 238   2.0000      -0.496980       -13.5235
 239   2.0000      -0.496222       -13.5029
 240   2.0000      -0.495595       -13.4858
 241   2.0000      -0.492457       -13.4004
 242   2.0000      -0.491633       -13.3780
 243   2.0000      -0.486800       -13.2465
 244   2.0000      -0.486441       -13.2367
 245   2.0000      -0.478750       -13.0275
 246   2.0000      -0.476602       -12.9690
 247   2.0000      -0.475555       -12.9405
 248   2.0000      -0.472060       -12.8454
 249   2.0000      -0.466900       -12.7050
 250   2.0000      -0.464896       -12.6505
 251   2.0000      -0.464589       -12.6421
 252   2.0000      -0.463352       -12.6084
 253   2.0000      -0.460816       -12.5394
 254   2.0000      -0.459849       -12.5131
 255   2.0000      -0.458517       -12.4769
 256   2.0000      -0.454396       -12.3647
 257   2.0000      -0.452809       -12.3216
 258   2.0000      -0.451698       -12.2913
 259   2.0000      -0.450971       -12.2716
 260   2.0000      -0.449510       -12.2318
 261   2.0000      -0.448935       -12.2161
 262   2.0000      -0.447772       -12.1845
 263   2.0000      -0.446052       -12.1377
 264   2.0000      -0.445532       -12.1235
 265   2.0000      -0.445134       -12.1127
 266   2.0000      -0.444894       -12.1062
 267   2.0000      -0.443735       -12.0747
 268   2.0000      -0.443417       -12.0660
 269   2.0000      -0.442571       -12.0430
 270   2.0000      -0.440424       -11.9845
 271   2.0000      -0.438957       -11.9446
 272   2.0000      -0.437194       -11.8967
 273   2.0000      -0.432056       -11.7568
 274   2.0000      -0.430678       -11.7193
 275   2.0000      -0.429444       -11.6858
 276   2.0000      -0.429380       -11.6840
 277   2.0000      -0.428204       -11.6520
 278   2.0000      -0.425411       -11.5760
 279   2.0000      -0.424378       -11.5479
 280   2.0000      -0.415330       -11.3017
 281   2.0000      -0.413678       -11.2567
 282   2.0000      -0.412172       -11.2158
 283   2.0000      -0.410092       -11.1592
 284   2.0000      -0.402055       -10.9405
 285   2.0000      -0.394567       -10.7367
 286   2.0000      -0.389743       -10.6055
 287   2.0000      -0.387302       -10.5390
 288   2.0000      -0.380545       -10.3552
 289   2.0000      -0.375797       -10.2260
 290   2.0000      -0.375706       -10.2235
 291   2.0000      -0.366870        -9.9830
 292   2.0000      -0.361117        -9.8265
 293   2.0000      -0.357566        -9.7299
 294   2.0000      -0.355978        -9.6867
 295   2.0000      -0.349535        -9.5113
 296   2.0000      -0.344651        -9.3784
 297   2.0000      -0.341635        -9.2963
 298   2.0000      -0.334553        -9.1036
 299   2.0000      -0.330358        -8.9895
 300   2.0000      -0.328879        -8.9492
 301   2.0000      -0.317100        -8.6287
 302   2.0000      -0.317015        -8.6264
 303   2.0000      -0.310221        -8.4415
 304   2.0000      -0.295941        -8.0530
 305   2.0000      -0.295098        -8.0300
 306   2.0000      -0.279074        -7.5940
 307   2.0000      -0.251309        -6.8385
 308   0.0000      -0.120498        -3.2789
 309   0.0000      -0.113685        -3.0935
 310   0.0000      -0.092034        -2.5044
 311   0.0000      -0.090636        -2.4663
 312   0.0000      -0.066504        -1.8097

MULLIKEN ATOMIC CHARGES
-----------------------
   0 C :    0.298765
   1 C :   -0.346018
   2 C :   -0.183589
   3 N :    0.150176
   4 C :   -0.201684
   5 N :    0.154248
   6 C :    0.016772
   7 C :   -0.017686
   8 C :   -0.068275
   9 C :    0.117828
  10 C :   -0.092136
  11 C :   -0.019440
  12 S :    0.187588
  13 C :   -0.122362
  14 C :    0.039688
  15 Br:    0.025491
  16 C :    0.152682
  17 O :   -0.152294
  18 C :   -0.090758
  19 C :    0.030702
  20 C :   -0.113632
  21 C :    0.019052
  22 C :   -0.016088
  23 C :   -0.079626
  24 S :    0.204648
  25 C :   -0.108369
  26 C :    0.026441
  27 C :    0.301183
  28 C :   -0.288901
  29 C :   -0.187090
  30 N :    0.191492
  31 C :   -0.192062
  32 N :    0.180033
  33 C :   -0.066567
  34 C :   -0.024787
  35 S :    0.194989
  36 C :   -0.052809
  37 C :   -0.006760
  38 C :   -0.005546
  39 C :   -0.051912
  40 S :    0.150534
  41 C :   -0.030409
  42 C :   -0.058957
  43 C :    0.024088
  44 C :   -0.109423
  45 S :    0.193628
  46 C :   -0.069564
  47 C :   -0.006130
  48 C :    0.299546
  49 C :   -0.279592
  50 C :   -0.193040
  51 N :    0.185847
  52 C :   -0.183206
  53 N :    0.170083
  54 C :   -0.000503
  55 C :   -0.112650
  56 S :    0.213824
  57 C :    0.086772
  58 C :   -0.136221
  59 C :    0.263715
  60 C :   -0.333450
  61 C :   -0.173398
  62 N :    0.159556
  63 C :   -0.200511
  64 N :    0.171780
  65 C :   -0.001602
  66 C :    0.007516
  67 C :    0.131444
  68 O :   -0.144172
  69 C :   -0.074336
  70 C :    0.114586
  71 C :   -0.089965
  72 C :   -0.018516
  73 S :    0.190181
  74 C :   -0.126414
  75 C :    0.041397
  76 Br:    0.024999
  77 H :   -0.006711
  78 H :   -0.005375
  79 H :   -0.001690
  80 H :    0.018174
  81 H :    0.035907
  82 H :    0.020227
  83 H :   -0.003396
  84 H :   -0.004846
  85 H :    0.018279
  86 H :    0.026140
  87 H :    0.019976
  88 H :   -0.008714
  89 H :    0.003576
  90 H :   -0.002371
Sum of atomic charges:   -0.0000000

LOEWDIN ATOMIC CHARGES
----------------------
   0 C :    0.076170
   1 C :   -0.143429
   2 C :   -0.018600
   3 N :   -0.053214
   4 C :   -0.024974
   5 N :   -0.054045
   6 C :   -0.021608
   7 C :   -0.050373
   8 C :    0.024069
   9 C :   -0.031826
  10 C :   -0.143515
  11 C :   -0.009615
  12 S :    0.433421
  13 C :   -0.270932
  14 C :   -0.069593
  15 Br:    0.138374
  16 C :    0.085357
  17 O :   -0.138182
  18 C :   -0.096661
  19 C :    0.042170
  20 C :   -0.178236
  21 C :    0.022724
  22 C :   -0.075755
  23 C :   -0.158147
  24 S :    0.492904
  25 C :   -0.191862
  26 C :   -0.049959
  27 C :    0.075282
  28 C :   -0.090402
  29 C :   -0.020426
  30 N :   -0.015629
  31 C :   -0.017053
  32 N :   -0.025237
  33 C :   -0.037991
  34 C :   -0.164861
  35 S :    0.480946
  36 C :   -0.184280
  37 C :   -0.053115
  38 C :   -0.055407
  39 C :   -0.181394
  40 S :    0.462472
  41 C :   -0.169072
  42 C :   -0.034645
  43 C :   -0.054175
  44 C :   -0.185616
  45 S :    0.482329
  46 C :   -0.158845
  47 C :   -0.067262
  48 C :    0.080814
  49 C :   -0.093651
  50 C :   -0.018698
  51 N :   -0.023258
  52 C :   -0.012524
  53 N :   -0.029497
  54 C :    0.010313
  55 C :   -0.181803
  56 S :    0.498791
  57 C :    0.041614
  58 C :   -0.091638
  59 C :    0.065239
  60 C :   -0.137543
  61 C :   -0.019492
  62 N :   -0.045251
  63 C :   -0.016027
  64 N :   -0.046779
  65 C :   -0.017694
  66 C :   -0.053734
  67 C :    0.083329
  68 O :   -0.144043
  69 C :    0.023037
  70 C :   -0.033125
  71 C :   -0.142460
  72 C :   -0.009184
  73 S :    0.436086
  74 C :   -0.271489
  75 C :   -0.070436
  76 Br:    0.138078
  77 H :    0.042478
  78 H :    0.041190
  79 H :    0.039625
  80 H :    0.043447
  81 H :    0.044939
  82 H :    0.038718
  83 H :    0.029816
  84 H :    0.029549
  85 H :    0.038929
  86 H :    0.042820
  87 H :    0.045606
  88 H :    0.041554
  89 H :    0.043009
  90 H :    0.039060

  Mayer bond orders larger than 0.100000
B(  0-C ,  1-C ) :   1.6285 B(  0-C ,  6-C ) :   1.0038 B(  0-C , 18-C ) :   1.0764
B(  1-C ,  2-C ) :   1.1412 B(  1-C ,  4-C ) :   1.1399 B(  2-C ,  3-N ) :   2.9711
B(  4-C ,  5-N ) :   2.9867 B(  6-C ,  7-C ) :   1.2733 B(  6-C , 11-C ) :   1.4086
B(  7-C ,  8-C ) :   1.4260 B(  7-C , 16-C ) :   0.9470 B(  8-C ,  9-C ) :   1.2434
B(  8-C , 77-H ) :   1.0167 B(  9-C , 10-C ) :   1.3043 B(  9-C , 14-C ) :   1.1643
B( 10-C , 11-C ) :   1.3313 B( 10-C , 12-S ) :   1.0872 B( 11-C , 78-H ) :   0.9797
B( 12-S , 13-C ) :   1.0859 B( 13-C , 14-C ) :   1.6181 B( 13-C , 15-Br) :   1.0196
B( 14-C , 79-H ) :   0.9999 B( 16-C , 17-O ) :   2.1869 B( 16-C , 18-C ) :   0.9436
B( 18-C , 19-C ) :   1.5957 B( 19-C , 20-C ) :   1.2052 B( 19-C , 80-H ) :   0.9212
B( 20-C , 21-C ) :   1.4024 B( 20-C , 24-S ) :   1.0716 B( 21-C , 22-C ) :   1.3340
B( 21-C , 81-H ) :   0.9736 B( 22-C , 23-C ) :   1.3795 B( 22-C , 27-C ) :   0.9958
B( 23-C , 24-S ) :   1.1660 B( 23-C , 25-C ) :   1.2083 B( 25-C , 26-C ) :   1.4377
B( 25-C , 35-S ) :   1.1061 B( 26-C , 27-C ) :   0.9928 B( 26-C , 33-C ) :   1.3080
B( 27-C , 28-C ) :   1.7231 B( 28-C , 29-C ) :   1.1337 B( 28-C , 31-C ) :   1.1339
B( 29-C , 30-N ) :   2.9949 B( 31-C , 32-N ) :   2.9910 B( 33-C , 34-C ) :   1.4457
B( 33-C , 82-H ) :   0.9881 B( 34-C , 35-S ) :   1.1165 B( 34-C , 36-C ) :   1.1643
B( 36-C , 37-C ) :   1.4877 B( 36-C , 39-C ) :   0.1020 B( 36-C , 40-S ) :   1.1263
B( 37-C , 38-C ) :   1.2836 B( 37-C , 83-H ) :   0.9923 B( 38-C , 39-C ) :   1.4863
B( 38-C , 84-H ) :   0.9928 B( 39-C , 40-S ) :   1.1293 B( 39-C , 41-C ) :   1.1633
B( 41-C , 42-C ) :   1.4477 B( 41-C , 45-S ) :   1.1136 B( 42-C , 43-C ) :   1.3072
B( 42-C , 85-H ) :   0.9894 B( 43-C , 44-C ) :   1.4431 B( 43-C , 48-C ) :   0.9912
B( 44-C , 45-S ) :   1.1118 B( 44-C , 46-C ) :   1.2007 B( 46-C , 47-C ) :   1.4066
B( 46-C , 56-S ) :   1.1557 B( 47-C , 48-C ) :   0.9992 B( 47-C , 54-C ) :   1.3635
B( 48-C , 49-C ) :   1.7229 B( 49-C , 50-C ) :   1.1303 B( 49-C , 52-C ) :   1.1331
B( 50-C , 51-N ) :   2.9967 B( 52-C , 53-N ) :   2.9818 B( 54-C , 55-C ) :   1.3950
B( 54-C , 86-H ) :   0.9786 B( 55-C , 56-S ) :   1.0863 B( 55-C , 57-C ) :   1.1386
B( 57-C , 58-C ) :   1.6703 B( 57-C , 87-H ) :   0.9269 B( 58-C , 59-C ) :   1.0379
B( 58-C , 67-C ) :   0.9432 B( 59-C , 60-C ) :   1.6496 B( 59-C , 65-C ) :   1.0102
B( 60-C , 61-C ) :   1.1264 B( 60-C , 63-C ) :   1.1722 B( 61-C , 62-N ) :   2.9935
B( 63-C , 64-N ) :   2.9978 B( 65-C , 66-C ) :   1.2746 B( 65-C , 72-C ) :   1.4171
B( 66-C , 67-C ) :   0.9216 B( 66-C , 69-C ) :   1.4242 B( 67-C , 68-O ) :   2.2640
B( 69-C , 70-C ) :   1.2518 B( 69-C , 88-H ) :   1.0164 B( 70-C , 71-C ) :   1.3052
B( 70-C , 75-C ) :   1.1652 B( 71-C , 72-C ) :   1.3280 B( 71-C , 73-S ) :   1.0864
B( 72-C , 89-H ) :   0.9833 B( 73-S , 74-C ) :   1.0882 B( 74-C , 75-C ) :   1.6173
B( 74-C , 76-Br) :   1.0197 B( 75-C , 90-H ) :   0.9997

-----------------------------------------------------------------------------
         ABSORPTION SPECTRUM VIA TRANSITION ELECTRIC DIPOLE MOMENTS
-----------------------------------------------------------------------------
State   Energy  Wavelength   fosc         T2         TX        TY        TZ
        (cm-1)    (nm)                  (au**2)     (au)      (au)      (au)
-----------------------------------------------------------------------------
   0   12263.6    815.4   0.762797408  20.47703  -4.40074   0.75173  -0.73851
   1   13264.8    753.9   0.043159955   1.07116   0.86673  -0.47593   0.30566
   2   19204.1    520.7   1.820752265  31.21271   5.43789  -0.60982   1.12702
   3   20928.7    477.8   0.192465079   3.02751   1.52102  -0.77965   0.32581
   4   21442.9    466.4   0.054503806   0.83679  -0.68667   0.58355  -0.15731
   5   22683.5    440.8   0.152347905   2.21107  -1.38695  -0.04236  -0.53445
   6   25329.8    394.8   0.010135869   0.13174   0.03743   0.25736  -0.25318
   7   25684.9    389.3   0.075486509   0.96754   0.59903   0.47839  -0.61632
   8   26469.5    377.8   0.493402384   6.13664   2.23277  -1.04692   0.23525
   9   27458.0    364.2   0.063948189   0.76672  -0.33778  -0.39793   0.70305
  10   27703.1    361.0   0.020869301   0.24800   0.35345   0.32642   0.12855
  11   27947.9    357.8   0.006479717   0.07633   0.12068   0.13435  -0.20908
  12   28530.1    350.5   0.050722164   0.58529   0.61044   0.06516  -0.45651
  13   28843.3    346.7   0.067872102   0.77468   0.64071   0.60342  -0.00722
  14   29071.2    344.0   0.001622385   0.01837   0.00400  -0.05093   0.12555
  15   29216.0    342.3   0.060157336   0.67787  -0.20488   0.66924  -0.43360
  16   29798.8    335.6   0.178167101   1.96836   1.36382   0.17409  -0.27937
  17   29888.2    334.6   0.077001901   0.84816  -0.69340  -0.01435   0.60593
  18   30128.4    331.9   0.081236993   0.88767   0.05873  -0.79451   0.50297
  19   30242.3    330.7   0.325600720   3.54443  -1.79850  -0.19427  -0.52160
  20   30533.4    327.5   0.335279616   3.61499  -0.35000   1.53918  -1.05991
  21   31135.8    321.2   0.156065029   1.65014   0.89950   0.89542  -0.19812
  22   31154.9    321.0   0.719654611   7.60454  -0.20014  -2.74054  -0.23218
  23   32359.9    309.0   0.080235331   0.81627  -0.82815   0.35388  -0.07213
  24   32495.7    307.7   0.263144288   2.66590   1.15721   0.94338  -0.66091
  25   32657.2    306.2   0.166545821   1.67892  -0.72495   0.81480  -0.69963
  26   32736.1    305.5   0.226155565   2.27434   1.46577  -0.18656   0.30174
  27   33314.0    300.2   0.058405349   0.57717  -0.64280  -0.34699   0.20873
  28   33416.3    299.3   0.008873128   0.08742  -0.21065   0.06180  -0.19805
  29   33537.5    298.2   0.015778163   0.15488  -0.12099  -0.36558   0.08123
  30   33760.2    296.2   0.058242637   0.56795   0.71765  -0.21436  -0.08353
  31   33775.6    296.1   0.019090436   0.18608   0.17514  -0.19427  -0.34301
  32   34286.4    291.7   0.024971891   0.23978   0.34553   0.34417  -0.04398
  33   34426.2    290.5   0.213426780   2.04096   0.05391   1.32310  -0.53615
  34   34548.9    289.4   0.333293253   3.17591   1.39715   0.31754  -1.05974
  35   34665.0    288.5   0.005567148   0.05287  -0.14232   0.17761   0.03271
  36   34859.9    286.9   0.093211634   0.88028  -0.77788   0.52211   0.05081
  37   35220.8    283.9   0.086559242   0.80908   0.53837   0.71618  -0.07956
  38   35502.5    281.7   0.329940140   3.05951   0.34181   1.69230  -0.28071
  39   35563.3    281.2   0.080268817   0.74305  -0.18060  -0.68649  -0.48904
  40   35946.0    278.2   0.009130887   0.08363  -0.15913  -0.24143   0.00396
  41   36413.8    274.6   0.095191185   0.86061   0.78404  -0.46904   0.16092
  42   36486.3    274.1   0.022673120   0.20458   0.22528  -0.28404  -0.27045
  43   36687.4    272.6   0.009141814   0.08203   0.22467   0.09558  -0.14974
  44   37210.0    268.7   0.013595190   0.12028  -0.22338   0.12107   0.23607
  45   37393.9    267.4   0.045682481   0.40218   0.63271   0.04275   0.00587
  46   37643.9    265.6   0.012743698   0.11145   0.06592  -0.30859   0.10898
  47   38004.1    263.1   0.065034080   0.56336   0.53910   0.52088  -0.03767
  48   38045.2    262.8   0.043903543   0.37990  -0.09401   0.58833   0.15791
  49   38305.3    261.1   0.004810231   0.04134   0.18155  -0.02328  -0.08854
  50   38736.9    258.2   0.077687353   0.66024  -0.14536   0.79845  -0.03989
  51   39068.9    256.0   0.055253384   0.46559  -0.65021   0.15892  -0.13254
  52   39295.0    254.5   0.014551476   0.12191   0.19165   0.27561   0.09603
  53   39514.8    253.1   0.036499450   0.30409   0.30894   0.27454   0.36507
  54   39703.7    251.9   0.006180058   0.05124  -0.04549   0.20858  -0.07528
  55   39798.9    251.3   0.139898222   1.15722  -0.61396  -0.86509  -0.17858
  56   39981.8    250.1   0.122968877   1.01253   0.95406   0.04366  -0.31684

FINAL SINGLE POINT ENERGY    -10737.728669081171

DIPOLE MOMENT
-------------
                                X             Y             Z
Electronic contribution:    -25.65369     -72.11857      48.49990
Nuclear contribution   :     24.31535      74.57956     -45.97808
                        -----------------------------------------
Total Dipole Moment    :     -1.33835       2.46100       2.52182
                        -----------------------------------------
Magnitude (a.u.)       :      3.76925
Magnitude (Debye)      :      9.58068

Rotational constants in cm-1:     0.001608     0.000103     0.000099
Rotational constants in MHz :    48.201364     3.098786     2.962489

                             ****ORCA TERMINATED NORMALLY****
TOTAL RUN TIME: 0 days 0 hours 9 minutes 35 seconds 185 msec
