                         Program Version 4.2.0 -  RELEASE  -
|  1> # ORCA input file
|  2> # SCF done       -204.702786768021          0.000821061327
|  3> ! CAM-B3LYP def2-SVP def2/J RIJCOSX Grid4 TightSCF
|  4> %maxcore 5000
|  5> %tddft
|  6>     Mode sTDDFT
|  7>     Ethresh 5.0
|  8>     maxcore 5000
|  9> end
| 10>
| 11> %pal
| 12>   nprocs 6
| 13>   end
| 14> * xyz 0 1
| 15>    C        1.76430         1.27448         1.28256
| 16>    C        2.44367         2.30255         1.88410
| 17>    C        3.10162         2.18604         3.12667
| 18>    N        3.65852         2.14283         4.12911
| 19>    C        2.64604         3.56162         1.28835
| 20>    N        2.84542         4.59361         0.82544
| 21>    C        1.73288        -0.10199         1.76781
| 22>    C        1.39140        -0.95958         0.68123
| 23>    C        1.31391        -2.31404         0.83302
| 24>    C        1.56637        -2.87996         2.10305
| 25>    C        1.89023        -2.02625         3.19733
| 26>    C        1.97098        -0.62692         3.00908
| 27>    C        2.12939        -2.60345         4.46082
| 28>    C        2.05537        -3.95854         4.63678
| 29>    C        1.73715        -4.79820         3.55896
| 30>    C        1.49856        -4.27047         2.31893
| 31>    C        1.13607        -0.14514        -0.51769
| 32>    O        0.87952        -0.51725        -1.63964
| 33>    C        1.19395         1.27223        -0.04789
| 34>    C        0.65480         2.23471        -0.84551
| 35>    C        0.22917         3.53920        -0.51304
| 36>    C       -0.04775         4.08280         0.73346
| 37>    C       -0.49332         5.39497         0.64754
| 38>    C       -0.57074         5.86388        -0.67966
| 39>    S       -0.10437         4.68180        -1.81043
| 40>    C       -1.02918         7.20466        -0.65192
| 41>    C       -1.22880         7.58583         0.68771
| 42>    C       -0.89323         6.46303         1.54810
| 43>    C       -0.92917         6.41440         2.91044
| 44>    C       -1.33701         7.51355         3.69576
| 45>    N       -1.67743         8.40024         4.33785
| 46>    C       -0.56782         5.24481         3.61268
| 47>    N       -0.28074         4.28400         4.16899
| 48>    C       -1.69286         8.89285         0.81829
| 49>    C       -1.86258         9.50970        -0.40762
| 50>    S       -1.42299         8.45334        -1.74394
| 51>    C       -2.35954        10.82692        -0.65893
| 52>    C       -2.61392        11.29195        -1.94066
| 53>    C       -3.14151        12.55488        -2.17756
| 54>    F       -3.36044        12.87809        -3.46972
| 55>    C       -3.45983        13.48473        -1.19163
| 56>    C       -3.17883        13.04427         0.13342
| 57>    C       -2.64375        11.73414         0.39904
| 58>    N       -2.46887        11.53026         1.70323
| 59>    S       -2.92443        12.83641         2.51399
| 60>    N       -3.36992        13.72992         1.25894
| 61>    C       -4.04228        14.76493        -1.45668
| 62>    C       -4.31834        15.75192        -0.52384
| 63>    C       -4.92517        16.86262        -1.10081
| 64>    C       -5.11820        16.72061        -2.48816
| 65>    S       -4.53725        15.23073        -3.07714
| 66>    C       -5.76747        17.88146        -2.97201
| 67>    C       -5.97616        18.76681        -1.88981
| 68>    C       -5.45987        18.14829        -0.67890
| 69>    C       -5.49210        18.64421         0.59039
| 70>    C       -6.07891        19.88601         0.91917
| 71>    N       -6.56444        20.87840         1.22394
| 72>    C       -4.95639        17.93141         1.68524
| 73>    N       -4.52384        17.36116         2.58098
| 74>    C       -6.61257        19.94323        -2.26117
| 75>    C       -6.90866        19.97243        -3.61854
| 76>    S       -6.37771        18.49310        -4.43395
| 77>    C       -7.60737        20.90093        -4.41576
| 78>    C       -7.99451        22.18515        -4.14866
| 79>    C       -8.83439        22.97745        -5.03093
| 80>    C       -9.62224        22.50535        -6.04962
| 81>    C      -10.44567        23.32270        -6.85191
| 82>    N      -11.13183        23.93072        -7.54291
| 83>    C       -9.76728        21.14979        -6.41157
| 84>    N       -9.95689        20.06814        -6.74909
| 85>    C       -8.78349        24.36076        -4.57628
| 86>    C       -8.00817        24.41351        -3.38385
| 87>    C       -7.51536        23.06584        -3.05204
| 88>    O       -6.81685        22.77326        -2.10491
| 89>    C       -7.79568        25.58193        -2.71095
| 90>    C       -8.35763        26.77687        -3.21368
| 91>    C       -9.12445        26.73516        -4.41396
| 92>    C       -9.32911        25.50871        -5.08699
| 93>    C       -9.67352        27.93464        -4.91095
| 94>    C       -9.47848        29.11892        -4.25371
| 95>    C       -8.72561        29.15842        -3.07065
| 96>    C       -8.17725        28.01236        -2.56159
| 97>    H        1.06081        -2.94680        -0.00458
| 98>    H        2.20463        -0.00181         3.85675
| 99>    H        2.37675        -1.95327         5.28695
|100>    H        2.24200        -4.39122         5.60821
|101>    H        1.68143        -5.86501         3.71593
|102>    H        1.25261        -4.91189         1.48525
|103>    H        0.46050         1.91741        -1.86606
|104>    H        0.02890         3.52320         1.64758
|105>    H       -1.90977         9.39371         1.74370
|106>    H       -2.41730        10.66423        -2.79667
|107>    H       -4.08187        15.63409         0.51710
|108>    H       -6.85467        20.75345        -1.59809
|109>    H       -7.86242        20.51529        -5.39654
|110>    H       -7.20774        25.59291        -1.80522
|111>    H       -9.90939        25.51115        -5.99598
|112>    H      -10.25418        27.89863        -5.82105
|113>    H       -9.90415        30.03213        -4.64186
|114>    H       -8.58208        30.10149        -2.56481
|115>    H       -7.59655        28.03656        -1.65111
|116> *
|117>
|118>                          ****END OF INPUT****

CARTESIAN COORDINATES (ANGSTROEM)
---------------------------------
  C      1.764300    1.274480    1.282560
  C      2.443670    2.302550    1.884100
  C      3.101620    2.186040    3.126670
  N      3.658520    2.142830    4.129110
  C      2.646040    3.561620    1.288350
  N      2.845420    4.593610    0.825440
  C      1.732880   -0.101990    1.767810
  C      1.391400   -0.959580    0.681230
  C      1.313910   -2.314040    0.833020
  C      1.566370   -2.879960    2.103050
  C      1.890230   -2.026250    3.197330
  C      1.970980   -0.626920    3.009080
  C      2.129390   -2.603450    4.460820
  C      2.055370   -3.958540    4.636780
  C      1.737150   -4.798200    3.558960
  C      1.498560   -4.270470    2.318930
  C      1.136070   -0.145140   -0.517690
  O      0.879520   -0.517250   -1.639640
  C      1.193950    1.272230   -0.047890
  C      0.654800    2.234710   -0.845510
  C      0.229170    3.539200   -0.513040
  C     -0.047750    4.082800    0.733460
  C     -0.493320    5.394970    0.647540
  C     -0.570740    5.863880   -0.679660
  S     -0.104370    4.681800   -1.810430
  C     -1.029180    7.204660   -0.651920
  C     -1.228800    7.585830    0.687710
  C     -0.893230    6.463030    1.548100
  C     -0.929170    6.414400    2.910440
  C     -1.337010    7.513550    3.695760
  N     -1.677430    8.400240    4.337850
  C     -0.567820    5.244810    3.612680
  N     -0.280740    4.284000    4.168990
  C     -1.692860    8.892850    0.818290
  C     -1.862580    9.509700   -0.407620
  S     -1.422990    8.453340   -1.743940
  C     -2.359540   10.826920   -0.658930
  C     -2.613920   11.291950   -1.940660
  C     -3.141510   12.554880   -2.177560
  F     -3.360440   12.878090   -3.469720
  C     -3.459830   13.484730   -1.191630
  C     -3.178830   13.044270    0.133420
  C     -2.643750   11.734140    0.399040
  N     -2.468870   11.530260    1.703230
  S     -2.924430   12.836410    2.513990
  N     -3.369920   13.729920    1.258940
  C     -4.042280   14.764930   -1.456680
  C     -4.318340   15.751920   -0.523840
  C     -4.925170   16.862620   -1.100810
  C     -5.118200   16.720610   -2.488160
  S     -4.537250   15.230730   -3.077140
  C     -5.767470   17.881460   -2.972010
  C     -5.976160   18.766810   -1.889810
  C     -5.459870   18.148290   -0.678900
  C     -5.492100   18.644210    0.590390
  C     -6.078910   19.886010    0.919170
  N     -6.564440   20.878400    1.223940
  C     -4.956390   17.931410    1.685240
  N     -4.523840   17.361160    2.580980
  C     -6.612570   19.943230   -2.261170
  C     -6.908660   19.972430   -3.618540
  S     -6.377710   18.493100   -4.433950
  C     -7.607370   20.900930   -4.415760
  C     -7.994510   22.185150   -4.148660
  C     -8.834390   22.977450   -5.030930
  C     -9.622240   22.505350   -6.049620
  C    -10.445670   23.322700   -6.851910
  N    -11.131830   23.930720   -7.542910
  C     -9.767280   21.149790   -6.411570
  N     -9.956890   20.068140   -6.749090
  C     -8.783490   24.360760   -4.576280
  C     -8.008170   24.413510   -3.383850
  C     -7.515360   23.065840   -3.052040
  O     -6.816850   22.773260   -2.104910
  C     -7.795680   25.581930   -2.710950
  C     -8.357630   26.776870   -3.213680
  C     -9.124450   26.735160   -4.413960
  C     -9.329110   25.508710   -5.086990
  C     -9.673520   27.934640   -4.910950
  C     -9.478480   29.118920   -4.253710
  C     -8.725610   29.158420   -3.070650
  C     -8.177250   28.012360   -2.561590
  H      1.060810   -2.946800   -0.004580
  H      2.204630   -0.001810    3.856750
  H      2.376750   -1.953270    5.286950
  H      2.242000   -4.391220    5.608210
  H      1.681430   -5.865010    3.715930
  H      1.252610   -4.911890    1.485250
  H      0.460500    1.917410   -1.866060
  H      0.028900    3.523200    1.647580
  H     -1.909770    9.393710    1.743700
  H     -2.417300   10.664230   -2.796670
  H     -4.081870   15.634090    0.517100
  H     -6.854670   20.753450   -1.598090
  H     -7.862420   20.515290   -5.396540
  H     -7.207740   25.592910   -1.805220
  H     -9.909390   25.511150   -5.995980
  H    -10.254180   27.898630   -5.821050
  H     -9.904150   30.032130   -4.641860
  H     -8.582080   30.101490   -2.564810
  H     -7.596550   28.036560   -1.651110

 Total Charge           Charge          ....    0
 Multiplicity           Mult            ....    1
 Number of Electrons    NEL             ....  578
 Basis Dimension        Dim             .... 1263

ORBITAL ENERGIES
----------------

  NO   OCC          E(Eh)            E(eV)
   0   2.0000     -89.043247     -2422.9899
   1   2.0000     -89.000531     -2421.8276
   2   2.0000     -89.000325     -2421.8220
   3   2.0000     -88.995152     -2421.6812
   4   2.0000     -88.993590     -2421.6387
   5   2.0000     -24.817646      -675.3225
   6   2.0000     -19.216894      -522.9183
   7   2.0000     -19.215330      -522.8757
   8   2.0000     -14.458550      -393.4371
   9   2.0000     -14.455650      -393.3582
  10   2.0000     -14.436763      -392.8443
  11   2.0000     -14.435014      -392.7967
  12   2.0000     -14.430205      -392.6658
  13   2.0000     -14.427680      -392.5971
  14   2.0000     -14.420085      -392.3905
  15   2.0000     -14.414816      -392.2471
  16   2.0000     -14.414331      -392.2339
  17   2.0000     -14.411570      -392.1588
  18   2.0000     -10.394274      -282.8426
  19   2.0000     -10.372041      -282.2376
  20   2.0000     -10.368166      -282.1322
  21   2.0000     -10.367061      -282.1021
  22   2.0000     -10.366215      -282.0790
  23   2.0000     -10.358552      -281.8705
  24   2.0000     -10.352934      -281.7177
  25   2.0000     -10.349501      -281.6242
  26   2.0000     -10.347758      -281.5768
  27   2.0000     -10.347081      -281.5584
  28   2.0000     -10.345616      -281.5185
  29   2.0000     -10.345602      -281.5182
  30   2.0000     -10.344376      -281.4848
  31   2.0000     -10.344066      -281.4764
  32   2.0000     -10.338966      -281.3376
  33   2.0000     -10.338345      -281.3207
  34   2.0000     -10.336769      -281.2778
  35   2.0000     -10.336277      -281.2644
  36   2.0000     -10.335105      -281.2325
  37   2.0000     -10.334795      -281.2241
  38   2.0000     -10.333417      -281.1866
  39   2.0000     -10.333200      -281.1807
  40   2.0000     -10.332726      -281.1678
  41   2.0000     -10.330225      -281.0997
  42   2.0000     -10.327844      -281.0349
  43   2.0000     -10.327403      -281.0229
  44   2.0000     -10.327278      -281.0195
  45   2.0000     -10.326974      -281.0113
  46   2.0000     -10.326482      -280.9979
  47   2.0000     -10.321155      -280.8529
  48   2.0000     -10.317590      -280.7559
  49   2.0000     -10.317179      -280.7447
  50   2.0000     -10.316759      -280.7333
  51   2.0000     -10.316437      -280.7245
  52   2.0000     -10.314759      -280.6789
  53   2.0000     -10.313442      -280.6430
  54   2.0000     -10.313117      -280.6342
  55   2.0000     -10.308399      -280.5058
  56   2.0000     -10.307695      -280.4866
  57   2.0000     -10.306367      -280.4505
  58   2.0000     -10.305600      -280.4296
  59   2.0000     -10.304500      -280.3997
  60   2.0000     -10.303525      -280.3732
  61   2.0000     -10.300016      -280.2777
  62   2.0000     -10.299282      -280.2577
  63   2.0000     -10.298605      -280.2393
  64   2.0000     -10.298476      -280.2358
  65   2.0000     -10.298390      -280.2334
  66   2.0000     -10.298186      -280.2279
  67   2.0000     -10.297447      -280.2078
  68   2.0000     -10.295247      -280.1479
  69   2.0000     -10.295002      -280.1412
  70   2.0000     -10.294260      -280.1211
  71   2.0000     -10.293744      -280.1070
  72   2.0000     -10.290725      -280.0249
  73   2.0000     -10.287151      -279.9276
  74   2.0000     -10.286681      -279.9148
  75   2.0000     -10.286338      -279.9055
  76   2.0000     -10.285899      -279.8935
  77   2.0000     -10.285659      -279.8870
  78   2.0000     -10.284279      -279.8494
  79   2.0000     -10.283791      -279.8362
  80   2.0000     -10.283597      -279.8309
  81   2.0000     -10.283161      -279.8190
  82   2.0000      -8.134719      -221.3570
  83   2.0000      -8.095337      -220.2853
  84   2.0000      -8.094953      -220.2749
  85   2.0000      -8.089885      -220.1370
  86   2.0000      -8.087579      -220.0742
  87   2.0000      -6.105981      -166.1522
  88   2.0000      -6.098017      -165.9355
  89   2.0000      -6.097186      -165.9129
  90   2.0000      -6.064485      -165.0230
  91   2.0000      -6.064171      -165.0145
  92   2.0000      -6.060321      -164.9097
  93   2.0000      -6.060042      -164.9021
  94   2.0000      -6.058970      -164.8730
  95   2.0000      -6.057808      -164.8413
  96   2.0000      -6.057332      -164.8284
  97   2.0000      -6.056939      -164.8177
  98   2.0000      -6.054877      -164.7616
  99   2.0000      -6.052459      -164.6958
 100   2.0000      -6.052456      -164.6957
 101   2.0000      -6.050040      -164.6300
 102   2.0000      -1.331616       -36.2351
 103   2.0000      -1.145428       -31.1687
 104   2.0000      -1.132282       -30.8110
 105   2.0000      -1.130854       -30.7721
 106   2.0000      -1.055003       -28.7081
 107   2.0000      -1.048800       -28.5393
 108   2.0000      -1.028131       -27.9769
 109   2.0000      -1.021673       -27.8011
 110   2.0000      -1.021587       -27.7988
 111   2.0000      -1.016447       -27.6589
 112   2.0000      -1.013738       -27.5852
 113   2.0000      -1.011935       -27.5362
 114   2.0000      -1.008619       -27.4459
 115   2.0000      -1.005423       -27.3590
 116   2.0000      -1.000576       -27.2271
 117   2.0000      -0.996940       -27.1281
 118   2.0000      -0.996176       -27.1073
 119   2.0000      -0.994259       -27.0552
 120   2.0000      -0.991422       -26.9780
 121   2.0000      -0.987959       -26.8837
 122   2.0000      -0.973216       -26.4826
 123   2.0000      -0.969801       -26.3896
 124   2.0000      -0.965502       -26.2727
 125   2.0000      -0.959596       -26.1119
 126   2.0000      -0.931335       -25.3429
 127   2.0000      -0.926776       -25.2189
 128   2.0000      -0.922611       -25.1055
 129   2.0000      -0.917566       -24.9682
 130   2.0000      -0.905276       -24.6338
 131   2.0000      -0.898110       -24.4388
 132   2.0000      -0.889769       -24.2118
 133   2.0000      -0.884793       -24.0765
 134   2.0000      -0.882464       -24.0131
 135   2.0000      -0.879628       -23.9359
 136   2.0000      -0.878934       -23.9170
 137   2.0000      -0.875166       -23.8145
 138   2.0000      -0.868886       -23.6436
 139   2.0000      -0.864166       -23.5151
 140   2.0000      -0.859320       -23.3833
 141   2.0000      -0.857892       -23.3444
 142   2.0000      -0.829297       -22.5663
 143   2.0000      -0.827384       -22.5143
 144   2.0000      -0.825774       -22.4705
 145   2.0000      -0.814390       -22.1607
 146   2.0000      -0.803217       -21.8566
 147   2.0000      -0.785507       -21.3747
 148   2.0000      -0.780042       -21.2260
 149   2.0000      -0.774621       -21.0785
 150   2.0000      -0.765956       -20.8427
 151   2.0000      -0.760312       -20.6891
 152   2.0000      -0.759614       -20.6701
 153   2.0000      -0.741127       -20.1671
 154   2.0000      -0.736862       -20.0510
 155   2.0000      -0.728521       -19.8241
 156   2.0000      -0.719113       -19.5681
 157   2.0000      -0.709168       -19.2974
 158   2.0000      -0.706348       -19.2207
 159   2.0000      -0.702422       -19.1139
 160   2.0000      -0.701994       -19.1022
 161   2.0000      -0.697510       -18.9802
 162   2.0000      -0.694337       -18.8939
 163   2.0000      -0.690440       -18.7878
 164   2.0000      -0.684087       -18.6150
 165   2.0000      -0.683296       -18.5934
 166   2.0000      -0.677124       -18.4255
 167   2.0000      -0.672869       -18.3097
 168   2.0000      -0.662148       -18.0180
 169   2.0000      -0.657004       -17.8780
 170   2.0000      -0.653346       -17.7784
 171   2.0000      -0.646163       -17.5830
 172   2.0000      -0.639169       -17.3927
 173   2.0000      -0.638725       -17.3806
 174   2.0000      -0.634595       -17.2682
 175   2.0000      -0.630919       -17.1682
 176   2.0000      -0.625816       -17.0293
 177   2.0000      -0.624782       -17.0012
 178   2.0000      -0.615962       -16.7612
 179   2.0000      -0.609081       -16.5739
 180   2.0000      -0.608526       -16.5588
 181   2.0000      -0.605082       -16.4651
 182   2.0000      -0.602964       -16.4075
 183   2.0000      -0.600744       -16.3471
 184   2.0000      -0.593786       -16.1577
 185   2.0000      -0.591479       -16.0950
 186   2.0000      -0.585716       -15.9381
 187   2.0000      -0.576461       -15.6863
 188   2.0000      -0.566533       -15.4161
 189   2.0000      -0.564372       -15.3573
 190   2.0000      -0.560659       -15.2563
 191   2.0000      -0.556951       -15.1554
 192   2.0000      -0.555930       -15.1276
 193   2.0000      -0.553018       -15.0484
 194   2.0000      -0.550401       -14.9772
 195   2.0000      -0.547209       -14.8903
 196   2.0000      -0.546627       -14.8745
 197   2.0000      -0.544454       -14.8153
 198   2.0000      -0.541621       -14.7383
 199   2.0000      -0.538146       -14.6437
 200   2.0000      -0.535555       -14.5732
 201   2.0000      -0.534728       -14.5507
 202   2.0000      -0.531411       -14.4604
 203   2.0000      -0.529583       -14.4107
 204   2.0000      -0.521117       -14.1803
 205   2.0000      -0.520214       -14.1557
 206   2.0000      -0.518366       -14.1055
 207   2.0000      -0.516009       -14.0413
 208   2.0000      -0.513496       -13.9729
 209   2.0000      -0.512251       -13.9391
 210   2.0000      -0.511485       -13.9182
 211   2.0000      -0.510883       -13.9018
 212   2.0000      -0.507937       -13.8217
 213   2.0000      -0.506021       -13.7695
 214   2.0000      -0.505798       -13.7635
 215   2.0000      -0.504830       -13.7371
 216   2.0000      -0.502913       -13.6850
 217   2.0000      -0.501047       -13.6342
 218   2.0000      -0.495111       -13.4727
 219   2.0000      -0.494443       -13.4545
 220   2.0000      -0.493916       -13.4401
 221   2.0000      -0.488879       -13.3031
 222   2.0000      -0.487962       -13.2781
 223   2.0000      -0.487637       -13.2693
 224   2.0000      -0.486944       -13.2504
 225   2.0000      -0.482828       -13.1384
 226   2.0000      -0.482070       -13.1178
 227   2.0000      -0.477607       -12.9963
 228   2.0000      -0.472874       -12.8676
 229   2.0000      -0.466774       -12.7016
 230   2.0000      -0.466580       -12.6963
 231   2.0000      -0.464290       -12.6340
 232   2.0000      -0.463311       -12.6073
 233   2.0000      -0.462696       -12.5906
 234   2.0000      -0.460449       -12.5295
 235   2.0000      -0.458306       -12.4712
 236   2.0000      -0.454905       -12.3786
 237   2.0000      -0.452695       -12.3185
 238   2.0000      -0.451726       -12.2921
 239   2.0000      -0.450070       -12.2470
 240   2.0000      -0.448698       -12.2097
 241   2.0000      -0.447090       -12.1659
 242   2.0000      -0.445740       -12.1292
 243   2.0000      -0.444742       -12.1021
 244   2.0000      -0.444014       -12.0822
 245   2.0000      -0.442146       -12.0314
 246   2.0000      -0.440130       -11.9765
 247   2.0000      -0.439095       -11.9484
 248   2.0000      -0.438554       -11.9337
 249   2.0000      -0.438383       -11.9290
 250   2.0000      -0.436830       -11.8868
 251   2.0000      -0.434924       -11.8349
 252   2.0000      -0.433334       -11.7916
 253   2.0000      -0.432177       -11.7601
 254   2.0000      -0.431661       -11.7461
 255   2.0000      -0.430509       -11.7148
 256   2.0000      -0.427636       -11.6366
 257   2.0000      -0.425979       -11.5915
 258   2.0000      -0.424557       -11.5528
 259   2.0000      -0.424418       -11.5490
 260   2.0000      -0.419821       -11.4239
 261   2.0000      -0.418981       -11.4010
 262   2.0000      -0.416659       -11.3379
 263   2.0000      -0.414397       -11.2763
 264   2.0000      -0.412056       -11.2126
 265   2.0000      -0.406250       -11.0546
 266   2.0000      -0.405016       -11.0210
 267   2.0000      -0.402099       -10.9417
 268   2.0000      -0.385918       -10.5013
 269   2.0000      -0.383762       -10.4427
 270   2.0000      -0.382548       -10.4097
 271   2.0000      -0.375136       -10.2080
 272   2.0000      -0.371754       -10.1159
 273   2.0000      -0.360724        -9.8158
 274   2.0000      -0.357078        -9.7166
 275   2.0000      -0.352396        -9.5892
 276   2.0000      -0.351073        -9.5532
 277   2.0000      -0.344578        -9.3765
 278   2.0000      -0.338375        -9.2077
 279   2.0000      -0.335554        -9.1309
 280   2.0000      -0.329241        -8.9591
 281   2.0000      -0.323938        -8.8148
 282   2.0000      -0.318568        -8.6687
 283   2.0000      -0.316096        -8.6014
 284   2.0000      -0.310071        -8.4375
 285   2.0000      -0.296179        -8.0594
 286   2.0000      -0.292304        -7.9540
 287   2.0000      -0.278084        -7.5671
 288   2.0000      -0.254264        -6.9189
 289   0.0000      -0.122049        -3.3211
 290   0.0000      -0.110904        -3.0178
 291   0.0000      -0.092952        -2.5294
 292   0.0000      -0.088903        -2.4192
 293   0.0000      -0.082184        -2.2363

MULLIKEN ATOMIC CHARGES
-----------------------
   0 C :    0.271625
   1 C :   -0.328716
   2 C :   -0.170653
   3 N :    0.159841
   4 C :   -0.203981
   5 N :    0.167819
   6 C :    0.027820
   7 C :    0.015785
   8 C :   -0.079450
   9 C :    0.092798
  10 C :    0.091366
  11 C :   -0.074315
  12 C :   -0.016176
  13 C :    0.038023
  14 C :    0.033233
  15 C :   -0.014146
  16 C :    0.135855
  17 O :   -0.144138
  18 C :   -0.140281
  19 C :    0.080803
  20 C :   -0.105665
  21 C :    0.000807
  22 C :   -0.005822
  23 C :   -0.074691
  24 S :    0.215110
  25 C :   -0.091308
  26 C :    0.034219
  27 C :    0.308531
  28 C :   -0.289044
  29 C :   -0.185668
  30 N :    0.178979
  31 C :   -0.184402
  32 N :    0.172640
  33 C :   -0.049848
  34 C :   -0.115070
  35 S :    0.173592
  36 C :    0.170376
  37 C :   -0.138232
  38 C :    0.184258
  39 F :   -0.188266
  40 C :    0.110378
  41 C :   -0.002914
  42 C :    0.010367
  43 N :   -0.279790
  44 S :    0.563237
  45 N :   -0.292257
  46 C :   -0.126187
  47 C :   -0.064822
  48 C :    0.037524
  49 C :   -0.094911
  50 S :    0.207658
  51 C :   -0.084912
  52 C :   -0.009845
  53 C :    0.312595
  54 C :   -0.302529
  55 C :   -0.192567
  56 N :    0.192979
  57 C :   -0.188484
  58 N :    0.173361
  59 C :    0.006916
  60 C :   -0.111769
  61 S :    0.206226
  62 C :    0.032056
  63 C :   -0.097148
  64 C :    0.306595
  65 C :   -0.350911
  66 C :   -0.182874
  67 N :    0.147776
  68 C :   -0.205527
  69 N :    0.155009
  70 C :    0.048032
  71 C :   -0.005615
  72 C :    0.159368
  73 O :   -0.151813
  74 C :   -0.078838
  75 C :    0.096614
  76 C :    0.095458
  77 C :   -0.081526
  78 C :   -0.020161
  79 C :    0.038317
  80 C :    0.034477
  81 C :   -0.014526
  82 H :   -0.012017
  83 H :   -0.000794
  84 H :   -0.008159
  85 H :   -0.004676
  86 H :   -0.003858
  87 H :   -0.017636
  88 H :    0.021129
  89 H :    0.025484
  90 H :    0.024809
  91 H :    0.002322
  92 H :    0.025708
  93 H :    0.038026
  94 H :    0.017549
  95 H :   -0.010323
  96 H :   -0.008625
  97 H :   -0.009694
  98 H :   -0.005858
  99 H :   -0.005421
 100 H :   -0.016590
Sum of atomic charges:   -0.0000000

LOEWDIN ATOMIC CHARGES
----------------------
   0 C :    0.065652
   1 C :   -0.136703
   2 C :   -0.018475
   3 N :   -0.045598
   4 C :   -0.015901
   5 N :   -0.047161
   6 C :   -0.023080
   7 C :   -0.058129
   8 C :    0.033187
   9 C :   -0.009094
  10 C :   -0.004946
  11 C :    0.019277
  12 C :   -0.005223
  13 C :   -0.012003
  14 C :   -0.012713
  15 C :   -0.009301
  16 C :    0.083775
  17 O :   -0.144586
  18 C :   -0.087827
  19 C :    0.040022
  20 C :   -0.177570
  21 C :    0.009877
  22 C :   -0.062688
  23 C :   -0.163148
  24 S :    0.500128
  25 C :   -0.176338
  26 C :   -0.060897
  27 C :    0.080644
  28 C :   -0.093644
  29 C :   -0.017386
  30 N :   -0.025042
  31 C :   -0.013135
  32 N :   -0.029784
  33 C :   -0.011918
  34 C :   -0.158492
  35 S :    0.479538
  36 C :   -0.027737
  37 C :   -0.046729
  38 C :    0.090386
  39 F :   -0.060974
  40 C :   -0.075752
  41 C :   -0.031917
  42 C :   -0.043546
  43 N :   -0.269849
  44 S :    0.680408
  45 N :   -0.274889
  46 C :   -0.156236
  47 C :   -0.020450
  48 C :   -0.057214
  49 C :   -0.193836
  50 S :    0.492994
  51 C :   -0.157522
  52 C :   -0.074010
  53 C :    0.076094
  54 C :   -0.094328
  55 C :   -0.021939
  56 N :   -0.018118
  57 C :   -0.015701
  58 N :   -0.030352
  59 C :    0.020865
  60 C :   -0.177053
  61 S :    0.495172
  62 C :    0.042757
  63 C :   -0.096053
  64 C :    0.076784
  65 C :   -0.144480
  66 C :   -0.017626
  67 N :   -0.055997
  68 C :   -0.025290
  69 N :   -0.056531
  70 C :   -0.026444
  71 C :   -0.054870
  72 C :    0.085513
  73 O :   -0.139213
  74 C :    0.033217
  75 C :   -0.008365
  76 C :   -0.006445
  77 C :    0.019022
  78 C :   -0.005892
  79 C :   -0.013519
  80 C :   -0.012784
  81 C :   -0.009015
  82 H :    0.039354
  83 H :    0.040474
  84 H :    0.035299
  85 H :    0.033350
  86 H :    0.033055
  87 H :    0.031820
  88 H :    0.045673
  89 H :    0.043091
  90 H :    0.040600
  91 H :    0.036110
  92 H :    0.038534
  93 H :    0.044663
  94 H :    0.043126
  95 H :    0.040034
  96 H :    0.038753
  97 H :    0.034502
  98 H :    0.032819
  99 H :    0.032653
 100 H :    0.032239

  Mayer bond orders larger than 0.100000
B(  0-C ,  1-C ) :   1.6471 B(  0-C ,  6-C ) :   0.9977 B(  0-C , 18-C ) :   1.0338
B(  1-C ,  2-C ) :   1.1297 B(  1-C ,  4-C ) :   1.1728 B(  2-C ,  3-N ) :   2.9915
B(  4-C ,  5-N ) :   2.9938 B(  6-C ,  7-C ) :   1.2140 B(  6-C , 11-C ) :   1.4599
B(  7-C ,  8-C ) :   1.4755 B(  7-C , 16-C ) :   0.9231 B(  8-C ,  9-C ) :   1.1839
B(  8-C , 82-H ) :   1.0152 B(  9-C , 10-C ) :   1.2567 B(  9-C , 15-C ) :   1.2464
B( 10-C , 11-C ) :   1.2061 B( 10-C , 12-C ) :   1.2411 B( 11-C , 83-H ) :   0.9932
B( 12-C , 13-C ) :   1.4903 B( 12-C , 84-H ) :   0.9971 B( 13-C , 14-C ) :   1.2612
B( 13-C , 85-H ) :   0.9883 B( 14-C , 15-C ) :   1.4884 B( 14-C , 86-H ) :   0.9892
B( 15-C , 87-H ) :   0.9968 B( 16-C , 17-O ) :   2.2644 B( 16-C , 18-C ) :   0.9393
B( 18-C , 19-C ) :   1.6757 B( 19-C , 20-C ) :   1.1359 B( 19-C , 88-H ) :   0.9253
B( 20-C , 21-C ) :   1.3956 B( 20-C , 24-S ) :   1.0927 B( 21-C , 22-C ) :   1.3570
B( 21-C , 89-H ) :   0.9788 B( 22-C , 23-C ) :   1.4136 B( 22-C , 27-C ) :   0.9955
B( 23-C , 24-S ) :   1.1508 B( 23-C , 25-C ) :   1.1896 B( 25-C , 26-C ) :   1.4342
B( 25-C , 35-S ) :   1.1269 B( 26-C , 27-C ) :   0.9947 B( 26-C , 33-C ) :   1.2496
B( 27-C , 28-C ) :   1.7192 B( 28-C , 29-C ) :   1.1367 B( 28-C , 31-C ) :   1.1334
B( 29-C , 30-N ) :   2.9864 B( 31-C , 32-N ) :   2.9825 B( 33-C , 34-C ) :   1.4749
B( 33-C , 90-H ) :   0.9820 B( 34-C , 35-S ) :   1.0931 B( 34-C , 36-C ) :   1.1351
B( 36-C , 37-C ) :   1.3859 B( 36-C , 40-C ) :   0.1140 B( 36-C , 42-C ) :   1.1869
B( 37-C , 38-C ) :   1.2594 B( 37-C , 91-H ) :   0.9909 B( 38-C , 39-F ) :   1.0865
B( 38-C , 40-C ) :   1.3708 B( 40-C , 41-C ) :   1.1727 B( 40-C , 46-C ) :   1.1320
B( 41-C , 42-C ) :   1.1524 B( 41-C , 45-N ) :   1.5293 B( 42-C , 43-N ) :   1.5334
B( 43-N , 44-S ) :   1.2729 B( 43-N , 45-N ) :   0.1416 B( 44-S , 45-N ) :   1.2628
B( 46-C , 47-C ) :   1.4589 B( 46-C , 50-S ) :   1.1053 B( 47-C , 48-C ) :   1.2630
B( 47-C , 92-H ) :   0.9806 B( 48-C , 49-C ) :   1.4226 B( 48-C , 53-C ) :   0.9954
B( 49-C , 50-S ) :   1.0988 B( 49-C , 51-C ) :   1.2023 B( 51-C , 52-C ) :   1.3830
B( 51-C , 61-S ) :   1.1680 B( 52-C , 53-C ) :   0.9915 B( 52-C , 59-C ) :   1.3256
B( 53-C , 54-C ) :   1.7166 B( 54-C , 55-C ) :   1.1352 B( 54-C , 57-C ) :   1.1396
B( 55-C , 56-N ) :   2.9974 B( 57-C , 58-N ) :   2.9839 B( 59-C , 60-C ) :   1.3984
B( 59-C , 93-H ) :   0.9723 B( 60-C , 61-S ) :   1.0743 B( 60-C , 62-C ) :   1.2092
B( 62-C , 63-C ) :   1.5892 B( 62-C , 94-H ) :   0.9208 B( 63-C , 64-C ) :   1.0773
B( 63-C , 72-C ) :   0.9418 B( 64-C , 65-C ) :   1.6243 B( 64-C , 70-C ) :   0.9877
B( 65-C , 66-C ) :   1.1481 B( 65-C , 68-C ) :   1.1414 B( 66-C , 67-N ) :   2.9676
B( 68-C , 69-N ) :   2.9907 B( 70-C , 71-C ) :   1.2141 B( 70-C , 77-C ) :   1.4497
B( 71-C , 72-C ) :   0.9477 B( 71-C , 74-C ) :   1.4748 B( 72-C , 73-O ) :   2.1829
B( 74-C , 75-C ) :   1.1755 B( 74-C , 95-H ) :   1.0163 B( 75-C , 76-C ) :   1.2573
B( 75-C , 81-C ) :   1.2463 B( 76-C , 77-C ) :   1.2059 B( 76-C , 78-C ) :   1.2393
B( 77-C , 96-H ) :   0.9898 B( 78-C , 79-C ) :   1.4893 B( 78-C , 97-H ) :   0.9972
B( 79-C , 80-C ) :   1.2603 B( 79-C , 98-H ) :   0.9886 B( 80-C , 81-C ) :   1.4870
B( 80-C , 99-H ) :   0.9889 B( 81-C ,100-H ) :   0.9975

-----------------------------------------------------------------------------
         ABSORPTION SPECTRUM VIA TRANSITION ELECTRIC DIPOLE MOMENTS
-----------------------------------------------------------------------------
State   Energy  Wavelength   fosc         T2         TX        TY        TZ
        (cm-1)    (nm)                  (au**2)     (au)      (au)      (au)
-----------------------------------------------------------------------------
   0   13130.4    761.6   1.022540054  25.63764   2.04880  -4.51252   1.03790
   1   14395.3    694.7   0.068794815   1.57330  -0.57125   0.94043  -0.60213
   2   18704.0    534.6   1.615306539  28.43124  -2.22814   4.67721  -1.26110
   3   21211.4    471.4   0.016901119   0.26231   0.07194  -0.21479  -0.45935
   4   21594.0    463.1   0.096994913   1.47874   0.50549  -0.93549   0.58998
   5   22734.9    439.9   0.224990049   3.25796  -1.06815   1.01845  -1.03913
   6   23749.2    421.1   0.023907698   0.33141   0.43605  -0.03701   0.37403
   7   24882.5    401.9   0.021950049   0.29041   0.13177   0.50458  -0.13582
   8   25603.6    390.6   0.038131701   0.49030   0.12027  -0.68506   0.08083
   9   27293.4    366.4   0.004845256   0.05844   0.03923  -0.22427   0.08129
  10   27422.7    364.7   0.009161808   0.10999  -0.09991   0.06424  -0.30964
  11   27681.6    361.3   0.015134234   0.17999  -0.23284   0.20257  -0.29110
  12   28498.4    350.9   0.009077912   0.10487  -0.08107   0.30510   0.07217
  13   28518.8    350.6   0.045343685   0.52343   0.17803  -0.69533   0.09086
  14   28854.0    346.6   0.045913064   0.52385   0.33438   0.57052  -0.29419
  15   29205.8    342.4   0.018721803   0.21103  -0.09403  -0.36094  -0.26817
  16   29395.1    340.2   0.168116451   1.88283   0.03137   1.03598   0.89922
  17   29656.9    337.2   0.123351463   1.36929   0.36990   0.06383  -1.10833
  18   29863.7    334.9   0.082463070   0.90906   0.17250   0.77645   0.52576
  19   30076.5    332.5   0.151079142   1.65369   0.01306  -0.70366   1.07628
  20   30550.9    327.3   0.268324811   2.89143  -0.01919  -1.31040  -1.08347
  21   30714.5    325.6   0.616418789   6.60705  -0.39122   2.54044  -0.01154
  22   30919.9    323.4   0.166430388   1.77203   0.01199   0.06644   1.32946
  23   31509.8    317.4   0.077523013   0.80996  -0.01182   0.62389  -0.64852
  24   31599.0    316.5   0.017116111   0.17832  -0.36495  -0.02796   0.21060
  25   31980.4    312.7   0.411534598   4.23642  -0.58635   1.84667  -0.69456
  26   32487.7    307.8   0.089835428   0.91034   0.39356  -0.57007   0.65610
  27   32733.5    305.5   0.333689173   3.35603  -0.19446   1.79544   0.30761
  28   33032.0    302.7   0.062649319   0.62439   0.11167  -0.28206  -0.72963
  29   33569.3    297.9   0.388117388   3.80625  -0.34878   1.91637   0.11015
  30   33745.8    296.3   0.029212804   0.28499   0.01044   0.49866  -0.19032
  31   33954.8    294.5   0.023659784   0.22940  -0.06958  -0.46603   0.08586
  32   34110.5    293.2   0.158941984   1.53400   0.43560   0.88735  -0.74624
  33   34354.0    291.1   0.031022864   0.29729  -0.32783  -0.40614  -0.15770
  34   34411.4    290.6   0.074622825   0.71391   0.36711   0.60456  -0.46222
  35   34609.5    288.9   0.232371223   2.21036   0.05676  -1.06147  -1.03943
  36   34685.1    288.3   0.263188391   2.49804  -0.25875   1.31520  -0.83746
  37   34957.7    286.1   0.288732618   2.71912  -0.61445  -1.07315  -1.09084
  38   34987.5    285.8   0.215606777   2.02874  -0.25274  -0.21380  -1.38533
  39   35300.3    283.3   0.149225456   1.39168   0.26129   1.07492   0.40983
  40   35518.9    281.5   0.049996235   0.46340  -0.14537   0.57129   0.34044
  41   35628.5    280.7   0.171070357   1.58071  -0.05282   0.37632   1.19846
  42   36235.9    276.0   0.018226049   0.16559  -0.27353  -0.29698  -0.05073
  43   36304.6    275.4   0.122762937   1.11322  -0.07757  -0.88157   0.57449
  44   36711.5    272.4   0.003209179   0.02878  -0.04349  -0.04288   0.15827
  45   36951.3    270.6   0.071018824   0.63273  -0.20845   0.70758   0.29768
  46   37283.6    268.2   0.003233815   0.02855   0.14223   0.05379   0.07370
  47   37463.5    266.9   0.016713243   0.14687  -0.24370  -0.09873  -0.27880
  48   37557.5    266.3   0.053164195   0.46601   0.09761   0.54914   0.39362
  49   37687.1    265.3   0.098235123   0.85812   0.19651   0.19152   0.88478
  50   37893.0    263.9   0.027720141   0.24083   0.05511  -0.21625   0.43707
  51   38011.3    263.1   0.052988867   0.45893  -0.15211   0.65950  -0.02927
  52   38082.1    262.6   0.022396325   0.19361  -0.13457  -0.04425  -0.41659
  53   38300.1    261.1   0.043526678   0.37414  -0.24835   0.51491  -0.21754
  54   38448.2    260.1   0.031176106   0.26695   0.09984   0.38522   0.32952
  55   38679.8    258.5   0.009256369   0.07878   0.16939   0.18955  -0.11899
  56   38831.6    257.5   0.003333073   0.02826   0.09801  -0.06407  -0.12061
  57   39034.0    256.2   0.075830276   0.63955   0.22137   0.65157   0.40743
  58   39386.2    253.9   0.112182999   0.93769  -0.49825   0.46255  -0.68956
  59   39517.0    253.1   0.004240822   0.03533   0.14066   0.11404   0.05039
  60   39617.3    252.4   0.161389040   1.34111   0.58567   0.30370   0.95177
  61   39770.8    251.4   0.045294953   0.37494  -0.45307   0.38465  -0.14735
  62   39946.7    250.3   0.005490216   0.04525  -0.14664  -0.15287  -0.01939
  63   40094.3    249.4   0.088464445   0.72638  -0.42869   0.02040  -0.73633

FINAL SINGLE POINT ENERGY     -5234.130095810070

DIPOLE MOMENT
-------------
                                X             Y             Z
Electronic contribution:      3.23674       0.66210      -8.10928
Nuclear contribution   :     -2.69509      -2.26154       7.19438
                        -----------------------------------------
Total Dipole Moment    :      0.54165      -1.59943      -0.91489
                        -----------------------------------------
Magnitude (a.u.)       :      1.92057
Magnitude (Debye)      :      4.88171

Rotational constants in cm-1:     0.002929     0.000138     0.000133
Rotational constants in MHz :    87.797245     4.127621     3.993978

                             ****ORCA TERMINATED NORMALLY****
TOTAL RUN TIME: 0 days 0 hours 11 minutes 51 seconds 735 msec
