                         Program Version 4.2.0 -  RELEASE  -
|  1> # ORCA input file
|  2> # SCF done       -155.578158411255          0.000597737971
|  3> ! CAM-B3LYP def2-SVP def2/J RIJCOSX Grid4 TightSCF
|  4> %maxcore 5000
|  5> %tddft
|  6>     Mode sTDDFT
|  7>     Ethresh 5.0
|  8>     maxcore 5000
|  9> end
| 10>
| 11> %pal
| 12>   nprocs 6
| 13>   end
| 14> * xyz 0 1
| 15>    C       -2.22344         1.65034        -4.88024
| 16>    N       -1.51966         2.67669        -4.43258
| 17>    C       -1.64337         2.95201        -3.14097
| 18>    C       -2.45943         2.21469        -2.30345
| 19>    C       -3.16230         1.14694        -2.87929
| 20>    N       -3.02814         0.87836        -4.18529
| 21>    C       -4.04030         0.31411        -2.09256
| 22>    C       -4.71055        -0.72623        -2.62798
| 23>    C       -5.58982        -1.59289        -1.92345
| 24>    C       -5.96850        -1.57449        -0.59433
| 25>    C       -6.85560        -2.60517        -0.28120
| 26>    C       -7.15778        -3.42300        -1.38890
| 27>    S       -6.35186        -2.91637        -2.80260
| 28>    C       -8.05645        -4.43393        -0.97162
| 29>    C       -8.32460        -4.25515         0.39592
| 30>    C       -7.58019        -3.09771         0.87305
| 31>    C       -7.57829        -2.59116         2.14217
| 32>    C       -8.34912        -3.16331         3.17423
| 33>    N       -8.98403        -3.62958         4.00878
| 34>    C       -6.81067        -1.46345         2.49717
| 35>    N       -6.18485        -0.54719         2.78812
| 36>    C       -9.19947        -5.20487         0.91266
| 37>    C       -9.60683        -6.11864        -0.04810
| 38>    S       -8.89026        -5.78083        -1.61813
| 39>    C      -10.49277        -7.22168         0.11861
| 40>    C      -11.03577        -7.55578         1.33807
| 41>    C      -11.90546        -8.61982         1.56281
| 42>    C      -12.22612        -9.56694         0.48448
| 43>    C      -11.81609        -9.42767        -0.79410
| 44>    S      -10.84730        -8.12459        -1.34925
| 45>    C      -13.00621       -10.58720         1.09480
| 46>    C      -13.17070       -10.30184         2.45017
| 47>    C      -13.94361       -11.28185         3.11133
| 48>    C      -14.33372       -12.26549         2.25959
| 49>    S      -13.78898       -12.04426         0.62992
| 50>    C      -12.51363        -9.05775         2.75700
| 51>    C      -12.55295        -8.46911         4.04401
| 52>    C      -12.30575        -7.16879         4.35609
| 53>    C      -12.35272        -6.63319         5.66607
| 54>    C      -12.56956        -7.27754         6.87678
| 55>    C      -12.55644        -6.39261         7.94979
| 56>    C      -12.32549        -5.06013         7.56540
| 57>    S      -12.11730        -4.90293         5.87988
| 58>    C      -12.35153        -4.24426         8.72568
| 59>    C      -12.59451        -5.06534         9.84469
| 60>    C      -12.72850        -6.43737         9.39729
| 61>    C      -12.97200        -7.54520        10.15670
| 62>    C      -13.12365        -7.48847        11.55780
| 63>    N      -13.25046        -7.46381        12.69713
| 64>    C      -13.09391        -8.82882         9.58660
| 65>    N      -13.19862        -9.87438         9.12609
| 66>    C      -12.65328        -4.34101        11.03928
| 67>    C      -12.46115        -2.99670        10.82172
| 68>    S      -12.19878        -2.59753         9.14066
| 69>    C      -12.46394        -1.91936        11.77415
| 70>    N      -12.64682        -2.21787        13.06205
| 71>    C      -12.64602        -1.20100        13.90407
| 72>    C      -12.46901         0.11035        13.49294
| 73>    C      -12.28787         0.32544        12.12126
| 74>    N      -12.28663        -0.70035        11.27568
| 75>    C      -12.10062         1.66528        11.57892
| 76>    C      -11.94223         1.90286        10.28269
| 77>    H       -2.12613         1.42136        -5.93458
| 78>    H       -1.06459         3.79250        -2.77881
| 79>    H       -2.55422         2.44523        -1.25429
| 80>    H       -4.13212         0.56606        -1.04613
| 81>    H       -4.56907        -0.92356        -3.68213
| 82>    H       -5.61345        -0.84362         0.10840
| 83>    H       -9.52355        -5.22810         1.93603
| 84>    H      -10.72876        -6.96374         2.18511
| 85>    H      -12.07820       -10.13016        -1.56932
| 86>    H      -14.19776       -11.26782         4.15552
| 87>    H      -14.92352       -13.13273         2.48352
| 88>    H      -12.86268        -9.13515         4.83839
| 89>    H      -12.10260        -6.45295         3.57372
| 90>    H      -12.72662        -8.33658         6.96123
| 91>    H      -12.82787        -4.74533        12.01923
| 92>    H      -12.79492        -1.45585        14.94589
| 93>    H      -12.47196         0.92915        14.19387
| 94>    H      -12.10018         2.46709        12.30513
| 95>    H      -11.94431         1.08976         9.57687
| 96>    H      -11.80549         2.89836         9.89706
| 97> *
| 98>
| 99>                          ****END OF INPUT****

CARTESIAN COORDINATES (ANGSTROEM)
---------------------------------
  C     -2.223440    1.650340   -4.880240
  N     -1.519660    2.676690   -4.432580
  C     -1.643370    2.952010   -3.140970
  C     -2.459430    2.214690   -2.303450
  C     -3.162300    1.146940   -2.879290
  N     -3.028140    0.878360   -4.185290
  C     -4.040300    0.314110   -2.092560
  C     -4.710550   -0.726230   -2.627980
  C     -5.589820   -1.592890   -1.923450
  C     -5.968500   -1.574490   -0.594330
  C     -6.855600   -2.605170   -0.281200
  C     -7.157780   -3.423000   -1.388900
  S     -6.351860   -2.916370   -2.802600
  C     -8.056450   -4.433930   -0.971620
  C     -8.324600   -4.255150    0.395920
  C     -7.580190   -3.097710    0.873050
  C     -7.578290   -2.591160    2.142170
  C     -8.349120   -3.163310    3.174230
  N     -8.984030   -3.629580    4.008780
  C     -6.810670   -1.463450    2.497170
  N     -6.184850   -0.547190    2.788120
  C     -9.199470   -5.204870    0.912660
  C     -9.606830   -6.118640   -0.048100
  S     -8.890260   -5.780830   -1.618130
  C    -10.492770   -7.221680    0.118610
  C    -11.035770   -7.555780    1.338070
  C    -11.905460   -8.619820    1.562810
  C    -12.226120   -9.566940    0.484480
  C    -11.816090   -9.427670   -0.794100
  S    -10.847300   -8.124590   -1.349250
  C    -13.006210  -10.587200    1.094800
  C    -13.170700  -10.301840    2.450170
  C    -13.943610  -11.281850    3.111330
  C    -14.333720  -12.265490    2.259590
  S    -13.788980  -12.044260    0.629920
  C    -12.513630   -9.057750    2.757000
  C    -12.552950   -8.469110    4.044010
  C    -12.305750   -7.168790    4.356090
  C    -12.352720   -6.633190    5.666070
  C    -12.569560   -7.277540    6.876780
  C    -12.556440   -6.392610    7.949790
  C    -12.325490   -5.060130    7.565400
  S    -12.117300   -4.902930    5.879880
  C    -12.351530   -4.244260    8.725680
  C    -12.594510   -5.065340    9.844690
  C    -12.728500   -6.437370    9.397290
  C    -12.972000   -7.545200   10.156700
  C    -13.123650   -7.488470   11.557800
  N    -13.250460   -7.463810   12.697130
  C    -13.093910   -8.828820    9.586600
  N    -13.198620   -9.874380    9.126090
  C    -12.653280   -4.341010   11.039280
  C    -12.461150   -2.996700   10.821720
  S    -12.198780   -2.597530    9.140660
  C    -12.463940   -1.919360   11.774150
  N    -12.646820   -2.217870   13.062050
  C    -12.646020   -1.201000   13.904070
  C    -12.469010    0.110350   13.492940
  C    -12.287870    0.325440   12.121260
  N    -12.286630   -0.700350   11.275680
  C    -12.100620    1.665280   11.578920
  C    -11.942230    1.902860   10.282690
  H     -2.126130    1.421360   -5.934580
  H     -1.064590    3.792500   -2.778810
  H     -2.554220    2.445230   -1.254290
  H     -4.132120    0.566060   -1.046130
  H     -4.569070   -0.923560   -3.682130
  H     -5.613450   -0.843620    0.108400
  H     -9.523550   -5.228100    1.936030
  H    -10.728760   -6.963740    2.185110
  H    -12.078200  -10.130160   -1.569320
  H    -14.197760  -11.267820    4.155520
  H    -14.923520  -13.132730    2.483520
  H    -12.862680   -9.135150    4.838390
  H    -12.102600   -6.452950    3.573720
  H    -12.726620   -8.336580    6.961230
  H    -12.827870   -4.745330   12.019230
  H    -12.794920   -1.455850   14.945890
  H    -12.471960    0.929150   14.193870
  H    -12.100180    2.467090   12.305130
  H    -11.944310    1.089760    9.576870
  H    -11.805490    2.898360    9.897060

 Total Charge           Charge          ....    0
 Multiplicity           Mult            ....    1
 Number of Electrons    NEL             ....  460
 Basis Dimension        Dim             ....  992

ORBITAL ENERGIES
----------------

  NO   OCC          E(Eh)            E(eV)
   0   2.0000     -88.992667     -2421.6136
   1   2.0000     -88.989320     -2421.5225
   2   2.0000     -88.979172     -2421.2464
   3   2.0000     -88.973724     -2421.0981
   4   2.0000     -88.972358     -2421.0609
   5   2.0000     -88.957094     -2420.6456
   6   2.0000     -14.434866      -392.7927
   7   2.0000     -14.433098      -392.7446
   8   2.0000     -14.418531      -392.3482
   9   2.0000     -14.415978      -392.2787
  10   2.0000     -14.407924      -392.0595
  11   2.0000     -14.405849      -392.0031
  12   2.0000     -14.405656      -391.9978
  13   2.0000     -14.402050      -391.8997
  14   2.0000     -10.366712      -282.0926
  15   2.0000     -10.354701      -281.7657
  16   2.0000     -10.349308      -281.6190
  17   2.0000     -10.346662      -281.5470
  18   2.0000     -10.338008      -281.3115
  19   2.0000     -10.335672      -281.2479
  20   2.0000     -10.334659      -281.2204
  21   2.0000     -10.333645      -281.1928
  22   2.0000     -10.331775      -281.1419
  23   2.0000     -10.331132      -281.1244
  24   2.0000     -10.330666      -281.1117
  25   2.0000     -10.330105      -281.0964
  26   2.0000     -10.330042      -281.0947
  27   2.0000     -10.327006      -281.0121
  28   2.0000     -10.326813      -281.0069
  29   2.0000     -10.320255      -280.8284
  30   2.0000     -10.319766      -280.8151
  31   2.0000     -10.318947      -280.7928
  32   2.0000     -10.317936      -280.7653
  33   2.0000     -10.317062      -280.7415
  34   2.0000     -10.316543      -280.7274
  35   2.0000     -10.313548      -280.6459
  36   2.0000     -10.309487      -280.5354
  37   2.0000     -10.305537      -280.4279
  38   2.0000     -10.303257      -280.3659
  39   2.0000     -10.303132      -280.3625
  40   2.0000     -10.301575      -280.3201
  41   2.0000     -10.300703      -280.2964
  42   2.0000     -10.299794      -280.2717
  43   2.0000     -10.296758      -280.1890
  44   2.0000     -10.296536      -280.1830
  45   2.0000     -10.295594      -280.1574
  46   2.0000     -10.289767      -279.9988
  47   2.0000     -10.287566      -279.9389
  48   2.0000     -10.286904      -279.9209
  49   2.0000     -10.285492      -279.8825
  50   2.0000     -10.284738      -279.8620
  51   2.0000     -10.284717      -279.8614
  52   2.0000     -10.283301      -279.8229
  53   2.0000     -10.283279      -279.8222
  54   2.0000     -10.281703      -279.7794
  55   2.0000     -10.280701      -279.7521
  56   2.0000     -10.280403      -279.7440
  57   2.0000     -10.278485      -279.6918
  58   2.0000     -10.276107      -279.6271
  59   2.0000     -10.274576      -279.5854
  60   2.0000     -10.273664      -279.5606
  61   2.0000     -10.273652      -279.5603
  62   2.0000      -8.087155      -220.0627
  63   2.0000      -8.084078      -219.9789
  64   2.0000      -8.074835      -219.7274
  65   2.0000      -8.068382      -219.5518
  66   2.0000      -8.066394      -219.4977
  67   2.0000      -8.052473      -219.1189
  68   2.0000      -6.056505      -164.8059
  69   2.0000      -6.053204      -164.7161
  70   2.0000      -6.052215      -164.6891
  71   2.0000      -6.049438      -164.6136
  72   2.0000      -6.049088      -164.6041
  73   2.0000      -6.046613      -164.5367
  74   2.0000      -6.044496      -164.4791
  75   2.0000      -6.039954      -164.3555
  76   2.0000      -6.037531      -164.2896
  77   2.0000      -6.036482      -164.2610
  78   2.0000      -6.035592      -164.2368
  79   2.0000      -6.033389      -164.1769
  80   2.0000      -6.031286      -164.1196
  81   2.0000      -6.030901      -164.1092
  82   2.0000      -6.029036      -164.0584
  83   2.0000      -6.021938      -163.8653
  84   2.0000      -6.017670      -163.7491
  85   2.0000      -6.014490      -163.6626
  86   2.0000      -1.083060       -29.4716
  87   2.0000      -1.076564       -29.2948
  88   2.0000      -1.046138       -28.4669
  89   2.0000      -1.028371       -27.9834
  90   2.0000      -1.025164       -27.8961
  91   2.0000      -1.011580       -27.5265
  92   2.0000      -1.009414       -27.4675
  93   2.0000      -1.008469       -27.4418
  94   2.0000      -0.999470       -27.1970
  95   2.0000      -0.994868       -27.0717
  96   2.0000      -0.981043       -26.6955
  97   2.0000      -0.980252       -26.6740
  98   2.0000      -0.977847       -26.6086
  99   2.0000      -0.973677       -26.4951
 100   2.0000      -0.957869       -26.0649
 101   2.0000      -0.945446       -25.7269
 102   2.0000      -0.930153       -25.3108
 103   2.0000      -0.919840       -25.0301
 104   2.0000      -0.910019       -24.7629
 105   2.0000      -0.901967       -24.5438
 106   2.0000      -0.894588       -24.3430
 107   2.0000      -0.888720       -24.1833
 108   2.0000      -0.875303       -23.8182
 109   2.0000      -0.871981       -23.7278
 110   2.0000      -0.857617       -23.3369
 111   2.0000      -0.856167       -23.2975
 112   2.0000      -0.855144       -23.2697
 113   2.0000      -0.847814       -23.0702
 114   2.0000      -0.839762       -22.8511
 115   2.0000      -0.837740       -22.7961
 116   2.0000      -0.819424       -22.2977
 117   2.0000      -0.803338       -21.8599
 118   2.0000      -0.794253       -21.6127
 119   2.0000      -0.780905       -21.2495
 120   2.0000      -0.776589       -21.1321
 121   2.0000      -0.766771       -20.8649
 122   2.0000      -0.756897       -20.5962
 123   2.0000      -0.745588       -20.2885
 124   2.0000      -0.742365       -20.2008
 125   2.0000      -0.738314       -20.0906
 126   2.0000      -0.725561       -19.7435
 127   2.0000      -0.719337       -19.5742
 128   2.0000      -0.705840       -19.2069
 129   2.0000      -0.695182       -18.9169
 130   2.0000      -0.688510       -18.7353
 131   2.0000      -0.686336       -18.6761
 132   2.0000      -0.677573       -18.4377
 133   2.0000      -0.669628       -18.2215
 134   2.0000      -0.663818       -18.0634
 135   2.0000      -0.657806       -17.8998
 136   2.0000      -0.654962       -17.8224
 137   2.0000      -0.638973       -17.3873
 138   2.0000      -0.634935       -17.2775
 139   2.0000      -0.631653       -17.1882
 140   2.0000      -0.620412       -16.8823
 141   2.0000      -0.619307       -16.8522
 142   2.0000      -0.618529       -16.8310
 143   2.0000      -0.612627       -16.6704
 144   2.0000      -0.605339       -16.4721
 145   2.0000      -0.600646       -16.3444
 146   2.0000      -0.599888       -16.3238
 147   2.0000      -0.592655       -16.1270
 148   2.0000      -0.586770       -15.9668
 149   2.0000      -0.582051       -15.8384
 150   2.0000      -0.574542       -15.6341
 151   2.0000      -0.566062       -15.4033
 152   2.0000      -0.561939       -15.2911
 153   2.0000      -0.549129       -14.9425
 154   2.0000      -0.548657       -14.9297
 155   2.0000      -0.546767       -14.8783
 156   2.0000      -0.543092       -14.7783
 157   2.0000      -0.539238       -14.6734
 158   2.0000      -0.534944       -14.5566
 159   2.0000      -0.532210       -14.4822
 160   2.0000      -0.529609       -14.4114
 161   2.0000      -0.523656       -14.2494
 162   2.0000      -0.523432       -14.2433
 163   2.0000      -0.517496       -14.0818
 164   2.0000      -0.515886       -14.0380
 165   2.0000      -0.515472       -14.0267
 166   2.0000      -0.507183       -13.8011
 167   2.0000      -0.506186       -13.7740
 168   2.0000      -0.504034       -13.7155
 169   2.0000      -0.500592       -13.6218
 170   2.0000      -0.498218       -13.5572
 171   2.0000      -0.493571       -13.4307
 172   2.0000      -0.491927       -13.3860
 173   2.0000      -0.490164       -13.3380
 174   2.0000      -0.488007       -13.2794
 175   2.0000      -0.486446       -13.2369
 176   2.0000      -0.484009       -13.1706
 177   2.0000      -0.476090       -12.9551
 178   2.0000      -0.474404       -12.9092
 179   2.0000      -0.468836       -12.7577
 180   2.0000      -0.466165       -12.6850
 181   2.0000      -0.465419       -12.6647
 182   2.0000      -0.463294       -12.6069
 183   2.0000      -0.462603       -12.5881
 184   2.0000      -0.461631       -12.5616
 185   2.0000      -0.458339       -12.4720
 186   2.0000      -0.455255       -12.3881
 187   2.0000      -0.450198       -12.2505
 188   2.0000      -0.449190       -12.2231
 189   2.0000      -0.445076       -12.1111
 190   2.0000      -0.444709       -12.1012
 191   2.0000      -0.444317       -12.0905
 192   2.0000      -0.444075       -12.0839
 193   2.0000      -0.441328       -12.0091
 194   2.0000      -0.440600       -11.9893
 195   2.0000      -0.433405       -11.7935
 196   2.0000      -0.432032       -11.7562
 197   2.0000      -0.431186       -11.7332
 198   2.0000      -0.428384       -11.6569
 199   2.0000      -0.428039       -11.6475
 200   2.0000      -0.426569       -11.6075
 201   2.0000      -0.425831       -11.5875
 202   2.0000      -0.424858       -11.5610
 203   2.0000      -0.420934       -11.4542
 204   2.0000      -0.415003       -11.2928
 205   2.0000      -0.413209       -11.2440
 206   2.0000      -0.410413       -11.1679
 207   2.0000      -0.409571       -11.1450
 208   2.0000      -0.402307       -10.9473
 209   2.0000      -0.398531       -10.8446
 210   2.0000      -0.380507       -10.3541
 211   2.0000      -0.378272       -10.2933
 212   2.0000      -0.376512       -10.2454
 213   2.0000      -0.371131       -10.0990
 214   2.0000      -0.365949        -9.9580
 215   2.0000      -0.360220        -9.8021
 216   2.0000      -0.351420        -9.5626
 217   2.0000      -0.342770        -9.3272
 218   2.0000      -0.333028        -9.0622
 219   2.0000      -0.327903        -8.9227
 220   2.0000      -0.326388        -8.8815
 221   2.0000      -0.324574        -8.8321
 222   2.0000      -0.322585        -8.7780
 223   2.0000      -0.322411        -8.7732
 224   2.0000      -0.314153        -8.5485
 225   2.0000      -0.306121        -8.3300
 226   2.0000      -0.285230        -7.7615
 227   2.0000      -0.273623        -7.4457
 228   2.0000      -0.253917        -6.9094
 229   2.0000      -0.218967        -5.9584
 230   0.0000      -0.108778        -2.9600
 231   0.0000      -0.090420        -2.4604
 232   0.0000      -0.067802        -1.8450
 233   0.0000      -0.050129        -1.3641
 234   0.0000      -0.029861        -0.8126

MULLIKEN ATOMIC CHARGES
-----------------------
   0 C :    0.070104
   1 N :   -0.110847
   2 C :    0.069456
   3 C :   -0.035624
   4 C :    0.027298
   5 N :   -0.095839
   6 C :   -0.015673
   7 C :    0.082000
   8 C :   -0.073760
   9 C :   -0.022257
  10 C :   -0.007003
  11 C :   -0.101678
  12 S :    0.197072
  13 C :   -0.104202
  14 C :    0.012822
  15 C :    0.308069
  16 C :   -0.296540
  17 C :   -0.180462
  18 N :    0.161469
  19 C :   -0.187081
  20 N :    0.168420
  21 C :   -0.049204
  22 C :   -0.057504
  23 S :    0.185664
  24 C :   -0.031693
  25 C :   -0.074188
  26 C :    0.046048
  27 C :    0.066451
  28 C :   -0.129831
  29 S :    0.115629
  30 C :   -0.108903
  31 C :    0.050147
  32 C :    0.010456
  33 C :   -0.067955
  34 S :    0.128019
  35 C :    0.086201
  36 C :   -0.027637
  37 C :    0.033656
  38 C :   -0.082276
  39 C :   -0.042239
  40 C :    0.008089
  41 C :   -0.110084
  42 S :    0.204885
  43 C :   -0.092405
  44 C :   -0.005335
  45 C :    0.305882
  46 C :   -0.305044
  47 C :   -0.194684
  48 N :    0.175492
  49 C :   -0.184366
  50 N :    0.158272
  51 C :   -0.036308
  52 C :   -0.048001
  53 S :    0.222866
  54 C :   -0.064941
  55 N :   -0.061412
  56 C :    0.086200
  57 C :   -0.048625
  58 C :    0.042354
  59 N :   -0.073497
  60 C :   -0.019476
  61 C :    0.035893
  62 H :    0.013702
  63 H :    0.009512
  64 H :   -0.004377
  65 H :   -0.015270
  66 H :    0.005791
  67 H :    0.005895
  68 H :    0.003792
  69 H :   -0.019720
  70 H :    0.036625
  71 H :   -0.008849
  72 H :    0.028688
  73 H :   -0.016746
  74 H :   -0.024087
  75 H :    0.004326
  76 H :    0.015513
  77 H :    0.009023
  78 H :   -0.006023
  79 H :   -0.013991
  80 H :    0.036577
  81 H :    0.027278
Sum of atomic charges:   -0.0000000

LOEWDIN ATOMIC CHARGES
----------------------
   0 C :    0.044901
   1 N :   -0.098842
   2 C :    0.049197
   3 C :   -0.063909
   4 C :    0.033739
   5 N :   -0.094258
   6 C :   -0.041421
   7 C :   -0.003749
   8 C :   -0.170039
   9 C :   -0.018467
  10 C :   -0.075329
  11 C :   -0.176265
  12 S :    0.482976
  13 C :   -0.189752
  14 C :   -0.064902
  15 C :    0.085514
  16 C :   -0.105859
  17 C :   -0.012791
  18 N :   -0.041087
  19 C :   -0.016187
  20 N :   -0.035171
  21 C :   -0.031876
  22 C :   -0.177433
  23 S :    0.466970
  24 C :   -0.190131
  25 C :   -0.015001
  26 C :   -0.025814
  27 C :   -0.044271
  28 C :   -0.142292
  29 S :    0.430637
  30 C :   -0.203623
  31 C :   -0.038374
  32 C :   -0.061577
  33 C :   -0.162110
  34 S :    0.421699
  35 C :   -0.044074
  36 C :   -0.010465
  37 C :   -0.054743
  38 C :   -0.158856
  39 C :   -0.034565
  40 C :   -0.063287
  41 C :   -0.194719
  42 S :    0.487884
  43 C :   -0.168960
  44 C :   -0.083566
  45 C :    0.084979
  46 C :   -0.109920
  47 C :   -0.018691
  48 N :   -0.034931
  49 C :   -0.013825
  50 N :   -0.045113
  51 C :   -0.001096
  52 C :   -0.193345
  53 S :    0.505362
  54 C :    0.014543
  55 N :   -0.092384
  56 C :    0.055906
  57 C :   -0.073990
  58 C :    0.039872
  59 N :   -0.104930
  60 C :   -0.045379
  61 C :    0.008837
  62 H :    0.017800
  63 H :    0.026254
  64 H :    0.033498
  65 H :    0.028622
  66 H :    0.035175
  67 H :    0.039696
  68 H :    0.037137
  69 H :    0.036958
  70 H :    0.036913
  71 H :    0.033235
  72 H :    0.024405
  73 H :    0.031980
  74 H :    0.023599
  75 H :    0.036827
  76 H :    0.045403
  77 H :    0.027966
  78 H :    0.032847
  79 H :    0.028665
  80 H :    0.029125
  81 H :    0.028246

  Mayer bond orders larger than 0.100000
B(  0-C ,  1-N ) :   1.5032 B(  0-C ,  5-N ) :   1.5301 B(  0-C , 62-H ) :   0.9749
B(  1-N ,  2-C ) :   1.5386 B(  2-C ,  3-C ) :   1.3880 B(  2-C , 63-H ) :   0.9815
B(  3-C ,  4-C ) :   1.3363 B(  3-C , 64-H ) :   0.9765 B(  4-C ,  5-N ) :   1.5131
B(  4-C ,  6-C ) :   1.0937 B(  6-C ,  7-C ) :   1.7247 B(  6-C , 65-H ) :   0.9744
B(  7-C ,  8-C ) :   1.0847 B(  7-C , 66-H ) :   0.9559 B(  8-C ,  9-C ) :   1.4681
B(  8-C , 12-S ) :   1.0969 B(  9-C , 10-C ) :   1.2982 B(  9-C , 67-H ) :   0.9912
B( 10-C , 11-C ) :   1.4244 B( 10-C , 15-C ) :   1.0059 B( 11-C , 12-S ) :   1.1377
B( 11-C , 13-C ) :   1.1982 B( 13-C , 14-C ) :   1.4414 B( 13-C , 23-S ) :   1.1118
B( 14-C , 15-C ) :   0.9972 B( 14-C , 21-C ) :   1.3060 B( 15-C , 16-C ) :   1.7028
B( 16-C , 17-C ) :   1.1343 B( 16-C , 19-C ) :   1.1337 B( 17-C , 18-N ) :   2.9811
B( 19-C , 20-N ) :   2.9900 B( 21-C , 22-C ) :   1.4765 B( 21-C , 68-H ) :   0.9831
B( 22-C , 23-S ) :   1.1068 B( 22-C , 24-C ) :   1.1251 B( 24-C , 25-C ) :   1.5517
B( 24-C , 29-S ) :   1.0337 B( 25-C , 26-C ) :   1.2375 B( 25-C , 69-H ) :   0.9646
B( 26-C , 27-C ) :   1.0476 B( 26-C , 35-C ) :   1.3796 B( 27-C , 28-C ) :   1.6195
B( 27-C , 30-C ) :   1.1754 B( 28-C , 29-S ) :   1.1285 B( 28-C , 70-H ) :   0.9403
B( 30-C , 31-C ) :   1.4423 B( 30-C , 34-S ) :   1.0758 B( 31-C , 32-C ) :   1.2206
B( 31-C , 35-C ) :   1.0990 B( 32-C , 33-C ) :   1.5876 B( 32-C , 71-H ) :   0.9976
B( 33-C , 34-S ) :   1.1540 B( 33-C , 72-H ) :   0.9656 B( 35-C , 36-C ) :   1.1651
B( 36-C , 37-C ) :   1.6451 B( 36-C , 73-H ) :   0.9591 B( 37-C , 38-C ) :   1.1311
B( 37-C , 74-H ) :   0.9555 B( 38-C , 39-C ) :   1.4396 B( 38-C , 42-S ) :   1.1174
B( 39-C , 40-C ) :   1.3125 B( 39-C , 75-H ) :   0.9883 B( 40-C , 41-C ) :   1.4352
B( 40-C , 45-C ) :   0.9947 B( 41-C , 42-S ) :   1.1255 B( 41-C , 43-C ) :   1.1924
B( 43-C , 44-C ) :   1.4287 B( 43-C , 53-S ) :   1.1367 B( 44-C , 45-C ) :   1.0065
B( 44-C , 51-C ) :   1.2517 B( 45-C , 46-C ) :   1.7026 B( 46-C , 47-C ) :   1.1337
B( 46-C , 49-C ) :   1.1356 B( 47-C , 48-N ) :   3.0031 B( 49-C , 50-N ) :   2.9835
B( 51-C , 52-C ) :   1.4994 B( 51-C , 76-H ) :   1.0074 B( 52-C , 53-S ) :   1.1020
B( 52-C , 54-C ) :   1.0086 B( 54-C , 55-N ) :   1.5909 B( 54-C , 59-N ) :   1.5968
B( 55-N , 56-C ) :   1.5424 B( 56-C , 57-C ) :   1.3691 B( 56-C , 77-H ) :   0.9802
B( 57-C , 58-C ) :   1.3397 B( 57-C , 78-H ) :   0.9741 B( 58-C , 59-N ) :   1.5135
B( 58-C , 60-C ) :   1.0635 B( 60-C , 61-C ) :   1.9546 B( 60-C , 79-H ) :   0.9670
B( 61-C , 80-H ) :   0.9404 B( 61-C , 81-H ) :   0.9476

-----------------------------------------------------------------------------
         ABSORPTION SPECTRUM VIA TRANSITION ELECTRIC DIPOLE MOMENTS
-----------------------------------------------------------------------------
State   Energy  Wavelength   fosc         T2         TX        TY        TZ
        (cm-1)    (nm)                  (au**2)     (au)      (au)      (au)
-----------------------------------------------------------------------------
   0    8961.9   1115.8   0.187905467   6.90261  -1.61836  -1.27668   1.62899
   1   11541.2    866.5   0.128792855   3.67382   0.20050  -0.86652  -1.69787
   2   15394.9    649.6   0.046755317   0.99984  -0.21516   0.24990   0.94398
   3   17697.8    565.0   0.734478692  13.66267  -2.00282  -1.08688   2.91034
   4   20591.0    485.6   0.032258892   0.51576   0.24186  -0.00264  -0.67621
   5   21266.3    470.2   0.131331257   2.03307  -0.90435  -0.77070   0.78819
   6   22532.6    443.8   0.099206394   1.44945  -0.35409  -0.95896  -0.63598
   7   24765.6    403.8   0.378844915   5.03603   1.04133   1.87976   0.64667
   8   25781.8    387.9   1.141226133  14.57249   1.65074   3.22145   1.21236
   9   26067.5    383.6   0.001867612   0.02359   0.10285  -0.06746  -0.09197
  10   27501.8    363.6   0.067107295   0.80331   0.48730   0.17268  -0.73214
  11   28123.2    355.6   0.624733821   7.31317   0.46130  -1.03585  -2.45507
  12   29703.7    336.7   0.353577060   3.91876  -1.22928  -1.23461   0.93987
  13   29805.5    335.5   0.044851689   0.49540   0.22460  -0.16190  -0.64711
  14   30333.7    329.7   0.064143931   0.69616  -0.04570   0.46321   0.69246
  15   31004.0    322.5   0.064078959   0.68041  -0.02095  -0.59392   0.57205
  16   31097.5    321.6   0.652803860   6.91086  -0.39284  -2.01254   1.64506
  17   31452.6    317.9   0.442512412   4.63174  -0.63273   0.12287   2.05336
  18   31775.2    314.7   0.496810562   5.14728   0.56166   1.88844   1.12499
  19   32247.3    310.1   0.025549384   0.26083   0.31828  -0.12942   0.37786
  20   32395.5    308.7   0.273435117   2.77872   0.83168   1.44095   0.10334
  21   32914.9    303.8   0.216293647   2.16335  -0.21839   0.72206   1.26265
  22   33060.1    302.5   0.060560369   0.60306   0.27440   0.68376   0.24544
  23   33211.0    301.1   0.224894080   2.22931   0.82736   1.23336   0.15365
  24   33361.6    299.7   0.000722463   0.00713  -0.00701   0.07214   0.04331
  25   33518.2    298.3   0.000864772   0.00849   0.05191  -0.02087   0.07323
  26   34136.6    292.9   0.008407638   0.08108   0.18164   0.21911   0.00890
  27   34729.4    287.9   0.054812828   0.51959  -0.37028  -0.34927   0.51039
  28   34906.9    286.5   0.135449408   1.27744   0.51559   0.93883  -0.36085
  29   35273.9    283.5   0.004934558   0.04605  -0.07307  -0.15059   0.13431
  30   36387.6    274.8   0.274336344   2.48202   0.67924   1.40433   0.22027
  31   36501.0    274.0   0.004979827   0.04491  -0.18128   0.09534  -0.05441
  32   36708.7    272.4   0.029460328   0.26421  -0.21494   0.27636   0.37634
  33   36912.3    270.9   0.025510592   0.22752  -0.39722  -0.12867   0.23061
  34   37048.6    269.9   0.003587868   0.03188  -0.15210   0.02088   0.09116
  35   37561.1    266.2   0.047071056   0.41256   0.28638   0.45127  -0.35623
  36   37818.9    264.4   0.094003503   0.81830   0.01315   0.46312   0.77695
  37   38269.6    261.3   0.000822273   0.00707   0.02951   0.05190   0.05923
  38   38280.0    261.2   0.014950729   0.12858   0.00914  -0.09623   0.34530
  39   38511.0    259.7   0.029757203   0.25438  -0.01694  -0.45834  -0.20979
  40   38676.0    258.6   0.000179264   0.00153   0.03721   0.01044   0.00568
  41   39179.6    255.2   0.030714799   0.25809  -0.15370  -0.33865   0.34609
  42   39284.3    254.6   0.011809067   0.09896   0.15629   0.17498  -0.20957
  43   39690.3    252.0   0.000601256   0.00499   0.07027   0.00701  -0.00022
  44   39865.9    250.8   0.008548016   0.07059   0.08883  -0.01130  -0.25014
  45   40262.6    248.4   0.008656474   0.07078  -0.14014  -0.20841   0.08778

FINAL SINGLE POINT ENERGY     -4664.506450906470

DIPOLE MOMENT
-------------
                                X             Y             Z
Electronic contribution:     -7.87276     -25.62249     -11.03338
Nuclear contribution   :      7.72966      26.67893       8.93999
                        -----------------------------------------
Total Dipole Moment    :     -0.14310       1.05644      -2.09339
                        -----------------------------------------
Magnitude (a.u.)       :      2.34922
Magnitude (Debye)      :      5.97123

Rotational constants in cm-1:     0.000952     0.000486     0.000328
Rotational constants in MHz :    28.547200    14.578610     9.842464

                             ****ORCA TERMINATED NORMALLY****
TOTAL RUN TIME: 0 days 0 hours 11 minutes 47 seconds 853 msec
