                         Program Version 4.2.0 -  RELEASE  -
|  1> # ORCA input file
|  2> # SCF done       -199.203588312069          0.000847385145
|  3> ! CAM-B3LYP def2-SVP def2/J RIJCOSX Grid4 TightSCF
|  4> %maxcore 5000
|  5> %tddft
|  6>     Mode sTDDFT
|  7>     Ethresh 5.0
|  8>     maxcore 5000
|  9> end
| 10>
| 11> %pal
| 12>   nprocs 6
| 13>   end
| 14> * xyz 0 1
| 15>    C       -6.17471         4.05234         1.71031
| 16>    C       -5.84621         4.51246         2.97688
| 17>    C       -5.20100         3.69335         3.89244
| 18>    C       -4.85351         2.39167         3.56330
| 19>    C       -5.17190         1.92388         2.29954
| 20>    C       -5.84299         2.75016         1.37048
| 21>    C       -6.08243         1.98927         0.15099
| 22>    C       -6.59800         2.49002        -1.01523
| 23>    C       -6.96316         3.84053        -1.20188
| 24>    N       -7.28649         4.91914        -1.42486
| 25>    C       -6.80756         1.76213        -2.20530
| 26>    N       -7.00160         1.23943        -3.20950
| 27>    C       -5.67730         0.61463         0.42620
| 28>    C       -4.91798         0.63668         1.67043
| 29>    C       -3.93600        -0.23988         2.04838
| 30>    C       -3.52331        -1.35105         1.28617
| 31>    N       -3.12770        -2.24962         0.69113
| 32>    C       -3.14240        -0.08177         3.20471
| 33>    N       -2.46324        -0.00697         4.12635
| 34>    C       -6.06437        -0.45689        -0.33434
| 35>    C       -6.09928        -1.81833         0.02164
| 36>    C       -6.08457        -2.42010         1.27505
| 37>    C       -6.19393        -3.79925         1.19737
| 38>    C       -6.30487        -4.27082        -0.12943
| 39>    S       -6.28715        -3.01023        -1.26673
| 40>    C       -6.40449        -5.68274        -0.09162
| 41>    C       -6.33828        -6.10559         1.24519
| 42>    C       -6.20655        -4.93749         2.10012
| 43>    C       -6.11011        -4.90792         3.46089
| 44>    C       -6.15276        -6.08591         4.23430
| 45>    N       -6.20681        -7.05104         4.85149
| 46>    C       -5.98161        -3.69144         4.16327
| 47>    N       -5.88606        -2.69242         4.71814
| 48>    C       -6.41565        -7.49304         1.38301
| 49>    C       -6.54766        -8.13498         0.16669
| 50>    S       -6.56958        -6.99634        -1.17091
| 51>    C       -6.72322        -9.53721        -0.06308
| 52>    C       -7.20938       -10.46348         0.84841
| 53>    C       -7.63961       -10.32804         2.26289
| 54>    N       -7.29336       -11.65837         0.20493
| 55>    C       -6.89722       -11.55274        -1.09216
| 56>    C       -6.84824       -12.74094        -1.98096
| 57>    C       -6.52811       -10.23616        -1.30895
| 58>    C       -5.98047        -9.66398        -2.50258
| 59>    C       -6.27483       -10.04983        -3.76189
| 60>    C       -5.70532        -9.45901        -4.92533
| 61>    C       -4.68441        -8.52577        -5.02019
| 62>    C       -4.41719        -8.17224        -6.33949
| 63>    C       -5.24282        -8.83520        -7.26591
| 64>    S       -6.33754        -9.90275        -6.50023
| 65>    C       -4.89371        -8.40906        -8.56515
| 66>    C       -3.83643        -7.47645        -8.46939
| 67>    C       -3.50573        -7.29841        -7.06639
| 68>    C       -2.55278        -6.48360        -6.53098
| 69>    C       -1.71148        -5.67712        -7.32743
| 70>    N       -1.02489        -5.01867        -7.96650
| 71>    C       -2.35504        -6.39291        -5.13664
| 72>    N       -2.20875        -6.32114        -4.00164
| 73>    C       -3.43728        -6.98899        -9.70539
| 74>    C       -4.15079        -7.55250       -10.75796
| 75>    S       -5.37987        -8.68121       -10.17148
| 76>    C       -4.02044        -7.17074       -12.10732
| 77>    C       -4.53912        -7.76016       -13.22901
| 78>    C       -4.78420        -7.06150       -14.48547
| 79>    C       -4.23496        -5.87896       -14.90254
| 80>    C       -3.27032        -5.13233       -14.19319
| 81>    N       -2.48302        -4.47745       -13.67392
| 82>    C       -4.53110        -5.26252       -16.13695
| 83>    N       -4.72592        -4.70911       -17.12336
| 84>    C       -5.74753        -7.86610       -15.22821
| 85>    C       -5.95017        -9.08577       -14.54351
| 86>    C       -6.83882       -10.03117       -15.02641
| 87>    C       -7.52676        -9.75269       -16.19799
| 88>    C       -7.32384        -8.55985       -16.87732
| 89>    C       -6.43442        -7.60660       -16.40346
| 90>    C       -5.07733        -9.10488       -13.38084
| 91>    C       -4.61500       -10.22953       -12.74976
| 92>    C       -5.11025       -11.52633       -12.99182
| 93>    N       -5.48990       -12.60003       -13.13504
| 94>    C       -3.52559       -10.22183       -11.85370
| 95>    N       -2.61699       -10.25539       -11.15302
| 96>    H       -6.68354         4.70088         1.01653
| 97>    H       -6.10403         5.52335         3.25342
| 98>    H       -4.96690         4.07102         4.87589
| 99>    H       -4.36246         1.75984         4.28538
|100>    H       -6.46252        -0.24363        -1.31754
|101>    H       -6.04318        -1.86400         2.19398
|102>    H       -6.34500        -8.01061         2.31946
|103>    H       -6.78136       -10.27884         2.93383
|104>    H       -8.24595       -11.18377         2.55288
|105>    H       -8.22710        -9.42244         2.40107
|106>    H       -7.60561       -12.51400         0.63701
|107>    H       -6.68518       -13.64435        -1.39577
|108>    H       -6.04017       -12.63790        -2.70120
|109>    H       -7.78301       -12.85909        -2.53108
|110>    H       -5.28453        -8.84961        -2.35701
|111>    H       -7.01867       -10.81337        -3.93475
|112>    H       -4.16188        -8.13526        -4.16736
|113>    H       -2.65216        -6.27176        -9.86545
|114>    H       -3.50844        -6.22538       -12.23640
|115>    H       -7.00712       -10.95765       -14.50131
|116>    H       -8.22996       -10.47476       -16.58388
|117>    H       -7.86821        -8.36542       -17.78873
|118>    H       -6.29369        -6.68480       -16.94332
|119> *
|120>
|121>                          ****END OF INPUT****

CARTESIAN COORDINATES (ANGSTROEM)
---------------------------------
  C     -6.174710    4.052340    1.710310
  C     -5.846210    4.512460    2.976880
  C     -5.201000    3.693350    3.892440
  C     -4.853510    2.391670    3.563300
  C     -5.171900    1.923880    2.299540
  C     -5.842990    2.750160    1.370480
  C     -6.082430    1.989270    0.150990
  C     -6.598000    2.490020   -1.015230
  C     -6.963160    3.840530   -1.201880
  N     -7.286490    4.919140   -1.424860
  C     -6.807560    1.762130   -2.205300
  N     -7.001600    1.239430   -3.209500
  C     -5.677300    0.614630    0.426200
  C     -4.917980    0.636680    1.670430
  C     -3.936000   -0.239880    2.048380
  C     -3.523310   -1.351050    1.286170
  N     -3.127700   -2.249620    0.691130
  C     -3.142400   -0.081770    3.204710
  N     -2.463240   -0.006970    4.126350
  C     -6.064370   -0.456890   -0.334340
  C     -6.099280   -1.818330    0.021640
  C     -6.084570   -2.420100    1.275050
  C     -6.193930   -3.799250    1.197370
  C     -6.304870   -4.270820   -0.129430
  S     -6.287150   -3.010230   -1.266730
  C     -6.404490   -5.682740   -0.091620
  C     -6.338280   -6.105590    1.245190
  C     -6.206550   -4.937490    2.100120
  C     -6.110110   -4.907920    3.460890
  C     -6.152760   -6.085910    4.234300
  N     -6.206810   -7.051040    4.851490
  C     -5.981610   -3.691440    4.163270
  N     -5.886060   -2.692420    4.718140
  C     -6.415650   -7.493040    1.383010
  C     -6.547660   -8.134980    0.166690
  S     -6.569580   -6.996340   -1.170910
  C     -6.723220   -9.537210   -0.063080
  C     -7.209380  -10.463480    0.848410
  C     -7.639610  -10.328040    2.262890
  N     -7.293360  -11.658370    0.204930
  C     -6.897220  -11.552740   -1.092160
  C     -6.848240  -12.740940   -1.980960
  C     -6.528110  -10.236160   -1.308950
  C     -5.980470   -9.663980   -2.502580
  C     -6.274830  -10.049830   -3.761890
  C     -5.705320   -9.459010   -4.925330
  C     -4.684410   -8.525770   -5.020190
  C     -4.417190   -8.172240   -6.339490
  C     -5.242820   -8.835200   -7.265910
  S     -6.337540   -9.902750   -6.500230
  C     -4.893710   -8.409060   -8.565150
  C     -3.836430   -7.476450   -8.469390
  C     -3.505730   -7.298410   -7.066390
  C     -2.552780   -6.483600   -6.530980
  C     -1.711480   -5.677120   -7.327430
  N     -1.024890   -5.018670   -7.966500
  C     -2.355040   -6.392910   -5.136640
  N     -2.208750   -6.321140   -4.001640
  C     -3.437280   -6.988990   -9.705390
  C     -4.150790   -7.552500  -10.757960
  S     -5.379870   -8.681210  -10.171480
  C     -4.020440   -7.170740  -12.107320
  C     -4.539120   -7.760160  -13.229010
  C     -4.784200   -7.061500  -14.485470
  C     -4.234960   -5.878960  -14.902540
  C     -3.270320   -5.132330  -14.193190
  N     -2.483020   -4.477450  -13.673920
  C     -4.531100   -5.262520  -16.136950
  N     -4.725920   -4.709110  -17.123360
  C     -5.747530   -7.866100  -15.228210
  C     -5.950170   -9.085770  -14.543510
  C     -6.838820  -10.031170  -15.026410
  C     -7.526760   -9.752690  -16.197990
  C     -7.323840   -8.559850  -16.877320
  C     -6.434420   -7.606600  -16.403460
  C     -5.077330   -9.104880  -13.380840
  C     -4.615000  -10.229530  -12.749760
  C     -5.110250  -11.526330  -12.991820
  N     -5.489900  -12.600030  -13.135040
  C     -3.525590  -10.221830  -11.853700
  N     -2.616990  -10.255390  -11.153020
  H     -6.683540    4.700880    1.016530
  H     -6.104030    5.523350    3.253420
  H     -4.966900    4.071020    4.875890
  H     -4.362460    1.759840    4.285380
  H     -6.462520   -0.243630   -1.317540
  H     -6.043180   -1.864000    2.193980
  H     -6.345000   -8.010610    2.319460
  H     -6.781360  -10.278840    2.933830
  H     -8.245950  -11.183770    2.552880
  H     -8.227100   -9.422440    2.401070
  H     -7.605610  -12.514000    0.637010
  H     -6.685180  -13.644350   -1.395770
  H     -6.040170  -12.637900   -2.701200
  H     -7.783010  -12.859090   -2.531080
  H     -5.284530   -8.849610   -2.357010
  H     -7.018670  -10.813370   -3.934750
  H     -4.161880   -8.135260   -4.167360
  H     -2.652160   -6.271760   -9.865450
  H     -3.508440   -6.225380  -12.236400
  H     -7.007120  -10.957650  -14.501310
  H     -8.229960  -10.474760  -16.583880
  H     -7.868210   -8.365420  -17.788730
  H     -6.293690   -6.684800  -16.943320

 Total Charge           Charge          ....    0
 Multiplicity           Mult            ....    1
 Number of Electrons    NEL             ....  562
 Basis Dimension        Dim             .... 1265

ORBITAL ENERGIES
----------------

  NO   OCC          E(Eh)            E(eV)
   0   2.0000     -89.002195     -2421.8729
   1   2.0000     -88.999931     -2421.8113
   2   2.0000     -88.999349     -2421.7954
   3   2.0000     -88.995493     -2421.6905
   4   2.0000     -14.485330      -394.1659
   5   2.0000     -14.437948      -392.8765
   6   2.0000     -14.437483      -392.8639
   7   2.0000     -14.437449      -392.8630
   8   2.0000     -14.435386      -392.8068
   9   2.0000     -14.425492      -392.5376
  10   2.0000     -14.423597      -392.4860
  11   2.0000     -14.422936      -392.4680
  12   2.0000     -14.422911      -392.4674
  13   2.0000     -14.421436      -392.4272
  14   2.0000     -14.419818      -392.3832
  15   2.0000     -14.417873      -392.3303
  16   2.0000     -14.417355      -392.3162
  17   2.0000     -10.373578      -282.2794
  18   2.0000     -10.371531      -282.2237
  19   2.0000     -10.360355      -281.9196
  20   2.0000     -10.359388      -281.8933
  21   2.0000     -10.355153      -281.7780
  22   2.0000     -10.354566      -281.7621
  23   2.0000     -10.351277      -281.6726
  24   2.0000     -10.350719      -281.6574
  25   2.0000     -10.350165      -281.6423
  26   2.0000     -10.349987      -281.6375
  27   2.0000     -10.349864      -281.6341
  28   2.0000     -10.348478      -281.5964
  29   2.0000     -10.347809      -281.5782
  30   2.0000     -10.346768      -281.5499
  31   2.0000     -10.338537      -281.3259
  32   2.0000     -10.338219      -281.3172
  33   2.0000     -10.337796      -281.3057
  34   2.0000     -10.337755      -281.3046
  35   2.0000     -10.337400      -281.2950
  36   2.0000     -10.336388      -281.2674
  37   2.0000     -10.334866      -281.2260
  38   2.0000     -10.334632      -281.2196
  39   2.0000     -10.334467      -281.2152
  40   2.0000     -10.333039      -281.1763
  41   2.0000     -10.332650      -281.1657
  42   2.0000     -10.331299      -281.1289
  43   2.0000     -10.327660      -281.0299
  44   2.0000     -10.326142      -280.9886
  45   2.0000     -10.325301      -280.9657
  46   2.0000     -10.325191      -280.9627
  47   2.0000     -10.324707      -280.9496
  48   2.0000     -10.324193      -280.9356
  49   2.0000     -10.322493      -280.8893
  50   2.0000     -10.322389      -280.8865
  51   2.0000     -10.322338      -280.8851
  52   2.0000     -10.320795      -280.8431
  53   2.0000     -10.319981      -280.8210
  54   2.0000     -10.319479      -280.8073
  55   2.0000     -10.319118      -280.7975
  56   2.0000     -10.318863      -280.7905
  57   2.0000     -10.318401      -280.7780
  58   2.0000     -10.315513      -280.6994
  59   2.0000     -10.315163      -280.6899
  60   2.0000     -10.313370      -280.6411
  61   2.0000     -10.313287      -280.6388
  62   2.0000     -10.311099      -280.5793
  63   2.0000     -10.310832      -280.5720
  64   2.0000     -10.310694      -280.5683
  65   2.0000     -10.307658      -280.4856
  66   2.0000     -10.304272      -280.3935
  67   2.0000     -10.304093      -280.3886
  68   2.0000     -10.302918      -280.3567
  69   2.0000     -10.302459      -280.3442
  70   2.0000     -10.302001      -280.3317
  71   2.0000     -10.301986      -280.3313
  72   2.0000     -10.301469      -280.3172
  73   2.0000     -10.299101      -280.2528
  74   2.0000     -10.298724      -280.2425
  75   2.0000     -10.297873      -280.2194
  76   2.0000     -10.297548      -280.2105
  77   2.0000     -10.297151      -280.1997
  78   2.0000     -10.295211      -280.1469
  79   2.0000     -10.289167      -279.9825
  80   2.0000     -10.284673      -279.8602
  81   2.0000      -8.096273      -220.3108
  82   2.0000      -8.094437      -220.2608
  83   2.0000      -8.094033      -220.2498
  84   2.0000      -8.089489      -220.1262
  85   2.0000      -6.065560      -165.0523
  86   2.0000      -6.063563      -164.9979
  87   2.0000      -6.063262      -164.9897
  88   2.0000      -6.061370      -164.9383
  89   2.0000      -6.059418      -164.8851
  90   2.0000      -6.059076      -164.8759
  91   2.0000      -6.058794      -164.8682
  92   2.0000      -6.058591      -164.8627
  93   2.0000      -6.057012      -164.8197
  94   2.0000      -6.056471      -164.8049
  95   2.0000      -6.054464      -164.7503
  96   2.0000      -6.051982      -164.6828
  97   2.0000      -1.103816       -30.0363
  98   2.0000      -1.056373       -28.7454
  99   2.0000      -1.053368       -28.6636
 100   2.0000      -1.039573       -28.2882
 101   2.0000      -1.035596       -28.1800
 102   2.0000      -1.029097       -28.0032
 103   2.0000      -1.028743       -27.9935
 104   2.0000      -1.020341       -27.7649
 105   2.0000      -1.017732       -27.6939
 106   2.0000      -1.015393       -27.6303
 107   2.0000      -1.013992       -27.5921
 108   2.0000      -1.009951       -27.4822
 109   2.0000      -1.009519       -27.4704
 110   2.0000      -1.007168       -27.4064
 111   2.0000      -1.005986       -27.3743
 112   2.0000      -1.001999       -27.2658
 113   2.0000      -0.999615       -27.2009
 114   2.0000      -0.998452       -27.1693
 115   2.0000      -0.996574       -27.1182
 116   2.0000      -0.971877       -26.4461
 117   2.0000      -0.969277       -26.3754
 118   2.0000      -0.960067       -26.1248
 119   2.0000      -0.956867       -26.0377
 120   2.0000      -0.942942       -25.6587
 121   2.0000      -0.939343       -25.5608
 122   2.0000      -0.937997       -25.5242
 123   2.0000      -0.929074       -25.2814
 124   2.0000      -0.920411       -25.0456
 125   2.0000      -0.904478       -24.6121
 126   2.0000      -0.899837       -24.4858
 127   2.0000      -0.894418       -24.3383
 128   2.0000      -0.892459       -24.2850
 129   2.0000      -0.888221       -24.1697
 130   2.0000      -0.884670       -24.0731
 131   2.0000      -0.872029       -23.7291
 132   2.0000      -0.869030       -23.6475
 133   2.0000      -0.867543       -23.6071
 134   2.0000      -0.864607       -23.5271
 135   2.0000      -0.863346       -23.4928
 136   2.0000      -0.862011       -23.4565
 137   2.0000      -0.839258       -22.8374
 138   2.0000      -0.825856       -22.4727
 139   2.0000      -0.820272       -22.3207
 140   2.0000      -0.797858       -21.7108
 141   2.0000      -0.793903       -21.6032
 142   2.0000      -0.792323       -21.5602
 143   2.0000      -0.790261       -21.5041
 144   2.0000      -0.784490       -21.3471
 145   2.0000      -0.778758       -21.1911
 146   2.0000      -0.757934       -20.6244
 147   2.0000      -0.747022       -20.3275
 148   2.0000      -0.731012       -19.8918
 149   2.0000      -0.721621       -19.6363
 150   2.0000      -0.719889       -19.5892
 151   2.0000      -0.718356       -19.5475
 152   2.0000      -0.713990       -19.4286
 153   2.0000      -0.712927       -19.3997
 154   2.0000      -0.712639       -19.3919
 155   2.0000      -0.703663       -19.1477
 156   2.0000      -0.696543       -18.9539
 157   2.0000      -0.694553       -18.8997
 158   2.0000      -0.687742       -18.7144
 159   2.0000      -0.677341       -18.4314
 160   2.0000      -0.669794       -18.2260
 161   2.0000      -0.668127       -18.1806
 162   2.0000      -0.665259       -18.1026
 163   2.0000      -0.664633       -18.0856
 164   2.0000      -0.661438       -17.9986
 165   2.0000      -0.655679       -17.8419
 166   2.0000      -0.647610       -17.6224
 167   2.0000      -0.640879       -17.4392
 168   2.0000      -0.639700       -17.4071
 169   2.0000      -0.631830       -17.1930
 170   2.0000      -0.627860       -17.0849
 171   2.0000      -0.624955       -17.0059
 172   2.0000      -0.622948       -16.9513
 173   2.0000      -0.617998       -16.8166
 174   2.0000      -0.604713       -16.4551
 175   2.0000      -0.591856       -16.1052
 176   2.0000      -0.588966       -16.0266
 177   2.0000      -0.586163       -15.9503
 178   2.0000      -0.584703       -15.9106
 179   2.0000      -0.584120       -15.8947
 180   2.0000      -0.578556       -15.7433
 181   2.0000      -0.567138       -15.4326
 182   2.0000      -0.559695       -15.2301
 183   2.0000      -0.558289       -15.1918
 184   2.0000      -0.557655       -15.1746
 185   2.0000      -0.556683       -15.1481
 186   2.0000      -0.553355       -15.0576
 187   2.0000      -0.547943       -14.9103
 188   2.0000      -0.546949       -14.8833
 189   2.0000      -0.543407       -14.7868
 190   2.0000      -0.541001       -14.7214
 191   2.0000      -0.539411       -14.6781
 192   2.0000      -0.536109       -14.5883
 193   2.0000      -0.531703       -14.4684
 194   2.0000      -0.529741       -14.4150
 195   2.0000      -0.526265       -14.3204
 196   2.0000      -0.524152       -14.2629
 197   2.0000      -0.522032       -14.2052
 198   2.0000      -0.520058       -14.1515
 199   2.0000      -0.517332       -14.0773
 200   2.0000      -0.514817       -14.0089
 201   2.0000      -0.513718       -13.9790
 202   2.0000      -0.510737       -13.8979
 203   2.0000      -0.510383       -13.8882
 204   2.0000      -0.508884       -13.8474
 205   2.0000      -0.506388       -13.7795
 206   2.0000      -0.503951       -13.7132
 207   2.0000      -0.502781       -13.6814
 208   2.0000      -0.500767       -13.6266
 209   2.0000      -0.497649       -13.5417
 210   2.0000      -0.496022       -13.4974
 211   2.0000      -0.494366       -13.4524
 212   2.0000      -0.489961       -13.3325
 213   2.0000      -0.485678       -13.2160
 214   2.0000      -0.481906       -13.1133
 215   2.0000      -0.480261       -13.0686
 216   2.0000      -0.478303       -13.0153
 217   2.0000      -0.476170       -12.9573
 218   2.0000      -0.468872       -12.7587
 219   2.0000      -0.468298       -12.7430
 220   2.0000      -0.467683       -12.7263
 221   2.0000      -0.466991       -12.7075
 222   2.0000      -0.465614       -12.6700
 223   2.0000      -0.463442       -12.6109
 224   2.0000      -0.463246       -12.6056
 225   2.0000      -0.462865       -12.5952
 226   2.0000      -0.458523       -12.4770
 227   2.0000      -0.457840       -12.4585
 228   2.0000      -0.457582       -12.4514
 229   2.0000      -0.457280       -12.4432
 230   2.0000      -0.455246       -12.3879
 231   2.0000      -0.453983       -12.3535
 232   2.0000      -0.453318       -12.3354
 233   2.0000      -0.452844       -12.3225
 234   2.0000      -0.452675       -12.3179
 235   2.0000      -0.450749       -12.2655
 236   2.0000      -0.450110       -12.2481
 237   2.0000      -0.448041       -12.1918
 238   2.0000      -0.447894       -12.1878
 239   2.0000      -0.447095       -12.1661
 240   2.0000      -0.446774       -12.1573
 241   2.0000      -0.445875       -12.1329
 242   2.0000      -0.445019       -12.1096
 243   2.0000      -0.444944       -12.1075
 244   2.0000      -0.443478       -12.0676
 245   2.0000      -0.443241       -12.0612
 246   2.0000      -0.439460       -11.9583
 247   2.0000      -0.434826       -11.8322
 248   2.0000      -0.433539       -11.7972
 249   2.0000      -0.432874       -11.7791
 250   2.0000      -0.432582       -11.7712
 251   2.0000      -0.431614       -11.7448
 252   2.0000      -0.431473       -11.7410
 253   2.0000      -0.429798       -11.6954
 254   2.0000      -0.428036       -11.6475
 255   2.0000      -0.426788       -11.6135
 256   2.0000      -0.418821       -11.3967
 257   2.0000      -0.417677       -11.3656
 258   2.0000      -0.415840       -11.3156
 259   2.0000      -0.413622       -11.2552
 260   2.0000      -0.413013       -11.2387
 261   2.0000      -0.410184       -11.1617
 262   2.0000      -0.408135       -11.1059
 263   2.0000      -0.394259       -10.7283
 264   2.0000      -0.387712       -10.5502
 265   2.0000      -0.386136       -10.5073
 266   2.0000      -0.383823       -10.4444
 267   2.0000      -0.366781        -9.9806
 268   2.0000      -0.358646        -9.7593
 269   2.0000      -0.354321        -9.6416
 270   2.0000      -0.348337        -9.4787
 271   2.0000      -0.337146        -9.1742
 272   2.0000      -0.333291        -9.0693
 273   2.0000      -0.331607        -9.0235
 274   2.0000      -0.329718        -8.9721
 275   2.0000      -0.324971        -8.8429
 276   2.0000      -0.317157        -8.6303
 277   2.0000      -0.302258        -8.2248
 278   2.0000      -0.293144        -7.9769
 279   2.0000      -0.259885        -7.0718
 280   2.0000      -0.258413        -7.0318
 281   0.0000      -0.120925        -3.2905
 282   0.0000      -0.114838        -3.1249
 283   0.0000      -0.095102        -2.5878
 284   0.0000      -0.094265        -2.5651
 285   0.0000      -0.089677        -2.4402

MULLIKEN ATOMIC CHARGES
-----------------------
   0 C :   -0.038187
   1 C :    0.048414
   2 C :    0.049440
   3 C :   -0.031740
   4 C :    0.001163
   5 C :    0.014366
   6 C :    0.298651
   7 C :   -0.352677
   8 C :   -0.188836
   9 N :    0.161750
  10 C :   -0.178033
  11 N :    0.150777
  12 C :   -0.075536
  13 C :    0.228412
  14 C :   -0.333831
  15 C :   -0.202988
  16 N :    0.183015
  17 C :   -0.178255
  18 N :    0.169898
  19 C :    0.093158
  20 C :   -0.142758
  21 C :    0.002153
  22 C :   -0.012947
  23 C :   -0.054805
  24 S :    0.227383
  25 C :   -0.105412
  26 C :    0.034829
  27 C :    0.303167
  28 C :   -0.284666
  29 C :   -0.184869
  30 N :    0.164874
  31 C :   -0.183471
  32 N :    0.169231
  33 C :   -0.056072
  34 C :   -0.114013
  35 S :    0.167787
  36 C :    0.093877
  37 C :   -0.174942
  38 C :    0.126975
  39 N :   -0.026793
  40 C :   -0.160623
  41 C :    0.117256
  42 C :    0.040574
  43 C :   -0.054403
  44 C :    0.024323
  45 C :   -0.070202
  46 C :   -0.042005
  47 C :    0.020984
  48 C :   -0.113304
  49 S :    0.196459
  50 C :   -0.071416
  51 C :    0.030587
  52 C :    0.298552
  53 C :   -0.288245
  54 C :   -0.190767
  55 N :    0.192357
  56 C :   -0.184858
  57 N :    0.172343
  58 C :   -0.004346
  59 C :   -0.105013
  60 S :    0.196776
  61 C :    0.044999
  62 C :   -0.071436
  63 C :    0.296480
  64 C :   -0.341304
  65 C :   -0.183846
  66 N :    0.158846
  67 C :   -0.188742
  68 N :    0.161384
  69 C :    0.010268
  70 C :    0.007730
  71 C :   -0.031267
  72 C :    0.045498
  73 C :    0.047589
  74 C :   -0.031647
  75 C :    0.203969
  76 C :   -0.328046
  77 C :   -0.180878
  78 N :    0.164395
  79 C :   -0.207435
  80 N :    0.186392
  81 H :    0.006922
  82 H :    0.003536
  83 H :    0.004920
  84 H :    0.013566
  85 H :    0.008122
  86 H :    0.028926
  87 H :   -0.008729
  88 H :    0.060584
  89 H :    0.004239
  90 H :    0.042050
  91 H :    0.120691
  92 H :    0.012613
  93 H :    0.040064
  94 H :    0.039934
  95 H :    0.022226
  96 H :   -0.021607
  97 H :    0.008461
  98 H :    0.031450
  99 H :    0.023704
 100 H :    0.005077
 101 H :    0.005018
 102 H :    0.004612
 103 H :    0.007153
Sum of atomic charges:   -0.0000000

LOEWDIN ATOMIC CHARGES
----------------------
   0 C :    0.004629
   1 C :    0.001583
   2 C :    0.005465
   3 C :    0.004184
   4 C :   -0.009795
   5 C :   -0.014141
   6 C :    0.079807
   7 C :   -0.137879
   8 C :   -0.019337
   9 N :   -0.048115
  10 C :   -0.021392
  11 N :   -0.048970
  12 C :   -0.063102
  13 C :    0.065723
  14 C :   -0.130487
  15 C :   -0.018828
  16 N :   -0.038347
  17 C :   -0.020035
  18 N :   -0.040343
  19 C :    0.035956
  20 C :   -0.186085
  21 C :    0.013098
  22 C :   -0.072480
  23 C :   -0.145044
  24 S :    0.511328
  25 C :   -0.202013
  26 C :   -0.050180
  27 C :    0.084166
  28 C :   -0.100484
  29 C :   -0.013645
  30 N :   -0.035977
  31 C :   -0.014024
  32 N :   -0.031699
  33 C :   -0.047901
  34 C :   -0.128816
  35 S :    0.495123
  36 C :   -0.098495
  37 C :    0.000995
  38 C :   -0.053254
  39 N :    0.101448
  40 C :   -0.003419
  41 C :   -0.054378
  42 C :   -0.084861
  43 C :   -0.005710
  44 C :   -0.065154
  45 C :   -0.141440
  46 C :   -0.038156
  47 C :   -0.042978
  48 C :   -0.204627
  49 S :    0.479228
  50 C :   -0.137584
  51 C :   -0.079390
  52 C :    0.077182
  53 C :   -0.092715
  54 C :   -0.020097
  55 N :   -0.017859
  56 C :   -0.014978
  57 N :   -0.028046
  58 C :    0.027220
  59 C :   -0.183130
  60 S :    0.505114
  61 C :    0.045661
  62 C :   -0.073395
  63 C :    0.078637
  64 C :   -0.134474
  65 C :   -0.023065
  66 N :   -0.041030
  67 C :   -0.019405
  68 N :   -0.046320
  69 C :   -0.012247
  70 C :   -0.011277
  71 C :    0.000575
  72 C :    0.003465
  73 C :    0.002279
  74 C :    0.005659
  75 C :    0.059489
  76 C :   -0.142939
  77 C :   -0.020826
  78 N :   -0.045697
  79 C :   -0.039663
  80 N :   -0.041407
  81 H :    0.041520
  82 H :    0.037495
  83 H :    0.037944
  84 H :    0.043161
  85 H :    0.044691
  86 H :    0.042808
  87 H :    0.037099
  88 H :    0.045563
  89 H :    0.033303
  90 H :    0.045041
  91 H :    0.091296
  92 H :    0.033811
  93 H :    0.044522
  94 H :    0.038291
  95 H :    0.021874
  96 H :    0.026828
  97 H :    0.039348
  98 H :    0.051527
  99 H :    0.055018
 100 H :    0.040370
 101 H :    0.037658
 102 H :    0.037940
 103 H :    0.042013

  Mayer bond orders larger than 0.100000
B(  0-C ,  1-C ) :   1.3709 B(  0-C ,  5-C ) :   1.3843 B(  0-C , 81-H ) :   0.9824
B(  1-C ,  2-C ) :   1.3775 B(  1-C , 82-H ) :   0.9858 B(  2-C ,  3-C ) :   1.3658
B(  2-C , 83-H ) :   0.9863 B(  3-C ,  4-C ) :   1.3850 B(  3-C , 84-H ) :   0.9861
B(  4-C ,  5-C ) :   1.3119 B(  4-C , 13-C ) :   1.0050 B(  5-C ,  6-C ) :   0.9949
B(  6-C ,  7-C ) :   1.6275 B(  6-C , 12-C ) :   1.0724 B(  7-C ,  8-C ) :   1.1502
B(  7-C , 10-C ) :   1.1371 B(  8-C ,  9-N ) :   2.9770 B( 10-C , 11-N ) :   2.9628
B( 12-C , 13-C ) :   1.0223 B( 12-C , 19-C ) :   1.6016 B( 13-C , 14-C ) :   1.6512
B( 14-C , 15-C ) :   1.1645 B( 14-C , 17-C ) :   1.1360 B( 15-C , 16-N ) :   3.0041
B( 17-C , 18-N ) :   2.9981 B( 19-C , 20-C ) :   1.2077 B( 19-C , 85-H ) :   0.9067
B( 20-C , 21-C ) :   1.3656 B( 20-C , 24-S ) :   1.0846 B( 21-C , 22-C ) :   1.3800
B( 21-C , 86-H ) :   0.9800 B( 22-C , 23-C ) :   1.3859 B( 22-C , 27-C ) :   0.9970
B( 23-C , 24-S ) :   1.1705 B( 23-C , 25-C ) :   1.1988 B( 25-C , 26-C ) :   1.4374
B( 25-C , 35-S ) :   1.0932 B( 26-C , 27-C ) :   0.9904 B( 26-C , 33-C ) :   1.2776
B( 27-C , 28-C ) :   1.7161 B( 28-C , 29-C ) :   1.1343 B( 28-C , 31-C ) :   1.1317
B( 29-C , 30-N ) :   2.9845 B( 31-C , 32-N ) :   2.9803 B( 33-C , 34-C ) :   1.4574
B( 33-C , 87-H ) :   0.9960 B( 34-C , 35-S ) :   1.1231 B( 34-C , 36-C ) :   1.0730
B( 36-C , 37-C ) :   1.4574 B( 36-C , 42-C ) :   1.2179 B( 37-C , 38-C ) :   1.1143
B( 37-C , 39-N ) :   1.2365 B( 38-C , 88-H ) :   0.9358 B( 38-C , 89-H ) :   0.9317
B( 38-C , 90-H ) :   0.9375 B( 39-N , 40-C ) :   1.2320 B( 39-N , 91-H ) :   0.9322
B( 40-C , 41-C ) :   1.1089 B( 40-C , 42-C ) :   1.4620 B( 41-C , 92-H ) :   0.9387
B( 41-C , 93-H ) :   0.9406 B( 41-C , 94-H ) :   0.9388 B( 42-C , 43-C ) :   1.0791
B( 43-C , 44-C ) :   1.7244 B( 43-C , 95-H ) :   0.9397 B( 44-C , 45-C ) :   1.1056
B( 44-C , 96-H ) :   0.9668 B( 45-C , 46-C ) :   1.4420 B( 45-C , 49-S ) :   1.1292
B( 46-C , 47-C ) :   1.3116 B( 46-C , 97-H ) :   0.9895 B( 47-C , 48-C ) :   1.4196
B( 47-C , 52-C ) :   0.9987 B( 48-C , 49-S ) :   1.0937 B( 48-C , 50-C ) :   1.2341
B( 50-C , 51-C ) :   1.3728 B( 50-C , 60-S ) :   1.1627 B( 51-C , 52-C ) :   0.9952
B( 51-C , 58-C ) :   1.3155 B( 52-C , 53-C ) :   1.7200 B( 53-C , 54-C ) :   1.1325
B( 53-C , 56-C ) :   1.1355 B( 54-C , 55-N ) :   2.9971 B( 56-C , 57-N ) :   2.9828
B( 58-C , 59-C ) :   1.3675 B( 58-C , 98-H ) :   1.0030 B( 59-C , 60-S ) :   1.0628
B( 59-C , 61-C ) :   1.2252 B( 61-C , 62-C ) :   1.5483 B( 61-C , 99-H ) :   0.9320
B( 62-C , 63-C ) :   1.0635 B( 62-C , 75-C ) :   1.0262 B( 63-C , 64-C ) :   1.6416
B( 63-C , 69-C ) :   0.9986 B( 64-C , 65-C ) :   1.1354 B( 64-C , 67-C ) :   1.1455
B( 65-C , 66-N ) :   2.9699 B( 67-C , 68-N ) :   2.9781 B( 69-C , 70-C ) :   1.3121
B( 69-C , 74-C ) :   1.3856 B( 70-C , 71-C ) :   1.3847 B( 70-C , 75-C ) :   1.0154
B( 71-C , 72-C ) :   1.3625 B( 71-C ,100-H ) :   0.9879 B( 72-C , 73-C ) :   1.3780
B( 72-C ,101-H ) :   0.9872 B( 73-C , 74-C ) :   1.3693 B( 73-C ,102-H ) :   0.9865
B( 74-C ,103-H ) :   0.9839 B( 75-C , 76-C ) :   1.6433 B( 76-C , 77-C ) :   1.1441
B( 76-C , 79-C ) :   1.1476 B( 77-C , 78-N ) :   2.9976 B( 79-C , 80-N ) :   3.0278

-----------------------------------------------------------------------------
         ABSORPTION SPECTRUM VIA TRANSITION ELECTRIC DIPOLE MOMENTS
-----------------------------------------------------------------------------
State   Energy  Wavelength   fosc         T2         TX        TY        TZ
        (cm-1)    (nm)                  (au**2)     (au)      (au)      (au)
-----------------------------------------------------------------------------
   0   12411.4    805.7   0.273763122   7.26154  -0.24130   1.05620   2.46734
   1   12855.4    777.9   0.193430891   4.95355   0.41256   1.75509  -1.30500
   2   18397.7    543.5   0.397419643   7.11151   0.42373   2.37065   1.14542
   3   18703.3    534.7   0.241442872   4.24982  -0.22600  -1.34478  -1.54607
   4   18927.6    528.3   0.169879827   2.95476   0.43968   1.65766   0.11670
   5   19267.4    519.0   0.626971136  10.71275  -0.37578  -0.92977   3.11562
   6   22021.8    454.1   0.106839293   1.59718  -0.54597  -0.27782   1.10540
   7   22180.2    450.9   0.524510213   7.78511   0.34995  -2.16700   1.72243
   8   22858.4    437.5   0.035373990   0.50946  -0.05062  -0.41197   0.58067
   9   23869.1    419.0   0.003385352   0.04669   0.19056  -0.07742  -0.06623
  10   25934.9    385.6   0.008417581   0.10685   0.07360   0.31390   0.05385
  11   26007.5    384.5   0.008545426   0.10817  -0.03417  -0.04253   0.32434
  12   26716.8    374.3   0.067485584   0.83158  -0.49096   0.06991  -0.76528
  13   27218.8    367.4   0.052461150   0.63452   0.18687  -0.74111  -0.22439
  14   28113.1    355.7   0.043142099   0.50521   0.13119  -0.18829   0.67271
  15   28425.6    351.8   0.023283555   0.26966  -0.11633   0.46959   0.18870
  16   29202.4    342.4   0.048160394   0.54293  -0.15120  -0.07995  -0.71671
  17   29544.6    338.5   0.251683059   2.80448  -1.43322  -0.58120   0.64231
  18   29682.4    336.9   0.006075429   0.06738  -0.13419  -0.21818   0.04210
  19   29809.2    335.5   0.015587337   0.17215   0.24833   0.22296  -0.24651
  20   29958.3    333.8   0.172314369   1.89356  -0.66303  -0.88382  -0.82025
  21   30513.1    327.7   0.158853130   1.71390   0.47347   1.18996  -0.27154
  22   30801.3    324.7   0.406059270   4.34007  -0.32929  -0.76533  -1.90943
  23   30961.6    323.0   0.132894456   1.41306  -0.63860   0.24155  -0.97308
  24   31234.1    320.2   0.379938461   4.00461  -0.49481  -0.45001  -1.88607
  25   31455.4    317.9   0.109611550   1.14719  -0.40704   0.98041  -0.14253
  26   31642.2    316.0   0.427607776   4.44892  -0.48586  -0.89489   1.84717
  27   32044.7    312.1   0.307388648   3.15796   0.13545   1.42283  -1.05602
  28   32338.8    309.2   0.476937595   4.85527  -0.10085  -2.10775   0.63443
  29   32427.7    308.4   0.087890383   0.89228   0.47282  -0.77285   0.26725
  30   32887.4    304.1   0.041223924   0.41266  -0.19017   0.11697   0.60234
  31   32999.7    303.0   0.370456002   3.69575  -1.17034   0.37892  -1.47732
  32   33724.1    296.5   0.067850749   0.66235  -0.38702   0.70574   0.12040
  33   34086.8    293.4   0.187262076   1.80859   0.16511   1.12363  -0.72026
  34   34144.3    292.9   0.112941159   1.08896   0.36016  -0.97500   0.09278
  35   34288.6    291.6   0.117898195   1.13197  -0.21310   0.04196  -1.04153
  36   34484.5    290.0   0.057758521   0.55140   0.29496   0.52382  -0.43590
  37   34694.4    288.2   0.127042529   1.20550  -0.29606  -0.56812  -0.89168
  38   34913.6    286.4   0.084809665   0.79970   0.55689   0.56386   0.41428
  39   35015.5    285.6   0.266968219   2.51001  -0.14448   1.35928   0.80092
  40   35217.9    283.9   0.581077116   5.43182   1.73229   0.64986   1.41727
  41   35731.4    279.9   0.016599734   0.15294  -0.19528   0.11267   0.31955
  42   35956.7    278.1   0.029246432   0.26777  -0.04448  -0.34122  -0.38648
  43   36110.7    276.9   0.126263780   1.15112  -0.33692  -0.37892  -0.94552
  44   36338.4    275.2   0.130530083   1.18255  -0.27757  -0.60904  -0.85708
  45   36420.6    274.6   0.048037912   0.43422  -0.22155   0.40929   0.46649
  46   37000.6    270.3   0.449163987   3.99642  -0.29950  -1.90796   0.51614
  47   37569.7    266.2   0.017602869   0.15425  -0.02798   0.38939  -0.04291
  48   37911.3    263.8   0.008561711   0.07435   0.01679   0.08704   0.25786
  49   38164.4    262.0   0.019034703   0.16420  -0.00703  -0.34114   0.21856
  50   38217.4    261.7   0.002468875   0.02127  -0.01102   0.02211   0.14373
  51   38387.8    260.5   0.002331569   0.02000  -0.05051  -0.12932  -0.02683
  52   38492.4    259.8   0.151391916   1.29480  -0.00310   1.05517  -0.42592
  53   38633.3    258.8   0.080159626   0.68308   0.12202   0.80678  -0.13153
  54   38861.6    257.3   0.034190225   0.28964  -0.15646  -0.18388  -0.48098
  55   39163.1    255.3   0.006940223   0.05834   0.08162   0.14055   0.17867
  56   39201.1    255.1   0.075921732   0.63759   0.25303   0.61737  -0.43866
  57   39423.0    253.7   0.007241494   0.06047   0.18119   0.03264   0.16303
  58   39927.1    250.5   0.035310901   0.29115   0.01508   0.12947   0.52360

FINAL SINGLE POINT ENERGY     -4752.339382199626

DIPOLE MOMENT
-------------
                                X             Y             Z
Electronic contribution:     15.06363      21.64999     -19.65044
Nuclear contribution   :    -19.85027     -26.28931      21.63363
                        -----------------------------------------
Total Dipole Moment    :     -4.78664      -4.63932       1.98318
                        -----------------------------------------
Magnitude (a.u.)       :      6.95473
Magnitude (Debye)      :     17.67751

Rotational constants in cm-1:     0.000959     0.000291     0.000237
Rotational constants in MHz :    28.756650     8.711058     7.109277

                             ****ORCA TERMINATED NORMALLY****
TOTAL RUN TIME: 0 days 0 hours 11 minutes 2 seconds 314 msec
