                         Program Version 4.2.0 -  RELEASE  -
|  1> # ORCA input file
|  2> # SCF done       -190.987090027349          0.000986610549
|  3> ! CAM-B3LYP def2-SVP def2/J RIJCOSX Grid4 TightSCF
|  4> %maxcore 5000
|  5> %tddft
|  6>     Mode sTDDFT
|  7>     Ethresh 5.0
|  8>     maxcore 5000
|  9> end
| 10>
| 11> %pal
| 12>   nprocs 6
| 13>   end
| 14> * xyz 0 1
| 15>    C       -3.71406        -3.11587        -0.51634
| 16>    C       -4.09777        -4.20815        -1.25433
| 17>    C       -3.72894        -5.53468        -0.95140
| 18>    N       -3.46096        -6.63542        -0.76260
| 19>    C       -4.92464        -4.18379        -2.39639
| 20>    N       -5.59808        -4.26637        -3.32376
| 21>    C       -2.89301        -3.16271         0.69191
| 22>    C       -2.77511        -1.85000         1.21159
| 23>    C       -2.05863        -1.56270         2.34704
| 24>    C       -1.42215        -2.62281         3.00226
| 25>    C       -1.54356        -3.92988         2.47600
| 26>    C       -2.27212        -4.22038         1.32818
| 27>    S       -0.67392        -5.08882         3.43538
| 28>    C       -0.16680        -3.81836         4.51656
| 29>    C       -0.62320        -2.58933         4.17818
| 30>   Br        0.92302        -4.23322         5.98576
| 31>    C       -3.51565        -0.91968         0.33753
| 32>    O       -3.63035         0.28387         0.49908
| 33>    C       -4.06097        -1.73182        -0.74995
| 34>    C       -4.74160        -1.23686        -1.83729
| 35>    C       -5.13144         0.07141        -2.12404
| 36>    C       -5.81577         0.37745        -3.31473
| 37>    O       -6.12729        -0.54664        -4.25333
| 38>    C       -7.09425        -0.06847        -5.17184
| 39>    C       -6.77966         1.36239        -5.63317
| 40>    C       -7.79409         1.87826        -6.63944
| 41>    O       -6.79821         2.24482        -4.51406
| 42>    C       -6.16326         1.71893        -3.43435
| 43>    C       -5.77034         2.47531        -2.33388
| 44>    S       -4.93664         1.51747        -1.14849
| 45>    C       -5.99759         3.85505        -2.18262
| 46>    C       -5.66106         4.63069        -1.08093
| 47>    O       -5.08602         4.14556         0.04491
| 48>    C       -5.23540         5.04179         1.13419
| 49>    C       -4.88895         6.48303         0.73451
| 50>    C       -5.02589         7.45592         1.89346
| 51>    O       -5.76819         6.92787        -0.30024
| 52>    C       -6.01594         5.97769        -1.22955
| 53>    C       -6.65153         6.24825        -2.43465
| 54>    S       -6.78609         4.81396        -3.40966
| 55>    C       -7.17294         7.50413        -2.79407
| 56>    C       -7.93733         7.83616        -3.90089
| 57>    O       -8.28779         6.94640        -4.86921
| 58>    C       -9.40610         7.41065        -5.60376
| 59>    C       -9.21879         8.87159        -6.03974
| 60>    C       -8.00378         9.02947        -6.95088
| 61>    O       -9.10170         9.71237        -4.89304
| 62>    C       -8.34992         9.17782        -3.91010
| 63>    C       -7.94904         9.89150        -2.77941
| 64>    S       -6.95663         8.87517        -1.75482
| 65>    C       -8.21724        11.24647        -2.52823
| 66>    C       -8.04713        11.93632        -1.35907
| 67>    C       -7.85413        11.46743        -0.00760
| 68>    C       -8.38726        10.32307         0.53427
| 69>    C       -8.14933         9.88311         1.84741
| 70>    N       -7.93478         9.45102         2.89051
| 71>    C       -9.29133         9.49556        -0.16325
| 72>    N      -10.08720         8.84153        -0.67079
| 73>    C       -7.25915        12.56081         0.75246
| 74>    C       -7.31136        13.73648        -0.03839
| 75>    C       -7.87194        13.40652        -1.36958
| 76>    O       -8.08846        14.16766        -2.28619
| 77>    C       -6.88292        14.95443         0.42884
| 78>    C       -6.36992        15.01220         1.73000
| 79>    C       -6.31039        13.82967         2.50420
| 80>    C       -6.75317        12.59801         2.03682
| 81>    S       -5.63608        14.12899         4.07793
| 82>    C       -5.45179        15.81724         3.68194
| 83>    C       -5.86976        16.14136         2.43581
| 84>   Br       -4.72348        16.99061         4.95163
| 85>    H       -1.98880        -0.55215         2.71777
| 86>    H       -2.33184        -5.23346         0.96757
| 87>    H       -0.40571        -1.69480         4.73295
| 88>    H       -5.02893        -1.93660        -2.61353
| 89>    H       -8.08537        -0.08198        -4.70006
| 90>    H       -7.07940        -0.76230        -6.01240
| 91>    H       -5.76681         1.37113        -6.06553
| 92>    H       -8.79484         1.82188        -6.21983
| 93>    H       -7.75170         1.29055        -7.55127
| 94>    H       -7.57392         2.91708        -6.86706
| 95>    H       -4.56165         4.68241         1.91157
| 96>    H       -6.27059         5.01129         1.49877
| 97>    H       -3.86201         6.49426         0.33746
| 98>    H       -6.04431         7.45121         2.27313
| 99>    H       -4.79682         8.46042         1.54914
|100>    H       -4.34257         7.18651         2.69266
|101>    H      -10.31071         7.33121        -4.98651
|102>    H       -9.49369         6.75560        -6.47035
|103>    H      -10.12308         9.22164        -6.54767
|104>    H       -7.11849         8.60487        -6.48182
|105>    H       -7.82654        10.08394        -7.14576
|106>    H       -8.18123         8.51929        -7.89320
|107>    H       -8.52551        11.82919        -3.39035
|108>    H       -6.94352        15.83802        -0.18691
|109>    H       -6.69051        11.72036         2.65922
|110>    H       -5.82881        17.13526         2.02891
|111> *
|112>
|113>                          ****END OF INPUT****

CARTESIAN COORDINATES (ANGSTROEM)
---------------------------------
  C     -3.714060   -3.115870   -0.516340
  C     -4.097770   -4.208150   -1.254330
  C     -3.728940   -5.534680   -0.951400
  N     -3.460960   -6.635420   -0.762600
  C     -4.924640   -4.183790   -2.396390
  N     -5.598080   -4.266370   -3.323760
  C     -2.893010   -3.162710    0.691910
  C     -2.775110   -1.850000    1.211590
  C     -2.058630   -1.562700    2.347040
  C     -1.422150   -2.622810    3.002260
  C     -1.543560   -3.929880    2.476000
  C     -2.272120   -4.220380    1.328180
  S     -0.673920   -5.088820    3.435380
  C     -0.166800   -3.818360    4.516560
  C     -0.623200   -2.589330    4.178180
  Br     0.923020   -4.233220    5.985760
  C     -3.515650   -0.919680    0.337530
  O     -3.630350    0.283870    0.499080
  C     -4.060970   -1.731820   -0.749950
  C     -4.741600   -1.236860   -1.837290
  C     -5.131440    0.071410   -2.124040
  C     -5.815770    0.377450   -3.314730
  O     -6.127290   -0.546640   -4.253330
  C     -7.094250   -0.068470   -5.171840
  C     -6.779660    1.362390   -5.633170
  C     -7.794090    1.878260   -6.639440
  O     -6.798210    2.244820   -4.514060
  C     -6.163260    1.718930   -3.434350
  C     -5.770340    2.475310   -2.333880
  S     -4.936640    1.517470   -1.148490
  C     -5.997590    3.855050   -2.182620
  C     -5.661060    4.630690   -1.080930
  O     -5.086020    4.145560    0.044910
  C     -5.235400    5.041790    1.134190
  C     -4.888950    6.483030    0.734510
  C     -5.025890    7.455920    1.893460
  O     -5.768190    6.927870   -0.300240
  C     -6.015940    5.977690   -1.229550
  C     -6.651530    6.248250   -2.434650
  S     -6.786090    4.813960   -3.409660
  C     -7.172940    7.504130   -2.794070
  C     -7.937330    7.836160   -3.900890
  O     -8.287790    6.946400   -4.869210
  C     -9.406100    7.410650   -5.603760
  C     -9.218790    8.871590   -6.039740
  C     -8.003780    9.029470   -6.950880
  O     -9.101700    9.712370   -4.893040
  C     -8.349920    9.177820   -3.910100
  C     -7.949040    9.891500   -2.779410
  S     -6.956630    8.875170   -1.754820
  C     -8.217240   11.246470   -2.528230
  C     -8.047130   11.936320   -1.359070
  C     -7.854130   11.467430   -0.007600
  C     -8.387260   10.323070    0.534270
  C     -8.149330    9.883110    1.847410
  N     -7.934780    9.451020    2.890510
  C     -9.291330    9.495560   -0.163250
  N    -10.087200    8.841530   -0.670790
  C     -7.259150   12.560810    0.752460
  C     -7.311360   13.736480   -0.038390
  C     -7.871940   13.406520   -1.369580
  O     -8.088460   14.167660   -2.286190
  C     -6.882920   14.954430    0.428840
  C     -6.369920   15.012200    1.730000
  C     -6.310390   13.829670    2.504200
  C     -6.753170   12.598010    2.036820
  S     -5.636080   14.128990    4.077930
  C     -5.451790   15.817240    3.681940
  C     -5.869760   16.141360    2.435810
  Br    -4.723480   16.990610    4.951630
  H     -1.988800   -0.552150    2.717770
  H     -2.331840   -5.233460    0.967570
  H     -0.405710   -1.694800    4.732950
  H     -5.028930   -1.936600   -2.613530
  H     -8.085370   -0.081980   -4.700060
  H     -7.079400   -0.762300   -6.012400
  H     -5.766810    1.371130   -6.065530
  H     -8.794840    1.821880   -6.219830
  H     -7.751700    1.290550   -7.551270
  H     -7.573920    2.917080   -6.867060
  H     -4.561650    4.682410    1.911570
  H     -6.270590    5.011290    1.498770
  H     -3.862010    6.494260    0.337460
  H     -6.044310    7.451210    2.273130
  H     -4.796820    8.460420    1.549140
  H     -4.342570    7.186510    2.692660
  H    -10.310710    7.331210   -4.986510
  H     -9.493690    6.755600   -6.470350
  H    -10.123080    9.221640   -6.547670
  H     -7.118490    8.604870   -6.481820
  H     -7.826540   10.083940   -7.145760
  H     -8.181230    8.519290   -7.893200
  H     -8.525510   11.829190   -3.390350
  H     -6.943520   15.838020   -0.186910
  H     -6.690510   11.720360    2.659220
  H     -5.828810   17.135260    2.028910

 Total Charge           Charge          ....    0
 Multiplicity           Mult            ....    1
 Number of Electrons    NEL             ....  574
 Basis Dimension        Dim             .... 1166

ORBITAL ENERGIES
----------------

  NO   OCC          E(Eh)            E(eV)
   0   2.0000    -482.881767    -13139.8809
   1   2.0000    -482.880629    -13139.8499
   2   2.0000     -88.970530     -2421.0112
   3   2.0000     -88.969058     -2420.9712
   4   2.0000     -88.965989     -2420.8876
   5   2.0000     -88.962376     -2420.7893
   6   2.0000     -88.958542     -2420.6850
   7   2.0000     -62.559490     -1702.3303
   8   2.0000     -62.558363     -1702.2996
   9   2.0000     -56.393434     -1534.5434
  10   2.0000     -56.392304     -1534.5126
  11   2.0000     -56.390736     -1534.4699
  12   2.0000     -56.390692     -1534.4687
  13   2.0000     -56.389606     -1534.4392
  14   2.0000     -56.389566     -1534.4381
  15   2.0000     -19.273408      -524.4561
  16   2.0000     -19.270732      -524.3833
  17   2.0000     -19.270071      -524.3653
  18   2.0000     -19.269010      -524.3364
  19   2.0000     -19.267561      -524.2970
  20   2.0000     -19.265985      -524.2541
  21   2.0000     -19.210144      -522.7346
  22   2.0000     -19.202195      -522.5183
  23   2.0000     -14.410515      -392.1300
  24   2.0000     -14.404533      -391.9673
  25   2.0000     -14.403016      -391.9260
  26   2.0000     -14.400999      -391.8711
  27   2.0000     -10.357909      -281.8530
  28   2.0000     -10.357752      -281.8488
  29   2.0000     -10.354540      -281.7614
  30   2.0000     -10.353521      -281.7336
  31   2.0000     -10.352504      -281.7060
  32   2.0000     -10.352331      -281.7012
  33   2.0000     -10.352119      -281.6955
  34   2.0000     -10.349139      -281.6144
  35   2.0000     -10.347654      -281.5740
  36   2.0000     -10.346601      -281.5453
  37   2.0000     -10.346582      -281.5448
  38   2.0000     -10.345496      -281.5153
  39   2.0000     -10.343178      -281.4522
  40   2.0000     -10.343111      -281.4504
  41   2.0000     -10.340746      -281.3860
  42   2.0000     -10.339179      -281.3434
  43   2.0000     -10.331104      -281.1236
  44   2.0000     -10.329798      -281.0881
  45   2.0000     -10.329760      -281.0871
  46   2.0000     -10.327744      -281.0322
  47   2.0000     -10.326712      -281.0041
  48   2.0000     -10.319684      -280.8129
  49   2.0000     -10.317857      -280.7632
  50   2.0000     -10.316723      -280.7323
  51   2.0000     -10.315351      -280.6950
  52   2.0000     -10.315031      -280.6863
  53   2.0000     -10.314524      -280.6725
  54   2.0000     -10.311033      -280.5775
  55   2.0000     -10.310189      -280.5545
  56   2.0000     -10.307863      -280.4912
  57   2.0000     -10.306991      -280.4675
  58   2.0000     -10.304895      -280.4104
  59   2.0000     -10.304881      -280.4101
  60   2.0000     -10.303870      -280.3825
  61   2.0000     -10.300987      -280.3041
  62   2.0000     -10.300874      -280.3010
  63   2.0000     -10.299978      -280.2767
  64   2.0000     -10.298988      -280.2497
  65   2.0000     -10.298892      -280.2471
  66   2.0000     -10.296825      -280.1908
  67   2.0000     -10.294075      -280.1160
  68   2.0000     -10.293575      -280.1024
  69   2.0000     -10.291819      -280.0546
  70   2.0000     -10.290902      -280.0297
  71   2.0000     -10.284675      -279.8602
  72   2.0000     -10.283694      -279.8335
  73   2.0000     -10.281471      -279.7731
  74   2.0000     -10.281014      -279.7606
  75   2.0000     -10.280587      -279.7490
  76   2.0000     -10.278249      -279.6854
  77   2.0000     -10.271505      -279.5019
  78   2.0000      -8.788914      -239.1585
  79   2.0000      -8.787803      -239.1283
  80   2.0000      -8.066539      -219.5017
  81   2.0000      -8.065051      -219.4612
  82   2.0000      -8.059833      -219.3192
  83   2.0000      -8.056320      -219.2236
  84   2.0000      -8.050993      -219.0786
  85   2.0000      -6.625191      -180.2806
  86   2.0000      -6.624084      -180.2505
  87   2.0000      -6.610635      -179.8845
  88   2.0000      -6.610496      -179.8807
  89   2.0000      -6.609534      -179.8546
  90   2.0000      -6.609368      -179.8501
  91   2.0000      -6.036260      -164.2550
  92   2.0000      -6.034763      -164.2142
  93   2.0000      -6.031965      -164.1381
  94   2.0000      -6.030451      -164.0969
  95   2.0000      -6.029501      -164.0711
  96   2.0000      -6.027739      -164.0231
  97   2.0000      -6.026275      -163.9833
  98   2.0000      -6.025997      -163.9757
  99   2.0000      -6.025372      -163.9587
 100   2.0000      -6.021887      -163.8639
 101   2.0000      -6.021167      -163.8443
 102   2.0000      -6.020784      -163.8339
 103   2.0000      -6.017580      -163.7467
 104   2.0000      -6.016301      -163.7119
 105   2.0000      -6.012339      -163.6040
 106   2.0000      -2.741054       -74.5879
 107   2.0000      -2.739937       -74.5575
 108   2.0000      -2.736984       -74.4771
 109   2.0000      -2.736853       -74.4736
 110   2.0000      -2.735887       -74.4473
 111   2.0000      -2.735743       -74.4434
 112   2.0000      -2.725309       -74.1594
 113   2.0000      -2.725289       -74.1589
 114   2.0000      -2.724192       -74.1290
 115   2.0000      -2.724177       -74.1286
 116   2.0000      -1.198566       -32.6146
 117   2.0000      -1.195854       -32.5408
 118   2.0000      -1.195363       -32.5275
 119   2.0000      -1.159609       -31.5546
 120   2.0000      -1.157981       -31.5103
 121   2.0000      -1.156908       -31.4811
 122   2.0000      -1.125062       -30.6145
 123   2.0000      -1.117170       -30.3997
 124   2.0000      -1.016223       -27.6528
 125   2.0000      -1.014346       -27.6018
 126   2.0000      -1.008766       -27.4499
 127   2.0000      -1.004897       -27.3446
 128   2.0000      -1.003433       -27.3048
 129   2.0000      -0.994469       -27.0609
 130   2.0000      -0.985190       -26.8084
 131   2.0000      -0.982779       -26.7428
 132   2.0000      -0.980429       -26.6788
 133   2.0000      -0.979730       -26.6598
 134   2.0000      -0.976969       -26.5847
 135   2.0000      -0.935777       -25.4638
 136   2.0000      -0.934443       -25.4275
 137   2.0000      -0.907823       -24.7031
 138   2.0000      -0.902039       -24.5457
 139   2.0000      -0.900797       -24.5119
 140   2.0000      -0.899576       -24.4787
 141   2.0000      -0.897587       -24.4246
 142   2.0000      -0.894545       -24.3418
 143   2.0000      -0.892763       -24.2933
 144   2.0000      -0.879223       -23.9249
 145   2.0000      -0.878147       -23.8956
 146   2.0000      -0.876638       -23.8545
 147   2.0000      -0.865313       -23.5464
 148   2.0000      -0.850684       -23.1483
 149   2.0000      -0.833852       -22.6903
 150   2.0000      -0.827839       -22.5266
 151   2.0000      -0.823374       -22.4051
 152   2.0000      -0.821622       -22.3575
 153   2.0000      -0.821141       -22.3444
 154   2.0000      -0.816810       -22.2265
 155   2.0000      -0.808170       -21.9914
 156   2.0000      -0.791269       -21.5315
 157   2.0000      -0.790204       -21.5025
 158   2.0000      -0.783738       -21.3266
 159   2.0000      -0.768019       -20.8989
 160   2.0000      -0.762315       -20.7437
 161   2.0000      -0.750595       -20.4247
 162   2.0000      -0.749125       -20.3847
 163   2.0000      -0.740392       -20.1471
 164   2.0000      -0.731539       -19.9062
 165   2.0000      -0.721109       -19.6224
 166   2.0000      -0.716083       -19.4856
 167   2.0000      -0.692821       -18.8526
 168   2.0000      -0.687188       -18.6993
 169   2.0000      -0.683346       -18.5948
 170   2.0000      -0.681441       -18.5429
 171   2.0000      -0.680519       -18.5179
 172   2.0000      -0.677774       -18.4432
 173   2.0000      -0.658263       -17.9122
 174   2.0000      -0.656109       -17.8536
 175   2.0000      -0.651458       -17.7271
 176   2.0000      -0.650074       -17.6894
 177   2.0000      -0.647791       -17.6273
 178   2.0000      -0.643295       -17.5050
 179   2.0000      -0.640053       -17.4167
 180   2.0000      -0.635829       -17.3018
 181   2.0000      -0.634403       -17.2630
 182   2.0000      -0.617072       -16.7914
 183   2.0000      -0.616131       -16.7658
 184   2.0000      -0.613792       -16.7021
 185   2.0000      -0.608444       -16.5566
 186   2.0000      -0.603288       -16.4163
 187   2.0000      -0.594905       -16.1882
 188   2.0000      -0.591883       -16.1060
 189   2.0000      -0.587912       -15.9979
 190   2.0000      -0.584655       -15.9093
 191   2.0000      -0.582245       -15.8437
 192   2.0000      -0.569948       -15.5091
 193   2.0000      -0.569041       -15.4844
 194   2.0000      -0.559725       -15.2309
 195   2.0000      -0.551927       -15.0187
 196   2.0000      -0.550276       -14.9738
 197   2.0000      -0.548744       -14.9321
 198   2.0000      -0.548457       -14.9243
 199   2.0000      -0.544247       -14.8097
 200   2.0000      -0.542756       -14.7692
 201   2.0000      -0.540483       -14.7073
 202   2.0000      -0.536113       -14.5884
 203   2.0000      -0.532480       -14.4895
 204   2.0000      -0.531841       -14.4721
 205   2.0000      -0.531319       -14.4579
 206   2.0000      -0.527774       -14.3614
 207   2.0000      -0.526091       -14.3157
 208   2.0000      -0.521332       -14.1862
 209   2.0000      -0.519639       -14.1401
 210   2.0000      -0.516945       -14.0668
 211   2.0000      -0.514450       -13.9989
 212   2.0000      -0.513441       -13.9714
 213   2.0000      -0.510780       -13.8990
 214   2.0000      -0.505823       -13.7641
 215   2.0000      -0.503704       -13.7065
 216   2.0000      -0.502283       -13.6678
 217   2.0000      -0.501423       -13.6444
 218   2.0000      -0.500505       -13.6194
 219   2.0000      -0.499897       -13.6029
 220   2.0000      -0.498523       -13.5655
 221   2.0000      -0.493592       -13.4313
 222   2.0000      -0.489885       -13.3304
 223   2.0000      -0.488066       -13.2809
 224   2.0000      -0.486898       -13.2492
 225   2.0000      -0.486529       -13.2391
 226   2.0000      -0.484380       -13.1806
 227   2.0000      -0.482449       -13.1281
 228   2.0000      -0.481658       -13.1066
 229   2.0000      -0.480763       -13.0822
 230   2.0000      -0.476396       -12.9634
 231   2.0000      -0.474490       -12.9115
 232   2.0000      -0.468783       -12.7562
 233   2.0000      -0.467518       -12.7218
 234   2.0000      -0.466203       -12.6860
 235   2.0000      -0.465424       -12.6648
 236   2.0000      -0.457251       -12.4424
 237   2.0000      -0.452395       -12.3103
 238   2.0000      -0.450423       -12.2566
 239   2.0000      -0.444921       -12.1069
 240   2.0000      -0.441576       -12.0159
 241   2.0000      -0.441153       -12.0044
 242   2.0000      -0.438701       -11.9377
 243   2.0000      -0.438334       -11.9277
 244   2.0000      -0.436264       -11.8713
 245   2.0000      -0.434702       -11.8288
 246   2.0000      -0.433791       -11.8041
 247   2.0000      -0.433212       -11.7883
 248   2.0000      -0.432127       -11.7588
 249   2.0000      -0.431041       -11.7292
 250   2.0000      -0.430262       -11.7080
 251   2.0000      -0.427404       -11.6303
 252   2.0000      -0.422070       -11.4851
 253   2.0000      -0.418949       -11.4002
 254   2.0000      -0.418040       -11.3755
 255   2.0000      -0.416407       -11.3310
 256   2.0000      -0.416042       -11.3211
 257   2.0000      -0.414627       -11.2826
 258   2.0000      -0.409617       -11.1462
 259   2.0000      -0.406749       -11.0682
 260   2.0000      -0.403117       -10.9694
 261   2.0000      -0.400924       -10.9097
 262   2.0000      -0.399707       -10.8766
 263   2.0000      -0.395705       -10.7677
 264   2.0000      -0.394188       -10.7264
 265   2.0000      -0.390519       -10.6266
 266   2.0000      -0.382041       -10.3959
 267   2.0000      -0.381345       -10.3769
 268   2.0000      -0.380635       -10.3576
 269   2.0000      -0.373999       -10.1770
 270   2.0000      -0.371431       -10.1072
 271   2.0000      -0.370190       -10.0734
 272   2.0000      -0.368860       -10.0372
 273   2.0000      -0.351594        -9.5674
 274   2.0000      -0.341913        -9.3039
 275   2.0000      -0.326740        -8.8910
 276   2.0000      -0.325318        -8.8523
 277   2.0000      -0.314199        -8.5498
 278   2.0000      -0.309277        -8.4158
 279   2.0000      -0.308516        -8.3952
 280   2.0000      -0.300963        -8.1896
 281   2.0000      -0.293510        -7.9868
 282   2.0000      -0.290829        -7.9139
 283   2.0000      -0.287566        -7.8251
 284   2.0000      -0.286197        -7.7878
 285   2.0000      -0.271748        -7.3947
 286   2.0000      -0.234567        -6.3829
 287   0.0000      -0.095473        -2.5979
 288   0.0000      -0.075093        -2.0434
 289   0.0000      -0.054334        -1.4785
 290   0.0000      -0.046463        -1.2643
 291   0.0000      -0.021035        -0.5724

MULLIKEN ATOMIC CHARGES
-----------------------
   0 C :    0.332426
   1 C :   -0.364038
   2 C :   -0.191098
   3 N :    0.142159
   4 C :   -0.196178
   5 N :    0.145722
   6 C :    0.009589
   7 C :   -0.009887
   8 C :   -0.077458
   9 C :    0.120395
  10 C :   -0.092684
  11 C :   -0.024156
  12 S :    0.182914
  13 C :   -0.123319
  14 C :    0.036091
  15 Br:    0.017697
  16 C :    0.163707
  17 O :   -0.188184
  18 C :   -0.101173
  19 C :   -0.038838
  20 C :   -0.146499
  21 C :    0.177601
  22 O :   -0.283414
  23 C :    0.233108
  24 C :    0.042811
  25 C :    0.054305
  26 O :   -0.310703
  27 C :    0.142866
  28 C :   -0.101837
  29 S :    0.225234
  30 C :   -0.154657
  31 C :    0.147999
  32 O :   -0.292153
  33 C :    0.226886
  34 C :    0.044814
  35 C :    0.052147
  36 O :   -0.306575
  37 C :    0.145779
  38 C :   -0.121716
  39 S :    0.208834
  40 C :   -0.110539
  41 C :    0.125531
  42 O :   -0.313093
  43 C :    0.231848
  44 C :    0.023759
  45 C :    0.060767
  46 O :   -0.271106
  47 C :    0.228566
  48 C :   -0.203517
  49 S :    0.171967
  50 C :    0.058220
  51 C :   -0.140121
  52 C :    0.249014
  53 C :   -0.337442
  54 C :   -0.145074
  55 N :    0.117850
  56 C :   -0.202171
  57 N :    0.152247
  58 C :    0.012296
  59 C :   -0.003143
  60 C :    0.137754
  61 O :   -0.150684
  62 C :   -0.077780
  63 C :    0.115028
  64 C :   -0.083340
  65 C :   -0.033492
  66 S :    0.176149
  67 C :   -0.123778
  68 C :    0.036798
  69 Br:    0.017083
  70 H :   -0.016296
  71 H :   -0.008074
  72 H :   -0.006625
  73 H :    0.022899
  74 H :    0.028986
  75 H :    0.040452
  76 H :    0.027200
  77 H :    0.024580
  78 H :    0.023521
  79 H :    0.035834
  80 H :    0.038590
  81 H :    0.033432
  82 H :    0.027214
  83 H :    0.042219
  84 H :    0.031503
  85 H :    0.019848
  86 H :    0.044366
  87 H :    0.027955
  88 H :    0.029087
  89 H :    0.031396
  90 H :    0.036808
  91 H :    0.020386
  92 H :    0.022712
  93 H :   -0.011366
  94 H :   -0.010239
  95 H :   -0.004506
Sum of atomic charges:   -0.0000000

LOEWDIN ATOMIC CHARGES
----------------------
   0 C :    0.077365
   1 C :   -0.152462
   2 C :   -0.018457
   3 N :   -0.064826
   4 C :   -0.022929
   5 N :   -0.059453
   6 C :   -0.018658
   7 C :   -0.048942
   8 C :    0.017756
   9 C :   -0.035485
  10 C :   -0.145486
  11 C :   -0.011540
  12 S :    0.429975
  13 C :   -0.274083
  14 C :   -0.071256
  15 Br:    0.132098
  16 C :    0.083226
  17 O :   -0.174104
  18 C :   -0.124145
  19 C :    0.059500
  20 C :   -0.217090
  21 C :    0.023348
  22 O :   -0.080286
  23 C :    0.081051
  24 C :    0.059917
  25 C :   -0.049534
  26 O :   -0.107695
  27 C :   -0.036639
  28 C :   -0.182732
  29 S :    0.517584
  30 C :   -0.209358
  31 C :   -0.008136
  32 O :   -0.091970
  33 C :    0.081173
  34 C :    0.061766
  35 C :   -0.049402
  36 O :   -0.096883
  37 C :   -0.006910
  38 C :   -0.217340
  39 S :    0.479952
  40 C :   -0.163633
  41 C :   -0.034793
  42 O :   -0.105254
  43 C :    0.082176
  44 C :    0.056439
  45 C :   -0.057911
  46 O :   -0.075617
  47 C :    0.033200
  48 C :   -0.223173
  49 S :    0.493944
  50 C :    0.062909
  51 C :   -0.119148
  52 C :    0.061879
  53 C :   -0.160107
  54 C :   -0.012320
  55 N :   -0.073260
  56 C :   -0.036513
  57 N :   -0.062717
  58 C :   -0.015985
  59 C :   -0.050571
  60 C :    0.080403
  61 O :   -0.153361
  62 C :    0.019590
  63 C :   -0.036160
  64 C :   -0.144782
  65 C :   -0.018610
  66 S :    0.424807
  67 C :   -0.274620
  68 C :   -0.069939
  69 Br:    0.131648
  70 H :    0.038614
  71 H :    0.040578
  72 H :    0.037486
  73 H :    0.050811
  74 H :    0.025143
  75 H :    0.037613
  76 H :    0.022933
  77 H :    0.031614
  78 H :    0.034100
  79 H :    0.037156
  80 H :    0.037425
  81 H :    0.026659
  82 H :    0.022859
  83 H :    0.035997
  84 H :    0.035816
  85 H :    0.033695
  86 H :    0.027696
  87 H :    0.032762
  88 H :    0.034540
  89 H :    0.032605
  90 H :    0.035655
  91 H :    0.033078
  92 H :    0.050686
  93 H :    0.040276
  94 H :    0.038447
  95 H :    0.038322

  Mayer bond orders larger than 0.100000
B(  0-C ,  1-C ) :   1.6051 B(  0-C ,  6-C ) :   0.9903 B(  0-C , 18-C ) :   1.1004
B(  1-C ,  2-C ) :   1.1483 B(  1-C ,  4-C ) :   1.1501 B(  2-C ,  3-N ) :   2.9661
B(  4-C ,  5-N ) :   2.9628 B(  6-C ,  7-C ) :   1.2797 B(  6-C , 11-C ) :   1.4178
B(  7-C ,  8-C ) :   1.4268 B(  7-C , 16-C ) :   0.9515 B(  8-C ,  9-C ) :   1.2376
B(  8-C , 70-H ) :   1.0173 B(  9-C , 10-C ) :   1.3149 B(  9-C , 14-C ) :   1.1610
B( 10-C , 11-C ) :   1.3207 B( 10-C , 12-S ) :   1.0854 B( 11-C , 71-H ) :   0.9801
B( 12-S , 13-C ) :   1.0859 B( 13-C , 14-C ) :   1.6196 B( 13-C , 15-Br) :   1.0150
B( 14-C , 72-H ) :   1.0002 B( 16-C , 17-O ) :   2.1205 B( 16-C , 18-C ) :   0.9957
B( 18-C , 19-C ) :   1.4262 B( 19-C , 20-C ) :   1.3371 B( 19-C , 73-H ) :   0.9368
B( 20-C , 21-C ) :   1.3364 B( 20-C , 28-C ) :   0.1025 B( 20-C , 29-S ) :   1.0318
B( 21-C , 22-O ) :   1.1657 B( 21-C , 27-C ) :   1.2696 B( 22-O , 23-C ) :   0.9500
B( 23-C , 24-C ) :   1.0358 B( 23-C , 74-H ) :   0.9390 B( 23-C , 75-H ) :   0.9524
B( 24-C , 25-C ) :   1.0848 B( 24-C , 26-O ) :   0.9267 B( 24-C , 76-H ) :   0.9311
B( 25-C , 77-H ) :   0.9622 B( 25-C , 78-H ) :   0.9595 B( 25-C , 79-H ) :   0.9588
B( 26-O , 27-C ) :   1.1367 B( 27-C , 28-C ) :   1.3776 B( 28-C , 29-S ) :   1.1011
B( 28-C , 30-C ) :   1.2450 B( 30-C , 31-C ) :   1.4352 B( 30-C , 38-C ) :   0.1127
B( 30-C , 39-S ) :   1.0872 B( 31-C , 32-O ) :   1.1639 B( 31-C , 37-C ) :   1.2252
B( 32-O , 33-C ) :   0.9477 B( 33-C , 34-C ) :   1.0392 B( 33-C , 80-H ) :   0.9515
B( 33-C , 81-H ) :   0.9394 B( 34-C , 35-C ) :   1.0854 B( 34-C , 36-O ) :   0.9093
B( 34-C , 82-H ) :   0.9312 B( 35-C , 83-H ) :   0.9572 B( 35-C , 84-H ) :   0.9585
B( 35-C , 85-H ) :   0.9571 B( 36-O , 37-C ) :   1.1497 B( 37-C , 38-C ) :   1.4365
B( 38-C , 39-S ) :   1.0728 B( 38-C , 40-C ) :   1.2267 B( 40-C , 41-C ) :   1.4335
B( 40-C , 48-C ) :   0.1041 B( 40-C , 49-S ) :   1.1420 B( 41-C , 42-O ) :   1.1329
B( 41-C , 47-C ) :   1.2252 B( 42-O , 43-C ) :   0.9528 B( 43-C , 44-C ) :   1.0381
B( 43-C , 86-H ) :   0.9452 B( 43-C , 87-H ) :   0.9520 B( 44-C , 45-C ) :   1.0640
B( 44-C , 46-O ) :   0.9241 B( 44-C , 88-H ) :   0.9350 B( 45-C , 89-H ) :   0.9590
B( 45-C , 90-H ) :   0.9594 B( 45-C , 91-H ) :   0.9622 B( 46-O , 47-C ) :   1.2008
B( 47-C , 48-C ) :   1.3852 B( 48-C , 49-S ) :   1.0448 B( 48-C , 50-C ) :   1.2192
B( 50-C , 51-C ) :   1.5319 B( 50-C , 92-H ) :   0.9549 B( 51-C , 52-C ) :   1.0730
B( 51-C , 60-C ) :   0.9592 B( 52-C , 53-C ) :   1.6129 B( 52-C , 58-C ) :   1.0209
B( 53-C , 54-C ) :   1.1514 B( 53-C , 56-C ) :   1.1471 B( 54-C , 55-N ) :   2.9125
B( 56-C , 57-N ) :   3.0271 B( 58-C , 59-C ) :   1.2805 B( 58-C , 65-C ) :   1.4179
B( 59-C , 60-C ) :   0.9149 B( 59-C , 62-C ) :   1.4307 B( 60-C , 61-O ) :   2.2688
B( 62-C , 63-C ) :   1.2459 B( 62-C , 93-H ) :   1.0167 B( 63-C , 64-C ) :   1.3171
B( 63-C , 68-C ) :   1.1592 B( 64-C , 65-C ) :   1.3189 B( 64-C , 66-S ) :   1.0808
B( 65-C , 94-H ) :   0.9852 B( 66-S , 67-C ) :   1.0845 B( 67-C , 68-C ) :   1.6227
B( 67-C , 69-Br) :   1.0148 B( 68-C , 95-H ) :   1.0007

-----------------------------------------------------------------------------
         ABSORPTION SPECTRUM VIA TRANSITION ELECTRIC DIPOLE MOMENTS
-----------------------------------------------------------------------------
State   Energy  Wavelength   fosc         T2         TX        TY        TZ
        (cm-1)    (nm)                  (au**2)     (au)      (au)      (au)
-----------------------------------------------------------------------------
   0   14742.7    678.3   1.523599944  34.02264   1.66957  -5.57292  -0.42164
   1   20025.9    499.4   0.515896123   8.48100  -0.76386   2.18307  -1.76967
   2   24037.9    416.0   0.090317286   1.23694   0.18850  -0.86601   0.67189
   3   24123.0    414.5   0.017367627   0.23702  -0.36931   0.25639  -0.18681
   4   25362.6    394.3   0.055148966   0.71585  -0.35461   0.07760  -0.76425
   5   26016.6    384.4   0.165567537   2.09508  -0.23908  -0.70003  -1.24414
   6   26561.7    376.5   0.062258375   0.77164   0.41446  -0.02367   0.77415
   7   27323.4    366.0   0.229093109   2.76028   0.35887   1.62123   0.05561
   8   28313.2    353.2   0.032889066   0.38242  -0.37121   0.31890  -0.37805
   9   28587.5    349.8   0.642992157   7.40466  -1.37783  -0.55924  -2.27892
  10   29509.3    338.9   0.007318318   0.08164   0.19791  -0.10647   0.17647
  11   29778.4    335.8   0.000323055   0.00357  -0.01431   0.05537  -0.01734
  12   29823.4    335.3   0.008140016   0.08986   0.29884   0.01176   0.02028
  13   30589.9    326.9   0.006258629   0.06736  -0.01235  -0.23479   0.10989
  14   30736.3    325.3   0.009694527   0.10384  -0.24887   0.16226  -0.12478
  15   31859.5    313.9   0.043962818   0.45428   0.28677  -0.49665   0.35409
  16   32430.0    308.4   0.135039221   1.37085   0.46763   1.05065   0.21977
  17   32543.8    307.3   0.004556093   0.04609   0.06917   0.16763   0.11490
  18   33007.9    303.0   0.000683897   0.00682  -0.00310  -0.01083  -0.08182
  19   33140.3    301.7   0.064533142   0.64106   0.40820   0.34261   0.59754
  20   33422.9    299.2   0.001903525   0.01875   0.07638   0.11339  -0.00757
  21   33787.7    296.0   0.482354752   4.69984  -1.07152  -0.86960  -1.67197
  22   33952.6    294.5   0.354903627   3.44123  -0.78102  -1.62343  -0.44238
  23   34208.9    292.3   0.024091631   0.23185  -0.16746  -0.29290  -0.34354
  24   34955.2    286.1   0.030001527   0.28256  -0.05674  -0.52694   0.04084
  25   35316.5    283.2   0.015717710   0.14652  -0.13625   0.34945  -0.07638
  26   35995.4    277.8   0.062180816   0.56870  -0.03766   0.75109   0.05616
  27   36499.9    274.0   0.004887956   0.04409  -0.02994  -0.00009   0.20782
  28   36825.2    271.6   0.226642567   2.02615   0.75765   0.79059   0.90944
  29   37034.5    270.0   0.000904409   0.00804   0.01258  -0.05966   0.06574
  30   37357.7    267.7   0.087008899   0.76676  -0.43728   0.41851  -0.63276
  31   38052.1    262.8   0.056384887   0.48782   0.12902   0.66741   0.16044
  32   38766.7    258.0   0.027391296   0.23261  -0.09612   0.33656   0.33182
  33   39159.9    255.4   0.209494986   1.76119   0.14314  -1.22230   0.49668
  34   39695.6    251.9   0.049643039   0.41171   0.01198   0.42351   0.48188
  35   39961.3    250.2   0.278812515   2.29693  -0.52155   0.37406  -1.37295

FINAL SINGLE POINT ENERGY     -9914.624877774819

DIPOLE MOMENT
-------------
                                X             Y             Z
Electronic contribution:     90.46273      15.87565     156.42600
Nuclear contribution   :    -89.67363     -13.44198    -157.99825
                        -----------------------------------------
Total Dipole Moment    :      0.78910       2.43367      -1.57225
                        -----------------------------------------
Magnitude (a.u.)       :      3.00290
Magnitude (Debye)      :      7.63276

Rotational constants in cm-1:     0.000902     0.000268     0.000210
Rotational constants in MHz :    27.038901     8.047410     6.294720

                             ****ORCA TERMINATED NORMALLY****
TOTAL RUN TIME: 0 days 0 hours 14 minutes 46 seconds 226 msec
