                         Program Version 4.2.0 -  RELEASE  -
|  1> # ORCA input file
|  2> # SCF done       -193.223626449521          0.000490518717
|  3> ! CAM-B3LYP def2-SVP def2/J RIJCOSX Grid4 TightSCF
|  4> %maxcore 5000
|  5> %tddft
|  6>     Mode sTDDFT
|  7>     Ethresh 5.0
|  8>     maxcore 5000
|  9> end
| 10>
| 11> %pal
| 12>   nprocs 6
| 13>   end
| 14> * xyz 0 1
| 15>    C        0.81495        -1.51414        -4.54836
| 16>    C        1.27415        -1.38436        -3.27186
| 17>    C        0.79579        -0.20329        -2.67536
| 18>    C       -0.02669         0.53747        -3.53769
| 19>    S       -0.20684        -0.21219        -5.06046
| 20>    C       -0.46755         1.70820        -2.86428
| 21>    C        0.08581         1.69852        -1.56772
| 22>    C        0.89598         0.49658        -1.41014
| 23>    C        1.59551         0.11731        -0.30122
| 24>    C        1.61134         0.89245         0.87680
| 25>    N        1.62536         1.51865         1.83753
| 26>    C        2.34854        -1.07452        -0.25868
| 27>    N        2.96404        -2.04127        -0.21933
| 28>    C       -0.28471         2.80520        -0.81666
| 29>    C       -1.11756         3.65353        -1.53816
| 30>    S       -1.44470         3.07553        -3.16701
| 31>    C       -1.70134         4.85805        -1.12152
| 32>    C       -2.54093         5.65051        -1.90832
| 33>    C       -3.02628         6.83279        -1.24669
| 34>    N       -3.83051         7.65900        -1.89876
| 35>    C       -4.15791         7.36284        -3.14832
| 36>    C       -5.05351         8.30108        -3.83513
| 37>    O       -5.50427         9.30383        -3.29011
| 38>    C       -5.37447         7.95730        -5.22109
| 39>    C       -4.91213         6.86009        -5.83745
| 40>    C       -4.03154         5.87379        -5.19639
| 41>    O       -3.63372         4.87974        -5.77201
| 42>    C       -3.66634         6.18916        -3.79508
| 43>    N       -2.86994         5.35292        -3.16453
| 44>    C       -2.54438         6.95819         0.07789
| 45>    S       -1.50113         5.58420         0.44018
| 46>    C       -2.73684         7.91780         1.07109
| 47>    S       -1.86474         7.70588         2.56956
| 48>    C       -2.53968         9.14259         3.28614
| 49>    C       -3.43471         9.76698         2.38267
| 50>    C       -3.53896         9.08936         1.13328
| 51>    C       -4.37458         9.61128         0.14340
| 52>    C       -5.08657        10.76437         0.38174
| 53>    S       -6.13892        11.44447        -0.86096
| 54>    C       -4.99424        11.43804         1.62892
| 55>    O       -5.68786        12.56028         1.87904
| 56>    C       -4.16931        10.93447         2.61472
| 57>    C       -2.19028         9.57532         4.55924
| 58>    C       -1.25904         8.95311         5.36165
| 59>    C       -0.90047         9.42929         6.62070
| 60>    C       -1.40047        10.55203         7.31623
| 61>    C       -0.77577        10.75703         8.59327
| 62>    N       -1.17823        11.73409         9.40913
| 63>    C       -2.14779        12.51342         8.97923
| 64>    C       -2.65045        13.55377         9.91383
| 65>    O       -2.29960        13.61814        11.07188
| 66>    C       -3.63714        14.48113         9.33173
| 67>    C       -4.14099        14.35272         8.09919
| 68>    C       -3.76123        13.27349         7.17328
| 69>    O       -4.25844        13.14821         6.07129
| 70>    C       -2.72068        12.35317         7.68330
| 71>    N       -2.34953        11.37381         6.87980
| 72>    C        0.22344         9.80974         8.87638
| 73>    S        0.33460         8.65736         7.58083
| 74>    C        1.04221         9.76922        10.01671
| 75>    C        1.14948        10.75641        10.99236
| 76>    C        2.06940        10.40927        11.97197
| 77>    C        2.65037         9.14254        11.76548
| 78>    S        2.09383         8.39340        10.33740
| 79>    C        3.53408         8.87231        12.84078
| 80>    C        3.51887         9.96428        13.72177
| 81>    C        2.62739        10.97929        13.19441
| 82>    C        2.41080        12.22985        13.69308
| 83>    C        3.01367        12.66820        14.89150
| 84>    N        3.50039        13.02424        15.86687
| 85>    C        1.62902        13.19884        13.02649
| 86>    N        1.04379        14.02274        12.48585
| 87>    C        4.37652         9.77658        14.82151
| 88>    C        5.00866         8.57142        14.75801
| 89>    S        4.58833         7.63324        13.36376
| 90>    H        1.01569        -2.30978        -5.23777
| 91>    H        1.91848        -2.09875        -2.79298
| 92>    H        0.01388         3.01082         0.19576
| 93>    H       -6.02373         8.65541        -5.73205
| 94>    H       -5.17569         6.64279        -6.86350
| 95>    H       -4.45112         9.11007        -0.80694
| 96>    H       -5.86089        10.54773        -1.80461
| 97>    H       -6.22174        12.81054         1.11200
| 98>    H       -4.11337        11.46235         3.55287
| 99>    H       -2.66908        10.46822         4.93525
|100>    H       -0.75841         8.06162         5.00409
|101>    H       -3.95357        15.28061         9.98794
|102>    H       -4.87868        15.04596         7.71793
|103>    H        0.56429        11.65769        10.95429
|104>    H        4.52045        10.48412        15.61732
|105>    H        5.71139         8.16242        15.45615
|106> *
|107>
|108>                          ****END OF INPUT****

CARTESIAN COORDINATES (ANGSTROEM)
---------------------------------
  C      0.814950   -1.514140   -4.548360
  C      1.274150   -1.384360   -3.271860
  C      0.795790   -0.203290   -2.675360
  C     -0.026690    0.537470   -3.537690
  S     -0.206840   -0.212190   -5.060460
  C     -0.467550    1.708200   -2.864280
  C      0.085810    1.698520   -1.567720
  C      0.895980    0.496580   -1.410140
  C      1.595510    0.117310   -0.301220
  C      1.611340    0.892450    0.876800
  N      1.625360    1.518650    1.837530
  C      2.348540   -1.074520   -0.258680
  N      2.964040   -2.041270   -0.219330
  C     -0.284710    2.805200   -0.816660
  C     -1.117560    3.653530   -1.538160
  S     -1.444700    3.075530   -3.167010
  C     -1.701340    4.858050   -1.121520
  C     -2.540930    5.650510   -1.908320
  C     -3.026280    6.832790   -1.246690
  N     -3.830510    7.659000   -1.898760
  C     -4.157910    7.362840   -3.148320
  C     -5.053510    8.301080   -3.835130
  O     -5.504270    9.303830   -3.290110
  C     -5.374470    7.957300   -5.221090
  C     -4.912130    6.860090   -5.837450
  C     -4.031540    5.873790   -5.196390
  O     -3.633720    4.879740   -5.772010
  C     -3.666340    6.189160   -3.795080
  N     -2.869940    5.352920   -3.164530
  C     -2.544380    6.958190    0.077890
  S     -1.501130    5.584200    0.440180
  C     -2.736840    7.917800    1.071090
  S     -1.864740    7.705880    2.569560
  C     -2.539680    9.142590    3.286140
  C     -3.434710    9.766980    2.382670
  C     -3.538960    9.089360    1.133280
  C     -4.374580    9.611280    0.143400
  C     -5.086570   10.764370    0.381740
  S     -6.138920   11.444470   -0.860960
  C     -4.994240   11.438040    1.628920
  O     -5.687860   12.560280    1.879040
  C     -4.169310   10.934470    2.614720
  C     -2.190280    9.575320    4.559240
  C     -1.259040    8.953110    5.361650
  C     -0.900470    9.429290    6.620700
  C     -1.400470   10.552030    7.316230
  C     -0.775770   10.757030    8.593270
  N     -1.178230   11.734090    9.409130
  C     -2.147790   12.513420    8.979230
  C     -2.650450   13.553770    9.913830
  O     -2.299600   13.618140   11.071880
  C     -3.637140   14.481130    9.331730
  C     -4.140990   14.352720    8.099190
  C     -3.761230   13.273490    7.173280
  O     -4.258440   13.148210    6.071290
  C     -2.720680   12.353170    7.683300
  N     -2.349530   11.373810    6.879800
  C      0.223440    9.809740    8.876380
  S      0.334600    8.657360    7.580830
  C      1.042210    9.769220   10.016710
  C      1.149480   10.756410   10.992360
  C      2.069400   10.409270   11.971970
  C      2.650370    9.142540   11.765480
  S      2.093830    8.393400   10.337400
  C      3.534080    8.872310   12.840780
  C      3.518870    9.964280   13.721770
  C      2.627390   10.979290   13.194410
  C      2.410800   12.229850   13.693080
  C      3.013670   12.668200   14.891500
  N      3.500390   13.024240   15.866870
  C      1.629020   13.198840   13.026490
  N      1.043790   14.022740   12.485850
  C      4.376520    9.776580   14.821510
  C      5.008660    8.571420   14.758010
  S      4.588330    7.633240   13.363760
  H      1.015690   -2.309780   -5.237770
  H      1.918480   -2.098750   -2.792980
  H      0.013880    3.010820    0.195760
  H     -6.023730    8.655410   -5.732050
  H     -5.175690    6.642790   -6.863500
  H     -4.451120    9.110070   -0.806940
  H     -5.860890   10.547730   -1.804610
  H     -6.221740   12.810540    1.112000
  H     -4.113370   11.462350    3.552870
  H     -2.669080   10.468220    4.935250
  H     -0.758410    8.061620    5.004090
  H     -3.953570   15.280610    9.987940
  H     -4.878680   15.045960    7.717930
  H      0.564290   11.657690   10.954290
  H      4.520450   10.484120   15.617320
  H      5.711390    8.162420   15.456150

 Total Charge           Charge          ....    0
 Multiplicity           Mult            ....    1
 Number of Electrons    NEL             ....  564
 Basis Dimension        Dim             .... 1162

ORBITAL ENERGIES
----------------

  NO   OCC          E(Eh)            E(eV)
   0   2.0000     -88.992575     -2421.6111
   1   2.0000     -88.988748     -2421.5069
   2   2.0000     -88.987961     -2421.4855
   3   2.0000     -88.984066     -2421.3795
   4   2.0000     -88.981750     -2421.3165
   5   2.0000     -88.978590     -2421.2305
   6   2.0000     -88.969905     -2420.9942
   7   2.0000     -88.924244     -2419.7517
   8   2.0000     -19.246939      -523.7358
   9   2.0000     -19.235354      -523.4206
  10   2.0000     -19.230942      -523.3005
  11   2.0000     -19.225322      -523.1476
  12   2.0000     -19.223338      -523.0936
  13   2.0000     -14.451933      -393.2571
  14   2.0000     -14.450619      -393.2213
  15   2.0000     -14.446883      -393.1197
  16   2.0000     -14.445681      -393.0870
  17   2.0000     -14.425173      -392.5289
  18   2.0000     -14.424167      -392.5016
  19   2.0000     -14.423868      -392.4934
  20   2.0000     -14.420167      -392.3927
  21   2.0000     -10.384724      -282.5827
  22   2.0000     -10.380117      -282.4573
  23   2.0000     -10.373959      -282.2898
  24   2.0000     -10.371918      -282.2342
  25   2.0000     -10.358299      -281.8636
  26   2.0000     -10.356697      -281.8201
  27   2.0000     -10.345352      -281.5113
  28   2.0000     -10.344851      -281.4977
  29   2.0000     -10.343777      -281.4685
  30   2.0000     -10.340600      -281.3820
  31   2.0000     -10.338825      -281.3337
  32   2.0000     -10.338408      -281.3224
  33   2.0000     -10.338249      -281.3181
  34   2.0000     -10.337655      -281.3019
  35   2.0000     -10.336694      -281.2757
  36   2.0000     -10.332760      -281.1687
  37   2.0000     -10.332218      -281.1540
  38   2.0000     -10.331456      -281.1332
  39   2.0000     -10.330556      -281.1087
  40   2.0000     -10.328501      -281.0528
  41   2.0000     -10.328295      -281.0472
  42   2.0000     -10.327605      -281.0284
  43   2.0000     -10.326160      -280.9891
  44   2.0000     -10.326131      -280.9883
  45   2.0000     -10.325942      -280.9832
  46   2.0000     -10.325236      -280.9640
  47   2.0000     -10.324658      -280.9482
  48   2.0000     -10.324483      -280.9435
  49   2.0000     -10.323302      -280.9113
  50   2.0000     -10.322103      -280.8787
  51   2.0000     -10.319508      -280.8081
  52   2.0000     -10.318383      -280.7775
  53   2.0000     -10.317573      -280.7554
  54   2.0000     -10.315566      -280.7008
  55   2.0000     -10.314886      -280.6823
  56   2.0000     -10.308961      -280.5211
  57   2.0000     -10.306459      -280.4530
  58   2.0000     -10.306438      -280.4524
  59   2.0000     -10.306373      -280.4507
  60   2.0000     -10.305721      -280.4329
  61   2.0000     -10.298753      -280.2433
  62   2.0000     -10.298071      -280.2248
  63   2.0000     -10.297799      -280.2174
  64   2.0000     -10.296265      -280.1756
  65   2.0000     -10.294785      -280.1353
  66   2.0000     -10.294037      -280.1150
  67   2.0000     -10.293772      -280.1078
  68   2.0000     -10.293545      -280.1016
  69   2.0000     -10.292441      -280.0716
  70   2.0000     -10.291182      -280.0373
  71   2.0000     -10.290285      -280.0129
  72   2.0000     -10.288829      -279.9733
  73   2.0000     -10.267522      -279.3935
  74   2.0000     -10.264121      -279.3009
  75   2.0000      -8.087410      -220.0696
  76   2.0000      -8.083428      -219.9613
  77   2.0000      -8.082759      -219.9431
  78   2.0000      -8.079156      -219.8450
  79   2.0000      -8.076815      -219.7813
  80   2.0000      -8.071762      -219.6438
  81   2.0000      -8.065431      -219.4715
  82   2.0000      -8.020317      -218.2439
  83   2.0000      -6.056434      -164.8039
  84   2.0000      -6.052778      -164.7045
  85   2.0000      -6.052425      -164.6949
  86   2.0000      -6.052053      -164.6847
  87   2.0000      -6.050053      -164.6303
  88   2.0000      -6.048579      -164.5902
  89   2.0000      -6.048427      -164.5861
  90   2.0000      -6.047912      -164.5720
  91   2.0000      -6.046018      -164.5205
  92   2.0000      -6.045532      -164.5073
  93   2.0000      -6.044998      -164.4928
  94   2.0000      -6.043990      -164.4653
  95   2.0000      -6.041702      -164.4031
  96   2.0000      -6.041614      -164.4007
  97   2.0000      -6.041181      -164.3889
  98   2.0000      -6.039458      -164.3420
  99   2.0000      -6.036666      -164.2660
 100   2.0000      -6.034684      -164.2121
 101   2.0000      -6.034083      -164.1957
 102   2.0000      -6.030666      -164.1028
 103   2.0000      -6.027479      -164.0160
 104   2.0000      -5.990461      -163.0087
 105   2.0000      -5.986231      -162.8936
 106   2.0000      -5.980929      -162.7494
 107   2.0000      -1.148207       -31.2443
 108   2.0000      -1.147319       -31.2202
 109   2.0000      -1.142612       -31.0920
 110   2.0000      -1.140872       -31.0447
 111   2.0000      -1.136180       -30.9170
 112   2.0000      -1.102449       -29.9992
 113   2.0000      -1.097697       -29.8698
 114   2.0000      -1.038806       -28.2674
 115   2.0000      -1.036383       -28.2014
 116   2.0000      -1.029700       -28.0196
 117   2.0000      -1.024399       -27.8753
 118   2.0000      -1.016130       -27.6503
 119   2.0000      -1.014849       -27.6155
 120   2.0000      -1.011933       -27.5361
 121   2.0000      -1.005132       -27.3510
 122   2.0000      -1.002347       -27.2753
 123   2.0000      -0.999071       -27.1861
 124   2.0000      -0.995125       -27.0787
 125   2.0000      -0.985565       -26.8186
 126   2.0000      -0.981030       -26.6952
 127   2.0000      -0.950959       -25.8769
 128   2.0000      -0.949752       -25.8441
 129   2.0000      -0.946371       -25.7521
 130   2.0000      -0.939204       -25.5570
 131   2.0000      -0.936594       -25.4860
 132   2.0000      -0.919372       -25.0174
 133   2.0000      -0.907745       -24.7010
 134   2.0000      -0.900147       -24.4943
 135   2.0000      -0.886529       -24.1237
 136   2.0000      -0.876394       -23.8479
 137   2.0000      -0.872362       -23.7382
 138   2.0000      -0.869791       -23.6682
 139   2.0000      -0.863419       -23.4948
 140   2.0000      -0.858341       -23.3567
 141   2.0000      -0.851866       -23.1805
 142   2.0000      -0.847956       -23.0740
 143   2.0000      -0.844253       -22.9733
 144   2.0000      -0.833658       -22.6850
 145   2.0000      -0.816816       -22.2267
 146   2.0000      -0.806311       -21.9408
 147   2.0000      -0.800885       -21.7932
 148   2.0000      -0.791422       -21.5357
 149   2.0000      -0.788673       -21.4609
 150   2.0000      -0.787922       -21.4405
 151   2.0000      -0.785905       -21.3856
 152   2.0000      -0.772726       -21.0270
 153   2.0000      -0.771156       -20.9842
 154   2.0000      -0.765488       -20.8300
 155   2.0000      -0.753619       -20.5070
 156   2.0000      -0.740937       -20.1619
 157   2.0000      -0.738124       -20.0854
 158   2.0000      -0.713754       -19.4222
 159   2.0000      -0.708200       -19.2711
 160   2.0000      -0.697433       -18.9781
 161   2.0000      -0.695875       -18.9357
 162   2.0000      -0.689734       -18.7686
 163   2.0000      -0.686300       -18.6752
 164   2.0000      -0.683568       -18.6008
 165   2.0000      -0.680228       -18.5099
 166   2.0000      -0.674514       -18.3544
 167   2.0000      -0.673527       -18.3276
 168   2.0000      -0.670901       -18.2561
 169   2.0000      -0.665277       -18.1031
 170   2.0000      -0.656019       -17.8512
 171   2.0000      -0.650607       -17.7039
 172   2.0000      -0.644215       -17.5300
 173   2.0000      -0.633279       -17.2324
 174   2.0000      -0.628425       -17.1003
 175   2.0000      -0.623274       -16.9602
 176   2.0000      -0.621339       -16.9075
 177   2.0000      -0.613364       -16.6905
 178   2.0000      -0.611469       -16.6389
 179   2.0000      -0.609059       -16.5733
 180   2.0000      -0.607216       -16.5232
 181   2.0000      -0.604675       -16.4540
 182   2.0000      -0.596014       -16.2184
 183   2.0000      -0.594402       -16.1745
 184   2.0000      -0.585136       -15.9223
 185   2.0000      -0.578615       -15.7449
 186   2.0000      -0.570574       -15.5261
 187   2.0000      -0.570508       -15.5243
 188   2.0000      -0.567442       -15.4409
 189   2.0000      -0.565603       -15.3908
 190   2.0000      -0.559726       -15.2309
 191   2.0000      -0.559200       -15.2166
 192   2.0000      -0.557425       -15.1683
 193   2.0000      -0.554650       -15.0928
 194   2.0000      -0.548733       -14.9318
 195   2.0000      -0.540773       -14.7152
 196   2.0000      -0.539004       -14.6670
 197   2.0000      -0.538514       -14.6537
 198   2.0000      -0.536934       -14.6107
 199   2.0000      -0.533532       -14.5182
 200   2.0000      -0.526281       -14.3208
 201   2.0000      -0.525588       -14.3020
 202   2.0000      -0.520279       -14.1575
 203   2.0000      -0.518858       -14.1189
 204   2.0000      -0.515624       -14.0308
 205   2.0000      -0.514836       -14.0094
 206   2.0000      -0.513947       -13.9852
 207   2.0000      -0.508367       -13.8334
 208   2.0000      -0.506057       -13.7705
 209   2.0000      -0.503443       -13.6994
 210   2.0000      -0.503365       -13.6972
 211   2.0000      -0.497614       -13.5408
 212   2.0000      -0.497087       -13.5264
 213   2.0000      -0.495942       -13.4953
 214   2.0000      -0.495773       -13.4907
 215   2.0000      -0.494649       -13.4601
 216   2.0000      -0.490694       -13.3525
 217   2.0000      -0.488715       -13.2986
 218   2.0000      -0.487745       -13.2722
 219   2.0000      -0.487511       -13.2659
 220   2.0000      -0.487022       -13.2525
 221   2.0000      -0.481572       -13.1042
 222   2.0000      -0.479270       -13.0416
 223   2.0000      -0.477740       -13.0000
 224   2.0000      -0.476130       -12.9562
 225   2.0000      -0.473834       -12.8937
 226   2.0000      -0.467682       -12.7263
 227   2.0000      -0.464154       -12.6303
 228   2.0000      -0.462399       -12.5825
 229   2.0000      -0.460129       -12.5207
 230   2.0000      -0.458586       -12.4787
 231   2.0000      -0.456785       -12.4298
 232   2.0000      -0.453932       -12.3521
 233   2.0000      -0.452913       -12.3244
 234   2.0000      -0.452653       -12.3173
 235   2.0000      -0.449648       -12.2355
 236   2.0000      -0.448765       -12.2115
 237   2.0000      -0.444116       -12.0850
 238   2.0000      -0.443283       -12.0623
 239   2.0000      -0.441925       -12.0254
 240   2.0000      -0.440197       -11.9784
 241   2.0000      -0.439672       -11.9641
 242   2.0000      -0.435169       -11.8415
 243   2.0000      -0.434160       -11.8141
 244   2.0000      -0.433362       -11.7924
 245   2.0000      -0.432016       -11.7557
 246   2.0000      -0.430939       -11.7264
 247   2.0000      -0.430556       -11.7160
 248   2.0000      -0.422242       -11.4898
 249   2.0000      -0.418664       -11.3924
 250   2.0000      -0.417922       -11.3722
 251   2.0000      -0.416280       -11.3276
 252   2.0000      -0.406637       -11.0652
 253   2.0000      -0.404988       -11.0203
 254   2.0000      -0.404879       -11.0173
 255   2.0000      -0.399994       -10.8844
 256   2.0000      -0.394993       -10.7483
 257   2.0000      -0.386350       -10.5131
 258   2.0000      -0.381229       -10.3738
 259   2.0000      -0.379255       -10.3201
 260   2.0000      -0.370184       -10.0732
 261   2.0000      -0.369764       -10.0618
 262   2.0000      -0.367787       -10.0080
 263   2.0000      -0.363422        -9.8892
 264   2.0000      -0.360594        -9.8123
 265   2.0000      -0.355313        -9.6686
 266   2.0000      -0.349227        -9.5030
 267   2.0000      -0.347997        -9.4695
 268   2.0000      -0.344362        -9.3706
 269   2.0000      -0.344088        -9.3631
 270   2.0000      -0.342470        -9.3191
 271   2.0000      -0.338853        -9.2206
 272   2.0000      -0.335323        -9.1246
 273   2.0000      -0.333011        -9.0617
 274   2.0000      -0.317042        -8.6272
 275   2.0000      -0.315829        -8.5942
 276   2.0000      -0.311783        -8.4841
 277   2.0000      -0.304916        -8.2972
 278   2.0000      -0.277800        -7.5593
 279   2.0000      -0.273191        -7.4339
 280   2.0000      -0.249384        -6.7861
 281   2.0000      -0.208199        -5.6654
 282   0.0000      -0.123207        -3.3526
 283   0.0000      -0.102721        -2.7952
 284   0.0000      -0.098311        -2.6752
 285   0.0000      -0.089586        -2.4377
 286   0.0000      -0.084269        -2.2931

MULLIKEN ATOMIC CHARGES
-----------------------
   0 C :   -0.082611
   1 C :    0.032187
   2 C :   -0.031134
   3 C :   -0.116104
   4 S :    0.186325
   5 C :   -0.086902
   6 C :    0.024069
   7 C :    0.300950
   8 C :   -0.303463
   9 C :   -0.185733
  10 N :    0.163700
  11 C :   -0.193517
  12 N :    0.172682
  13 C :   -0.084567
  14 C :   -0.076948
  15 S :    0.231134
  16 C :   -0.098604
  17 C :   -0.002529
  18 C :    0.062438
  19 N :    0.054318
  20 C :   -0.099176
  21 C :    0.171215
  22 O :   -0.164589
  23 C :   -0.008637
  24 C :   -0.022036
  25 C :    0.143651
  26 O :   -0.108148
  27 C :   -0.123323
  28 N :    0.024539
  29 C :   -0.136533
  30 S :    0.182323
  31 C :   -0.095260
  32 S :    0.108795
  33 C :   -0.047053
  34 C :    0.128484
  35 C :    0.125335
  36 C :   -0.057815
  37 C :   -0.082063
  38 S :   -0.056307
  39 C :    0.123680
  40 O :   -0.154665
  41 C :   -0.123953
  42 C :   -0.022713
  43 C :    0.006479
  44 C :   -0.126956
  45 C :    0.024144
  46 C :    0.035281
  47 N :    0.059713
  48 C :   -0.118128
  49 C :    0.140360
  50 O :   -0.095502
  51 C :   -0.015331
  52 C :   -0.015499
  53 C :    0.148158
  54 O :   -0.112907
  55 C :   -0.115273
  56 N :    0.057379
  57 C :   -0.125359
  58 S :    0.197879
  59 C :   -0.094006
  60 C :   -0.055723
  61 C :    0.022622
  62 C :   -0.096985
  63 S :    0.176427
  64 C :   -0.117148
  65 C :   -0.030587
  66 C :    0.300691
  67 C :   -0.294503
  68 C :   -0.195592
  69 N :    0.173884
  70 C :   -0.192285
  71 N :    0.191262
  72 C :    0.035194
  73 C :   -0.081423
  74 S :    0.179594
  75 H :    0.034810
  76 H :    0.010727
  77 H :    0.005659
  78 H :    0.017531
  79 H :    0.018479
  80 H :   -0.056296
  81 H :    0.127124
  82 H :    0.185466
  83 H :   -0.007953
  84 H :    0.028800
  85 H :   -0.017513
  86 H :    0.020625
  87 H :    0.017636
  88 H :    0.028747
  89 H :    0.012906
  90 H :    0.035949
Sum of atomic charges:   -0.0000000

LOEWDIN ATOMIC CHARGES
----------------------
   0 C :   -0.179716
   1 C :   -0.035136
   2 C :   -0.077944
   3 C :   -0.181131
   4 S :    0.481120
   5 C :   -0.184994
   6 C :   -0.072678
   7 C :    0.085227
   8 C :   -0.109697
   9 C :   -0.015209
  10 N :   -0.041699
  11 C :   -0.017261
  12 N :   -0.037303
  13 C :   -0.031855
  14 C :   -0.182800
  15 S :    0.526036
  16 C :   -0.197874
  17 C :   -0.056657
  18 C :   -0.040998
  19 N :    0.022585
  20 C :   -0.062561
  21 C :    0.072560
  22 O :   -0.141057
  23 C :   -0.011458
  24 C :   -0.006358
  25 C :    0.054876
  26 O :   -0.105482
  27 C :   -0.036580
  28 N :   -0.017222
  29 C :   -0.173041
  30 S :    0.475148
  31 C :   -0.180928
  32 S :    0.434793
  33 C :   -0.147647
  34 C :   -0.031043
  35 C :   -0.038119
  36 C :   -0.042167
  37 C :   -0.164934
  38 S :    0.202177
  39 C :    0.041368
  40 O :   -0.033741
  41 C :   -0.047178
  42 C :   -0.018093
  43 C :   -0.049467
  44 C :   -0.168519
  45 C :   -0.041067
  46 C :   -0.041212
  47 N :    0.006316
  48 C :   -0.038320
  49 C :    0.055484
  50 O :   -0.090884
  51 C :   -0.009276
  52 C :   -0.014424
  53 C :    0.057580
  54 O :   -0.111413
  55 C :   -0.045896
  56 N :    0.009109
  57 C :   -0.194802
  58 S :    0.487221
  59 C :   -0.186346
  60 C :   -0.007448
  61 C :   -0.067194
  62 C :   -0.179226
  63 S :    0.459773
  64 C :   -0.184920
  65 C :   -0.073574
  66 C :    0.079393
  67 C :   -0.097093
  68 C :   -0.015355
  69 N :   -0.034635
  70 C :   -0.022526
  71 N :   -0.019349
  72 C :   -0.034645
  73 C :   -0.177006
  74 S :    0.473864
  75 H :    0.026863
  76 H :    0.041953
  77 H :    0.035915
  78 H :    0.046101
  79 H :    0.046269
  80 H :    0.017116
  81 H :   -0.004545
  82 H :    0.079040
  83 H :    0.042024
  84 H :    0.040674
  85 H :    0.023139
  86 H :    0.046548
  87 H :    0.045534
  88 H :    0.043644
  89 H :    0.042706
  90 H :    0.027548

  Mayer bond orders larger than 0.100000
B(  0-C ,  1-C ) :   1.5445 B(  0-C ,  4-S ) :   1.1490 B(  0-C , 75-H ) :   0.9643
B(  1-C ,  2-C ) :   1.2788 B(  1-C , 76-H ) :   0.9965 B(  2-C ,  3-C ) :   1.4423
B(  2-C ,  7-C ) :   1.0186 B(  3-C ,  4-S ) :   1.1396 B(  3-C ,  5-C ) :   1.1943
B(  5-C ,  6-C ) :   1.4205 B(  5-C , 15-S ) :   1.0987 B(  6-C ,  7-C ) :   0.9891
B(  6-C , 13-C ) :   1.3200 B(  7-C ,  8-C ) :   1.7064 B(  8-C ,  9-C ) :   1.1328
B(  8-C , 11-C ) :   1.1315 B(  9-C , 10-N ) :   2.9924 B( 11-C , 12-N ) :   3.0034
B( 13-C , 14-C ) :   1.3858 B( 13-C , 77-H ) :   0.9957 B( 14-C , 15-S ) :   1.1115
B( 14-C , 16-C ) :   1.2490 B( 16-C , 17-C ) :   1.3457 B( 16-C , 29-C ) :   0.1122
B( 16-C , 30-S ) :   1.1146 B( 17-C , 18-C ) :   1.1640 B( 17-C , 28-N ) :   1.4093
B( 18-C , 19-N ) :   1.4972 B( 18-C , 29-C ) :   1.2773 B( 19-N , 20-C ) :   1.6207
B( 19-N , 80-H ) :   0.1078 B( 20-C , 21-C ) :   0.9515 B( 20-C , 27-C ) :   1.1007
B( 21-C , 22-O ) :   2.0305 B( 21-C , 23-C ) :   1.0548 B( 23-C , 24-C ) :   1.6745
B( 23-C , 78-H ) :   1.0011 B( 24-C , 25-C ) :   1.0200 B( 24-C , 79-H ) :   1.0001
B( 25-C , 26-O ) :   2.2412 B( 25-C , 27-C ) :   0.8995 B( 27-C , 28-N ) :   1.6926
B( 29-C , 30-S ) :   1.1362 B( 29-C , 31-C ) :   1.3271 B( 31-C , 32-S ) :   1.1065
B( 31-C , 35-C ) :   1.2830 B( 32-S , 33-C ) :   1.0977 B( 33-C , 34-C ) :   1.2468
B( 33-C , 42-C ) :   1.2872 B( 34-C , 35-C ) :   1.2043 B( 34-C , 41-C ) :   1.2170
B( 35-C , 36-C ) :   1.2715 B( 36-C , 37-C ) :   1.4768 B( 36-C , 80-H ) :   0.9520
B( 37-C , 38-S ) :   1.0424 B( 37-C , 39-C ) :   1.2014 B( 38-S , 81-H ) :   0.9112
B( 39-C , 40-O ) :   1.2978 B( 39-C , 41-C ) :   1.4681 B( 40-O , 82-H ) :   0.9459
B( 41-C , 83-H ) :   1.0020 B( 42-C , 43-C ) :   1.4935 B( 42-C , 84-H ) :   0.9467
B( 43-C , 44-C ) :   1.2627 B( 43-C , 85-H ) :   0.9505 B( 44-C , 45-C ) :   1.2651
B( 44-C , 57-C ) :   0.1237 B( 44-C , 58-S ) :   1.1305 B( 45-C , 46-C ) :   1.1841
B( 45-C , 56-N ) :   1.4612 B( 46-C , 47-N ) :   1.4442 B( 46-C , 57-C ) :   1.3493
B( 47-N , 48-C ) :   1.7026 B( 48-C , 49-C ) :   0.8928 B( 48-C , 55-C ) :   1.1040
B( 49-C , 50-O ) :   2.2428 B( 49-C , 51-C ) :   1.0207 B( 51-C , 52-C ) :   1.6834
B( 51-C , 86-H ) :   0.9972 B( 52-C , 53-C ) :   1.0302 B( 52-C , 87-H ) :   0.9984
B( 53-C , 54-O ) :   2.2024 B( 53-C , 55-C ) :   0.9051 B( 55-C , 56-N ) :   1.6797
B( 57-C , 58-S ) :   1.1497 B( 57-C , 59-C ) :   1.2001 B( 59-C , 60-C ) :   1.4471
B( 59-C , 63-S ) :   1.0808 B( 60-C , 61-C ) :   1.2806 B( 60-C , 88-H ) :   0.9865
B( 61-C , 62-C ) :   1.4309 B( 61-C , 66-C ) :   0.9868 B( 62-C , 63-S ) :   1.1244
B( 62-C , 64-C ) :   1.2032 B( 64-C , 65-C ) :   1.4442 B( 64-C , 74-S ) :   1.1303
B( 65-C , 66-C ) :   1.0201 B( 65-C , 72-C ) :   1.2799 B( 66-C , 67-C ) :   1.7111
B( 67-C , 68-C ) :   1.1352 B( 67-C , 70-C ) :   1.1315 B( 68-C , 69-N ) :   3.0019
B( 70-C , 71-N ) :   3.0020 B( 72-C , 73-C ) :   1.5451 B( 72-C , 89-H ) :   0.9953
B( 73-C , 74-S ) :   1.1488 B( 73-C , 90-H ) :   0.9646

-----------------------------------------------------------------------------
         ABSORPTION SPECTRUM VIA TRANSITION ELECTRIC DIPOLE MOMENTS
-----------------------------------------------------------------------------
State   Energy  Wavelength   fosc         T2         TX        TY        TZ
        (cm-1)    (nm)                  (au**2)     (au)      (au)      (au)
-----------------------------------------------------------------------------
   0    5093.6   1963.2   0.539193614  34.84935   0.76312   2.85484   5.11047
   1    9472.1   1055.7   0.175893951   6.11334  -1.56187   1.33940  -1.37110
   2   10894.1    917.9   0.089511702   2.70498   1.23582  -0.54926   0.93597
   3   11640.7    859.1   0.019549480   0.55288  -0.32918   0.11521  -0.65670
   4   12262.6    815.5   0.006732198   0.18074   0.03636   0.21623   0.36423
   5   13622.9    734.1   0.020012065   0.48361   0.15197  -0.40263  -0.54626
   6   14200.9    704.2   0.287290005   6.66010  -1.77360   1.11708  -1.50551
   7   17953.9    557.0   0.009655284   0.17704  -0.08419   0.40482   0.07797
   8   18436.7    542.4   0.093319334   1.66634   0.33869   0.35589   1.19372
   9   18778.2    532.5   0.156506645   2.74382   0.22356   0.86096   1.39735
  10   19453.2    514.1   0.096739632   1.63715  -0.11344   0.94585   0.85420
  11   19996.1    500.1   0.005366976   0.08836   0.01169   0.18237   0.23445
  12   21179.7    472.1   0.079690234   1.23868   0.58473  -0.94697   0.00465
  13   22395.6    446.5   0.027914176   0.41033   0.54072  -0.33100   0.09160
  14   22891.0    436.9   0.057190982   0.82251   0.54662  -0.30552   0.65603
  15   23181.8    431.4   0.072845704   1.03450   0.42545   0.16877   0.90830
  16   24602.2    406.5   0.000031907   0.00043   0.01699   0.01169   0.00124
  17   24824.1    402.8   0.006141568   0.08145   0.21385  -0.05364  -0.18121
  18   24872.6    402.0   0.004685214   0.06201  -0.02697   0.21954   0.11441
  19   25131.1    397.9   0.002101483   0.02753  -0.09518  -0.12923   0.04208
  20   25648.6    389.9   0.000519036   0.00666   0.06519  -0.03154   0.03765
  21   25977.9    384.9   0.041602908   0.52722  -0.49278   0.50061  -0.18379
  22   26426.4    378.4   0.133251228   1.66001   0.91199  -0.62142   0.66492
  23   26484.5    377.6   0.001187417   0.01476   0.07976   0.09054  -0.01418
  24   26765.5    373.6   0.618450264   7.60685   1.89027  -1.82597   0.83640
  25   26913.9    371.6   0.001271187   0.01555   0.12316  -0.01870  -0.00550
  26   27171.8    368.0   0.051747026   0.62696   0.45058  -0.29362   0.58115
  27   27595.9    362.4   0.093650400   1.11723   0.69841  -0.26948   0.74621
  28   27671.8    361.4   0.051553406   0.61333  -0.31510   0.70214   0.14507
  29   28261.0    353.8   0.069476114   0.80933  -0.35347   0.77842   0.28008
  30   28357.4    352.6   0.252653667   2.93315   0.58070   0.68109   1.46016
  31   28752.4    347.8   0.083324121   0.95405   0.61947  -0.58507   0.47750
  32   28971.6    345.2   0.036879382   0.41907  -0.23849   0.59615  -0.08244
  33   29647.7    337.3   0.103984657   1.15466  -0.01298  -0.87185  -0.62799
  34   29937.2    334.0   0.033622786   0.36974  -0.33371   0.50700   0.03642
  35   30213.2    331.0   0.001784146   0.01944   0.08096  -0.11169   0.02030
  36   30241.1    330.7   0.001531022   0.01667   0.05476  -0.11594   0.01499
  37   30325.5    329.8   0.006181048   0.06710   0.14317  -0.21203   0.04058
  38   30476.5    328.1   0.000410622   0.00444   0.06610  -0.00770   0.00268
  39   30798.4    324.7   0.008399446   0.08978  -0.09148   0.24378   0.14828
  40   31208.3    320.4   0.004545419   0.04795  -0.08315   0.01968  -0.20161
  41   31375.2    318.7   0.077107416   0.80907   0.53703  -0.57243   0.43931
  42   31540.5    317.1   0.029089033   0.30362   0.29069  -0.45106   0.12517
  43   31981.5    312.7   0.312832292   3.22024  -1.01021   0.83801  -1.22371
  44   32467.1    308.0   0.227451512   2.30633   0.11056   0.74501   1.31874
  45   32803.9    304.8   0.138383530   1.38878  -0.23103   1.14505   0.15582
  46   32885.5    304.1   0.005648596   0.05655   0.11523  -0.18688  -0.09135
  47   32926.2    303.7   0.357340632   3.57286  -1.14097   1.49584  -0.18305
  48   33063.1    302.5   0.002956718   0.02944  -0.04581   0.07622   0.14674
  49   33224.1    301.0   0.006029538   0.05975  -0.00765   0.18166   0.16336
  50   33350.5    299.8   0.022537201   0.22247  -0.14408  -0.10010  -0.43783
  51   33437.8    299.1   0.008403043   0.08273   0.18778  -0.06732   0.20722
  52   33584.4    297.8   0.022574337   0.22129  -0.06434  -0.44940  -0.12324
  53   33673.7    297.0   0.353807674   3.45901  -1.08777   0.64670  -1.36292
  54   33717.5    296.6   0.035781518   0.34936  -0.07896  -0.43982  -0.38690
  55   34012.1    294.0   0.078488541   0.75971  -0.20250   0.79582   0.29220
  56   34218.0    292.2   0.154689925   1.48828   0.50825   0.23699   1.08342
  57   34324.0    291.3   0.000098639   0.00095  -0.02586  -0.01396  -0.00908
  58   34534.9    289.6   0.089862491   0.85664   0.28239  -0.81851  -0.32700
  59   34730.5    287.9   0.004980102   0.04721   0.10614  -0.17252   0.07859
  60   34826.1    287.1   0.065595365   0.62007   0.56547  -0.51646   0.18329
  61   34891.2    286.6   0.291573198   2.75110   0.82141  -1.41106  -0.29206
  62   35182.3    284.2   0.014613780   0.13675   0.19369  -0.23053   0.21467
  63   35313.3    283.2   0.001835003   0.01711  -0.12833  -0.00116   0.02523
  64   35444.5    282.1   0.004953173   0.04601   0.12710  -0.01731   0.17191
  65   35711.6    280.0   0.115917560   1.06860   0.28015  -0.93417  -0.34270
  66   35862.8    278.8   0.235803423   2.16462  -0.62077   0.18718  -1.32069
  67   36447.2    274.4   0.044550406   0.40240  -0.32046   0.11910  -0.53435
  68   36469.0    274.2   0.033973531   0.30668  -0.09091  -0.21726  -0.50122
  69   36702.3    272.5   0.000019197   0.00017   0.00439   0.01082  -0.00598
  70   36803.9    271.7   0.049990462   0.44717  -0.47229   0.35145  -0.31717
  71   36894.2    271.0   0.030875659   0.27551  -0.00282   0.33647   0.40285
  72   37024.4    270.1   0.003156892   0.02807   0.12387   0.09152  -0.06596
  73   37132.9    269.3   0.031995447   0.28366  -0.10825   0.38763   0.34885
  74   37686.4    265.3   0.029420869   0.25701   0.31718   0.07958   0.38739
  75   37887.4    263.9   0.019076040   0.16576   0.29119  -0.28229   0.03573
  76   37924.4    263.7   0.000514694   0.00447   0.05510   0.01275  -0.03564
  77   38126.7    262.3   0.029851084   0.25775   0.30087  -0.40599   0.04907
  78   38353.5    260.7   0.003122082   0.02680   0.08643  -0.03950   0.13330
  79   38512.7    259.7   0.125288709   1.07099  -0.66604   0.66027  -0.43751
  80   39078.1    255.9   0.015019305   0.12653  -0.13348   0.28921   0.15833
  81   39217.3    255.0   0.000230087   0.00193   0.03048  -0.03146   0.00355
  82   39274.8    254.6   0.095345530   0.79921   0.23804  -0.70176  -0.50009
  83   39441.2    253.5   0.000718895   0.00600  -0.03740  -0.03353  -0.05897
  84   39544.6    252.9   0.010804858   0.08995  -0.19215   0.20788  -0.09907
  85   39628.3    252.3   0.036001474   0.29908   0.12252   0.18710   0.49906
  86   39684.3    252.0   0.023223571   0.19266   0.15676   0.17593   0.37031
  87   39950.7    250.3   0.029731317   0.24500   0.01637   0.23584   0.43487
  88   40208.9    248.7   0.013926424   0.11402  -0.02836   0.12337   0.31305
  89   40291.2    248.2   0.019251169   0.15730   0.15964  -0.34794  -0.10368

FINAL SINGLE POINT ENERGY     -6062.317150383609

DIPOLE MOMENT
-------------
                                X             Y             Z
Electronic contribution:     12.66845     -14.30447       4.76649
Nuclear contribution   :    -13.25011      13.29503      -6.97268
                        -----------------------------------------
Total Dipole Moment    :     -0.58166      -1.00944      -2.20619
                        -----------------------------------------
Magnitude (a.u.)       :      2.49491
Magnitude (Debye)      :      6.34155

Rotational constants in cm-1:     0.000943     0.000288     0.000221
Rotational constants in MHz :    28.267501     8.625607     6.639957

                             ****ORCA TERMINATED NORMALLY****
TOTAL RUN TIME: 0 days 0 hours 10 minutes 14 seconds 131 msec
