                         Program Version 4.2.0 -  RELEASE  -
|  1> # ORCA input file
|  2> # SCF done       -187.647511251029          0.000442860846
|  3> ! CAM-B3LYP def2-SVP def2/J RIJCOSX Grid4 TightSCF
|  4> %maxcore 5000
|  5> %tddft
|  6>     Mode sTDDFT
|  7>     Ethresh 5.0
|  8>     maxcore 5000
|  9> end
| 10>
| 11> %pal
| 12>   nprocs 6
| 13>   end
| 14> * xyz 0 1
| 15>    C        9.15494         7.65199        -1.38461
| 16>    C        9.37957         8.98455        -1.55134
| 17>    C        8.22924         9.64433        -2.02607
| 18>    C        7.15057         8.77336        -2.20408
| 19>    S        7.54458         7.16354        -1.79683
| 20>    C        6.03802         9.52146        -2.68618
| 21>    C        6.42169        10.86235        -2.81493
| 22>    C        7.80968        10.98857        -2.39035
| 23>    C        8.55305        12.12965        -2.32681
| 24>    C        8.03719        13.40227        -2.65422
| 25>    N        7.64123        14.45267        -2.88669
| 26>    C        9.89741        12.12405        -1.89807
| 27>    N       10.99052        12.12591        -1.55149
| 28>    C        5.40472        11.68249        -3.31618
| 29>    C        4.25103        10.97387        -3.56432
| 30>    S        4.42235         9.26711        -3.15581
| 31>    C        2.97966        11.37252        -4.07988
| 32>    S        1.60083        10.45263        -3.53700
| 33>    C        2.61085        12.31850        -5.01877
| 34>    C        3.54902        13.20009        -5.74077
| 35>    O        4.75867        13.17941        -5.59081
| 36>    C        2.87367        14.09105        -6.66865
| 37>    C        3.40874        15.08578        -7.45791
| 38>    N        2.40536        15.67634        -8.14858
| 39>    C        2.57366        16.72352        -9.12413
| 40>    C        2.82767        16.14355       -10.51399
| 41>    C        1.23040        15.07815        -7.84026
| 42>    C        1.47077        14.08604        -6.91475
| 43>    C        0.54308        13.16441        -6.28297
| 44>    O       -0.65419        13.14023        -6.51012
| 45>    C        1.21098        12.27118        -5.31534
| 46>    C        0.53925        11.27427        -4.64046
| 47>    C       -0.84073        10.88932        -4.76559
| 48>    C       -1.29700         9.62740        -4.70130
| 49>    C       -0.46175         8.44575        -4.60066
| 50>    C        0.71459         8.27282        -5.34892
| 51>    C        1.63583         7.19993        -5.08527
| 52>    N        2.79014         7.12558        -5.79411
| 53>    C        3.03791         8.02496        -6.68237
| 54>    C        2.11138         9.07139        -6.96350
| 55>    N        0.99882         9.17152        -6.32424
| 56>    F        2.36752         9.96743        -7.91611
| 57>    F        4.18511         7.93794        -7.35468
| 58>    C        1.38359         6.22788        -4.10482
| 59>    C        0.15009         6.32664        -3.44036
| 60>    C       -0.76748         7.41726        -3.69650
| 61>    N       -1.84935         7.34815        -2.91277
| 62>    S       -1.71918         6.06185        -1.96617
| 63>    N       -0.30094         5.52631        -2.46869
| 64>    C        2.38672         5.24912        -3.69669
| 65>    C        2.05734         3.90304        -3.47781
| 66>    O        0.81351         3.41327        -3.83138
| 67>    C        0.53576         3.44423        -5.21429
| 68>    C        3.00373         3.03641        -2.92209
| 69>    O        2.78856         1.72657        -2.64363
| 70>    C        1.48990         1.21456        -2.42893
| 71>    C        4.30860         3.49923        -2.62936
| 72>    C        4.63108         4.82240        -2.94192
| 73>    C        3.69016         5.67895        -3.45423
| 74>    C        5.28206         2.63303        -2.01581
| 75>    C        6.57088         2.96336        -1.65537
| 76>    C        7.23893         1.89945        -1.04668
| 77>    C        6.46698         0.74257        -0.93519
| 78>    S        4.89236         0.97778        -1.59600
| 79>    C        7.17394        -0.29931        -0.31491
| 80>    C        8.47078         0.06836         0.03725
| 81>    S        8.84360         1.71420        -0.39039
| 82>    C        9.19822        -0.96341         0.65967
| 83>    C        8.45059        -2.09207         0.77186
| 84>    S        6.85066        -1.93541         0.12827
| 85>    H        9.84278         6.90596        -1.04024
| 86>    H       10.32067         9.46038        -1.34504
| 87>    H        5.49595        12.73566        -3.50260
| 88>    H        4.42881        15.40243        -7.54824
| 89>    H        3.41706        17.34885        -8.82006
| 90>    H        1.66901        17.33704        -9.13433
| 91>    H        3.72948        15.53623       -10.51127
| 92>    H        2.94900        16.94671       -11.23528
| 93>    H        1.99235        15.51935       -10.82198
| 94>    H        0.30156        15.38606        -8.27784
| 95>    H       -1.53071        11.70330        -4.94158
| 96>    H       -2.36223         9.44592        -4.68765
| 97>    H       -0.46731         3.03561        -5.32658
| 98>    H        1.24840         2.82629        -5.77293
| 99>    H        0.56095         4.46101        -5.61855
|100>    H        0.99876         0.96756        -3.37236
|101>    H        0.87025         1.91910        -1.87282
|102>    H        1.63530         0.30359        -1.84702
|103>    H        5.62645         5.18817        -2.75549
|104>    H        3.94512         6.70700        -3.64600
|105>    H        7.02029         3.92500        -1.81575
|106>    H       10.21230        -0.87032         1.00124
|107>    H        8.73980        -3.03065         1.20083
|108> *
|109>
|110>                          ****END OF INPUT****

CARTESIAN COORDINATES (ANGSTROEM)
---------------------------------
  C      9.154940    7.651990   -1.384610
  C      9.379570    8.984550   -1.551340
  C      8.229240    9.644330   -2.026070
  C      7.150570    8.773360   -2.204080
  S      7.544580    7.163540   -1.796830
  C      6.038020    9.521460   -2.686180
  C      6.421690   10.862350   -2.814930
  C      7.809680   10.988570   -2.390350
  C      8.553050   12.129650   -2.326810
  C      8.037190   13.402270   -2.654220
  N      7.641230   14.452670   -2.886690
  C      9.897410   12.124050   -1.898070
  N     10.990520   12.125910   -1.551490
  C      5.404720   11.682490   -3.316180
  C      4.251030   10.973870   -3.564320
  S      4.422350    9.267110   -3.155810
  C      2.979660   11.372520   -4.079880
  S      1.600830   10.452630   -3.537000
  C      2.610850   12.318500   -5.018770
  C      3.549020   13.200090   -5.740770
  O      4.758670   13.179410   -5.590810
  C      2.873670   14.091050   -6.668650
  C      3.408740   15.085780   -7.457910
  N      2.405360   15.676340   -8.148580
  C      2.573660   16.723520   -9.124130
  C      2.827670   16.143550  -10.513990
  C      1.230400   15.078150   -7.840260
  C      1.470770   14.086040   -6.914750
  C      0.543080   13.164410   -6.282970
  O     -0.654190   13.140230   -6.510120
  C      1.210980   12.271180   -5.315340
  C      0.539250   11.274270   -4.640460
  C     -0.840730   10.889320   -4.765590
  C     -1.297000    9.627400   -4.701300
  C     -0.461750    8.445750   -4.600660
  C      0.714590    8.272820   -5.348920
  C      1.635830    7.199930   -5.085270
  N      2.790140    7.125580   -5.794110
  C      3.037910    8.024960   -6.682370
  C      2.111380    9.071390   -6.963500
  N      0.998820    9.171520   -6.324240
  F      2.367520    9.967430   -7.916110
  F      4.185110    7.937940   -7.354680
  C      1.383590    6.227880   -4.104820
  C      0.150090    6.326640   -3.440360
  C     -0.767480    7.417260   -3.696500
  N     -1.849350    7.348150   -2.912770
  S     -1.719180    6.061850   -1.966170
  N     -0.300940    5.526310   -2.468690
  C      2.386720    5.249120   -3.696690
  C      2.057340    3.903040   -3.477810
  O      0.813510    3.413270   -3.831380
  C      0.535760    3.444230   -5.214290
  C      3.003730    3.036410   -2.922090
  O      2.788560    1.726570   -2.643630
  C      1.489900    1.214560   -2.428930
  C      4.308600    3.499230   -2.629360
  C      4.631080    4.822400   -2.941920
  C      3.690160    5.678950   -3.454230
  C      5.282060    2.633030   -2.015810
  C      6.570880    2.963360   -1.655370
  C      7.238930    1.899450   -1.046680
  C      6.466980    0.742570   -0.935190
  S      4.892360    0.977780   -1.596000
  C      7.173940   -0.299310   -0.314910
  C      8.470780    0.068360    0.037250
  S      8.843600    1.714200   -0.390390
  C      9.198220   -0.963410    0.659670
  C      8.450590   -2.092070    0.771860
  S      6.850660   -1.935410    0.128270
  H      9.842780    6.905960   -1.040240
  H     10.320670    9.460380   -1.345040
  H      5.495950   12.735660   -3.502600
  H      4.428810   15.402430   -7.548240
  H      3.417060   17.348850   -8.820060
  H      1.669010   17.337040   -9.134330
  H      3.729480   15.536230  -10.511270
  H      2.949000   16.946710  -11.235280
  H      1.992350   15.519350  -10.821980
  H      0.301560   15.386060   -8.277840
  H     -1.530710   11.703300   -4.941580
  H     -2.362230    9.445920   -4.687650
  H     -0.467310    3.035610   -5.326580
  H      1.248400    2.826290   -5.772930
  H      0.560950    4.461010   -5.618550
  H      0.998760    0.967560   -3.372360
  H      0.870250    1.919100   -1.872820
  H      1.635300    0.303590   -1.847020
  H      5.626450    5.188170   -2.755490
  H      3.945120    6.707000   -3.646000
  H      7.020290    3.925000   -1.815750
  H     10.212300   -0.870320    1.001240
  H      8.739800   -3.030650    1.200830

 Total Charge           Charge          ....    0
 Multiplicity           Mult            ....    1
 Number of Electrons    NEL             ....  534
 Basis Dimension        Dim             .... 1123

ORBITAL ENERGIES
----------------

  NO   OCC          E(Eh)            E(eV)
   0   2.0000     -89.033877     -2422.7350
   1   2.0000     -88.984970     -2421.4041
   2   2.0000     -88.984301     -2421.3859
   3   2.0000     -88.968401     -2420.9533
   4   2.0000     -88.948339     -2420.4073
   5   2.0000     -88.944483     -2420.3024
   6   2.0000     -88.943336     -2420.2712
   7   2.0000     -24.806494      -675.0190
   8   2.0000     -24.805851      -675.0015
   9   2.0000     -19.248365      -523.7746
  10   2.0000     -19.233977      -523.3831
  11   2.0000     -19.193542      -522.2828
  12   2.0000     -19.193059      -522.2697
  13   2.0000     -14.482810      -394.0973
  14   2.0000     -14.444470      -393.0540
  15   2.0000     -14.442345      -392.9962
  16   2.0000     -14.439790      -392.9267
  17   2.0000     -14.439667      -392.9233
  18   2.0000     -14.421863      -392.4388
  19   2.0000     -14.419217      -392.3668
  20   2.0000     -10.421926      -283.5950
  21   2.0000     -10.421649      -283.5875
  22   2.0000     -10.355250      -281.7807
  23   2.0000     -10.354397      -281.7575
  24   2.0000     -10.353017      -281.7199
  25   2.0000     -10.342555      -281.4352
  26   2.0000     -10.336107      -281.2598
  27   2.0000     -10.335479      -281.2427
  28   2.0000     -10.333744      -281.1955
  29   2.0000     -10.329357      -281.0761
  30   2.0000     -10.328948      -281.0650
  31   2.0000     -10.328923      -281.0643
  32   2.0000     -10.328331      -281.0482
  33   2.0000     -10.324914      -280.9552
  34   2.0000     -10.324281      -280.9380
  35   2.0000     -10.323668      -280.9213
  36   2.0000     -10.322348      -280.8854
  37   2.0000     -10.319244      -280.8009
  38   2.0000     -10.318365      -280.7770
  39   2.0000     -10.317329      -280.7488
  40   2.0000     -10.314672      -280.6765
  41   2.0000     -10.314007      -280.6584
  42   2.0000     -10.307237      -280.4742
  43   2.0000     -10.306697      -280.4595
  44   2.0000     -10.306346      -280.4499
  45   2.0000     -10.306144      -280.4444
  46   2.0000     -10.301725      -280.3242
  47   2.0000     -10.294752      -280.1345
  48   2.0000     -10.294039      -280.1150
  49   2.0000     -10.292643      -280.0771
  50   2.0000     -10.292191      -280.0648
  51   2.0000     -10.290727      -280.0249
  52   2.0000     -10.289312      -279.9864
  53   2.0000     -10.287299      -279.9316
  54   2.0000     -10.287235      -279.9299
  55   2.0000     -10.285558      -279.8843
  56   2.0000     -10.285176      -279.8739
  57   2.0000     -10.284862      -279.8653
  58   2.0000     -10.283733      -279.8346
  59   2.0000     -10.283094      -279.8172
  60   2.0000     -10.282164      -279.7919
  61   2.0000     -10.281736      -279.7803
  62   2.0000     -10.281385      -279.7707
  63   2.0000     -10.278195      -279.6839
  64   2.0000     -10.272132      -279.5189
  65   2.0000     -10.269855      -279.4570
  66   2.0000     -10.267896      -279.4037
  67   2.0000     -10.267397      -279.3901
  68   2.0000     -10.263097      -279.2731
  69   2.0000     -10.262842      -279.2661
  70   2.0000      -8.125226      -221.0986
  71   2.0000      -8.078991      -219.8405
  72   2.0000      -8.077935      -219.8118
  73   2.0000      -8.063376      -219.4156
  74   2.0000      -8.043850      -218.8843
  75   2.0000      -8.038618      -218.7419
  76   2.0000      -8.037994      -218.7249
  77   2.0000      -6.096141      -165.8844
  78   2.0000      -6.088428      -165.6746
  79   2.0000      -6.088328      -165.6718
  80   2.0000      -6.048354      -164.5841
  81   2.0000      -6.047228      -164.5534
  82   2.0000      -6.043841      -164.4613
  83   2.0000      -6.043024      -164.4391
  84   2.0000      -6.041713      -164.4034
  85   2.0000      -6.040434      -164.3686
  86   2.0000      -6.032645      -164.1566
  87   2.0000      -6.028495      -164.0437
  88   2.0000      -6.025544      -163.9634
  89   2.0000      -6.013406      -163.6331
  90   2.0000      -6.009120      -163.5165
  91   2.0000      -6.008350      -163.4955
  92   2.0000      -6.007753      -163.4793
  93   2.0000      -6.005640      -163.4218
  94   2.0000      -6.004575      -163.3928
  95   2.0000      -6.003220      -163.3559
  96   2.0000      -5.999731      -163.2610
  97   2.0000      -5.999575      -163.2567
  98   2.0000      -1.333605       -36.2892
  99   2.0000      -1.319464       -35.9044
 100   2.0000      -1.158204       -31.5163
 101   2.0000      -1.133493       -30.8439
 102   2.0000      -1.128483       -30.7076
 103   2.0000      -1.113568       -30.3017
 104   2.0000      -1.108759       -30.1709
 105   2.0000      -1.103454       -30.0265
 106   2.0000      -1.101862       -29.9832
 107   2.0000      -1.035976       -28.1903
 108   2.0000      -1.029656       -28.0184
 109   2.0000      -1.012995       -27.5650
 110   2.0000      -1.002091       -27.2683
 111   2.0000      -1.001522       -27.2528
 112   2.0000      -0.997698       -27.1487
 113   2.0000      -0.983474       -26.7617
 114   2.0000      -0.982190       -26.7267
 115   2.0000      -0.970306       -26.4034
 116   2.0000      -0.964137       -26.2355
 117   2.0000      -0.948349       -25.8059
 118   2.0000      -0.945007       -25.7150
 119   2.0000      -0.932070       -25.3629
 120   2.0000      -0.911763       -24.8103
 121   2.0000      -0.906321       -24.6623
 122   2.0000      -0.898406       -24.4469
 123   2.0000      -0.878458       -23.9041
 124   2.0000      -0.874013       -23.7831
 125   2.0000      -0.872286       -23.7361
 126   2.0000      -0.859121       -23.3779
 127   2.0000      -0.851512       -23.1708
 128   2.0000      -0.846377       -23.0311
 129   2.0000      -0.844787       -22.9878
 130   2.0000      -0.836747       -22.7690
 131   2.0000      -0.834570       -22.7098
 132   2.0000      -0.830560       -22.6007
 133   2.0000      -0.823013       -22.3953
 134   2.0000      -0.817104       -22.2345
 135   2.0000      -0.801984       -21.8231
 136   2.0000      -0.793047       -21.5799
 137   2.0000      -0.786361       -21.3980
 138   2.0000      -0.774357       -21.0713
 139   2.0000      -0.770019       -20.9533
 140   2.0000      -0.769802       -20.9474
 141   2.0000      -0.761348       -20.7173
 142   2.0000      -0.760122       -20.6840
 143   2.0000      -0.757363       -20.6089
 144   2.0000      -0.746676       -20.3181
 145   2.0000      -0.741137       -20.1674
 146   2.0000      -0.725748       -19.7486
 147   2.0000      -0.713489       -19.4150
 148   2.0000      -0.698676       -19.0119
 149   2.0000      -0.693491       -18.8709
 150   2.0000      -0.692727       -18.8501
 151   2.0000      -0.683553       -18.6004
 152   2.0000      -0.674341       -18.3497
 153   2.0000      -0.670636       -18.2489
 154   2.0000      -0.668712       -18.1966
 155   2.0000      -0.664014       -18.0687
 156   2.0000      -0.658977       -17.9317
 157   2.0000      -0.652831       -17.7644
 158   2.0000      -0.645883       -17.5754
 159   2.0000      -0.644908       -17.5488
 160   2.0000      -0.633374       -17.2350
 161   2.0000      -0.627418       -17.0729
 162   2.0000      -0.620443       -16.8831
 163   2.0000      -0.619088       -16.8462
 164   2.0000      -0.617011       -16.7897
 165   2.0000      -0.614964       -16.7340
 166   2.0000      -0.612838       -16.6762
 167   2.0000      -0.610746       -16.6192
 168   2.0000      -0.605887       -16.4870
 169   2.0000      -0.601781       -16.3753
 170   2.0000      -0.599010       -16.2999
 171   2.0000      -0.591890       -16.1061
 172   2.0000      -0.585319       -15.9273
 173   2.0000      -0.582972       -15.8635
 174   2.0000      -0.576076       -15.6758
 175   2.0000      -0.563909       -15.3447
 176   2.0000      -0.562179       -15.2977
 177   2.0000      -0.560918       -15.2633
 178   2.0000      -0.560218       -15.2443
 179   2.0000      -0.557378       -15.1670
 180   2.0000      -0.553244       -15.0545
 181   2.0000      -0.548776       -14.9330
 182   2.0000      -0.547003       -14.8847
 183   2.0000      -0.543417       -14.7871
 184   2.0000      -0.543330       -14.7848
 185   2.0000      -0.538954       -14.6657
 186   2.0000      -0.538437       -14.6516
 187   2.0000      -0.535051       -14.5595
 188   2.0000      -0.532142       -14.4803
 189   2.0000      -0.525632       -14.3032
 190   2.0000      -0.521841       -14.2000
 191   2.0000      -0.520591       -14.1660
 192   2.0000      -0.518858       -14.1188
 193   2.0000      -0.513536       -13.9740
 194   2.0000      -0.513108       -13.9624
 195   2.0000      -0.510818       -13.9001
 196   2.0000      -0.508198       -13.8288
 197   2.0000      -0.505011       -13.7420
 198   2.0000      -0.503400       -13.6982
 199   2.0000      -0.501644       -13.6504
 200   2.0000      -0.500430       -13.6174
 201   2.0000      -0.497742       -13.5443
 202   2.0000      -0.495969       -13.4960
 203   2.0000      -0.494539       -13.4571
 204   2.0000      -0.492049       -13.3893
 205   2.0000      -0.485902       -13.2221
 206   2.0000      -0.483189       -13.1482
 207   2.0000      -0.481872       -13.1124
 208   2.0000      -0.474600       -12.9145
 209   2.0000      -0.473305       -12.8793
 210   2.0000      -0.471981       -12.8432
 211   2.0000      -0.471798       -12.8383
 212   2.0000      -0.469429       -12.7738
 213   2.0000      -0.467757       -12.7283
 214   2.0000      -0.463480       -12.6119
 215   2.0000      -0.462243       -12.5783
 216   2.0000      -0.459120       -12.4933
 217   2.0000      -0.457878       -12.4595
 218   2.0000      -0.455149       -12.3852
 219   2.0000      -0.452352       -12.3091
 220   2.0000      -0.451295       -12.2804
 221   2.0000      -0.447805       -12.1854
 222   2.0000      -0.447013       -12.1638
 223   2.0000      -0.445427       -12.1207
 224   2.0000      -0.443752       -12.0751
 225   2.0000      -0.442382       -12.0378
 226   2.0000      -0.441401       -12.0111
 227   2.0000      -0.436390       -11.8748
 228   2.0000      -0.433963       -11.8087
 229   2.0000      -0.430521       -11.7151
 230   2.0000      -0.429302       -11.6819
 231   2.0000      -0.428920       -11.6715
 232   2.0000      -0.427930       -11.6446
 233   2.0000      -0.424772       -11.5586
 234   2.0000      -0.418255       -11.3813
 235   2.0000      -0.416317       -11.3286
 236   2.0000      -0.414842       -11.2884
 237   2.0000      -0.410786       -11.1781
 238   2.0000      -0.405217       -11.0265
 239   2.0000      -0.404003       -10.9935
 240   2.0000      -0.401881       -10.9357
 241   2.0000      -0.399645       -10.8749
 242   2.0000      -0.394859       -10.7447
 243   2.0000      -0.384773       -10.4702
 244   2.0000      -0.378521       -10.3001
 245   2.0000      -0.375793       -10.2258
 246   2.0000      -0.368025       -10.0145
 247   2.0000      -0.363008        -9.8779
 248   2.0000      -0.358660        -9.7596
 249   2.0000      -0.353150        -9.6097
 250   2.0000      -0.348493        -9.4830
 251   2.0000      -0.341090        -9.2815
 252   2.0000      -0.339495        -9.2381
 253   2.0000      -0.328019        -8.9258
 254   2.0000      -0.323881        -8.8132
 255   2.0000      -0.320596        -8.7239
 256   2.0000      -0.317871        -8.6497
 257   2.0000      -0.317346        -8.6354
 258   2.0000      -0.315209        -8.5773
 259   2.0000      -0.312379        -8.5003
 260   2.0000      -0.306947        -8.3524
 261   2.0000      -0.298185        -8.1140
 262   2.0000      -0.288142        -7.8407
 263   2.0000      -0.275730        -7.5030
 264   2.0000      -0.269356        -7.3295
 265   2.0000      -0.253898        -6.9089
 266   2.0000      -0.236059        -6.4235
 267   0.0000      -0.096035        -2.6132
 268   0.0000      -0.094586        -2.5738
 269   0.0000      -0.046555        -1.2668
 270   0.0000      -0.043807        -1.1921
 271   0.0000      -0.021456        -0.5838

MULLIKEN ATOMIC CHARGES
-----------------------
   0 C :   -0.064119
   1 C :    0.031923
   2 C :   -0.033996
   3 C :   -0.098676
   4 S :    0.150640
   5 C :   -0.081823
   6 C :   -0.022213
   7 C :    0.300681
   8 C :   -0.300341
   9 C :   -0.184738
  10 N :    0.179919
  11 C :   -0.195431
  12 N :    0.171420
  13 C :    0.039678
  14 C :   -0.076057
  15 S :    0.140428
  16 C :   -0.154607
  17 S :    0.137706
  18 C :    0.036517
  19 C :    0.122835
  20 O :   -0.166882
  21 C :   -0.017797
  22 C :    0.010026
  23 N :   -0.134151
  24 C :    0.088547
  25 C :    0.003273
  26 C :    0.012819
  27 C :   -0.030158
  28 C :    0.138978
  29 O :   -0.168584
  30 C :    0.057613
  31 C :   -0.199639
  32 C :    0.069792
  33 C :   -0.032807
  34 C :   -0.013969
  35 C :   -0.068679
  36 C :   -0.051649
  37 N :    0.024976
  38 C :    0.123035
  39 C :    0.136572
  40 N :    0.038073
  41 F :   -0.143322
  42 F :   -0.142240
  43 C :    0.018698
  44 C :   -0.017548
  45 C :    0.037622
  46 N :   -0.271793
  47 S :    0.529182
  48 N :   -0.248066
  49 C :   -0.011804
  50 C :    0.090692
  51 O :   -0.352804
  52 C :    0.205951
  53 C :    0.126214
  54 O :   -0.347509
  55 C :    0.212725
  56 C :    0.123617
  57 C :   -0.051203
  58 C :    0.036177
  59 C :   -0.074520
  60 C :   -0.049791
  61 C :   -0.029227
  62 C :   -0.056463
  63 S :    0.158053
  64 C :   -0.109505
  65 C :   -0.052726
  66 S :    0.125189
  67 C :    0.019995
  68 C :   -0.081074
  69 S :    0.132908
  70 H :    0.036717
  71 H :    0.011393
  72 H :    0.022874
  73 H :    0.008763
  74 H :    0.034844
  75 H :    0.033002
  76 H :    0.031072
  77 H :    0.030316
  78 H :    0.030183
  79 H :    0.004654
  80 H :    0.034152
  81 H :    0.016283
  82 H :    0.027349
  83 H :    0.016873
  84 H :    0.023990
  85 H :    0.017209
  86 H :    0.034660
  87 H :    0.025077
  88 H :   -0.049467
  89 H :   -0.053227
  90 H :   -0.043956
  91 H :   -0.013806
  92 H :    0.024478
Sum of atomic charges:   -0.0000000

LOEWDIN ATOMIC CHARGES
----------------------
   0 C :   -0.176080
   1 C :   -0.033773
   2 C :   -0.072873
   3 C :   -0.184317
   4 S :    0.481551
   5 C :   -0.178614
   6 C :   -0.072733
   7 C :    0.082339
   8 C :   -0.100784
   9 C :   -0.018268
  10 N :   -0.028097
  11 C :   -0.015875
  12 N :   -0.036326
  13 C :    0.002865
  14 C :   -0.189623
  15 S :    0.476692
  16 C :   -0.154645
  17 S :    0.463717
  18 C :   -0.091701
  19 C :    0.079257
  20 O :   -0.162191
  21 C :   -0.101344
  22 C :    0.031366
  23 N :    0.089731
  24 C :    0.043804
  25 C :   -0.057322
  26 C :    0.029660
  27 C :   -0.101890
  28 C :    0.081958
  29 O :   -0.162815
  30 C :   -0.080007
  31 C :   -0.129660
  32 C :   -0.012578
  33 C :   -0.008477
  34 C :   -0.044958
  35 C :   -0.025234
  36 C :   -0.018276
  37 N :   -0.036570
  38 C :    0.052517
  39 C :    0.055400
  40 N :   -0.031128
  41 F :   -0.031409
  42 F :   -0.032450
  43 C :   -0.015741
  44 C :   -0.049452
  45 C :   -0.046518
  46 N :   -0.295322
  47 S :    0.672741
  48 N :   -0.273769
  49 C :   -0.038842
  50 C :    0.027505
  51 O :   -0.121866
  52 C :    0.077182
  53 C :    0.038040
  54 O :   -0.108328
  55 C :    0.083031
  56 C :   -0.043432
  57 C :   -0.024956
  58 C :   -0.012509
  59 C :   -0.158170
  60 C :   -0.072950
  61 C :   -0.196150
  62 C :   -0.229289
  63 S :    0.452561
  64 C :   -0.222737
  65 C :   -0.199947
  66 S :    0.383854
  67 C :   -0.074020
  68 C :   -0.179821
  69 S :    0.418621
  70 H :    0.028215
  71 H :    0.042514
  72 H :    0.043659
  73 H :    0.030300
  74 H :    0.034171
  75 H :    0.033356
  76 H :    0.030916
  77 H :    0.032827
  78 H :    0.030537
  79 H :    0.028738
  80 H :    0.045213
  81 H :    0.040646
  82 H :    0.023710
  83 H :    0.014102
  84 H :    0.012002
  85 H :    0.015181
  86 H :    0.022199
  87 H :    0.019655
  88 H :    0.016279
  89 H :    0.008942
  90 H :    0.021623
  91 H :    0.032413
  92 H :    0.022245

  Mayer bond orders larger than 0.100000
B(  0-C ,  1-C ) :   1.5528 B(  0-C ,  4-S ) :   1.1516 B(  0-C , 70-H ) :   0.9636
B(  1-C ,  2-C ) :   1.2772 B(  1-C , 71-H ) :   0.9955 B(  2-C ,  3-C ) :   1.4641
B(  2-C ,  7-C ) :   1.0091 B(  3-C ,  4-S ) :   1.1335 B(  3-C ,  5-C ) :   1.1732
B(  5-C ,  6-C ) :   1.4496 B(  5-C , 15-S ) :   1.1313 B(  6-C ,  7-C ) :   0.9894
B(  6-C , 13-C ) :   1.2778 B(  7-C ,  8-C ) :   1.7146 B(  8-C ,  9-C ) :   1.1338
B(  8-C , 11-C ) :   1.1321 B(  9-C , 10-N ) :   2.9953 B( 11-C , 12-N ) :   3.0017
B( 13-C , 14-C ) :   1.5064 B( 13-C , 72-H ) :   0.9828 B( 14-C , 15-S ) :   1.0943
B( 14-C , 16-C ) :   1.0697 B( 16-C , 17-S ) :   1.1404 B( 16-C , 18-C ) :   1.5436
B( 17-S , 31-C ) :   1.1190 B( 18-C , 19-C ) :   0.9380 B( 18-C , 30-C ) :   1.1537
B( 19-C , 20-O ) :   2.2182 B( 19-C , 21-C ) :   0.9893 B( 21-C , 22-C ) :   1.4265
B( 21-C , 27-C ) :   1.2886 B( 22-C , 23-N ) :   1.2346 B( 22-C , 73-H ) :   0.9930
B( 23-N , 24-C ) :   0.9521 B( 23-N , 26-C ) :   1.2331 B( 24-C , 25-C ) :   1.1112
B( 24-C , 74-H ) :   0.9510 B( 24-C , 75-H ) :   0.9514 B( 25-C , 76-H ) :   0.9675
B( 25-C , 77-H ) :   0.9679 B( 25-C , 78-H ) :   0.9674 B( 26-C , 27-C ) :   1.4297
B( 26-C , 79-H ) :   0.9928 B( 27-C , 28-C ) :   0.9935 B( 28-C , 29-O ) :   2.2118
B( 28-C , 30-C ) :   0.9355 B( 30-C , 31-C ) :   1.5582 B( 31-C , 32-C ) :   1.0577
B( 32-C , 33-C ) :   1.8060 B( 32-C , 80-H ) :   0.9443 B( 33-C , 34-C ) :   1.0534
B( 33-C , 81-H ) :   0.9593 B( 34-C , 35-C ) :   1.3470 B( 34-C , 43-C ) :   0.1432
B( 34-C , 45-C ) :   1.2362 B( 35-C , 36-C ) :   1.0970 B( 35-C , 40-N ) :   1.4145
B( 36-C , 37-N ) :   1.4043 B( 36-C , 43-C ) :   1.3613 B( 37-N , 38-C ) :   1.7102
B( 38-C , 39-C ) :   1.0760 B( 38-C , 42-F ) :   1.1758 B( 39-C , 40-N ) :   1.7059
B( 39-C , 41-F ) :   1.1683 B( 43-C , 44-C ) :   1.2492 B( 43-C , 49-C ) :   0.9592
B( 44-C , 45-C ) :   1.1211 B( 44-C , 48-N ) :   1.5079 B( 45-C , 46-N ) :   1.5292
B( 46-N , 47-S ) :   1.2854 B( 46-N , 48-N ) :   0.1624 B( 47-S , 48-N ) :   1.3033
B( 49-C , 50-C ) :   1.3652 B( 49-C , 56-C ) :   0.1010 B( 49-C , 58-C ) :   1.3631
B( 50-C , 51-O ) :   1.0993 B( 50-C , 53-C ) :   1.3289 B( 51-O , 52-C ) :   0.9503
B( 52-C , 82-H ) :   0.9813 B( 52-C , 83-H ) :   0.9654 B( 52-C , 84-H ) :   0.9638
B( 53-C , 54-O ) :   1.1376 B( 53-C , 56-C ) :   1.3156 B( 54-O , 55-C ) :   0.9227
B( 55-C , 85-H ) :   0.9793 B( 55-C , 86-H ) :   0.9744 B( 55-C , 87-H ) :   0.9734
B( 56-C , 57-C ) :   1.3379 B( 56-C , 59-C ) :   1.0880 B( 57-C , 58-C ) :   1.3714
B( 57-C , 88-H ) :   0.9988 B( 58-C , 89-H ) :   0.9829 B( 59-C , 60-C ) :   1.5294
B( 59-C , 63-S ) :   1.1014 B( 60-C , 61-C ) :   1.2647 B( 60-C , 90-H ) :   0.9927
B( 61-C , 62-C ) :   1.4738 B( 61-C , 66-S ) :   1.0432 B( 62-C , 63-S ) :   1.0379
B( 62-C , 64-C ) :   1.2929 B( 64-C , 65-C ) :   1.4890 B( 64-C , 69-S ) :   1.0789
B( 65-C , 66-S ) :   1.0485 B( 65-C , 67-C ) :   1.2569 B( 67-C , 68-C ) :   1.5943
B( 67-C , 91-H ) :   0.9998 B( 68-C , 69-S ) :   1.1404 B( 68-C , 92-H ) :   0.9684

-----------------------------------------------------------------------------
         ABSORPTION SPECTRUM VIA TRANSITION ELECTRIC DIPOLE MOMENTS
-----------------------------------------------------------------------------
State   Energy  Wavelength   fosc         T2         TX        TY        TZ
        (cm-1)    (nm)                  (au**2)     (au)      (au)      (au)
-----------------------------------------------------------------------------
   0   15249.1    655.8   0.015812886   0.34138  -0.48890  -0.25507  -0.19312
   1   15781.7    633.6   0.322504325   6.72754  -1.33932   2.08109  -0.77642
   2   18166.9    550.5   0.092060251   1.66827  -1.06046   0.53433  -0.50812
   3   18805.9    531.7   0.001007380   0.01763   0.07339  -0.08458   0.07137
   4   22911.6    436.5   0.022749044   0.32688  -0.12112   0.52543   0.19008
   5   23219.3    430.7   0.012519068   0.17750  -0.24495   0.32357   0.11314
   6   24793.1    403.3   0.071906796   0.95480   0.86149  -0.16838   0.42929
   7   26285.6    380.4   0.340664434   4.26663  -1.80826   0.24233  -0.96855
   8   26943.9    371.1   0.121274793   1.48179  -0.16441   1.10331  -0.48731
   9   26976.5    370.7   0.160164330   1.95459   0.33504  -1.23596   0.56101
  10   27263.9    366.8   0.001868619   0.02256   0.05123   0.13681  -0.03495
  11   28890.6    346.1   0.034994751   0.39877   0.39538   0.49235  -0.00568
  12   29188.4    342.6   0.028424916   0.32060   0.02493   0.50805   0.24872
  13   29266.9    341.7   0.129357905   1.45510  -0.58984  -0.91695   0.51614
  14   29630.5    337.5   0.146609768   1.62892  -0.90123   0.66481  -0.61215
  15   30050.1    332.8   0.054729684   0.59959  -0.75445  -0.07921   0.15530
  16   30298.9    330.0   0.166974836   1.81426  -1.34238   0.06258  -0.09145
  17   30432.5    328.6   0.197351920   2.13491  -1.25157   0.73302  -0.17651
  18   30451.6    328.4   0.859705658   9.29426  -1.65817   1.94630  -1.66032
  19   30871.7    323.9   0.015349876   0.16369  -0.10029  -0.32342   0.22142
  20   30970.8    322.9   0.052278503   0.55571   0.01554   0.63175  -0.39542
  21   31333.3    319.1   0.179336699   1.88425  -0.11842   1.30625  -0.40491
  22   31370.5    318.8   0.020255602   0.21257  -0.25084   0.25546  -0.29050
  23   31971.0    312.8   0.320703507   3.30234   1.32117   1.21158   0.29822
  24   32002.5    312.5   0.097132169   0.99921   0.74424   0.40710   0.52875
  25   32349.1    309.1   0.022034041   0.22424   0.34191   0.31515  -0.08952
  26   32857.6    304.3   0.156758343   1.57062   0.01767  -1.20349   0.34916
  27   32930.8    303.7   0.092397140   0.92370   0.27026  -0.82630   0.40975
  28   33131.7    301.8   0.049901942   0.49585   0.00643   0.68534  -0.16160
  29   33420.3    299.2   0.007286234   0.07177   0.20011  -0.15621   0.08561
  30   33652.0    297.2   0.009950394   0.09734   0.03049  -0.30158   0.07392
  31   33807.6    295.8   0.125103600   1.21824  -0.81226   0.00270   0.74730
  32   33883.8    295.1   0.210889293   2.04898  -0.24135   1.18816  -0.76093
  33   34396.3    290.7   0.135493393   1.29683   1.04499   0.25267   0.37548
  34   35060.5    285.2   0.006081340   0.05710  -0.18550  -0.12212   0.08820
  35   35448.7    282.1   0.020337815   0.18888   0.43057   0.02257  -0.05458
  36   35817.4    279.2   0.044854391   0.41227   0.57807   0.27485  -0.05071
  37   36075.6    277.2   0.011256364   0.10272  -0.19203   0.22864  -0.11649
  38   36208.8    276.2   0.026295205   0.23908  -0.21220   0.39245  -0.20007
  39   36330.3    275.3   0.048017010   0.43511   0.43678   0.37339  -0.32391
  40   36494.8    274.0   0.021678321   0.19556  -0.03787  -0.34020   0.27997
  41   36579.7    273.4   0.184648103   1.66180   0.90131   0.92125   0.02729
  42   36892.8    271.1   0.008463036   0.07552  -0.02218   0.24237  -0.12761
  43   36997.6    270.3   0.047749756   0.42489  -0.06771  -0.50352   0.40838
  44   37277.3    268.3   0.007694130   0.06795   0.14149  -0.21273   0.05176
  45   37486.0    266.8   0.027111040   0.23810  -0.22420  -0.39646   0.17507
  46   37621.8    265.8   0.006140589   0.05373   0.15244  -0.02211   0.17322
  47   37833.6    264.3   0.054874644   0.47750  -0.39944   0.55848  -0.07779
  48   38116.9    262.4   0.016838888   0.14544   0.17457   0.30265  -0.15285
  49   38352.2    260.7   0.000837159   0.00719   0.06745   0.05072   0.00800
  50   38659.3    258.7   0.035399311   0.30145   0.53026   0.08752  -0.11231
  51   38986.6    256.5   0.069802041   0.58943  -0.75975  -0.01805  -0.10896
  52   39060.6    256.0   0.011352836   0.09568  -0.19757   0.23327  -0.04727
  53   39159.3    255.4   0.033288251   0.27985  -0.50881  -0.13503   0.05224
  54   39236.9    254.9   0.019609544   0.16453  -0.38388   0.04659   0.12247
  55   39310.8    254.4   0.024771976   0.20746  -0.37882   0.13224  -0.21555
  56   39508.2    253.1   0.035881200   0.29899  -0.20064  -0.13023   0.49170
  57   39732.1    251.7   0.001117693   0.00926  -0.01323  -0.08641   0.04025
  58   39782.7    251.4   0.229778463   1.90148  -1.21048   0.32507   0.57492
  59   40114.4    249.3   0.089200840   0.73206   0.43083   0.36490  -0.64287

FINAL SINGLE POINT ENERGY     -5585.949469436595

DIPOLE MOMENT
-------------
                                X             Y             Z
Electronic contribution:      6.45646     -11.00632      18.53831
Nuclear contribution   :     -8.26836      10.53190     -19.83639
                        -----------------------------------------
Total Dipole Moment    :     -1.81190      -0.47442      -1.29808
                        -----------------------------------------
Magnitude (a.u.)       :      2.27883
Magnitude (Debye)      :      5.79232

Rotational constants in cm-1:     0.001340     0.000532     0.000412
Rotational constants in MHz :    40.185563    15.944894    12.348767

                             ****ORCA TERMINATED NORMALLY****
TOTAL RUN TIME: 0 days 0 hours 10 minutes 6 seconds 714 msec
