                         Program Version 4.2.0 -  RELEASE  -
|  1> # ORCA input file
|  2> # SCF done       -210.358334961090          0.000595602432
|  3> ! CAM-B3LYP def2-SVP def2/J RIJCOSX Grid4 TightSCF
|  4> %maxcore 5000
|  5> %tddft
|  6>     Mode sTDDFT
|  7>     Ethresh 5.0
|  8>     maxcore 5000
|  9> end
| 10>
| 11> %pal
| 12>   nprocs 6
| 13>   end
| 14> * xyz 0 1
| 15>    C        2.60402         1.13629         1.85231
| 16>    C        3.86183         1.18028         2.38448
| 17>    F        4.45098         2.35946         2.62454
| 18>    C        4.55464        -0.00907         2.68733
| 19>    F        5.78706         0.06424         3.20910
| 20>    C        3.97951        -1.22656         2.45368
| 21>    C        2.68413        -1.30522         1.90645
| 22>    C        1.98286        -0.10338         1.59847
| 23>    C        0.68342        -0.15768         1.04519
| 24>    C        0.10428        -1.37661         0.80621
| 25>    C        0.80871        -2.57036         1.12267
| 26>    C        2.06400        -2.54983         1.65834
| 27>    C       -0.02292        -3.74574         0.78658
| 28>    O        0.28925        -4.90461         0.95159
| 29>    C       -1.30930        -3.19093         0.29256
| 30>    C       -1.19206        -1.74227         0.24717
| 31>    C       -2.09712        -0.87135        -0.29971
| 32>    C       -3.29929        -1.23886        -0.94206
| 33>    N       -4.28041        -1.44431        -1.50258
| 34>    C       -1.92388         0.52842        -0.32879
| 35>    N       -1.84081         1.67242        -0.37733
| 36>    C       -2.47986        -3.86712         0.12246
| 37>    C       -2.71189        -5.27640         0.03565
| 38>    C       -4.00258        -5.75588         0.40308
| 39>    O       -4.80868        -4.80904         0.92420
| 40>    C       -6.09920        -5.08690         1.42685
| 41>    C       -4.30778        -7.11046         0.23776
| 42>    O       -5.58740        -7.57148         0.51621
| 43>    C       -6.35393        -7.88310        -0.63045
| 44>    C       -3.32415        -8.00467        -0.22959
| 45>    C       -2.07874        -7.50426        -0.62031
| 46>    C       -1.78168        -6.17102        -0.49942
| 47>    C       -3.57813        -9.43666        -0.29724
| 48>    C       -4.32706       -10.10108         0.63251
| 49>    C       -4.58481       -11.47677         0.62501
| 50>    C       -4.12972       -12.31840        -0.49130
| 51>    C       -3.34324       -11.87784        -1.49751
| 52>    S       -2.78673       -10.26210        -1.63652
| 53>    C       -4.68244       -13.60441        -0.24562
| 54>    C       -5.42359       -13.57449         0.93620
| 55>    C       -5.99470       -14.83041         1.23813
| 56>    C       -5.68312       -15.75894         0.29659
| 57>    S       -4.68630       -15.15638        -0.98528
| 58>    C       -5.34732       -12.25554         1.50866
| 59>    C       -5.96416       -11.89367         2.73856
| 60>    C       -5.58238       -10.86775         3.53485
| 61>    C       -6.21782       -10.45829         4.75560
| 62>    C       -5.52764        -9.54755         5.60498
| 63>    O       -4.31319        -9.16780         5.13988
| 64>    C       -3.49844        -8.23934         5.82251
| 65>    C       -6.12903        -9.12720         6.79060
| 66>    O       -5.48082        -8.26727         7.65808
| 67>    C       -5.06629        -8.85399         8.87811
| 68>    C       -7.42099        -9.58007         7.13615
| 69>    C       -8.08643       -10.46886         6.28430
| 70>    C       -7.49456       -10.89355         5.12421
| 71>    C       -8.07275        -9.03042         8.29020
| 72>    C       -9.02885        -9.59902         9.07028
| 73>    C       -9.90267        -8.74613         9.91845
| 74>    O       -9.73504        -7.58104        10.19602
| 75>    C      -11.03784        -9.61449        10.29809
| 76>    C      -12.18231        -9.28700        10.96533
| 77>    C      -13.15755       -10.28528        11.18764
| 78>    C      -12.92594       -11.60826        10.71087
| 79>    C      -13.90691       -12.59644        10.92872
| 80>    C      -15.06187       -12.28662        11.59016
| 81>    C      -15.28920       -10.97856        12.06236
| 82>    C      -14.35755        -9.99795        11.86658
| 83>    F      -16.43186       -10.70281        12.70620
| 84>    F      -15.99329       -13.22773        11.79560
| 85>    C      -11.72624       -11.92058        10.03139
| 86>    C      -10.79388       -10.93795         9.83146
| 87>    C       -9.47968       -10.96945         9.19600
| 88>    C       -8.72269       -12.09290         8.98598
| 89>    C       -7.35977       -12.05067         8.62860
| 90>    N       -6.23361       -12.06669         8.40620
| 91>    C       -9.19358       -13.40455         9.19108
| 92>    N       -9.54262       -14.49002         9.32593
| 93>    H        2.08814         2.05608         1.62486
| 94>    H        4.52269        -2.12782         2.69121
| 95>    H        0.17644         0.76869         0.82894
| 96>    H        2.57663        -3.47161         1.88807
| 97>    H       -3.38617        -3.27516         0.07421
| 98>    H       -6.80239        -5.33028         0.62780
| 99>    H       -6.41395        -4.16080         1.90821
|100>    H       -6.08222        -5.89679         2.15742
|101>    H       -5.87795        -8.65611        -1.24060
|102>    H       -6.51654        -6.99436        -1.25061
|103>    H       -7.30851        -8.25173        -0.26021
|104>    H       -1.33593        -8.18653        -1.00382
|105>    H       -0.82518        -5.80480        -0.82880
|106>    H       -4.76819        -9.50588         1.41721
|107>    H       -2.99928       -12.52239        -2.29116
|108>    H       -6.60000       -15.04200         2.10085
|109>    H       -5.97805       -16.78970         0.26730
|110>    H       -6.76407       -12.55001         3.05630
|111>    H       -4.68976       -10.31681         3.28506
|112>    H       -2.66649        -8.04691         5.14406
|113>    H       -3.11032        -8.65298         6.75587
|114>    H       -4.02811        -7.30820         6.02917
|115>    H       -4.53682        -8.07188         9.41922
|116>    H       -4.39891        -9.70351         8.70057
|117>    H       -5.91690        -9.20055         9.47262
|118>    H       -9.09558       -10.77139         6.52124
|119>    H       -8.03419       -11.55650         4.46722
|120>    H       -7.83975        -7.99342         8.51633
|121>    H      -12.34342        -8.27939        11.31717
|122>    H      -13.74717       -13.60365        10.57678
|123>    H      -14.54657        -9.00144        12.23393
|124>    H      -11.57787       -12.92774         9.67532
|125> *
|126>
|127>                          ****END OF INPUT****

CARTESIAN COORDINATES (ANGSTROEM)
---------------------------------
  C      2.604020    1.136290    1.852310
  C      3.861830    1.180280    2.384480
  F      4.450980    2.359460    2.624540
  C      4.554640   -0.009070    2.687330
  F      5.787060    0.064240    3.209100
  C      3.979510   -1.226560    2.453680
  C      2.684130   -1.305220    1.906450
  C      1.982860   -0.103380    1.598470
  C      0.683420   -0.157680    1.045190
  C      0.104280   -1.376610    0.806210
  C      0.808710   -2.570360    1.122670
  C      2.064000   -2.549830    1.658340
  C     -0.022920   -3.745740    0.786580
  O      0.289250   -4.904610    0.951590
  C     -1.309300   -3.190930    0.292560
  C     -1.192060   -1.742270    0.247170
  C     -2.097120   -0.871350   -0.299710
  C     -3.299290   -1.238860   -0.942060
  N     -4.280410   -1.444310   -1.502580
  C     -1.923880    0.528420   -0.328790
  N     -1.840810    1.672420   -0.377330
  C     -2.479860   -3.867120    0.122460
  C     -2.711890   -5.276400    0.035650
  C     -4.002580   -5.755880    0.403080
  O     -4.808680   -4.809040    0.924200
  C     -6.099200   -5.086900    1.426850
  C     -4.307780   -7.110460    0.237760
  O     -5.587400   -7.571480    0.516210
  C     -6.353930   -7.883100   -0.630450
  C     -3.324150   -8.004670   -0.229590
  C     -2.078740   -7.504260   -0.620310
  C     -1.781680   -6.171020   -0.499420
  C     -3.578130   -9.436660   -0.297240
  C     -4.327060  -10.101080    0.632510
  C     -4.584810  -11.476770    0.625010
  C     -4.129720  -12.318400   -0.491300
  C     -3.343240  -11.877840   -1.497510
  S     -2.786730  -10.262100   -1.636520
  C     -4.682440  -13.604410   -0.245620
  C     -5.423590  -13.574490    0.936200
  C     -5.994700  -14.830410    1.238130
  C     -5.683120  -15.758940    0.296590
  S     -4.686300  -15.156380   -0.985280
  C     -5.347320  -12.255540    1.508660
  C     -5.964160  -11.893670    2.738560
  C     -5.582380  -10.867750    3.534850
  C     -6.217820  -10.458290    4.755600
  C     -5.527640   -9.547550    5.604980
  O     -4.313190   -9.167800    5.139880
  C     -3.498440   -8.239340    5.822510
  C     -6.129030   -9.127200    6.790600
  O     -5.480820   -8.267270    7.658080
  C     -5.066290   -8.853990    8.878110
  C     -7.420990   -9.580070    7.136150
  C     -8.086430  -10.468860    6.284300
  C     -7.494560  -10.893550    5.124210
  C     -8.072750   -9.030420    8.290200
  C     -9.028850   -9.599020    9.070280
  C     -9.902670   -8.746130    9.918450
  O     -9.735040   -7.581040   10.196020
  C    -11.037840   -9.614490   10.298090
  C    -12.182310   -9.287000   10.965330
  C    -13.157550  -10.285280   11.187640
  C    -12.925940  -11.608260   10.710870
  C    -13.906910  -12.596440   10.928720
  C    -15.061870  -12.286620   11.590160
  C    -15.289200  -10.978560   12.062360
  C    -14.357550   -9.997950   11.866580
  F    -16.431860  -10.702810   12.706200
  F    -15.993290  -13.227730   11.795600
  C    -11.726240  -11.920580   10.031390
  C    -10.793880  -10.937950    9.831460
  C     -9.479680  -10.969450    9.196000
  C     -8.722690  -12.092900    8.985980
  C     -7.359770  -12.050670    8.628600
  N     -6.233610  -12.066690    8.406200
  C     -9.193580  -13.404550    9.191080
  N     -9.542620  -14.490020    9.325930
  H      2.088140    2.056080    1.624860
  H      4.522690   -2.127820    2.691210
  H      0.176440    0.768690    0.828940
  H      2.576630   -3.471610    1.888070
  H     -3.386170   -3.275160    0.074210
  H     -6.802390   -5.330280    0.627800
  H     -6.413950   -4.160800    1.908210
  H     -6.082220   -5.896790    2.157420
  H     -5.877950   -8.656110   -1.240600
  H     -6.516540   -6.994360   -1.250610
  H     -7.308510   -8.251730   -0.260210
  H     -1.335930   -8.186530   -1.003820
  H     -0.825180   -5.804800   -0.828800
  H     -4.768190   -9.505880    1.417210
  H     -2.999280  -12.522390   -2.291160
  H     -6.600000  -15.042000    2.100850
  H     -5.978050  -16.789700    0.267300
  H     -6.764070  -12.550010    3.056300
  H     -4.689760  -10.316810    3.285060
  H     -2.666490   -8.046910    5.144060
  H     -3.110320   -8.652980    6.755870
  H     -4.028110   -7.308200    6.029170
  H     -4.536820   -8.071880    9.419220
  H     -4.398910   -9.703510    8.700570
  H     -5.916900   -9.200550    9.472620
  H     -9.095580  -10.771390    6.521240
  H     -8.034190  -11.556500    4.467220
  H     -7.839750   -7.993420    8.516330
  H    -12.343420   -8.279390   11.317170
  H    -13.747170  -13.603650   10.576780
  H    -14.546570   -9.001440   12.233930
  H    -11.577870  -12.927740    9.675320

 Total Charge           Charge          ....    0
 Multiplicity           Mult            ....    1
 Number of Electrons    NEL             ....  548
 Basis Dimension        Dim             .... 1260

ORBITAL ENERGIES
----------------

  NO   OCC          E(Eh)            E(eV)
   0   2.0000     -88.973272     -2421.0858
   1   2.0000     -88.954042     -2420.5625
   2   2.0000     -24.798990      -674.8148
   3   2.0000     -24.798419      -674.7993
   4   2.0000     -24.797931      -674.7860
   5   2.0000     -24.796804      -674.7553
   6   2.0000     -19.262307      -524.1540
   7   2.0000     -19.247811      -523.7596
   8   2.0000     -19.246210      -523.7160
   9   2.0000     -19.242472      -523.6143
  10   2.0000     -19.215740      -522.8869
  11   2.0000     -19.215589      -522.8828
  12   2.0000     -14.417813      -392.3286
  13   2.0000     -14.415356      -392.2618
  14   2.0000     -14.414109      -392.2279
  15   2.0000     -14.412792      -392.1920
  16   2.0000     -10.382217      -282.5145
  17   2.0000     -10.381792      -282.5029
  18   2.0000     -10.380957      -282.4802
  19   2.0000     -10.380136      -282.4578
  20   2.0000     -10.368201      -282.1331
  21   2.0000     -10.366965      -282.0995
  22   2.0000     -10.356502      -281.8147
  23   2.0000     -10.343948      -281.4731
  24   2.0000     -10.342933      -281.4455
  25   2.0000     -10.340589      -281.3817
  26   2.0000     -10.340146      -281.3697
  27   2.0000     -10.339733      -281.3584
  28   2.0000     -10.339029      -281.3393
  29   2.0000     -10.336358      -281.2666
  30   2.0000     -10.325759      -280.9782
  31   2.0000     -10.324614      -280.9470
  32   2.0000     -10.324498      -280.9439
  33   2.0000     -10.320452      -280.8338
  34   2.0000     -10.318771      -280.7880
  35   2.0000     -10.318195      -280.7724
  36   2.0000     -10.317673      -280.7582
  37   2.0000     -10.317084      -280.7421
  38   2.0000     -10.316579      -280.7284
  39   2.0000     -10.315907      -280.7101
  40   2.0000     -10.315834      -280.7081
  41   2.0000     -10.314133      -280.6618
  42   2.0000     -10.311689      -280.5953
  43   2.0000     -10.311325      -280.5854
  44   2.0000     -10.309759      -280.5428
  45   2.0000     -10.309439      -280.5341
  46   2.0000     -10.308983      -280.5217
  47   2.0000     -10.307141      -280.4716
  48   2.0000     -10.305776      -280.4344
  49   2.0000     -10.303706      -280.3781
  50   2.0000     -10.303477      -280.3719
  51   2.0000     -10.302047      -280.3329
  52   2.0000     -10.301411      -280.3156
  53   2.0000     -10.301271      -280.3118
  54   2.0000     -10.301128      -280.3080
  55   2.0000     -10.300522      -280.2915
  56   2.0000     -10.299720      -280.2696
  57   2.0000     -10.296186      -280.1735
  58   2.0000     -10.295982      -280.1679
  59   2.0000     -10.295537      -280.1558
  60   2.0000     -10.294496      -280.1275
  61   2.0000     -10.294435      -280.1258
  62   2.0000     -10.291773      -280.0534
  63   2.0000     -10.291027      -280.0331
  64   2.0000     -10.289283      -279.9856
  65   2.0000     -10.289162      -279.9823
  66   2.0000     -10.285924      -279.8942
  67   2.0000     -10.284775      -279.8630
  68   2.0000     -10.283687      -279.8333
  69   2.0000     -10.280911      -279.7578
  70   2.0000     -10.278725      -279.6983
  71   2.0000     -10.277547      -279.6663
  72   2.0000     -10.275905      -279.6216
  73   2.0000     -10.274315      -279.5783
  74   2.0000     -10.272644      -279.5329
  75   2.0000     -10.272221      -279.5214
  76   2.0000     -10.270063      -279.4626
  77   2.0000     -10.265648      -279.3425
  78   2.0000      -8.068513      -219.5554
  79   2.0000      -8.049510      -219.0383
  80   2.0000      -6.038018      -164.3028
  81   2.0000      -6.033510      -164.1802
  82   2.0000      -6.030487      -164.0979
  83   2.0000      -6.018976      -163.7847
  84   2.0000      -6.014730      -163.6691
  85   2.0000      -6.011479      -163.5807
  86   2.0000      -1.321460       -35.9588
  87   2.0000      -1.320132       -35.9226
  88   2.0000      -1.306601       -35.5544
  89   2.0000      -1.305266       -35.5181
  90   2.0000      -1.170954       -31.8633
  91   2.0000      -1.158593       -31.5269
  92   2.0000      -1.143425       -31.1142
  93   2.0000      -1.136731       -30.9320
  94   2.0000      -1.131372       -30.7862
  95   2.0000      -1.130671       -30.7671
  96   2.0000      -1.020855       -27.7789
  97   2.0000      -1.017849       -27.6971
  98   2.0000      -1.004901       -27.3448
  99   2.0000      -1.003137       -27.2967
 100   2.0000      -1.002823       -27.2882
 101   2.0000      -0.995318       -27.0840
 102   2.0000      -0.992006       -26.9938
 103   2.0000      -0.982466       -26.7343
 104   2.0000      -0.980972       -26.6936
 105   2.0000      -0.977261       -26.5926
 106   2.0000      -0.960750       -26.1433
 107   2.0000      -0.959099       -26.0984
 108   2.0000      -0.932849       -25.3841
 109   2.0000      -0.931309       -25.3422
 110   2.0000      -0.924754       -25.1638
 111   2.0000      -0.910699       -24.7814
 112   2.0000      -0.905867       -24.6499
 113   2.0000      -0.896624       -24.3984
 114   2.0000      -0.894597       -24.3432
 115   2.0000      -0.890742       -24.2383
 116   2.0000      -0.888635       -24.1810
 117   2.0000      -0.875537       -23.8246
 118   2.0000      -0.866332       -23.5741
 119   2.0000      -0.858903       -23.3719
 120   2.0000      -0.849673       -23.1208
 121   2.0000      -0.845997       -23.0207
 122   2.0000      -0.842220       -22.9180
 123   2.0000      -0.841510       -22.8986
 124   2.0000      -0.839013       -22.8307
 125   2.0000      -0.827462       -22.5164
 126   2.0000      -0.811537       -22.0831
 127   2.0000      -0.807060       -21.9612
 128   2.0000      -0.802607       -21.8400
 129   2.0000      -0.790740       -21.5171
 130   2.0000      -0.780315       -21.2335
 131   2.0000      -0.770839       -20.9756
 132   2.0000      -0.768410       -20.9095
 133   2.0000      -0.765516       -20.8307
 134   2.0000      -0.764497       -20.8030
 135   2.0000      -0.761474       -20.7208
 136   2.0000      -0.746564       -20.3150
 137   2.0000      -0.739461       -20.1218
 138   2.0000      -0.729774       -19.8582
 139   2.0000      -0.723545       -19.6887
 140   2.0000      -0.718902       -19.5623
 141   2.0000      -0.712480       -19.3876
 142   2.0000      -0.706286       -19.2190
 143   2.0000      -0.699401       -19.0317
 144   2.0000      -0.694644       -18.9022
 145   2.0000      -0.687654       -18.7120
 146   2.0000      -0.685943       -18.6655
 147   2.0000      -0.680120       -18.5070
 148   2.0000      -0.677057       -18.4237
 149   2.0000      -0.671061       -18.2605
 150   2.0000      -0.657018       -17.8784
 151   2.0000      -0.656225       -17.8568
 152   2.0000      -0.652638       -17.7592
 153   2.0000      -0.644136       -17.5278
 154   2.0000      -0.642728       -17.4895
 155   2.0000      -0.638099       -17.3636
 156   2.0000      -0.637862       -17.3571
 157   2.0000      -0.633003       -17.2249
 158   2.0000      -0.631543       -17.1851
 159   2.0000      -0.619197       -16.8492
 160   2.0000      -0.615950       -16.7609
 161   2.0000      -0.612489       -16.6667
 162   2.0000      -0.610727       -16.6187
 163   2.0000      -0.608447       -16.5567
 164   2.0000      -0.603398       -16.4193
 165   2.0000      -0.598033       -16.2733
 166   2.0000      -0.589427       -16.0391
 167   2.0000      -0.586320       -15.9546
 168   2.0000      -0.585975       -15.9452
 169   2.0000      -0.585380       -15.9290
 170   2.0000      -0.584762       -15.9122
 171   2.0000      -0.582690       -15.8558
 172   2.0000      -0.576142       -15.6776
 173   2.0000      -0.572652       -15.5826
 174   2.0000      -0.569899       -15.5077
 175   2.0000      -0.568292       -15.4640
 176   2.0000      -0.566927       -15.4269
 177   2.0000      -0.564510       -15.3611
 178   2.0000      -0.561357       -15.2753
 179   2.0000      -0.558476       -15.1969
 180   2.0000      -0.555185       -15.1074
 181   2.0000      -0.553240       -15.0544
 182   2.0000      -0.549805       -14.9609
 183   2.0000      -0.547785       -14.9060
 184   2.0000      -0.547247       -14.8913
 185   2.0000      -0.546443       -14.8695
 186   2.0000      -0.542456       -14.7610
 187   2.0000      -0.537468       -14.6252
 188   2.0000      -0.536886       -14.6094
 189   2.0000      -0.536131       -14.5889
 190   2.0000      -0.535444       -14.5702
 191   2.0000      -0.533742       -14.5239
 192   2.0000      -0.531713       -14.4686
 193   2.0000      -0.529883       -14.4189
 194   2.0000      -0.529625       -14.4118
 195   2.0000      -0.528504       -14.3813
 196   2.0000      -0.521363       -14.1870
 197   2.0000      -0.520721       -14.1695
 198   2.0000      -0.515766       -14.0347
 199   2.0000      -0.514881       -14.0106
 200   2.0000      -0.514582       -14.0025
 201   2.0000      -0.513743       -13.9797
 202   2.0000      -0.510368       -13.8878
 203   2.0000      -0.508433       -13.8352
 204   2.0000      -0.507398       -13.8070
 205   2.0000      -0.504721       -13.7342
 206   2.0000      -0.501837       -13.6557
 207   2.0000      -0.499560       -13.5937
 208   2.0000      -0.496810       -13.5189
 209   2.0000      -0.494937       -13.4679
 210   2.0000      -0.487828       -13.2745
 211   2.0000      -0.486892       -13.2490
 212   2.0000      -0.483386       -13.1536
 213   2.0000      -0.481918       -13.1137
 214   2.0000      -0.478104       -13.0099
 215   2.0000      -0.476053       -12.9541
 216   2.0000      -0.473631       -12.8881
 217   2.0000      -0.468996       -12.7620
 218   2.0000      -0.467007       -12.7079
 219   2.0000      -0.465264       -12.6605
 220   2.0000      -0.464337       -12.6353
 221   2.0000      -0.461080       -12.5466
 222   2.0000      -0.457574       -12.4512
 223   2.0000      -0.455533       -12.3957
 224   2.0000      -0.454870       -12.3776
 225   2.0000      -0.452173       -12.3043
 226   2.0000      -0.450200       -12.2506
 227   2.0000      -0.447697       -12.1824
 228   2.0000      -0.447196       -12.1688
 229   2.0000      -0.444942       -12.1075
 230   2.0000      -0.443868       -12.0783
 231   2.0000      -0.441854       -12.0234
 232   2.0000      -0.440695       -11.9919
 233   2.0000      -0.434794       -11.8314
 234   2.0000      -0.432833       -11.7780
 235   2.0000      -0.429805       -11.6956
 236   2.0000      -0.429424       -11.6852
 237   2.0000      -0.427512       -11.6332
 238   2.0000      -0.426573       -11.6076
 239   2.0000      -0.425015       -11.5652
 240   2.0000      -0.423845       -11.5334
 241   2.0000      -0.422849       -11.5063
 242   2.0000      -0.420293       -11.4368
 243   2.0000      -0.418959       -11.4005
 244   2.0000      -0.418520       -11.3885
 245   2.0000      -0.415744       -11.3130
 246   2.0000      -0.413451       -11.2506
 247   2.0000      -0.407120       -11.0783
 248   2.0000      -0.406752       -11.0683
 249   2.0000      -0.404335       -11.0025
 250   2.0000      -0.402407       -10.9500
 251   2.0000      -0.400760       -10.9052
 252   2.0000      -0.392705       -10.6860
 253   2.0000      -0.387519       -10.5449
 254   2.0000      -0.385281       -10.4840
 255   2.0000      -0.378547       -10.3008
 256   2.0000      -0.370694       -10.0871
 257   2.0000      -0.361974        -9.8498
 258   2.0000      -0.358100        -9.7444
 259   2.0000      -0.349738        -9.5169
 260   2.0000      -0.345058        -9.3895
 261   2.0000      -0.338419        -9.2088
 262   2.0000      -0.334601        -9.1050
 263   2.0000      -0.326952        -8.8968
 264   2.0000      -0.317513        -8.6400
 265   2.0000      -0.317021        -8.6266
 266   2.0000      -0.307246        -8.3606
 267   2.0000      -0.302872        -8.2416
 268   2.0000      -0.300717        -8.1829
 269   2.0000      -0.297557        -8.0969
 270   2.0000      -0.290176        -7.8961
 271   2.0000      -0.286386        -7.7930
 272   2.0000      -0.271415        -7.3856
 273   2.0000      -0.228066        -6.2060
 274   0.0000      -0.095609        -2.6017
 275   0.0000      -0.089973        -2.4483
 276   0.0000      -0.061112        -1.6629
 277   0.0000      -0.057625        -1.5681
 278   0.0000      -0.049844        -1.3563

MULLIKEN ATOMIC CHARGES
-----------------------
   0 C :   -0.111796
   1 C :    0.243650
   2 F :   -0.171871
   3 C :    0.240384
   4 F :   -0.171909
   5 C :   -0.106842
   6 C :    0.118682
   7 C :    0.116695
   8 C :   -0.086030
   9 C :    0.050224
  10 C :   -0.004923
  11 C :   -0.085304
  12 C :    0.146600
  13 O :   -0.146722
  14 C :   -0.082824
  15 C :    0.303547
  16 C :   -0.340503
  17 C :   -0.204746
  18 N :    0.159540
  19 C :   -0.182867
  20 N :    0.141923
  21 C :   -0.005745
  22 C :   -0.029043
  23 C :    0.201195
  24 O :   -0.305374
  25 C :    0.197590
  26 C :    0.024006
  27 O :   -0.365035
  28 C :    0.201040
  29 C :    0.112694
  30 C :   -0.058014
  31 C :    0.056053
  32 C :   -0.162557
  33 C :   -0.002326
  34 C :    0.022414
  35 C :    0.064056
  36 C :   -0.134187
  37 S :    0.128665
  38 C :   -0.109085
  39 C :    0.052972
  40 C :    0.007632
  41 C :   -0.069297
  42 S :    0.124708
  43 C :    0.075936
  44 C :   -0.003478
  45 C :   -0.019063
  46 C :    0.029412
  47 C :    0.176597
  48 O :   -0.316005
  49 C :    0.200777
  50 C :    0.091805
  51 O :   -0.353856
  52 C :    0.190153
  53 C :   -0.003203
  54 C :    0.015609
  55 C :   -0.038337
  56 C :   -0.015794
  57 C :   -0.108909
  58 C :    0.139616
  59 O :   -0.138061
  60 C :    0.012724
  61 C :   -0.086891
  62 C :    0.114875
  63 C :    0.113739
  64 C :   -0.108048
  65 C :    0.242082
  66 C :    0.240480
  67 C :   -0.104979
  68 F :   -0.172039
  69 F :   -0.171672
  70 C :   -0.084756
  71 C :    0.037151
  72 C :    0.268804
  73 C :   -0.336396
  74 C :   -0.187283
  75 N :    0.167127
  76 C :   -0.178349
  77 N :    0.150066
  78 H :    0.007106
  79 H :   -0.002256
  80 H :   -0.006774
  81 H :   -0.012601
  82 H :    0.040703
  83 H :    0.017801
  84 H :    0.034920
  85 H :    0.040347
  86 H :    0.034370
  87 H :    0.019014
  88 H :    0.036435
  89 H :   -0.009231
  90 H :   -0.010427
  91 H :    0.009303
  92 H :    0.034613
  93 H :   -0.016559
  94 H :    0.026012
  95 H :   -0.022620
  96 H :    0.003004
  97 H :    0.030095
  98 H :    0.012088
  99 H :    0.032681
 100 H :    0.033629
 101 H :    0.034034
 102 H :    0.030119
 103 H :   -0.017408
 104 H :   -0.025432
 105 H :    0.040091
 106 H :   -0.009459
 107 H :    0.004853
 108 H :   -0.000481
 109 H :   -0.005079
Sum of atomic charges:   -0.0000000

LOEWDIN ATOMIC CHARGES
----------------------
   0 C :   -0.029424
   1 C :    0.066242
   2 F :   -0.049625
   3 C :    0.067201
   4 F :   -0.050084
   5 C :   -0.033752
   6 C :   -0.008804
   7 C :   -0.006805
   8 C :    0.016902
   9 C :   -0.023438
  10 C :   -0.051682
  11 C :    0.028177
  12 C :    0.081269
  13 O :   -0.139767
  14 C :   -0.100347
  15 C :    0.076424
  16 C :   -0.139283
  17 C :   -0.025401
  18 N :   -0.051069
  19 C :   -0.016793
  20 N :   -0.056101
  21 C :    0.094571
  22 C :   -0.067483
  23 C :    0.072680
  24 O :   -0.084116
  25 C :    0.083299
  26 C :    0.001284
  27 O :   -0.131194
  28 C :    0.077909
  29 C :   -0.026114
  30 C :   -0.049081
  31 C :    0.032239
  32 C :   -0.176224
  33 C :   -0.006413
  34 C :   -0.025435
  35 C :   -0.048396
  36 C :   -0.143506
  37 S :    0.453790
  38 C :   -0.205179
  39 C :   -0.040460
  40 C :   -0.063914
  41 C :   -0.165352
  42 S :    0.417850
  43 C :   -0.047519
  44 C :   -0.005471
  45 C :   -0.027307
  46 C :   -0.019136
  47 C :    0.050110
  48 O :   -0.094967
  49 C :    0.080203
  50 C :    0.030898
  51 O :   -0.129865
  52 C :    0.079916
  53 C :   -0.062346
  54 C :   -0.012608
  55 C :   -0.016037
  56 C :    0.086213
  57 C :   -0.099415
  58 C :    0.082237
  59 O :   -0.141879
  60 C :   -0.053536
  61 C :    0.029874
  62 C :   -0.009280
  63 C :   -0.006318
  64 C :   -0.030223
  65 C :    0.066911
  66 C :    0.067097
  67 C :   -0.032701
  68 F :   -0.049859
  69 F :   -0.049374
  70 C :    0.013858
  71 C :   -0.021182
  72 C :    0.067465
  73 C :   -0.137737
  74 C :   -0.013633
  75 N :   -0.048502
  76 C :   -0.019322
  77 N :   -0.054239
  78 H :    0.047623
  79 H :    0.044365
  80 H :    0.039710
  81 H :    0.039320
  82 H :    0.045034
  83 H :    0.016876
  84 H :    0.026078
  85 H :    0.022057
  86 H :    0.015994
  87 H :    0.012037
  88 H :    0.027713
  89 H :    0.024556
  90 H :    0.035183
  91 H :    0.041304
  92 H :    0.035725
  93 H :    0.030517
  94 H :    0.023171
  95 H :    0.025323
  96 H :    0.028673
  97 H :    0.023870
  98 H :    0.014770
  99 H :    0.018122
 100 H :    0.025338
 101 H :    0.017363
 102 H :    0.013684
 103 H :    0.029144
 104 H :    0.029115
 105 H :    0.048507
 106 H :    0.040574
 107 H :    0.047031
 108 H :    0.044896
 109 H :    0.039410

  Mayer bond orders larger than 0.100000
B(  0-C ,  1-C ) :   1.4403 B(  0-C ,  5-C ) :   0.1095 B(  0-C ,  7-C ) :   1.1850
B(  0-C , 78-H ) :   1.0080 B(  1-C ,  2-F ) :   1.1335 B(  1-C ,  3-C ) :   1.1919
B(  3-C ,  4-F ) :   1.1340 B(  3-C ,  5-C ) :   1.4426 B(  5-C ,  6-C ) :   1.1897
B(  5-C , 79-H ) :   1.0079 B(  6-C ,  7-C ) :   1.2592 B(  6-C , 11-C ) :   1.1870
B(  7-C ,  8-C ) :   1.2156 B(  8-C ,  9-C ) :   1.4449 B(  8-C , 80-H ) :   0.9913
B(  9-C , 10-C ) :   1.2217 B(  9-C , 15-C ) :   0.9863 B( 10-C , 11-C ) :   1.4707
B( 10-C , 12-C ) :   0.9379 B( 11-C , 81-H ) :   1.0169 B( 12-C , 13-O ) :   2.2276
B( 12-C , 14-C ) :   0.9416 B( 14-C , 15-C ) :   1.0591 B( 14-C , 21-C ) :   1.5916
B( 15-C , 16-C ) :   1.6446 B( 16-C , 17-C ) :   1.1372 B( 16-C , 19-C ) :   1.1420
B( 17-C , 18-N ) :   2.9952 B( 19-C , 20-N ) :   2.9645 B( 21-C , 22-C ) :   1.1393
B( 21-C , 82-H ) :   0.9332 B( 22-C , 23-C ) :   1.2679 B( 22-C , 31-C ) :   1.3409
B( 23-C , 24-O ) :   1.2194 B( 23-C , 26-C ) :   1.3307 B( 24-O , 25-C ) :   0.9231
B( 25-C , 83-H ) :   0.9762 B( 25-C , 84-H ) :   0.9763 B( 25-C , 85-H ) :   0.9737
B( 26-C , 27-O ) :   1.0818 B( 26-C , 29-C ) :   1.3564 B( 27-O , 28-C ) :   0.9334
B( 28-C , 86-H ) :   0.9655 B( 28-C , 87-H ) :   0.9630 B( 28-C , 88-H ) :   0.9828
B( 29-C , 30-C ) :   1.3091 B( 29-C , 32-C ) :   1.0169 B( 30-C , 31-C ) :   1.3993
B( 30-C , 89-H ) :   0.9884 B( 31-C , 90-H ) :   0.9860 B( 32-C , 33-C ) :   1.5661
B( 32-C , 37-S ) :   1.0471 B( 33-C , 34-C ) :   1.2229 B( 33-C , 91-H ) :   0.9627
B( 34-C , 35-C ) :   1.0516 B( 34-C , 43-C ) :   1.4116 B( 35-C , 36-C ) :   1.6011
B( 35-C , 38-C ) :   1.1797 B( 36-C , 37-S ) :   1.1392 B( 36-C , 92-H ) :   0.9415
B( 38-C , 39-C ) :   1.4405 B( 38-C , 42-S ) :   1.0722 B( 39-C , 40-C ) :   1.2181
B( 39-C , 43-C ) :   1.1012 B( 40-C , 41-C ) :   1.5863 B( 40-C , 93-H ) :   0.9983
B( 41-C , 42-S ) :   1.1542 B( 41-C , 94-H ) :   0.9661 B( 43-C , 44-C ) :   1.1387
B( 44-C , 45-C ) :   1.6296 B( 44-C , 95-H ) :   0.9587 B( 45-C , 46-C ) :   1.1195
B( 45-C , 96-H ) :   0.9697 B( 46-C , 47-C ) :   1.2819 B( 46-C , 53-C ) :   0.1051
B( 46-C , 55-C ) :   1.3340 B( 47-C , 48-O ) :   1.1929 B( 47-C , 50-C ) :   1.3358
B( 48-O , 49-C ) :   0.9348 B( 49-C , 97-H ) :   0.9764 B( 49-C , 98-H ) :   0.9757
B( 49-C , 99-H ) :   0.9731 B( 50-C , 51-O ) :   1.1340 B( 50-C , 53-C ) :   1.3074
B( 51-O , 52-C ) :   0.9311 B( 52-C ,100-H ) :   0.9793 B( 52-C ,101-H ) :   0.9613
B( 52-C ,102-H ) :   0.9612 B( 53-C , 54-C ) :   1.3031 B( 53-C , 56-C ) :   1.0601
B( 54-C , 55-C ) :   1.3972 B( 54-C ,103-H ) :   0.9916 B( 55-C ,104-H ) :   0.9955
B( 56-C , 57-C ) :   1.6338 B( 56-C ,105-H ) :   0.9440 B( 57-C , 58-C ) :   0.9387
B( 57-C , 72-C ) :   1.0353 B( 58-C , 59-O ) :   2.2821 B( 58-C , 60-C ) :   0.9113
B( 60-C , 61-C ) :   1.4733 B( 60-C , 71-C ) :   1.2233 B( 61-C , 62-C ) :   1.1915
B( 61-C ,106-H ) :   1.0165 B( 62-C , 63-C ) :   1.2585 B( 62-C , 67-C ) :   1.1929
B( 63-C , 64-C ) :   1.1872 B( 63-C , 70-C ) :   1.2137 B( 64-C , 65-C ) :   1.4423
B( 64-C , 67-C ) :   0.1091 B( 64-C ,107-H ) :   1.0070 B( 65-C , 66-C ) :   1.1920
B( 65-C , 69-F ) :   1.1341 B( 66-C , 67-C ) :   1.4430 B( 66-C , 68-F ) :   1.1331
B( 67-C ,108-H ) :   1.0070 B( 70-C , 71-C ) :   1.4543 B( 70-C ,109-H ) :   0.9944
B( 71-C , 72-C ) :   0.9963 B( 72-C , 73-C ) :   1.6578 B( 73-C , 74-C ) :   1.1624
B( 73-C , 76-C ) :   1.1339 B( 74-C , 75-N ) :   2.9902 B( 76-C , 77-N ) :   2.9825

-----------------------------------------------------------------------------
         ABSORPTION SPECTRUM VIA TRANSITION ELECTRIC DIPOLE MOMENTS
-----------------------------------------------------------------------------
State   Energy  Wavelength   fosc         T2         TX        TY        TZ
        (cm-1)    (nm)                  (au**2)     (au)      (au)      (au)
-----------------------------------------------------------------------------
   0   15013.8    666.1   0.778011200  17.05969  -2.30624  -1.53671   3.06260
   1   17549.2    569.8   0.278079061   5.21658   0.38361   2.14001   0.69983
   2   21651.4    461.9   0.084796603   1.28934  -0.57749  -0.72193   0.65928
   3   23915.3    418.1   0.342015922   4.70811   0.84042   1.92996   0.52636
   4   24392.0    410.0   0.189079461   2.55195   0.10306   1.52237   0.47299
   5   24568.4    407.0   0.116400273   1.55974  -0.54327   0.35157   1.06817
   6   25622.5    390.3   0.061974501   0.79628   0.41863   0.76533   0.18788
   7   25819.3    387.3   0.332189693   4.23562   1.36288   0.30644  -1.51138
   8   26725.2    374.2   0.037480886   0.46171  -0.42447   0.51644   0.12175
   9   27512.6    363.5   0.114763568   1.37325  -0.35241  -0.87665   0.69321
  10   28124.1    355.6   0.221045304   2.58749  -0.61058   0.76951   1.27379
  11   28700.1    348.4   0.168227372   1.92969  -1.23566  -0.50954  -0.37842
  12   28971.6    345.2   0.042835880   0.48675  -0.29641  -0.41597  -0.47525
  13   29168.0    342.8   0.057769154   0.65203  -0.75673   0.26031   0.10780
  14   29514.7    338.8   0.015985786   0.17831   0.10747  -0.40154  -0.07431
  15   29850.0    335.0   0.006075556   0.06701   0.21728  -0.09417  -0.10455
  16   30584.6    327.0   0.045969603   0.49482  -0.70340   0.00613  -0.00302
  17   30670.5    326.0   0.058317196   0.62597   0.21161   0.24464  -0.72204
  18   31020.4    322.4   0.098767536   1.04819  -0.74335   0.70206  -0.05233
  19   31719.7    315.3   0.118256787   1.22736   0.38619  -0.47234  -0.92472
  20   32262.0    310.0   0.181244205   1.84948   1.15686   0.71397   0.03728
  21   32425.0    308.4   0.230816393   2.34349  -1.11391   0.33123   0.99648
  22   33129.9    301.8   0.457173317   4.54294  -1.31590  -1.36541  -0.97313
  23   33452.3    298.9   0.059513664   0.58569  -0.14643   0.64534   0.38443
  24   33575.9    297.8   0.049205592   0.48246   0.48501  -0.16936  -0.46749
  25   33762.0    296.2   0.155189454   1.51325  -0.93836   0.68829   0.39871
  26   34232.8    292.1   0.049557588   0.47659  -0.33800   0.49978   0.33551
  27   34781.2    287.5   0.371866466   3.51980  -1.73234  -0.12245  -0.70980
  28   34849.2    287.0   0.163445285   1.54403   1.23263  -0.03429  -0.15322
  29   35156.2    284.4   0.167924030   1.57248  -0.70117  -0.36554  -0.97326
  30   35313.6    283.2   0.367788346   3.42871   1.83370  -0.19830   0.16409
  31   35720.6    280.0   0.055897927   0.51517   0.01287  -0.71690   0.03260
  32   35922.6    278.4   0.527814418   4.83715   2.03895  -0.12481  -0.81501
  33   36355.5    275.1   0.098959138   0.89611   0.72777   0.17905  -0.57827
  34   36791.1    271.8   0.001591673   0.01424   0.04016   0.08407  -0.07458
  35   37126.2    269.4   0.082491545   0.73148  -0.23362  -0.69891   0.43409
  36   37402.9    267.4   0.036284216   0.31937   0.12840  -0.35886   0.41725
  37   37825.8    264.4   0.051360910   0.44701   0.11889   0.55356   0.35561
  38   38081.1    262.6   0.016709319   0.14445  -0.15579  -0.04660   0.34353
  39   38422.7    260.3   0.053319671   0.45685   0.11747   0.48786  -0.45282
  40   38527.5    259.6   0.056660443   0.48416  -0.07832  -0.67330   0.15714
  41   38611.8    259.0   0.035840114   0.30558  -0.48225  -0.10425   0.24930
  42   38876.9    257.2   0.005035716   0.04264   0.07633  -0.00837  -0.19169
  43   38945.8    256.8   0.033077345   0.27961  -0.29058   0.06019  -0.43766
  44   39071.4    255.9   0.093120734   0.78463   0.04682   0.88115   0.07752
  45   39262.5    254.7   0.375512301   3.14863   0.35650  -1.73077  -0.16112
  46   39765.2    251.5   0.018062342   0.14954  -0.31875  -0.21723   0.02734
  47   39957.3    250.3   0.004258811   0.03509   0.08550   0.14511   0.08199
  48   40157.1    249.0   0.032268942   0.26454   0.24955   0.41292   0.17822

FINAL SINGLE POINT ENERGY     -4243.315073042490

DIPOLE MOMENT
-------------
                                X             Y             Z
Electronic contribution:      3.52557      17.90179      15.63484
Nuclear contribution   :     -3.63043     -19.15301     -16.01778
                        -----------------------------------------
Total Dipole Moment    :     -0.10485      -1.25122      -0.38294
                        -----------------------------------------
Magnitude (a.u.)       :      1.31270
Magnitude (Debye)      :      3.33661

Rotational constants in cm-1:     0.000913     0.000278     0.000236
Rotational constants in MHz :    27.381441     8.332202     7.066734

                             ****ORCA TERMINATED NORMALLY****
TOTAL RUN TIME: 0 days 0 hours 12 minutes 22 seconds 167 msec
