                         Program Version 4.2.0 -  RELEASE  -
|  1> # ORCA input file
|  2> # SCF done       -182.160263133088          0.000742491632
|  3> ! CAM-B3LYP def2-SVP def2/J RIJCOSX Grid4 TightSCF
|  4> %maxcore 5000
|  5> %tddft
|  6>     Mode sTDDFT
|  7>     Ethresh 5.0
|  8>     maxcore 5000
|  9> end
| 10>
| 11> %pal
| 12>   nprocs 6
| 13>   end
| 14> * xyz 0 1
| 15>    C       -1.86709         2.35841        -0.20000
| 16>    O       -2.92937         1.56446        -0.37526
| 17>    C       -2.74114         0.89257        -1.52611
| 18>    C       -1.56343         1.24279        -2.09890
| 19>    C       -0.96917         2.21470        -1.23431
| 20>    C        0.29008         2.86655        -1.44435
| 21>    C        0.83208         3.79779        -0.62875
| 22>    C        2.08418         4.41799        -0.88268
| 23>    C        2.60689         5.36870        -0.06757
| 24>    C        3.84227         6.04969        -0.25421
| 25>    C        4.23224         7.05033         0.67049
| 26>    C        5.46478         7.79114         0.53435
| 27>    N        5.72337         8.80276         1.38351
| 28>    C        4.89664         9.05152         2.36643
| 29>    C        3.72201         8.25120         2.55747
| 30>    N        3.41492         7.30377         1.70511
| 31>    C        2.87294         8.49228         3.66351
| 32>    N        2.21136         8.71488         4.57296
| 33>    C        5.18619        10.12607         3.24225
| 34>    N        5.41240        10.97788         3.97495
| 35>    C        6.38335         7.53389        -0.50241
| 36>    C        5.99562         6.54922        -1.42915
| 37>    C        4.75152         5.81600        -1.31118
| 38>    N        4.61512         4.92474        -2.29459
| 39>    S        5.90277         4.99099        -3.25394
| 40>    N        6.70582         6.14817        -2.48800
| 41>    C        7.62045         8.28669        -0.61479
| 42>    C        8.30731         8.69134         0.53921
| 43>    C        9.39176         9.52135         0.42151
| 44>    C        9.83691         9.95050        -0.84185
| 45>    C        9.20282         9.49924        -1.99308
| 46>    C        8.10524         8.67286        -1.87151
| 47>    C       10.93473        10.86761        -0.65182
| 48>    C       11.16867        11.00845         0.73016
| 49>    C       10.22421        10.13457         1.52104
| 50>    C        9.34973        10.96190         2.48201
| 51>    C        8.52380        12.02471         1.76866
| 52>    C       10.98988         9.06013         2.31583
| 53>    C       11.87174         8.18566         1.43250
| 54>    C       12.13623        11.86208         1.18941
| 55>    C       12.89654        12.62274         0.27891
| 56>    C       12.66167        12.45245        -1.09743
| 57>    C       11.69841        11.58616        -1.56456
| 58>    C       13.85414        13.54947         0.80111
| 59>    C       14.57020        14.47385         0.10143
| 60>    C       15.44283        15.38081         0.72457
| 61>    C       16.13996        16.37971         0.08594
| 62>    C       16.17976        16.72478        -1.28544
| 63>    C       16.96083        17.80605        -1.56884
| 64>    C       17.58319        18.37951        -0.44065
| 65>    S       17.15405        17.48678         1.00046
| 66>    C       18.40883        19.49029        -0.39835
| 67>    C       18.82215        20.30471        -1.47381
| 68>    C       19.62778        21.33872        -1.10208
| 69>    C       19.90116        21.40428         0.28651
| 70>    S       19.08263        20.08067         1.10179
| 71>    C       20.68073        22.35365         0.89820
| 72>    C       20.99841        22.48539         2.26493
| 73>    C       20.61619        21.70280         3.35922
| 74>    C       21.20181        22.24468         4.52922
| 75>    C       21.14170        21.85110         5.84845
| 76>    C       21.85160        22.61201         6.79022
| 77>    C       21.99639        22.48320         8.16385
| 78>    C       22.83825        23.53232         8.64985
| 79>    C       23.21463        24.31373         7.57223
| 80>    C       22.62239        23.77637         6.38706
| 81>    C       22.68483        24.17261         5.07867
| 82>    C       21.97320        23.40881         4.12780
| 83>    C       21.84004        23.54164         2.76108
| 84>    C       23.19322        23.68633        10.04094
| 85>    C       23.97681        24.63959        10.53791
| 86>    H       -1.85382         2.97016         0.68002
| 87>    H       -3.50772         0.20418        -1.82187
| 88>    H       -1.15299         0.87183        -3.01512
| 89>    H        0.82697         2.57172        -2.33669
| 90>    H        0.30116         4.10242         0.26306
| 91>    H        2.62895         4.11653        -1.76591
| 92>    H        2.05587         5.67247         0.81292
| 93>    H        7.98001         8.35055         1.50810
| 94>    H        9.54613         9.80884        -2.96907
| 95>    H        7.58211         8.34172        -2.75458
| 96>    H        9.99583        11.43843         3.22222
| 97>    H        8.67569        10.28704         3.01272
| 98>    H        9.16736        12.72776         1.24347
| 99>    H        7.92399        12.57257         2.49105
|100>    H        7.85172        11.56488         1.04790
|101>    H       10.26534         8.43296         2.83927
|102>    H       11.60733         9.55592         3.06793
|103>    H       11.27403         7.67062         0.68360
|104>    H       12.38450         7.44018         2.03628
|105>    H       12.61952         8.78694         0.91984
|106>    H       12.31432        11.97797         2.24918
|107>    H       13.25088        13.01185        -1.80754
|108>    H       11.53305        11.47381        -2.62599
|109>    H       13.98532        13.52765         1.87658
|110>    H       14.45537        14.54462        -0.96975
|111>    H       15.55937        15.30340         1.79760
|112>    H       15.63268        16.17279        -2.02818
|113>    H       17.10034        18.20520        -2.55773
|114>    H       18.51596        20.11019        -2.48591
|115>    H       20.03730        22.06312        -1.78437
|116>    H       21.10820        23.10058         0.23949
|117>    H       19.98678        20.83432         3.33824
|118>    H       20.57040        20.98622         6.15433
|119>    H       21.55282        21.72047         8.77934
|120>    H       23.84526        25.18251         7.59787
|121>    H       23.25519        25.03760         4.76964
|122>    H       22.28604        24.30360         2.14635
|123>    H       22.76837        22.94472        10.70645
|124>    H       24.42168        25.39659         9.91510
|125>    H       24.20089        24.69422        11.58907
|126> *
|127>
|128>                          ****END OF INPUT****

CARTESIAN COORDINATES (ANGSTROEM)
---------------------------------
  C     -1.867090    2.358410   -0.200000
  O     -2.929370    1.564460   -0.375260
  C     -2.741140    0.892570   -1.526110
  C     -1.563430    1.242790   -2.098900
  C     -0.969170    2.214700   -1.234310
  C      0.290080    2.866550   -1.444350
  C      0.832080    3.797790   -0.628750
  C      2.084180    4.417990   -0.882680
  C      2.606890    5.368700   -0.067570
  C      3.842270    6.049690   -0.254210
  C      4.232240    7.050330    0.670490
  C      5.464780    7.791140    0.534350
  N      5.723370    8.802760    1.383510
  C      4.896640    9.051520    2.366430
  C      3.722010    8.251200    2.557470
  N      3.414920    7.303770    1.705110
  C      2.872940    8.492280    3.663510
  N      2.211360    8.714880    4.572960
  C      5.186190   10.126070    3.242250
  N      5.412400   10.977880    3.974950
  C      6.383350    7.533890   -0.502410
  C      5.995620    6.549220   -1.429150
  C      4.751520    5.816000   -1.311180
  N      4.615120    4.924740   -2.294590
  S      5.902770    4.990990   -3.253940
  N      6.705820    6.148170   -2.488000
  C      7.620450    8.286690   -0.614790
  C      8.307310    8.691340    0.539210
  C      9.391760    9.521350    0.421510
  C      9.836910    9.950500   -0.841850
  C      9.202820    9.499240   -1.993080
  C      8.105240    8.672860   -1.871510
  C     10.934730   10.867610   -0.651820
  C     11.168670   11.008450    0.730160
  C     10.224210   10.134570    1.521040
  C      9.349730   10.961900    2.482010
  C      8.523800   12.024710    1.768660
  C     10.989880    9.060130    2.315830
  C     11.871740    8.185660    1.432500
  C     12.136230   11.862080    1.189410
  C     12.896540   12.622740    0.278910
  C     12.661670   12.452450   -1.097430
  C     11.698410   11.586160   -1.564560
  C     13.854140   13.549470    0.801110
  C     14.570200   14.473850    0.101430
  C     15.442830   15.380810    0.724570
  C     16.139960   16.379710    0.085940
  C     16.179760   16.724780   -1.285440
  C     16.960830   17.806050   -1.568840
  C     17.583190   18.379510   -0.440650
  S     17.154050   17.486780    1.000460
  C     18.408830   19.490290   -0.398350
  C     18.822150   20.304710   -1.473810
  C     19.627780   21.338720   -1.102080
  C     19.901160   21.404280    0.286510
  S     19.082630   20.080670    1.101790
  C     20.680730   22.353650    0.898200
  C     20.998410   22.485390    2.264930
  C     20.616190   21.702800    3.359220
  C     21.201810   22.244680    4.529220
  C     21.141700   21.851100    5.848450
  C     21.851600   22.612010    6.790220
  C     21.996390   22.483200    8.163850
  C     22.838250   23.532320    8.649850
  C     23.214630   24.313730    7.572230
  C     22.622390   23.776370    6.387060
  C     22.684830   24.172610    5.078670
  C     21.973200   23.408810    4.127800
  C     21.840040   23.541640    2.761080
  C     23.193220   23.686330   10.040940
  C     23.976810   24.639590   10.537910
  H     -1.853820    2.970160    0.680020
  H     -3.507720    0.204180   -1.821870
  H     -1.152990    0.871830   -3.015120
  H      0.826970    2.571720   -2.336690
  H      0.301160    4.102420    0.263060
  H      2.628950    4.116530   -1.765910
  H      2.055870    5.672470    0.812920
  H      7.980010    8.350550    1.508100
  H      9.546130    9.808840   -2.969070
  H      7.582110    8.341720   -2.754580
  H      9.995830   11.438430    3.222220
  H      8.675690   10.287040    3.012720
  H      9.167360   12.727760    1.243470
  H      7.923990   12.572570    2.491050
  H      7.851720   11.564880    1.047900
  H     10.265340    8.432960    2.839270
  H     11.607330    9.555920    3.067930
  H     11.274030    7.670620    0.683600
  H     12.384500    7.440180    2.036280
  H     12.619520    8.786940    0.919840
  H     12.314320   11.977970    2.249180
  H     13.250880   13.011850   -1.807540
  H     11.533050   11.473810   -2.625990
  H     13.985320   13.527650    1.876580
  H     14.455370   14.544620   -0.969750
  H     15.559370   15.303400    1.797600
  H     15.632680   16.172790   -2.028180
  H     17.100340   18.205200   -2.557730
  H     18.515960   20.110190   -2.485910
  H     20.037300   22.063120   -1.784370
  H     21.108200   23.100580    0.239490
  H     19.986780   20.834320    3.338240
  H     20.570400   20.986220    6.154330
  H     21.552820   21.720470    8.779340
  H     23.845260   25.182510    7.597870
  H     23.255190   25.037600    4.769640
  H     22.286040   24.303600    2.146350
  H     22.768370   22.944720   10.706450
  H     24.421680   25.396590    9.915100
  H     24.200890   24.694220   11.589070

 Total Charge           Charge          ....    0
 Multiplicity           Mult            ....    1
 Number of Electrons    NEL             ....  504
 Basis Dimension        Dim             .... 1206

ORBITAL ENERGIES
----------------

  NO   OCC          E(Eh)            E(eV)
   0   2.0000     -89.042533     -2422.9705
   1   2.0000     -88.936751     -2420.0920
   2   2.0000     -88.933331     -2419.9990
   3   2.0000     -19.292075      -524.9641
   4   2.0000     -14.455701      -393.3596
   5   2.0000     -14.453788      -393.3076
   6   2.0000     -14.451158      -393.2360
   7   2.0000     -14.450196      -393.2098
   8   2.0000     -14.425038      -392.5252
   9   2.0000     -14.423485      -392.4830
  10   2.0000     -10.373552      -282.2787
  11   2.0000     -10.373027      -282.2644
  12   2.0000     -10.339206      -281.3441
  13   2.0000     -10.338900      -281.3358
  14   2.0000     -10.338124      -281.3147
  15   2.0000     -10.337536      -281.2987
  16   2.0000     -10.323288      -280.9110
  17   2.0000     -10.319910      -280.8190
  18   2.0000     -10.318540      -280.7818
  19   2.0000     -10.317192      -280.7451
  20   2.0000     -10.309260      -280.5292
  21   2.0000     -10.306506      -280.4543
  22   2.0000     -10.300942      -280.3029
  23   2.0000     -10.299741      -280.2702
  24   2.0000     -10.297996      -280.2227
  25   2.0000     -10.295582      -280.1570
  26   2.0000     -10.294073      -280.1160
  27   2.0000     -10.292071      -280.0615
  28   2.0000     -10.285696      -279.8880
  29   2.0000     -10.281275      -279.7677
  30   2.0000     -10.279609      -279.7224
  31   2.0000     -10.279208      -279.7115
  32   2.0000     -10.278101      -279.6814
  33   2.0000     -10.277829      -279.6739
  34   2.0000     -10.276125      -279.6276
  35   2.0000     -10.275922      -279.6221
  36   2.0000     -10.275744      -279.6172
  37   2.0000     -10.275391      -279.6076
  38   2.0000     -10.273851      -279.5657
  39   2.0000     -10.273649      -279.5602
  40   2.0000     -10.271717      -279.5076
  41   2.0000     -10.271485      -279.5013
  42   2.0000     -10.269305      -279.4420
  43   2.0000     -10.268790      -279.4280
  44   2.0000     -10.268473      -279.4194
  45   2.0000     -10.268278      -279.4140
  46   2.0000     -10.267945      -279.4050
  47   2.0000     -10.267384      -279.3897
  48   2.0000     -10.266120      -279.3553
  49   2.0000     -10.266013      -279.3524
  50   2.0000     -10.265103      -279.3277
  51   2.0000     -10.264561      -279.3129
  52   2.0000     -10.264454      -279.3100
  53   2.0000     -10.264365      -279.3076
  54   2.0000     -10.264070      -279.2995
  55   2.0000     -10.263718      -279.2900
  56   2.0000     -10.262896      -279.2676
  57   2.0000     -10.262797      -279.2649
  58   2.0000     -10.261871      -279.2397
  59   2.0000     -10.261168      -279.2206
  60   2.0000     -10.260515      -279.2028
  61   2.0000     -10.259673      -279.1799
  62   2.0000     -10.259251      -279.1684
  63   2.0000     -10.258628      -279.1515
  64   2.0000     -10.257891      -279.1314
  65   2.0000     -10.257562      -279.1225
  66   2.0000     -10.255961      -279.0789
  67   2.0000     -10.253036      -278.9993
  68   2.0000     -10.251136      -278.9476
  69   2.0000     -10.240080      -278.6467
  70   2.0000     -10.232226      -278.4330
  71   2.0000      -8.133851      -221.3333
  72   2.0000      -8.032559      -218.5770
  73   2.0000      -8.029929      -218.5055
  74   2.0000      -6.104909      -166.1230
  75   2.0000      -6.097074      -165.9098
  76   2.0000      -6.096755      -165.9011
  77   2.0000      -6.002270      -163.3301
  78   2.0000      -5.999705      -163.2603
  79   2.0000      -5.998253      -163.2208
  80   2.0000      -5.995686      -163.1509
  81   2.0000      -5.993592      -163.0939
  82   2.0000      -5.990716      -163.0157
  83   2.0000      -1.210400       -32.9366
  84   2.0000      -1.137830       -30.9619
  85   2.0000      -1.112651       -30.2768
  86   2.0000      -1.039790       -28.2941
  87   2.0000      -1.008078       -27.4312
  88   2.0000      -0.998519       -27.1711
  89   2.0000      -0.992490       -27.0070
  90   2.0000      -0.985646       -26.8208
  91   2.0000      -0.981433       -26.7062
  92   2.0000      -0.979975       -26.6665
  93   2.0000      -0.971528       -26.4366
  94   2.0000      -0.963901       -26.2291
  95   2.0000      -0.953095       -25.9350
  96   2.0000      -0.938263       -25.5314
  97   2.0000      -0.923951       -25.1420
  98   2.0000      -0.914677       -24.8896
  99   2.0000      -0.902765       -24.5655
 100   2.0000      -0.897354       -24.4183
 101   2.0000      -0.895664       -24.3722
 102   2.0000      -0.890503       -24.2318
 103   2.0000      -0.878864       -23.9151
 104   2.0000      -0.869349       -23.6562
 105   2.0000      -0.859405       -23.3856
 106   2.0000      -0.857328       -23.3291
 107   2.0000      -0.846748       -23.0412
 108   2.0000      -0.842129       -22.9155
 109   2.0000      -0.834939       -22.7198
 110   2.0000      -0.832870       -22.6635
 111   2.0000      -0.828774       -22.5521
 112   2.0000      -0.826875       -22.5004
 113   2.0000      -0.825520       -22.4635
 114   2.0000      -0.821511       -22.3544
 115   2.0000      -0.814883       -22.1741
 116   2.0000      -0.811696       -22.0874
 117   2.0000      -0.803198       -21.8561
 118   2.0000      -0.790811       -21.5191
 119   2.0000      -0.786568       -21.4036
 120   2.0000      -0.773834       -21.0571
 121   2.0000      -0.755365       -20.5545
 122   2.0000      -0.752466       -20.4756
 123   2.0000      -0.742563       -20.2062
 124   2.0000      -0.741075       -20.1657
 125   2.0000      -0.728157       -19.8141
 126   2.0000      -0.724521       -19.7152
 127   2.0000      -0.715067       -19.4580
 128   2.0000      -0.704473       -19.1697
 129   2.0000      -0.697809       -18.9883
 130   2.0000      -0.693730       -18.8774
 131   2.0000      -0.687817       -18.7165
 132   2.0000      -0.678974       -18.4758
 133   2.0000      -0.674902       -18.3650
 134   2.0000      -0.669360       -18.2142
 135   2.0000      -0.666274       -18.1302
 136   2.0000      -0.664036       -18.0693
 137   2.0000      -0.662866       -18.0375
 138   2.0000      -0.658456       -17.9175
 139   2.0000      -0.650651       -17.7051
 140   2.0000      -0.647937       -17.6313
 141   2.0000      -0.641905       -17.4671
 142   2.0000      -0.637118       -17.3369
 143   2.0000      -0.633233       -17.2312
 144   2.0000      -0.630257       -17.1502
 145   2.0000      -0.623621       -16.9696
 146   2.0000      -0.618997       -16.8438
 147   2.0000      -0.618227       -16.8228
 148   2.0000      -0.613680       -16.6991
 149   2.0000      -0.607085       -16.5196
 150   2.0000      -0.604761       -16.4564
 151   2.0000      -0.598406       -16.2835
 152   2.0000      -0.587847       -15.9961
 153   2.0000      -0.585892       -15.9429
 154   2.0000      -0.584940       -15.9170
 155   2.0000      -0.573947       -15.6179
 156   2.0000      -0.573323       -15.6009
 157   2.0000      -0.570602       -15.5269
 158   2.0000      -0.564241       -15.3538
 159   2.0000      -0.557468       -15.1695
 160   2.0000      -0.552818       -15.0430
 161   2.0000      -0.550310       -14.9747
 162   2.0000      -0.548660       -14.9298
 163   2.0000      -0.546457       -14.8698
 164   2.0000      -0.540896       -14.7185
 165   2.0000      -0.535233       -14.5644
 166   2.0000      -0.533618       -14.5205
 167   2.0000      -0.529026       -14.3955
 168   2.0000      -0.527946       -14.3661
 169   2.0000      -0.524664       -14.2768
 170   2.0000      -0.522284       -14.2121
 171   2.0000      -0.516423       -14.0526
 172   2.0000      -0.513221       -13.9655
 173   2.0000      -0.512909       -13.9570
 174   2.0000      -0.509145       -13.8545
 175   2.0000      -0.506718       -13.7885
 176   2.0000      -0.505605       -13.7582
 177   2.0000      -0.497788       -13.5455
 178   2.0000      -0.496180       -13.5018
 179   2.0000      -0.494088       -13.4448
 180   2.0000      -0.490287       -13.3414
 181   2.0000      -0.490201       -13.3390
 182   2.0000      -0.485730       -13.2174
 183   2.0000      -0.485524       -13.2118
 184   2.0000      -0.483936       -13.1686
 185   2.0000      -0.481067       -13.0905
 186   2.0000      -0.478960       -13.0332
 187   2.0000      -0.477438       -12.9918
 188   2.0000      -0.476888       -12.9768
 189   2.0000      -0.473230       -12.8772
 190   2.0000      -0.472947       -12.8696
 191   2.0000      -0.463926       -12.6241
 192   2.0000      -0.463210       -12.6046
 193   2.0000      -0.461420       -12.5559
 194   2.0000      -0.461294       -12.5525
 195   2.0000      -0.460674       -12.5356
 196   2.0000      -0.457875       -12.4594
 197   2.0000      -0.456125       -12.4118
 198   2.0000      -0.454144       -12.3579
 199   2.0000      -0.451151       -12.2764
 200   2.0000      -0.450516       -12.2592
 201   2.0000      -0.448983       -12.2174
 202   2.0000      -0.448516       -12.2047
 203   2.0000      -0.444503       -12.0955
 204   2.0000      -0.444024       -12.0825
 205   2.0000      -0.439530       -11.9602
 206   2.0000      -0.438126       -11.9220
 207   2.0000      -0.437146       -11.8954
 208   2.0000      -0.436080       -11.8663
 209   2.0000      -0.434046       -11.8110
 210   2.0000      -0.432999       -11.7825
 211   2.0000      -0.430069       -11.7028
 212   2.0000      -0.428729       -11.6663
 213   2.0000      -0.423034       -11.5113
 214   2.0000      -0.420386       -11.4393
 215   2.0000      -0.418046       -11.3756
 216   2.0000      -0.416857       -11.3433
 217   2.0000      -0.415075       -11.2948
 218   2.0000      -0.414411       -11.2767
 219   2.0000      -0.411457       -11.1963
 220   2.0000      -0.409541       -11.1442
 221   2.0000      -0.408726       -11.1220
 222   2.0000      -0.405848       -11.0437
 223   2.0000      -0.403141       -10.9700
 224   2.0000      -0.399695       -10.8762
 225   2.0000      -0.398348       -10.8396
 226   2.0000      -0.396532       -10.7902
 227   2.0000      -0.387743       -10.5510
 228   2.0000      -0.387366       -10.5408
 229   2.0000      -0.382213       -10.4005
 230   2.0000      -0.379444       -10.3252
 231   2.0000      -0.375231       -10.2106
 232   2.0000      -0.374239       -10.1836
 233   2.0000      -0.371915       -10.1203
 234   2.0000      -0.366324        -9.9682
 235   2.0000      -0.360442        -9.8081
 236   2.0000      -0.352535        -9.5930
 237   2.0000      -0.346145        -9.4191
 238   2.0000      -0.343142        -9.3374
 239   2.0000      -0.330488        -8.9930
 240   2.0000      -0.328371        -8.9354
 241   2.0000      -0.319888        -8.7046
 242   2.0000      -0.314607        -8.5609
 243   2.0000      -0.312944        -8.5156
 244   2.0000      -0.305821        -8.3218
 245   2.0000      -0.302705        -8.2370
 246   2.0000      -0.288838        -7.8597
 247   2.0000      -0.267760        -7.2861
 248   2.0000      -0.262249        -7.1362
 249   2.0000      -0.245117        -6.6700
 250   2.0000      -0.234941        -6.3931
 251   2.0000      -0.192338        -5.2338
 252   0.0000      -0.114396        -3.1129
 253   0.0000      -0.092965        -2.5297
 254   0.0000      -0.066570        -1.8115
 255   0.0000      -0.045698        -1.2435
 256   0.0000      -0.034796        -0.9468

MULLIKEN ATOMIC CHARGES
-----------------------
   0 C :    0.076898
   1 O :   -0.175352
   2 C :    0.132888
   3 C :   -0.039088
   4 C :    0.039862
   5 C :    0.037551
   6 C :    0.018229
   7 C :    0.051658
   8 C :   -0.103253
   9 C :    0.113249
  10 C :   -0.048998
  11 C :   -0.071464
  12 N :    0.047305
  13 C :   -0.146392
  14 C :   -0.136982
  15 N :    0.057564
  16 C :   -0.211631
  17 N :    0.229199
  18 C :   -0.198097
  19 N :    0.226821
  20 C :    0.101098
  21 C :   -0.001448
  22 C :    0.010052
  23 N :   -0.288892
  24 S :    0.539159
  25 N :   -0.275907
  26 C :   -0.003256
  27 C :   -0.026176
  28 C :   -0.019223
  29 C :    0.128356
  30 C :   -0.063895
  31 C :    0.025664
  32 C :    0.101713
  33 C :    0.023974
  34 C :   -0.139508
  35 C :    0.065223
  36 C :    0.026380
  37 C :    0.071695
  38 C :    0.023916
  39 C :   -0.111112
  40 C :    0.134465
  41 C :   -0.013466
  42 C :   -0.042021
  43 C :   -0.021172
  44 C :    0.026314
  45 C :    0.024552
  46 C :   -0.049585
  47 C :    0.025099
  48 C :    0.019748
  49 C :   -0.050258
  50 S :    0.084433
  51 C :   -0.032593
  52 C :    0.021940
  53 C :    0.032992
  54 C :   -0.022120
  55 S :    0.053926
  56 C :   -0.016211
  57 C :    0.059832
  58 C :   -0.042471
  59 C :    0.049358
  60 C :   -0.000816
  61 C :    0.060461
  62 C :   -0.030081
  63 C :    0.062743
  64 C :   -0.027981
  65 C :    0.047314
  66 C :   -0.001417
  67 C :    0.060741
  68 C :   -0.036314
  69 C :    0.007248
  70 C :   -0.017167
  71 H :    0.010927
  72 H :    0.012451
  73 H :   -0.013552
  74 H :   -0.016948
  75 H :   -0.014150
  76 H :    0.008630
  77 H :   -0.006910
  78 H :   -0.039626
  79 H :   -0.038795
  80 H :   -0.024501
  81 H :   -0.003426
  82 H :   -0.000250
  83 H :    0.015371
  84 H :    0.018426
  85 H :    0.018782
  86 H :   -0.003514
  87 H :   -0.001920
  88 H :    0.019746
  89 H :    0.006731
  90 H :    0.021744
  91 H :   -0.041393
  92 H :   -0.037937
  93 H :   -0.039453
  94 H :   -0.027350
  95 H :   -0.015577
  96 H :   -0.021113
  97 H :   -0.017224
  98 H :   -0.017473
  99 H :   -0.019453
 100 H :   -0.017093
 101 H :   -0.028511
 102 H :   -0.013789
 103 H :   -0.025850
 104 H :   -0.023541
 105 H :   -0.031224
 106 H :   -0.027276
 107 H :   -0.024525
 108 H :   -0.022032
 109 H :    0.007722
 110 H :    0.018601
Sum of atomic charges:   -0.0000000

LOEWDIN ATOMIC CHARGES
----------------------
   0 C :    0.043273
   1 O :    0.030253
   2 C :    0.031618
   3 C :   -0.067417
   4 C :   -0.083519
   5 C :    0.004390
   6 C :   -0.027864
   7 C :    0.012811
   8 C :   -0.036967
   9 C :   -0.015152
  10 C :   -0.012153
  11 C :   -0.010660
  12 N :    0.011636
  13 C :   -0.034987
  14 C :   -0.036070
  15 N :    0.005045
  16 C :   -0.036824
  17 N :   -0.011938
  18 C :   -0.033310
  19 N :   -0.011968
  20 C :   -0.012284
  21 C :   -0.040573
  22 C :   -0.039459
  23 N :   -0.279710
  24 S :    0.671121
  25 N :   -0.275580
  26 C :   -0.025910
  27 C :    0.001643
  28 C :   -0.003007
  29 C :   -0.004484
  30 C :   -0.027396
  31 C :   -0.001383
  32 C :   -0.023351
  33 C :    0.006866
  34 C :   -0.035600
  35 C :   -0.010743
  36 C :   -0.057942
  37 C :   -0.010990
  38 C :   -0.058461
  39 C :   -0.022088
  40 C :   -0.020499
  41 C :   -0.018222
  42 C :   -0.015954
  43 C :   -0.024749
  44 C :   -0.021949
  45 C :   -0.056276
  46 C :   -0.147154
  47 C :   -0.043939
  48 C :   -0.027133
  49 C :   -0.185313
  50 S :    0.367119
  51 C :   -0.177752
  52 C :   -0.045774
  53 C :   -0.030477
  54 C :   -0.153947
  55 S :    0.381826
  56 C :   -0.049163
  57 C :   -0.069230
  58 C :   -0.002996
  59 C :   -0.058530
  60 C :    0.069124
  61 C :   -0.067605
  62 C :    0.039123
  63 C :   -0.062670
  64 C :    0.019006
  65 C :   -0.058016
  66 C :    0.073025
  67 C :   -0.067677
  68 C :    0.044425
  69 C :   -0.025005
  70 C :   -0.048346
  71 H :    0.022237
  72 H :    0.023110
  73 H :    0.029685
  74 H :    0.030953
  75 H :    0.026507
  76 H :    0.027456
  77 H :    0.030796
  78 H :    0.021748
  79 H :    0.025626
  80 H :    0.025014
  81 H :    0.019551
  82 H :    0.020625
  83 H :    0.023155
  84 H :    0.027438
  85 H :    0.024238
  86 H :    0.019350
  87 H :    0.020069
  88 H :    0.024596
  89 H :    0.022969
  90 H :    0.025527
  91 H :    0.023617
  92 H :    0.023092
  93 H :    0.025815
  94 H :    0.025791
  95 H :    0.022852
  96 H :    0.027869
  97 H :    0.029695
  98 H :    0.030895
  99 H :    0.029331
 100 H :    0.031530
 101 H :    0.031777
 102 H :    0.012270
 103 H :    0.034557
 104 H :    0.024742
 105 H :    0.022309
 106 H :    0.033830
 107 H :    0.024405
 108 H :    0.026843
 109 H :    0.018514
 110 H :    0.023479

  Mayer bond orders larger than 0.100000
B(  0-C ,  1-O ) :   1.1815 B(  0-C ,  4-C ) :   1.4968 B(  0-C , 71-H ) :   1.0027
B(  1-O ,  2-C ) :   1.1425 B(  2-C ,  3-C ) :   1.5781 B(  2-C , 72-H ) :   1.0015
B(  3-C ,  4-C ) :   1.2057 B(  3-C , 73-H ) :   1.0100 B(  4-C ,  5-C ) :   1.0738
B(  5-C ,  6-C ) :   1.6650 B(  5-C , 74-H ) :   0.9818 B(  6-C ,  7-C ) :   1.1321
B(  6-C , 75-H ) :   0.9867 B(  7-C ,  8-C ) :   1.5569 B(  7-C , 76-H ) :   0.9700
B(  8-C ,  9-C ) :   1.1890 B(  8-C , 77-H ) :   0.9695 B(  9-C , 10-C ) :   1.2455
B(  9-C , 20-C ) :   0.1307 B(  9-C , 22-C ) :   1.1748 B( 10-C , 11-C ) :   1.0958
B( 10-C , 15-N ) :   1.4454 B( 11-C , 12-N ) :   1.4111 B( 11-C , 20-C ) :   1.3180
B( 12-N , 13-C ) :   1.7518 B( 13-C , 14-C ) :   1.1878 B( 13-C , 18-C ) :   1.1618
B( 14-C , 15-N ) :   1.7486 B( 14-C , 16-C ) :   1.1513 B( 16-C , 17-N ) :   3.0462
B( 18-C , 19-N ) :   3.0139 B( 20-C , 21-C ) :   1.2309 B( 20-C , 26-C ) :   1.0156
B( 21-C , 22-C ) :   1.1023 B( 21-C , 25-N ) :   1.5031 B( 22-C , 23-N ) :   1.5031
B( 23-N , 24-S ) :   1.2759 B( 23-N , 25-N ) :   0.1548 B( 24-S , 25-N ) :   1.2896
B( 26-C , 27-C ) :   1.2972 B( 26-C , 31-C ) :   1.3638 B( 27-C , 28-C ) :   1.4246
B( 27-C , 78-H ) :   0.9893 B( 28-C , 29-C ) :   1.3549 B( 28-C , 34-C ) :   0.9097
B( 29-C , 30-C ) :   1.3275 B( 29-C , 32-C ) :   1.0042 B( 30-C , 31-C ) :   1.3901
B( 30-C , 79-H ) :   0.9929 B( 31-C , 80-H ) :   0.9789 B( 32-C , 33-C ) :   1.3619
B( 32-C , 42-C ) :   1.3199 B( 33-C , 34-C ) :   0.9153 B( 33-C , 39-C ) :   1.3879
B( 34-C , 35-C ) :   1.0437 B( 34-C , 37-C ) :   1.0336 B( 35-C , 36-C ) :   1.1051
B( 35-C , 81-H ) :   0.9382 B( 35-C , 82-H ) :   0.9369 B( 36-C , 83-H ) :   0.9639
B( 36-C , 84-H ) :   0.9627 B( 36-C , 85-H ) :   0.9616 B( 37-C , 38-C ) :   1.1008
B( 37-C , 86-H ) :   0.9399 B( 37-C , 87-H ) :   0.9403 B( 38-C , 88-H ) :   0.9643
B( 38-C , 89-H ) :   0.9637 B( 38-C , 90-H ) :   0.9646 B( 39-C , 40-C ) :   1.2743
B( 39-C , 91-H ) :   1.0132 B( 40-C , 41-C ) :   1.3292 B( 40-C , 43-C ) :   1.0769
B( 41-C , 42-C ) :   1.4126 B( 41-C , 92-H ) :   0.9831 B( 42-C , 93-H ) :   0.9890
B( 43-C , 44-C ) :   1.6312 B( 43-C , 94-H ) :   0.9884 B( 44-C , 45-C ) :   1.2001
B( 44-C , 95-H ) :   0.9644 B( 45-C , 46-C ) :   1.5261 B( 45-C , 96-H ) :   0.9702
B( 46-C , 47-C ) :   1.1628 B( 46-C , 50-S ) :   1.0347 B( 47-C , 48-C ) :   1.5934
B( 47-C , 97-H ) :   0.9897 B( 48-C , 49-C ) :   1.1987 B( 48-C , 98-H ) :   0.9926
B( 49-C , 50-S ) :   1.0468 B( 49-C , 51-C ) :   1.4905 B( 51-C , 52-C ) :   1.1936
B( 51-C , 55-S ) :   1.0448 B( 52-C , 53-C ) :   1.5817 B( 52-C , 99-H ) :   0.9928
B( 53-C , 54-C ) :   1.1482 B( 53-C ,100-H ) :   0.9984 B( 54-C , 55-S ) :   1.0291
B( 54-C , 56-C ) :   1.5690 B( 56-C , 57-C ) :   1.1377 B( 56-C ,101-H ) :   0.9682
B( 57-C , 58-C ) :   1.4312 B( 57-C , 68-C ) :   1.1314 B( 58-C , 59-C ) :   1.1436
B( 58-C ,102-H ) :   0.9959 B( 59-C , 60-C ) :   1.4217 B( 59-C , 67-C ) :   1.1319
B( 60-C , 61-C ) :   1.1468 B( 60-C ,103-H ) :   1.0047 B( 61-C , 62-C ) :   1.4006
B( 61-C , 65-C ) :   1.1281 B( 62-C , 63-C ) :   1.1597 B( 62-C ,104-H ) :   1.0123
B( 63-C , 64-C ) :   1.5016 B( 63-C , 69-C ) :   1.0738 B( 64-C , 65-C ) :   1.1066
B( 64-C ,105-H ) :   1.0109 B( 65-C , 66-C ) :   1.4532 B( 66-C , 67-C ) :   1.1244
B( 66-C ,106-H ) :   1.0045 B( 67-C , 68-C ) :   1.4241 B( 68-C ,107-H ) :   1.0151
B( 69-C , 70-C ) :   1.9486 B( 69-C ,108-H ) :   0.9650 B( 70-C ,109-H ) :   0.9523
B( 70-C ,110-H ) :   0.9484

-----------------------------------------------------------------------------
         ABSORPTION SPECTRUM VIA TRANSITION ELECTRIC DIPOLE MOMENTS
-----------------------------------------------------------------------------
State   Energy  Wavelength   fosc         T2         TX        TY        TZ
        (cm-1)    (nm)                  (au**2)     (au)      (au)      (au)
-----------------------------------------------------------------------------
   0    5912.1   1691.4   0.059783568   3.32901   1.12384   1.15052   0.86156
   1    8932.8   1119.5   0.641681115  23.64868   3.68101   3.14649   0.44549
   2   12437.4    804.0   0.190016756   5.02965  -1.85539  -1.25688  -0.08616
   3   14000.3    714.3   0.940370136  22.11253   2.87197   3.30074   1.72320
   4   14752.8    677.8   0.859561057  19.18123   2.74062   3.20790   1.17455
   5   18861.2    530.2   0.025936713   0.45271   0.03933   0.25922   0.61965
   6   22158.9    451.3   0.159055023   2.36306  -0.67466  -0.57936  -1.25389
   7   22791.6    438.8   0.035763915   0.51659  -0.24280  -0.53631   0.41232
   8   23064.3    433.6   0.030050073   0.42892  -0.31866  -0.45821   0.34267
   9   23284.9    429.5   0.001438965   0.02034   0.11422  -0.07206   0.04590
  10   23841.0    419.4   0.112985471   1.56018   0.34863   0.01673  -1.19932
  11   24828.6    402.8   0.418784820   5.55282  -1.61515  -1.31682   1.10004
  12   25205.1    396.7   0.068202819   0.89082  -0.00119   0.06482  -0.94160
  13   25834.2    387.1   0.377618902   4.81209   0.43173   0.81912  -1.98865
  14   26460.1    377.9   0.053865828   0.67019   0.46641   0.66981  -0.06322
  15   26589.7    376.1   0.027347138   0.33859   0.29938   0.15761  -0.47341
  16   27253.4    366.9   0.002599031   0.03140   0.07927  -0.12245   0.10059
  17   27354.7    365.6   0.003251536   0.03913   0.07582   0.08711   0.16061
  18   27589.1    362.5   0.016549004   0.19747   0.08361   0.35992  -0.24685
  19   28378.0    352.4   0.092323767   1.07105  -0.16274  -0.28685   0.98096
  20   28691.0    348.5   0.014938702   0.17141   0.21547   0.24804  -0.25192
  21   29479.4    339.2   0.037496609   0.41874  -0.08250  -0.15857   0.62193
  22   29609.2    337.7   0.794240604   8.83083  -2.19977  -1.22339  -1.57961
  23   30055.0    332.7   0.029835359   0.32681   0.16353   0.23720   0.49376
  24   30456.5    328.3   0.023011424   0.24874  -0.11185   0.08664   0.47825
  25   30795.6    324.7   0.000315351   0.00337  -0.05689  -0.00707   0.00923
  26   32003.2    312.5   0.013877273   0.14275   0.15981   0.30413  -0.15722
  27   32076.8    311.8   0.150392260   1.54351   0.37881   0.99030  -0.64755
  28   32146.4    311.1   0.019718166   0.20193  -0.33910   0.23507  -0.17801
  29   32463.2    308.0   0.270482029   2.74298   0.12585   1.14631   1.18875
  30   32521.3    307.5   0.389088561   3.93873   0.77762   1.06658   1.48204
  31   32839.8    304.5   0.585954427   5.87406   1.13888  -0.83363  -1.97030
  32   32921.0    303.8   0.038727897   0.38728  -0.24783   0.08837   0.56396
  33   33491.9    298.6   0.257398010   2.53012   1.24250   0.98624   0.11673
  34   34000.8    294.1   0.351927011   3.40753   0.27788   0.69027   1.68933
  35   34120.3    293.1   0.020550110   0.19828   0.23615   0.11487  -0.35961
  36   34334.2    291.3   0.037904435   0.36345   0.53999  -0.21498   0.16012
  37   35314.7    283.2   0.123395581   1.15032   0.05480   0.19596  -1.05305
  38   35688.3    280.2   0.263435858   2.43010   0.06907   0.38878   1.50804
  39   35976.4    278.0   0.017928149   0.16406   0.22256   0.27676  -0.19474
  40   36311.1    275.4   0.097714972   0.88593  -0.64824  -0.25958  -0.63113
  41   36683.7    272.6   0.052444754   0.47066   0.34901   0.10630   0.58099
  42   37423.4    267.2   0.018654506   0.16410   0.10879   0.27953  -0.27227
  43   37589.2    266.0   0.010352064   0.09067  -0.00373  -0.20378  -0.22164
  44   37625.5    265.8   0.007672533   0.06713   0.02408   0.18396  -0.18086
  45   37736.1    265.0   0.007940057   0.06927  -0.12695   0.07244   0.21888
  46   37857.2    264.2   0.066320500   0.57673  -0.30586   0.06362   0.69220
  47   38174.2    262.0   0.025879613   0.22318   0.16799   0.03150  -0.44042
  48   38522.6    259.6   0.012548389   0.10724   0.03704   0.28823  -0.15096
  49   38705.5    258.4   0.031874263   0.27111  -0.24404   0.09510  -0.45001
  50   38876.9    257.2   0.021673899   0.18354  -0.09054  -0.06587  -0.41352
  51   39147.3    255.4   0.012877065   0.10829  -0.10181  -0.17038   0.26248
  52   39591.3    252.6   0.073093986   0.60779  -0.29539  -0.26399  -0.67145
  53   39781.7    251.4   0.042001254   0.34758  -0.04782  -0.19672   0.55371
  54   40069.5    249.6   0.009025007   0.07415   0.11654   0.10347  -0.22329
  55   40191.0    248.8   0.018396912   0.15069   0.16688   0.05459   0.34621
  56   40298.6    248.1   0.024461326   0.19983  -0.20247   0.00812   0.39846

FINAL SINGLE POINT ENERGY     -3942.787362058865

DIPOLE MOMENT
-------------
                                X             Y             Z
Electronic contribution:    -40.95882     -25.25712     -19.31376
Nuclear contribution   :     41.68360      24.05413      16.42397
                        -----------------------------------------
Total Dipole Moment    :      0.72478      -1.20298      -2.88979
                        -----------------------------------------
Magnitude (a.u.)       :      3.21300
Magnitude (Debye)      :      8.16679

Rotational constants in cm-1:     0.002344     0.000153     0.000146
Rotational constants in MHz :    70.282886     4.575133     4.376031

                             ****ORCA TERMINATED NORMALLY****
TOTAL RUN TIME: 0 days 0 hours 13 minutes 55 seconds 546 msec
