                         Program Version 4.2.0 -  RELEASE  -
|  1> # ORCA input file
|  2> # SCF done       -186.501699816469          0.000330008761
|  3> ! CAM-B3LYP def2-SVP def2/J RIJCOSX Grid4 TightSCF
|  4> %maxcore 5000
|  5> %tddft
|  6>     Mode sTDDFT
|  7>     Ethresh 5.0
|  8>     maxcore 5000
|  9> end
| 10>
| 11> %pal
| 12>   nprocs 6
| 13>   end
| 14> * xyz 0 1
| 15>    C       -4.50900        -2.00814         0.35690
| 16>    C       -3.74746        -2.53811        -0.65293
| 17>    C       -3.12247        -3.80115        -0.59436
| 18>    N       -2.59796        -4.82229        -0.61650
| 19>    C       -3.47005        -1.90797        -1.88403
| 20>    N       -3.17918        -1.46412        -2.90267
| 21>    C       -4.73282        -2.61595         1.66169
| 22>    C       -5.52672        -1.73975         2.44391
| 23>    C       -5.89645        -2.02923         3.73526
| 24>    C       -5.45802        -3.23730         4.28496
| 25>    C       -4.67006        -4.10873         3.49501
| 26>    C       -4.29911        -3.81847         2.18765
| 27>    S       -4.25025        -5.54510         4.37341
| 28>    C       -5.11215        -4.97797         5.76173
| 29>    C       -5.69068        -3.77029         5.58402
| 30>    C       -5.87478        -0.55079         1.65038
| 31>    O       -6.67451         0.30937         1.96123
| 32>    C       -5.16688        -0.71500         0.35071
| 33>    C       -5.25805         0.14578        -0.70223
| 34>    C       -5.67558         1.50205        -0.60857
| 35>    C       -5.42626         2.29936         0.52987
| 36>    C       -5.98504         3.62251         0.66552
| 37>    N       -5.79266         4.29566         1.81129
| 38>    C       -5.11249         3.74474         2.78347
| 39>    C       -4.44879         2.48871         2.58845
| 40>    N       -4.60333         1.82404         1.47348
| 41>    C       -3.59315         1.96359         3.58722
| 42>    N       -2.93628         1.53862         4.42436
| 43>    C       -4.98155         4.43392         4.01399
| 44>    N       -4.86967         4.95736         5.02702
| 45>    C       -6.72306         4.23703        -0.37211
| 46>    C       -6.81388         3.50422        -1.57334
| 47>    C       -6.31205         2.15206        -1.68273
| 48>    N       -6.58027         1.61251        -2.87123
| 49>    S       -7.36264         2.68884        -3.76716
| 50>    N       -7.42514         3.88404        -2.70137
| 51>    C       -7.40311         5.50638        -0.20117
| 52>    C       -7.54109         6.37791        -1.29453
| 53>    C       -8.21749         7.55932        -1.13293
| 54>    C       -8.77609         7.90465         0.11125
| 55>    C       -8.64251         7.05181         1.19809
| 56>    C       -7.96244         5.86328         1.03460
| 57>    C       -9.45459         9.17288        -0.02560
| 58>    C       -9.31971         9.61421        -1.35436
| 59>    C       -8.50282         8.63002        -2.16010
| 60>    C       -7.20153         9.27196        -2.67690
| 61>    C       -6.34811         9.86283        -1.56118
| 62>    C       -9.30374         8.06288        -3.34670
| 63>    C      -10.59826         7.38453        -2.91545
| 64>    C       -9.89866        10.78976        -1.76550
| 65>    C      -10.63191        11.55827        -0.84947
| 66>    C      -10.75182        11.10412         0.47156
| 67>    C      -10.17120         9.92625         0.89316
| 68>    C      -11.29612        12.79387        -1.20868
| 69>    C      -11.17527        13.47005        -2.36163
| 70>    C      -11.85961        14.70397        -2.68039
| 71>    C      -13.10966        15.04702        -2.35320
| 72>    C      -14.08747        14.16166        -1.64487
| 73>    C      -13.69583        16.39368        -2.72758
| 74>    N      -12.76227        17.37327        -3.21361
| 75>    C      -12.34565        17.47085        -4.49674
| 76>    C      -12.78690        16.73537        -5.54707
| 77>    C      -12.33859        16.97941        -6.86873
| 78>    S      -12.91975        16.01558        -8.19988
| 79>    C      -11.44738        17.93011        -7.34533
| 80>    N      -10.72735        18.90685        -6.72464
| 81>    C      -10.02619        19.56490        -7.56061
| 82>    S      -10.13427        19.08832        -9.25577
| 83>    C      -11.25882        17.86235        -8.75854
| 84>    C      -11.97648        16.88417        -9.39900
| 85>    C      -12.00413        16.57044       -10.79231
| 86>    C      -12.72924        15.59674       -11.34203
| 87>    H       -6.50088        -1.34091         4.30550
| 88>    H       -3.70039        -4.51665         1.62686
| 89>    H       -5.13183        -5.59460         6.63929
| 90>    H       -6.26477        -3.26071         6.33651
| 91>    H       -5.01372        -0.19018        -1.70159
| 92>    H       -7.10408         6.11261        -2.24336
| 93>    H       -9.07750         7.30249         2.15369
| 94>    H       -7.88829         5.17761         1.86283
| 95>    H       -7.45898        10.05723        -3.39102
| 96>    H       -6.62656         8.51142        -3.20913
| 97>    H       -6.89229        10.64164        -1.03131
| 98>    H       -5.44100        10.29759        -1.97477
| 99>    H       -6.06567         9.09448        -0.84500
|100>    H       -8.67849         7.34114        -3.87575
|101>    H       -9.53280         8.87836        -4.03611
|102>    H      -10.38833         6.54051        -2.26266
|103>    H      -11.13695         7.01958        -3.78684
|104>    H      -11.23952         8.08255        -2.38127
|105>    H       -9.80226        11.11590        -2.78982
|106>    H      -11.31721        11.69902         1.17513
|107>    H      -10.27774         9.59548         1.91532
|108>    H      -11.91835        13.21144        -0.42893
|109>    H      -10.47929        13.13196        -3.11831
|110>    H      -11.27942        15.39156        -3.28470
|111>    H      -13.81624        13.11537        -1.75701
|112>    H      -15.08761        14.31465        -2.04851
|113>    H      -14.12382        14.39653        -0.58082
|114>    H      -14.18672        16.80941        -1.84004
|115>    H      -14.47180        16.25001        -3.48722
|116>    H      -12.21264        17.84716        -2.51557
|117>    H      -11.61679        18.24756        -4.68319
|118>    H      -13.49162        15.92819        -5.42219
|119>    H       -9.38382        20.37856        -7.28656
|120>    H      -11.37076        17.20249       -11.40294
|121>    H      -13.36146        14.96398       -10.74118
|122>    H      -12.71056        15.40794       -12.39991
|123> *
|124>
|125>                          ****END OF INPUT****

CARTESIAN COORDINATES (ANGSTROEM)
---------------------------------
  C     -4.509000   -2.008140    0.356900
  C     -3.747460   -2.538110   -0.652930
  C     -3.122470   -3.801150   -0.594360
  N     -2.597960   -4.822290   -0.616500
  C     -3.470050   -1.907970   -1.884030
  N     -3.179180   -1.464120   -2.902670
  C     -4.732820   -2.615950    1.661690
  C     -5.526720   -1.739750    2.443910
  C     -5.896450   -2.029230    3.735260
  C     -5.458020   -3.237300    4.284960
  C     -4.670060   -4.108730    3.495010
  C     -4.299110   -3.818470    2.187650
  S     -4.250250   -5.545100    4.373410
  C     -5.112150   -4.977970    5.761730
  C     -5.690680   -3.770290    5.584020
  C     -5.874780   -0.550790    1.650380
  O     -6.674510    0.309370    1.961230
  C     -5.166880   -0.715000    0.350710
  C     -5.258050    0.145780   -0.702230
  C     -5.675580    1.502050   -0.608570
  C     -5.426260    2.299360    0.529870
  C     -5.985040    3.622510    0.665520
  N     -5.792660    4.295660    1.811290
  C     -5.112490    3.744740    2.783470
  C     -4.448790    2.488710    2.588450
  N     -4.603330    1.824040    1.473480
  C     -3.593150    1.963590    3.587220
  N     -2.936280    1.538620    4.424360
  C     -4.981550    4.433920    4.013990
  N     -4.869670    4.957360    5.027020
  C     -6.723060    4.237030   -0.372110
  C     -6.813880    3.504220   -1.573340
  C     -6.312050    2.152060   -1.682730
  N     -6.580270    1.612510   -2.871230
  S     -7.362640    2.688840   -3.767160
  N     -7.425140    3.884040   -2.701370
  C     -7.403110    5.506380   -0.201170
  C     -7.541090    6.377910   -1.294530
  C     -8.217490    7.559320   -1.132930
  C     -8.776090    7.904650    0.111250
  C     -8.642510    7.051810    1.198090
  C     -7.962440    5.863280    1.034600
  C     -9.454590    9.172880   -0.025600
  C     -9.319710    9.614210   -1.354360
  C     -8.502820    8.630020   -2.160100
  C     -7.201530    9.271960   -2.676900
  C     -6.348110    9.862830   -1.561180
  C     -9.303740    8.062880   -3.346700
  C    -10.598260    7.384530   -2.915450
  C     -9.898660   10.789760   -1.765500
  C    -10.631910   11.558270   -0.849470
  C    -10.751820   11.104120    0.471560
  C    -10.171200    9.926250    0.893160
  C    -11.296120   12.793870   -1.208680
  C    -11.175270   13.470050   -2.361630
  C    -11.859610   14.703970   -2.680390
  C    -13.109660   15.047020   -2.353200
  C    -14.087470   14.161660   -1.644870
  C    -13.695830   16.393680   -2.727580
  N    -12.762270   17.373270   -3.213610
  C    -12.345650   17.470850   -4.496740
  C    -12.786900   16.735370   -5.547070
  C    -12.338590   16.979410   -6.868730
  S    -12.919750   16.015580   -8.199880
  C    -11.447380   17.930110   -7.345330
  N    -10.727350   18.906850   -6.724640
  C    -10.026190   19.564900   -7.560610
  S    -10.134270   19.088320   -9.255770
  C    -11.258820   17.862350   -8.758540
  C    -11.976480   16.884170   -9.399000
  C    -12.004130   16.570440  -10.792310
  C    -12.729240   15.596740  -11.342030
  H     -6.500880   -1.340910    4.305500
  H     -3.700390   -4.516650    1.626860
  H     -5.131830   -5.594600    6.639290
  H     -6.264770   -3.260710    6.336510
  H     -5.013720   -0.190180   -1.701590
  H     -7.104080    6.112610   -2.243360
  H     -9.077500    7.302490    2.153690
  H     -7.888290    5.177610    1.862830
  H     -7.458980   10.057230   -3.391020
  H     -6.626560    8.511420   -3.209130
  H     -6.892290   10.641640   -1.031310
  H     -5.441000   10.297590   -1.974770
  H     -6.065670    9.094480   -0.845000
  H     -8.678490    7.341140   -3.875750
  H     -9.532800    8.878360   -4.036110
  H    -10.388330    6.540510   -2.262660
  H    -11.136950    7.019580   -3.786840
  H    -11.239520    8.082550   -2.381270
  H     -9.802260   11.115900   -2.789820
  H    -11.317210   11.699020    1.175130
  H    -10.277740    9.595480    1.915320
  H    -11.918350   13.211440   -0.428930
  H    -10.479290   13.131960   -3.118310
  H    -11.279420   15.391560   -3.284700
  H    -13.816240   13.115370   -1.757010
  H    -15.087610   14.314650   -2.048510
  H    -14.123820   14.396530   -0.580820
  H    -14.186720   16.809410   -1.840040
  H    -14.471800   16.250010   -3.487220
  H    -12.212640   17.847160   -2.515570
  H    -11.616790   18.247560   -4.683190
  H    -13.491620   15.928190   -5.422190
  H     -9.383820   20.378560   -7.286560
  H    -11.370760   17.202490  -11.402940
  H    -13.361460   14.963980  -10.741180
  H    -12.710560   15.407940  -12.399910

 Total Charge           Charge          ....    0
 Multiplicity           Mult            ....    1
 Number of Electrons    NEL             ....  520
 Basis Dimension        Dim             .... 1204

ORBITAL ENERGIES
----------------

  NO   OCC          E(Eh)            E(eV)
   0   2.0000     -89.052769     -2423.2490
   1   2.0000     -88.965792     -2420.8823
   2   2.0000     -88.945030     -2420.3173
   3   2.0000     -88.941626     -2420.2247
   4   2.0000     -19.217402      -522.9321
   5   2.0000     -14.463617      -393.5750
   6   2.0000     -14.461729      -393.5236
   7   2.0000     -14.461554      -393.5189
   8   2.0000     -14.457213      -393.4008
   9   2.0000     -14.432982      -392.7414
  10   2.0000     -14.432881      -392.7387
  11   2.0000     -14.430203      -392.6658
  12   2.0000     -14.415059      -392.2537
  13   2.0000     -14.414972      -392.2513
  14   2.0000     -14.405907      -392.0047
  15   2.0000     -10.384374      -282.5732
  16   2.0000     -10.381523      -282.4956
  17   2.0000     -10.369395      -282.1656
  18   2.0000     -10.354198      -281.7520
  19   2.0000     -10.351016      -281.6655
  20   2.0000     -10.349198      -281.6160
  21   2.0000     -10.348879      -281.6073
  22   2.0000     -10.343127      -281.4508
  23   2.0000     -10.340727      -281.3855
  24   2.0000     -10.331644      -281.1383
  25   2.0000     -10.325866      -280.9811
  26   2.0000     -10.324001      -280.9303
  27   2.0000     -10.323668      -280.9213
  28   2.0000     -10.320202      -280.8270
  29   2.0000     -10.317529      -280.7542
  30   2.0000     -10.317434      -280.7516
  31   2.0000     -10.316584      -280.7285
  32   2.0000     -10.314010      -280.6585
  33   2.0000     -10.313449      -280.6432
  34   2.0000     -10.311626      -280.5936
  35   2.0000     -10.306238      -280.4470
  36   2.0000     -10.304470      -280.3989
  37   2.0000     -10.303662      -280.3769
  38   2.0000     -10.302675      -280.3501
  39   2.0000     -10.301276      -280.3120
  40   2.0000     -10.298864      -280.2463
  41   2.0000     -10.295656      -280.1591
  42   2.0000     -10.293931      -280.1121
  43   2.0000     -10.290193      -280.0104
  44   2.0000     -10.288046      -279.9520
  45   2.0000     -10.286967      -279.9226
  46   2.0000     -10.281984      -279.7870
  47   2.0000     -10.281772      -279.7812
  48   2.0000     -10.281553      -279.7753
  49   2.0000     -10.281545      -279.7751
  50   2.0000     -10.281147      -279.7642
  51   2.0000     -10.280325      -279.7419
  52   2.0000     -10.279331      -279.7148
  53   2.0000     -10.278268      -279.6859
  54   2.0000     -10.276079      -279.6263
  55   2.0000     -10.275643      -279.6145
  56   2.0000     -10.273630      -279.5597
  57   2.0000     -10.273011      -279.5428
  58   2.0000     -10.272756      -279.5359
  59   2.0000     -10.272689      -279.5341
  60   2.0000     -10.271892      -279.5124
  61   2.0000     -10.271460      -279.5006
  62   2.0000     -10.271021      -279.4887
  63   2.0000     -10.268561      -279.4218
  64   2.0000     -10.266925      -279.3772
  65   2.0000     -10.265804      -279.3467
  66   2.0000     -10.265376      -279.3351
  67   2.0000     -10.262873      -279.2670
  68   2.0000     -10.250822      -278.9390
  69   2.0000     -10.248710      -278.8816
  70   2.0000     -10.248646      -278.8798
  71   2.0000     -10.248336      -278.8714
  72   2.0000      -8.143845      -221.6053
  73   2.0000      -8.062070      -219.3801
  74   2.0000      -8.041384      -218.8172
  75   2.0000      -8.036832      -218.6933
  76   2.0000      -6.114795      -166.3920
  77   2.0000      -6.107055      -166.1814
  78   2.0000      -6.106905      -166.1773
  79   2.0000      -6.031571      -164.1274
  80   2.0000      -6.027274      -164.0105
  81   2.0000      -6.023745      -163.9144
  82   2.0000      -6.010888      -163.5646
  83   2.0000      -6.006957      -163.4576
  84   2.0000      -6.006168      -163.4361
  85   2.0000      -6.002668      -163.3409
  86   2.0000      -6.002261      -163.3298
  87   2.0000      -5.998722      -163.2335
  88   2.0000      -1.148307       -31.2470
  89   2.0000      -1.134565       -30.8731
  90   2.0000      -1.121266       -30.5112
  91   2.0000      -1.053715       -28.6731
  92   2.0000      -1.049382       -28.5551
  93   2.0000      -1.031885       -28.0790
  94   2.0000      -1.019937       -27.7539
  95   2.0000      -1.016002       -27.6468
  96   2.0000      -1.007737       -27.4219
  97   2.0000      -1.006628       -27.3917
  98   2.0000      -1.002421       -27.2773
  99   2.0000      -0.993800       -27.0427
 100   2.0000      -0.993036       -27.0219
 101   2.0000      -0.986716       -26.8499
 102   2.0000      -0.981630       -26.7115
 103   2.0000      -0.958995       -26.0956
 104   2.0000      -0.950111       -25.8538
 105   2.0000      -0.932389       -25.3716
 106   2.0000      -0.925586       -25.1865
 107   2.0000      -0.912620       -24.8337
 108   2.0000      -0.911456       -24.8020
 109   2.0000      -0.908478       -24.7210
 110   2.0000      -0.894177       -24.3318
 111   2.0000      -0.891294       -24.2533
 112   2.0000      -0.881894       -23.9976
 113   2.0000      -0.880468       -23.9587
 114   2.0000      -0.863719       -23.5030
 115   2.0000      -0.861039       -23.4301
 116   2.0000      -0.847256       -23.0550
 117   2.0000      -0.839660       -22.8483
 118   2.0000      -0.839144       -22.8343
 119   2.0000      -0.837184       -22.7809
 120   2.0000      -0.834246       -22.7010
 121   2.0000      -0.832198       -22.6453
 122   2.0000      -0.822572       -22.3833
 123   2.0000      -0.815463       -22.1899
 124   2.0000      -0.804357       -21.8877
 125   2.0000      -0.803805       -21.8726
 126   2.0000      -0.787251       -21.4222
 127   2.0000      -0.783680       -21.3250
 128   2.0000      -0.767335       -20.8803
 129   2.0000      -0.764427       -20.8011
 130   2.0000      -0.757541       -20.6137
 131   2.0000      -0.755749       -20.5650
 132   2.0000      -0.745677       -20.2909
 133   2.0000      -0.735888       -20.0245
 134   2.0000      -0.722985       -19.6734
 135   2.0000      -0.707080       -19.2406
 136   2.0000      -0.704974       -19.1833
 137   2.0000      -0.698648       -19.0112
 138   2.0000      -0.694288       -18.8925
 139   2.0000      -0.687865       -18.7178
 140   2.0000      -0.686765       -18.6878
 141   2.0000      -0.680112       -18.5068
 142   2.0000      -0.677735       -18.4421
 143   2.0000      -0.676526       -18.4092
 144   2.0000      -0.674943       -18.3661
 145   2.0000      -0.662544       -18.0287
 146   2.0000      -0.660789       -17.9810
 147   2.0000      -0.659444       -17.9444
 148   2.0000      -0.654830       -17.8188
 149   2.0000      -0.652053       -17.7433
 150   2.0000      -0.637470       -17.3464
 151   2.0000      -0.628124       -17.0921
 152   2.0000      -0.627159       -17.0659
 153   2.0000      -0.619675       -16.8622
 154   2.0000      -0.615829       -16.7576
 155   2.0000      -0.614056       -16.7093
 156   2.0000      -0.600992       -16.3538
 157   2.0000      -0.597093       -16.2477
 158   2.0000      -0.595176       -16.1956
 159   2.0000      -0.591712       -16.1013
 160   2.0000      -0.587780       -15.9943
 161   2.0000      -0.585363       -15.9285
 162   2.0000      -0.584185       -15.8965
 163   2.0000      -0.572058       -15.5665
 164   2.0000      -0.566587       -15.4176
 165   2.0000      -0.563750       -15.3404
 166   2.0000      -0.557469       -15.1695
 167   2.0000      -0.556261       -15.1366
 168   2.0000      -0.549296       -14.9471
 169   2.0000      -0.547270       -14.8920
 170   2.0000      -0.546138       -14.8612
 171   2.0000      -0.543531       -14.7902
 172   2.0000      -0.540445       -14.7063
 173   2.0000      -0.536939       -14.6109
 174   2.0000      -0.533893       -14.5280
 175   2.0000      -0.531729       -14.4691
 176   2.0000      -0.525339       -14.2952
 177   2.0000      -0.523497       -14.2451
 178   2.0000      -0.521098       -14.1798
 179   2.0000      -0.519496       -14.1362
 180   2.0000      -0.519152       -14.1268
 181   2.0000      -0.517643       -14.0858
 182   2.0000      -0.514286       -13.9944
 183   2.0000      -0.512356       -13.9419
 184   2.0000      -0.510640       -13.8952
 185   2.0000      -0.507354       -13.8058
 186   2.0000      -0.506682       -13.7875
 187   2.0000      -0.500130       -13.6092
 188   2.0000      -0.497352       -13.5336
 189   2.0000      -0.495135       -13.4733
 190   2.0000      -0.491694       -13.3797
 191   2.0000      -0.490575       -13.3492
 192   2.0000      -0.488483       -13.2923
 193   2.0000      -0.487446       -13.2641
 194   2.0000      -0.483899       -13.1676
 195   2.0000      -0.481558       -13.1038
 196   2.0000      -0.480963       -13.0877
 197   2.0000      -0.477717       -12.9994
 198   2.0000      -0.472632       -12.8610
 199   2.0000      -0.472213       -12.8496
 200   2.0000      -0.472078       -12.8459
 201   2.0000      -0.468852       -12.7581
 202   2.0000      -0.463418       -12.6102
 203   2.0000      -0.458464       -12.4754
 204   2.0000      -0.458095       -12.4654
 205   2.0000      -0.456476       -12.4213
 206   2.0000      -0.455315       -12.3898
 207   2.0000      -0.453010       -12.3270
 208   2.0000      -0.451189       -12.2775
 209   2.0000      -0.448562       -12.2060
 210   2.0000      -0.447752       -12.1839
 211   2.0000      -0.445099       -12.1118
 212   2.0000      -0.443070       -12.0566
 213   2.0000      -0.441687       -12.0189
 214   2.0000      -0.439660       -11.9638
 215   2.0000      -0.439331       -11.9548
 216   2.0000      -0.436050       -11.8655
 217   2.0000      -0.434717       -11.8293
 218   2.0000      -0.433998       -11.8097
 219   2.0000      -0.432264       -11.7625
 220   2.0000      -0.432114       -11.7584
 221   2.0000      -0.428380       -11.6568
 222   2.0000      -0.426971       -11.6185
 223   2.0000      -0.425885       -11.5889
 224   2.0000      -0.423210       -11.5161
 225   2.0000      -0.422082       -11.4854
 226   2.0000      -0.419914       -11.4264
 227   2.0000      -0.417283       -11.3548
 228   2.0000      -0.415151       -11.2968
 229   2.0000      -0.414704       -11.2847
 230   2.0000      -0.410958       -11.1827
 231   2.0000      -0.409414       -11.1407
 232   2.0000      -0.408971       -11.1287
 233   2.0000      -0.406530       -11.0622
 234   2.0000      -0.398423       -10.8417
 235   2.0000      -0.397417       -10.8143
 236   2.0000      -0.393698       -10.7131
 237   2.0000      -0.391897       -10.6641
 238   2.0000      -0.389363       -10.5951
 239   2.0000      -0.387920       -10.5558
 240   2.0000      -0.382689       -10.4135
 241   2.0000      -0.376691       -10.2503
 242   2.0000      -0.375747       -10.2246
 243   2.0000      -0.362068        -9.8524
 244   2.0000      -0.358821        -9.7640
 245   2.0000      -0.352360        -9.5882
 246   2.0000      -0.343846        -9.3565
 247   2.0000      -0.341342        -9.2884
 248   2.0000      -0.340835        -9.2746
 249   2.0000      -0.338074        -9.1995
 250   2.0000      -0.325280        -8.8513
 251   2.0000      -0.317804        -8.6479
 252   2.0000      -0.315510        -8.5855
 253   2.0000      -0.312700        -8.5090
 254   2.0000      -0.297460        -8.0943
 255   2.0000      -0.295338        -8.0366
 256   2.0000      -0.294247        -8.0069
 257   2.0000      -0.281693        -7.6653
 258   2.0000      -0.254521        -6.9259
 259   2.0000      -0.215573        -5.8660
 260   0.0000      -0.129811        -3.5323
 261   0.0000      -0.081615        -2.2209
 262   0.0000      -0.058426        -1.5899
 263   0.0000      -0.049828        -1.3559
 264   0.0000      -0.037507        -1.0206

MULLIKEN ATOMIC CHARGES
-----------------------
   0 C :    0.307160
   1 C :   -0.345873
   2 C :   -0.188042
   3 N :    0.153415
   4 C :   -0.194817
   5 N :    0.163358
   6 C :    0.028019
   7 C :   -0.015144
   8 C :   -0.063925
   9 C :    0.117636
  10 C :   -0.092446
  11 C :   -0.030134
  12 S :    0.142491
  13 C :   -0.048233
  14 C :    0.026635
  15 C :    0.151431
  16 O :   -0.169294
  17 C :   -0.047318
  18 C :   -0.073075
  19 C :    0.085425
  20 C :   -0.033719
  21 C :   -0.055613
  22 N :    0.050511
  23 C :   -0.128574
  24 C :   -0.113967
  25 N :    0.037555
  26 C :   -0.209975
  27 N :    0.241161
  28 C :   -0.211666
  29 N :    0.232959
  30 C :    0.121075
  31 C :    0.004597
  32 C :    0.002750
  33 N :   -0.267602
  34 S :    0.556901
  35 N :   -0.281987
  36 C :   -0.006492
  37 C :   -0.055161
  38 C :    0.002108
  39 C :    0.123601
  40 C :   -0.062586
  41 C :    0.035010
  42 C :    0.102037
  43 C :    0.016754
  44 C :   -0.140086
  45 C :    0.069295
  46 C :    0.024981
  47 C :    0.066612
  48 C :    0.026495
  49 C :   -0.086895
  50 C :    0.118195
  51 C :   -0.022306
  52 C :   -0.044110
  53 C :   -0.019213
  54 C :    0.016273
  55 C :    0.015146
  56 C :   -0.212180
  57 C :    0.072197
  58 C :    0.194376
  59 N :   -0.147319
  60 C :    0.066639
  61 C :   -0.050192
  62 C :   -0.131240
  63 S :    0.108420
  64 C :    0.059925
  65 N :   -0.059987
  66 C :    0.006648
  67 S :    0.065450
  68 C :    0.004522
  69 C :   -0.203601
  70 C :    0.017144
  71 C :   -0.043862
  72 H :   -0.012803
  73 H :   -0.005870
  74 H :    0.040063
  75 H :   -0.005090
  76 H :    0.041108
  77 H :   -0.023705
  78 H :   -0.031014
  79 H :   -0.014377
  80 H :   -0.000734
  81 H :   -0.002341
  82 H :    0.022646
  83 H :    0.010003
  84 H :    0.020692
  85 H :   -0.000556
  86 H :   -0.000743
  87 H :    0.021446
  88 H :    0.007859
  89 H :    0.021194
  90 H :   -0.041138
  91 H :   -0.029167
  92 H :   -0.033424
  93 H :   -0.027483
  94 H :   -0.004741
  95 H :   -0.009335
  96 H :    0.034409
  97 H :    0.012135
  98 H :    0.030908
  99 H :    0.016479
 100 H :    0.033119
 101 H :    0.125402
 102 H :    0.017080
 103 H :   -0.041670
 104 H :    0.033934
 105 H :   -0.014455
 106 H :    0.013681
 107 H :    0.018211
Sum of atomic charges:   -0.0000000

LOEWDIN ATOMIC CHARGES
----------------------
   0 C :    0.074534
   1 C :   -0.132645
   2 C :   -0.017523
   3 N :   -0.050085
   4 C :   -0.022278
   5 N :   -0.046644
   6 C :   -0.020521
   7 C :   -0.051937
   8 C :    0.026271
   9 C :   -0.032573
  10 C :   -0.143057
  11 C :   -0.008108
  12 S :    0.431503
  13 C :   -0.147377
  14 C :   -0.056242
  15 C :    0.085504
  16 O :   -0.159239
  17 C :   -0.066153
  18 C :    0.074014
  19 C :   -0.043238
  20 C :    0.023217
  21 C :   -0.011487
  22 N :    0.013968
  23 C :   -0.030182
  24 C :   -0.016943
  25 N :    0.011140
  26 C :   -0.034649
  27 N :   -0.003285
  28 C :   -0.036547
  29 N :   -0.007857
  30 C :    0.027217
  31 C :   -0.046452
  32 C :   -0.030868
  33 N :   -0.282485
  34 S :    0.691508
  35 N :   -0.273165
  36 C :   -0.030518
  37 C :    0.002724
  38 C :   -0.002506
  39 C :    0.005018
  40 C :   -0.024593
  41 C :    0.012205
  42 C :   -0.025135
  43 C :    0.009886
  44 C :   -0.035501
  45 C :   -0.011261
  46 C :   -0.057601
  47 C :   -0.011839
  48 C :   -0.057768
  49 C :   -0.019053
  50 C :   -0.016066
  51 C :   -0.021317
  52 C :   -0.013141
  53 C :   -0.025123
  54 C :   -0.020077
  55 C :   -0.057307
  56 C :   -0.035179
  57 C :   -0.051454
  58 C :    0.037474
  59 N :    0.002391
  60 C :    0.053317
  61 C :   -0.154203
  62 C :   -0.144751
  63 S :    0.428327
  64 C :   -0.100764
  65 N :   -0.088071
  66 C :   -0.108402
  67 S :    0.351595
  68 C :   -0.194698
  69 C :   -0.222150
  70 C :   -0.037398
  71 C :   -0.073250
  72 H :    0.040199
  73 H :    0.040999
  74 H :    0.029974
  75 H :    0.036040
  76 H :    0.049276
  77 H :    0.025179
  78 H :    0.029408
  79 H :    0.028491
  80 H :    0.020546
  81 H :    0.019922
  82 H :    0.025916
  83 H :    0.024692
  84 H :    0.025026
  85 H :    0.020839
  86 H :    0.020307
  87 H :    0.025215
  88 H :    0.023793
  89 H :    0.025381
  90 H :    0.023638
  91 H :    0.025715
  92 H :    0.027943
  93 H :    0.025910
  94 H :    0.026406
  95 H :    0.028718
  96 H :    0.036096
  97 H :    0.028797
  98 H :    0.034343
  99 H :    0.031116
 100 H :    0.035312
 101 H :    0.080523
 102 H :    0.029758
 103 H :    0.018630
 104 H :    0.015719
 105 H :    0.030972
 106 H :    0.014952
 107 H :    0.023099

  Mayer bond orders larger than 0.100000
B(  0-C ,  1-C ) :   1.6354 B(  0-C ,  6-C ) :   1.0071 B(  0-C , 17-C ) :   1.0697
B(  1-C ,  2-C ) :   1.1460 B(  1-C ,  4-C ) :   1.1443 B(  2-C ,  3-N ) :   2.9686
B(  4-C ,  5-N ) :   2.9757 B(  6-C ,  7-C ) :   1.2635 B(  6-C , 11-C ) :   1.4064
B(  7-C ,  8-C ) :   1.4196 B(  7-C , 15-C ) :   0.9528 B(  8-C ,  9-C ) :   1.2502
B(  8-C , 72-H ) :   1.0158 B(  9-C , 10-C ) :   1.2954 B(  9-C , 14-C ) :   1.1726
B( 10-C , 11-C ) :   1.3270 B( 10-C , 12-S ) :   1.1014 B( 11-C , 73-H ) :   0.9822
B( 12-S , 13-C ) :   1.1260 B( 13-C , 14-C ) :   1.6286 B( 13-C , 74-H ) :   0.9686
B( 14-C , 75-H ) :   0.9995 B( 15-C , 16-O ) :   2.1964 B( 15-C , 17-C ) :   0.9310
B( 17-C , 18-C ) :   1.6099 B( 18-C , 19-C ) :   1.1639 B( 18-C , 76-H ) :   0.9328
B( 19-C , 20-C ) :   1.2630 B( 19-C , 30-C ) :   0.1280 B( 19-C , 32-C ) :   1.1970
B( 20-C , 21-C ) :   1.1067 B( 20-C , 25-N ) :   1.4147 B( 21-C , 22-N ) :   1.4278
B( 21-C , 30-C ) :   1.2687 B( 22-N , 23-C ) :   1.7387 B( 23-C , 24-C ) :   1.1940
B( 23-C , 28-C ) :   1.1490 B( 24-C , 25-N ) :   1.7159 B( 24-C , 26-C ) :   1.1558
B( 26-C , 27-N ) :   3.0480 B( 28-C , 29-N ) :   3.0491 B( 30-C , 31-C ) :   1.2431
B( 30-C , 36-C ) :   1.0492 B( 31-C , 32-C ) :   1.1080 B( 31-C , 35-N ) :   1.4818
B( 32-C , 33-N ) :   1.5375 B( 33-N , 34-S ) :   1.2798 B( 33-N , 35-N ) :   0.1555
B( 34-S , 35-N ) :   1.3036 B( 36-C , 37-C ) :   1.2858 B( 36-C , 41-C ) :   1.3440
B( 37-C , 38-C ) :   1.4076 B( 37-C , 77-H ) :   0.9963 B( 38-C , 39-C ) :   1.3530
B( 38-C , 44-C ) :   0.9104 B( 39-C , 40-C ) :   1.3288 B( 39-C , 42-C ) :   0.9988
B( 40-C , 41-C ) :   1.4013 B( 40-C , 78-H ) :   0.9933 B( 41-C , 79-H ) :   0.9769
B( 42-C , 43-C ) :   1.3531 B( 42-C , 52-C ) :   1.3387 B( 43-C , 44-C ) :   0.9173
B( 43-C , 49-C ) :   1.4075 B( 44-C , 45-C ) :   1.0338 B( 44-C , 47-C ) :   1.0428
B( 45-C , 46-C ) :   1.1020 B( 45-C , 80-H ) :   0.9397 B( 45-C , 81-H ) :   0.9398
B( 46-C , 82-H ) :   0.9642 B( 46-C , 83-H ) :   0.9635 B( 46-C , 84-H ) :   0.9644
B( 47-C , 48-C ) :   1.1015 B( 47-C , 85-H ) :   0.9377 B( 47-C , 86-H ) :   0.9392
B( 48-C , 87-H ) :   0.9632 B( 48-C , 88-H ) :   0.9635 B( 48-C , 89-H ) :   0.9650
B( 49-C , 50-C ) :   1.3048 B( 49-C , 90-H ) :   1.0003 B( 50-C , 51-C ) :   1.3390
B( 50-C , 53-C ) :   1.0616 B( 51-C , 52-C ) :   1.3771 B( 51-C , 91-H ) :   0.9927
B( 52-C , 92-H ) :   0.9919 B( 53-C , 54-C ) :   1.7569 B( 53-C , 93-H ) :   0.9799
B( 54-C , 55-C ) :   1.0676 B( 54-C , 94-H ) :   0.9509 B( 55-C , 56-C ) :   1.8750
B( 55-C , 95-H ) :   0.9332 B( 56-C , 57-C ) :   1.0813 B( 56-C , 58-C ) :   0.9989
B( 57-C , 96-H ) :   0.9468 B( 57-C , 97-H ) :   0.9520 B( 57-C , 98-H ) :   0.9461
B( 58-C , 59-N ) :   1.0452 B( 58-C , 99-H ) :   0.9407 B( 58-C ,100-H ) :   0.9141
B( 59-N , 60-C ) :   1.2167 B( 59-N ,101-H ) :   0.9410 B( 60-C , 61-C ) :   1.6333
B( 60-C ,102-H ) :   0.9388 B( 61-C , 62-C ) :   1.1577 B( 61-C ,103-H ) :   0.9463
B( 62-C , 63-S ) :   1.1461 B( 62-C , 64-C ) :   1.4311 B( 62-C , 69-C ) :   0.1045
B( 63-S , 69-C ) :   1.0691 B( 64-C , 65-N ) :   1.2649 B( 64-C , 68-C ) :   1.2349
B( 65-N , 66-C ) :   1.7937 B( 65-N , 67-S ) :   0.1077 B( 66-C , 67-S ) :   1.0701
B( 66-C ,104-H ) :   0.9636 B( 67-S , 68-C ) :   1.0333 B( 68-C , 69-C ) :   1.5430
B( 69-C , 70-C ) :   1.1456 B( 70-C , 71-C ) :   1.9081 B( 70-C ,105-H ) :   0.9628
B( 71-C ,106-H ) :   0.9569 B( 71-C ,107-H ) :   0.9501

-----------------------------------------------------------------------------
         ABSORPTION SPECTRUM VIA TRANSITION ELECTRIC DIPOLE MOMENTS
-----------------------------------------------------------------------------
State   Energy  Wavelength   fosc         T2         TX        TY        TZ
        (cm-1)    (nm)                  (au**2)     (au)      (au)      (au)
-----------------------------------------------------------------------------
   0   11986.3    834.3   0.116535282   3.20073   0.72099  -1.61988   0.23847
   1   12869.8    777.0   0.592194348  15.14840  -1.55686   3.55456  -0.29942
   2   18926.2    528.4   0.011019064   0.19167  -0.28500  -0.07987  -0.32259
   3   21756.0    459.6   0.032135589   0.48628  -0.10782  -0.55762   0.40461
   4   22612.8    442.2   0.033975761   0.49464   0.06201  -0.68251   0.15803
   5   22970.5    435.3   0.197077682   2.82450   0.49307  -1.59313  -0.20817
   6   23715.2    421.7   0.078369920   1.08792   0.22798  -0.81684   0.60723
   7   23914.8    418.2   0.024753080   0.34075  -0.13798   0.53940  -0.17538
   8   24627.4    406.1   0.018127556   0.24232  -0.26745   0.30867   0.27481
   9   25681.0    389.4   0.018612996   0.23860  -0.01469   0.16085  -0.46100
  10   26427.3    378.4   0.460609750   5.73794  -0.05522  -0.68798   2.29381
  11   27051.9    369.7   0.010877800   0.13238   0.06290   0.22476   0.27911
  12   27147.6    368.4   0.313020885   3.79593  -0.43384   0.15273   1.89325
  13   27645.3    361.7   0.034021670   0.40514  -0.37449   0.15438   0.49099
  14   28068.0    356.3   0.173398146   2.03380  -0.23440   1.40520  -0.06533
  15   28816.6    347.0   0.013631259   0.15573   0.08922   0.23235  -0.30623
  16   29006.7    344.7   0.002475443   0.02810   0.01728  -0.04924   0.15929
  17   29674.1    337.0   0.034011837   0.37734  -0.05604  -0.32704   0.51695
  18   29770.9    335.9   0.059459874   0.65752   0.11097  -0.34083   0.72735
  19   29934.7    334.1   0.012133324   0.13344  -0.23694   0.03645  -0.27563
  20   30046.0    332.8   0.113897226   1.24797  -0.53328  -0.58838   0.78575
  21   30489.1    328.0   0.155993407   1.68437   0.40217  -0.53005   1.11430
  22   30924.3    323.4   0.004746726   0.05053  -0.11748  -0.18374  -0.05449
  23   31064.0    321.9   0.020666968   0.21903   0.45897  -0.08977  -0.01779
  24   31822.8    314.2   0.038064569   0.39378  -0.50670   0.33428  -0.15905
  25   31910.1    313.4   0.424033580   4.37470   1.08894  -0.93780   1.51969
  26   32171.5    310.8   0.646199628   6.61259   1.55417  -1.59020   1.29167
  27   32521.7    307.5   0.049186484   0.49791   0.06517   0.70073  -0.05135
  28   32629.9    306.5   0.189219202   1.90909   0.37455  -1.27118   0.39101
  29   33770.8    296.1   0.207254885   2.02041  -0.63130   0.80864   0.98386
  30   33969.4    294.4   0.186806818   1.81043   0.00153   1.34190   0.09860
  31   34435.6    290.4   0.468165698   4.47577  -0.83402   0.24656   1.92857
  32   34635.3    288.7   0.394289021   3.74775  -0.23009  -1.17302  -1.52277
  33   35911.9    278.5   0.021204560   0.19439   0.02782   0.02217   0.43946
  34   36267.7    275.7   0.146281982   1.32784   0.40076   0.16963   1.06699
  35   36448.6    274.4   0.183217721   1.65486  -0.53796   0.34751  -1.11566
  36   36750.6    272.1   0.015585816   0.13962   0.28852  -0.07960   0.22368
  37   37810.0    264.5   0.032519117   0.28314   0.13655  -0.51396  -0.01858
  38   38082.7    262.6   0.018648476   0.16121   0.17858  -0.34265   0.10914
  39   38274.5    261.3   0.042476315   0.36535  -0.22811   0.30409  -0.46994
  40   38507.5    259.7   0.000706097   0.00604   0.04854   0.01037   0.05978
  41   38621.4    258.9   0.001031870   0.00880   0.02575  -0.07076  -0.05591
  42   39065.4    256.0   0.138035549   1.16325  -0.60030   0.89432  -0.05553
  43   39318.7    254.3   0.040212425   0.33670   0.26620  -0.25150  -0.45009
  44   39418.3    253.7   0.021118460   0.17638  -0.06624   0.30113   0.28514
  45   39527.4    253.0   0.008588772   0.07153  -0.11949  -0.14948   0.18684
  46   39599.2    252.5   0.047794363   0.39734  -0.27021   0.56863  -0.03139
  47   39869.3    250.8   0.062459284   0.51574   0.16223  -0.69883   0.03266
  48   39920.9    250.5   0.000264749   0.00218   0.01113  -0.04354  -0.01280
  49   40165.1    249.0   0.000004330   0.00004   0.00018   0.00052   0.00593
  50   40248.1    248.5   0.064443894   0.52712  -0.09556   0.21621   0.68647

FINAL SINGLE POINT ENERGY     -4405.038733401001

DIPOLE MOMENT
-------------
                                X             Y             Z
Electronic contribution:     62.43635    -111.91785      25.94108
Nuclear contribution   :    -65.18678     113.50614     -25.07884
                        -----------------------------------------
Total Dipole Moment    :     -2.75043       1.58829       0.86223
                        -----------------------------------------
Magnitude (a.u.)       :      3.29104
Magnitude (Debye)      :      8.36517

Rotational constants in cm-1:     0.002224     0.000210     0.000199
Rotational constants in MHz :    66.660012     6.293820     5.978994

                             ****ORCA TERMINATED NORMALLY****
TOTAL RUN TIME: 0 days 0 hours 23 minutes 16 seconds 655 msec
