                         Program Version 4.2.0 -  RELEASE  -
|  1> # ORCA input file
|  2> # SCF done       -190.642210935003          0.000315185510
|  3> ! CAM-B3LYP def2-SVP def2/J RIJCOSX Grid4 TightSCF
|  4> %maxcore 5000
|  5> %tddft
|  6>     Mode sTDDFT
|  7>     Ethresh 5.0
|  8>     maxcore 5000
|  9> end
| 10>
| 11> %pal
| 12>   nprocs 6
| 13>   end
| 14> * xyz 0 1
| 15>    C       -5.70090        -2.16375        -0.97420
| 16>    C       -4.47773        -2.63510        -0.57900
| 17>    C       -4.14081        -4.00383        -0.51397
| 18>    N       -3.81082        -5.10099        -0.44608
| 19>    C       -3.40315        -1.82688        -0.14852
| 20>    N       -2.49379        -1.24173         0.23657
| 21>    C       -6.86027        -2.97083        -1.32377
| 22>    C       -7.96792        -2.11156        -1.54023
| 23>    C       -9.21249        -2.58432        -1.88279
| 24>    C       -9.37472        -3.96644        -2.01366
| 25>    C       -8.26147        -4.81591        -1.80041
| 26>    C       -7.00211        -4.33963        -1.45721
| 27>    S       -8.68942        -6.48175        -2.02776
| 28>    C      -10.32004        -6.03805        -2.39513
| 29>    C      -10.54246        -4.70608        -2.35279
| 30>    C       -7.55001        -0.70976        -1.37460
| 31>    O       -8.22142         0.27451        -1.59668
| 32>    C       -6.10112        -0.76679        -1.02362
| 33>    C       -5.28164         0.31223        -0.96481
| 34>    C       -5.73095         1.66882        -0.85956
| 35>    C       -5.06259         2.70052        -1.55324
| 36>    C       -5.49240         4.07610        -1.48651
| 37>    N       -4.78256         5.02629        -2.11645
| 38>    C       -3.73476         4.67826        -2.82366
| 39>    C       -3.34925         3.30269        -2.94432
| 40>    N       -4.00742         2.36309        -2.31524
| 41>    C       -2.24109         2.95173        -3.75737
| 42>    N       -1.34704         2.71039        -4.43094
| 43>    C       -2.98898         5.68629        -3.48451
| 44>    N       -2.37786         6.48105        -4.03850
| 45>    C       -6.60396         4.45641        -0.70404
| 46>    C       -7.24250         3.43184         0.01794
| 47>    C       -6.79786         2.05916        -0.03354
| 48>    N       -7.50241         1.28415         0.79494
| 49>    S       -8.63612         2.17267         1.48966
| 50>    N       -8.30706         3.57726         0.81000
| 51>    C       -7.02855         5.80868        -0.47997
| 52>    N       -7.17470         6.79951        -1.40550
| 53>    C       -7.07418         6.67773        -2.83405
| 54>    C       -7.61036         8.00456        -0.81228
| 55>    O       -7.85688         9.00936        -1.44616
| 56>    C       -7.68820         7.70105         0.59842
| 57>    C       -7.35395         6.33639         0.76733
| 58>    C       -7.36438         6.03822         2.18632
| 59>    O       -7.10742         5.03932         2.82234
| 60>    N       -7.75292         7.25534         2.78174
| 61>    C       -7.89316         7.38315         4.20687
| 62>    C       -7.93925         8.25329         1.85662
| 63>    C       -8.31104         9.57268         2.20599
| 64>    C       -8.46807        10.55444         1.27601
| 65>    C       -8.83293        11.89313         1.56120
| 66>    C       -9.11309        12.51127         2.77319
| 67>    F       -9.07657        11.88664         3.95865
| 68>    C       -9.44132        13.86070         2.66163
| 69>    F       -9.70301        14.58995         3.75258
| 70>    C       -9.42815        14.34088         1.35490
| 71>    S       -8.96664        13.04832         0.27317
| 72>    C       -9.68200        15.61861         0.77761
| 73>    N      -10.20239        16.74805         1.36112
| 74>    C      -10.70838        16.93206         2.69453
| 75>    C      -10.28312        17.82633         0.44067
| 76>    O      -10.72406        18.91451         0.73558
| 77>    C       -9.75976        17.28478        -0.78816
| 78>    C       -9.41775        15.93004        -0.55433
| 79>    C       -8.90126        15.39169        -1.78439
| 80>    O       -8.50150        14.28218        -2.08058
| 81>    N       -8.95171        16.47056        -2.69271
| 82>    C       -8.50217        16.28416        -4.04478
| 83>    C       -9.46686        17.60151        -2.10824
| 84>    C       -9.68943        18.89765        -2.68285
| 85>    C       -9.46082        19.32228        -3.92686
| 86>    H      -10.03600        -1.90584        -2.04339
| 87>    H       -6.18348        -5.02499        -1.31349
| 88>    H      -11.02287        -6.81512        -2.62512
| 89>    H      -11.49389        -4.24788        -2.55373
| 90>    H       -4.20979         0.18470        -1.04656
| 91>    H       -7.57907         5.77333        -3.17562
| 92>    H       -6.03046         6.65115        -3.15017
| 93>    H       -7.55517         7.55695        -3.26342
| 94>    H       -7.65110         6.41073         4.63590
| 95>    H       -8.91610         7.65093         4.47760
| 96>    H       -7.20456         8.13127         4.60386
| 97>    H       -8.46529         9.77966         3.25380
| 98>    H       -8.30669        10.32798         0.22967
| 99>    H       -9.90558        16.93085         3.43201
|100>    H      -11.43819        16.16364         2.94794
|101>    H      -11.19295        17.90924         2.70555
|102>    H       -8.16529        15.24861        -4.11833
|103>    H       -7.66712        16.94770        -4.27534
|104>    H       -9.31491        16.44446        -4.75519
|105>    H      -10.10486        19.58825        -1.95920
|106>    H       -9.05409        18.70719        -4.70785
|107>    H       -9.68822        20.33881        -4.19866
|108> *
|109>
|110>                          ****END OF INPUT****

CARTESIAN COORDINATES (ANGSTROEM)
---------------------------------
  C     -5.700900   -2.163750   -0.974200
  C     -4.477730   -2.635100   -0.579000
  C     -4.140810   -4.003830   -0.513970
  N     -3.810820   -5.100990   -0.446080
  C     -3.403150   -1.826880   -0.148520
  N     -2.493790   -1.241730    0.236570
  C     -6.860270   -2.970830   -1.323770
  C     -7.967920   -2.111560   -1.540230
  C     -9.212490   -2.584320   -1.882790
  C     -9.374720   -3.966440   -2.013660
  C     -8.261470   -4.815910   -1.800410
  C     -7.002110   -4.339630   -1.457210
  S     -8.689420   -6.481750   -2.027760
  C    -10.320040   -6.038050   -2.395130
  C    -10.542460   -4.706080   -2.352790
  C     -7.550010   -0.709760   -1.374600
  O     -8.221420    0.274510   -1.596680
  C     -6.101120   -0.766790   -1.023620
  C     -5.281640    0.312230   -0.964810
  C     -5.730950    1.668820   -0.859560
  C     -5.062590    2.700520   -1.553240
  C     -5.492400    4.076100   -1.486510
  N     -4.782560    5.026290   -2.116450
  C     -3.734760    4.678260   -2.823660
  C     -3.349250    3.302690   -2.944320
  N     -4.007420    2.363090   -2.315240
  C     -2.241090    2.951730   -3.757370
  N     -1.347040    2.710390   -4.430940
  C     -2.988980    5.686290   -3.484510
  N     -2.377860    6.481050   -4.038500
  C     -6.603960    4.456410   -0.704040
  C     -7.242500    3.431840    0.017940
  C     -6.797860    2.059160   -0.033540
  N     -7.502410    1.284150    0.794940
  S     -8.636120    2.172670    1.489660
  N     -8.307060    3.577260    0.810000
  C     -7.028550    5.808680   -0.479970
  N     -7.174700    6.799510   -1.405500
  C     -7.074180    6.677730   -2.834050
  C     -7.610360    8.004560   -0.812280
  O     -7.856880    9.009360   -1.446160
  C     -7.688200    7.701050    0.598420
  C     -7.353950    6.336390    0.767330
  C     -7.364380    6.038220    2.186320
  O     -7.107420    5.039320    2.822340
  N     -7.752920    7.255340    2.781740
  C     -7.893160    7.383150    4.206870
  C     -7.939250    8.253290    1.856620
  C     -8.311040    9.572680    2.205990
  C     -8.468070   10.554440    1.276010
  C     -8.832930   11.893130    1.561200
  C     -9.113090   12.511270    2.773190
  F     -9.076570   11.886640    3.958650
  C     -9.441320   13.860700    2.661630
  F     -9.703010   14.589950    3.752580
  C     -9.428150   14.340880    1.354900
  S     -8.966640   13.048320    0.273170
  C     -9.682000   15.618610    0.777610
  N    -10.202390   16.748050    1.361120
  C    -10.708380   16.932060    2.694530
  C    -10.283120   17.826330    0.440670
  O    -10.724060   18.914510    0.735580
  C     -9.759760   17.284780   -0.788160
  C     -9.417750   15.930040   -0.554330
  C     -8.901260   15.391690   -1.784390
  O     -8.501500   14.282180   -2.080580
  N     -8.951710   16.470560   -2.692710
  C     -8.502170   16.284160   -4.044780
  C     -9.466860   17.601510   -2.108240
  C     -9.689430   18.897650   -2.682850
  C     -9.460820   19.322280   -3.926860
  H    -10.036000   -1.905840   -2.043390
  H     -6.183480   -5.024990   -1.313490
  H    -11.022870   -6.815120   -2.625120
  H    -11.493890   -4.247880   -2.553730
  H     -4.209790    0.184700   -1.046560
  H     -7.579070    5.773330   -3.175620
  H     -6.030460    6.651150   -3.150170
  H     -7.555170    7.556950   -3.263420
  H     -7.651100    6.410730    4.635900
  H     -8.916100    7.650930    4.477600
  H     -7.204560    8.131270    4.603860
  H     -8.465290    9.779660    3.253800
  H     -8.306690   10.327980    0.229670
  H     -9.905580   16.930850    3.432010
  H    -11.438190   16.163640    2.947940
  H    -11.192950   17.909240    2.705550
  H     -8.165290   15.248610   -4.118330
  H     -7.667120   16.947700   -4.275340
  H     -9.314910   16.444460   -4.755190
  H    -10.104860   19.588250   -1.959200
  H     -9.054090   18.707190   -4.707850
  H     -9.688220   20.338810   -4.198660

 Total Charge           Charge          ....    0
 Multiplicity           Mult            ....    1
 Number of Electrons    NEL             ....  506
 Basis Dimension        Dim             .... 1116

ORBITAL ENERGIES
----------------

  NO   OCC          E(Eh)            E(eV)
   0   2.0000     -89.046182     -2423.0698
   1   2.0000     -88.981778     -2421.3173
   2   2.0000     -88.969631     -2420.9868
   3   2.0000     -24.815586      -675.2664
   4   2.0000     -24.815431      -675.2622
   5   2.0000     -19.219069      -522.9775
   6   2.0000     -19.201922      -522.5109
   7   2.0000     -19.197831      -522.3995
   8   2.0000     -19.195445      -522.3346
   9   2.0000     -19.194059      -522.2969
  10   2.0000     -14.468636      -393.7116
  11   2.0000     -14.466260      -393.6470
  12   2.0000     -14.464730      -393.6053
  13   2.0000     -14.463545      -393.5731
  14   2.0000     -14.463021      -393.5588
  15   2.0000     -14.461762      -393.5246
  16   2.0000     -14.450453      -393.2168
  17   2.0000     -14.447439      -393.1348
  18   2.0000     -14.432154      -392.7189
  19   2.0000     -14.431677      -392.7059
  20   2.0000     -14.417815      -392.3287
  21   2.0000     -14.416137      -392.2830
  22   2.0000     -10.390660      -282.7442
  23   2.0000     -10.387293      -282.6526
  24   2.0000     -10.385268      -282.5975
  25   2.0000     -10.385203      -282.5957
  26   2.0000     -10.385057      -282.5918
  27   2.0000     -10.380598      -282.4704
  28   2.0000     -10.378715      -282.4192
  29   2.0000     -10.378627      -282.4168
  30   2.0000     -10.370321      -282.1908
  31   2.0000     -10.360389      -281.9205
  32   2.0000     -10.357716      -281.8478
  33   2.0000     -10.356302      -281.8093
  34   2.0000     -10.352593      -281.7084
  35   2.0000     -10.347720      -281.5758
  36   2.0000     -10.346428      -281.5406
  37   2.0000     -10.344093      -281.4771
  38   2.0000     -10.343717      -281.4669
  39   2.0000     -10.343359      -281.4571
  40   2.0000     -10.342690      -281.4389
  41   2.0000     -10.340532      -281.3802
  42   2.0000     -10.331729      -281.1407
  43   2.0000     -10.328286      -281.0469
  44   2.0000     -10.325280      -280.9651
  45   2.0000     -10.324410      -280.9415
  46   2.0000     -10.323750      -280.9235
  47   2.0000     -10.319960      -280.8204
  48   2.0000     -10.319361      -280.8041
  49   2.0000     -10.319011      -280.7946
  50   2.0000     -10.318246      -280.7738
  51   2.0000     -10.317327      -280.7487
  52   2.0000     -10.313553      -280.6460
  53   2.0000     -10.313039      -280.6321
  54   2.0000     -10.309462      -280.5347
  55   2.0000     -10.309432      -280.5339
  56   2.0000     -10.306049      -280.4418
  57   2.0000     -10.305916      -280.4382
  58   2.0000     -10.305115      -280.4164
  59   2.0000     -10.302058      -280.3332
  60   2.0000     -10.301995      -280.3315
  61   2.0000     -10.300392      -280.2879
  62   2.0000     -10.299577      -280.2657
  63   2.0000     -10.294931      -280.1393
  64   2.0000     -10.293607      -280.1033
  65   2.0000     -10.292117      -280.0627
  66   2.0000     -10.290149      -280.0092
  67   2.0000     -10.277283      -279.6591
  68   2.0000     -10.269550      -279.4487
  69   2.0000     -10.269268      -279.4410
  70   2.0000     -10.265903      -279.3494
  71   2.0000      -8.137112      -221.4221
  72   2.0000      -8.075861      -219.7554
  73   2.0000      -8.065841      -219.4827
  74   2.0000      -6.107941      -166.2055
  75   2.0000      -6.100501      -166.0031
  76   2.0000      -6.100131      -165.9930
  77   2.0000      -6.045235      -164.4992
  78   2.0000      -6.041235      -164.3904
  79   2.0000      -6.037426      -164.2867
  80   2.0000      -6.035356      -164.2304
  81   2.0000      -6.031042      -164.1130
  82   2.0000      -6.027531      -164.0174
  83   2.0000      -1.335398       -36.3380
  84   2.0000      -1.322131       -35.9770
  85   2.0000      -1.144790       -31.1513
  86   2.0000      -1.140808       -31.0430
  87   2.0000      -1.140220       -31.0270
  88   2.0000      -1.134181       -30.8626
  89   2.0000      -1.132914       -30.8282
  90   2.0000      -1.132711       -30.8226
  91   2.0000      -1.125848       -30.6359
  92   2.0000      -1.073126       -29.2013
  93   2.0000      -1.069811       -29.1110
  94   2.0000      -1.064591       -28.9690
  95   2.0000      -1.061267       -28.8786
  96   2.0000      -1.051293       -28.6071
  97   2.0000      -1.022407       -27.8211
  98   2.0000      -1.016406       -27.6578
  99   2.0000      -1.014399       -27.6032
 100   2.0000      -1.010555       -27.4986
 101   2.0000      -1.006084       -27.3769
 102   2.0000      -0.995867       -27.0989
 103   2.0000      -0.994866       -27.0717
 104   2.0000      -0.988350       -26.8944
 105   2.0000      -0.981740       -26.7145
 106   2.0000      -0.934485       -25.4286
 107   2.0000      -0.932487       -25.3743
 108   2.0000      -0.928833       -25.2748
 109   2.0000      -0.922946       -25.1146
 110   2.0000      -0.915484       -24.9116
 111   2.0000      -0.910510       -24.7762
 112   2.0000      -0.896986       -24.4082
 113   2.0000      -0.892729       -24.2924
 114   2.0000      -0.884112       -24.0579
 115   2.0000      -0.880131       -23.9496
 116   2.0000      -0.863269       -23.4907
 117   2.0000      -0.857641       -23.3376
 118   2.0000      -0.848849       -23.0984
 119   2.0000      -0.846435       -23.0327
 120   2.0000      -0.835468       -22.7343
 121   2.0000      -0.825981       -22.4761
 122   2.0000      -0.822182       -22.3727
 123   2.0000      -0.813236       -22.1293
 124   2.0000      -0.800344       -21.7785
 125   2.0000      -0.795476       -21.6460
 126   2.0000      -0.773598       -21.0507
 127   2.0000      -0.772174       -21.0119
 128   2.0000      -0.767979       -20.8978
 129   2.0000      -0.763124       -20.7657
 130   2.0000      -0.759250       -20.6602
 131   2.0000      -0.743267       -20.2253
 132   2.0000      -0.727622       -19.7996
 133   2.0000      -0.720315       -19.6008
 134   2.0000      -0.713775       -19.4228
 135   2.0000      -0.705973       -19.2105
 136   2.0000      -0.699184       -19.0258
 137   2.0000      -0.692801       -18.8521
 138   2.0000      -0.692286       -18.8381
 139   2.0000      -0.689650       -18.7663
 140   2.0000      -0.682691       -18.5770
 141   2.0000      -0.680826       -18.5262
 142   2.0000      -0.679484       -18.4897
 143   2.0000      -0.677363       -18.4320
 144   2.0000      -0.671145       -18.2628
 145   2.0000      -0.669457       -18.2169
 146   2.0000      -0.663929       -18.0664
 147   2.0000      -0.655751       -17.8439
 148   2.0000      -0.650040       -17.6885
 149   2.0000      -0.633828       -17.2473
 150   2.0000      -0.626639       -17.0517
 151   2.0000      -0.622464       -16.9381
 152   2.0000      -0.621071       -16.9002
 153   2.0000      -0.610643       -16.6164
 154   2.0000      -0.601719       -16.3736
 155   2.0000      -0.601000       -16.3540
 156   2.0000      -0.598446       -16.2845
 157   2.0000      -0.595471       -16.2036
 158   2.0000      -0.591944       -16.1076
 159   2.0000      -0.588120       -16.0035
 160   2.0000      -0.579874       -15.7792
 161   2.0000      -0.578198       -15.7336
 162   2.0000      -0.577497       -15.7145
 163   2.0000      -0.577306       -15.7093
 164   2.0000      -0.575991       -15.6735
 165   2.0000      -0.572043       -15.5661
 166   2.0000      -0.565191       -15.3796
 167   2.0000      -0.563569       -15.3355
 168   2.0000      -0.562084       -15.2951
 169   2.0000      -0.560971       -15.2648
 170   2.0000      -0.556237       -15.1360
 171   2.0000      -0.555128       -15.1058
 172   2.0000      -0.549276       -14.9466
 173   2.0000      -0.548464       -14.9245
 174   2.0000      -0.543786       -14.7972
 175   2.0000      -0.540648       -14.7118
 176   2.0000      -0.536930       -14.6106
 177   2.0000      -0.535488       -14.5714
 178   2.0000      -0.533682       -14.5222
 179   2.0000      -0.524886       -14.2829
 180   2.0000      -0.523718       -14.2511
 181   2.0000      -0.520733       -14.1699
 182   2.0000      -0.518730       -14.1154
 183   2.0000      -0.516678       -14.0595
 184   2.0000      -0.513282       -13.9671
 185   2.0000      -0.510795       -13.8994
 186   2.0000      -0.507259       -13.8032
 187   2.0000      -0.503150       -13.6914
 188   2.0000      -0.502264       -13.6673
 189   2.0000      -0.500446       -13.6178
 190   2.0000      -0.500084       -13.6080
 191   2.0000      -0.497680       -13.5426
 192   2.0000      -0.494729       -13.4623
 193   2.0000      -0.492307       -13.3964
 194   2.0000      -0.490215       -13.3394
 195   2.0000      -0.488890       -13.3034
 196   2.0000      -0.485436       -13.2094
 197   2.0000      -0.482905       -13.1405
 198   2.0000      -0.481461       -13.1012
 199   2.0000      -0.480724       -13.0812
 200   2.0000      -0.476897       -12.9770
 201   2.0000      -0.476205       -12.9582
 202   2.0000      -0.475652       -12.9431
 203   2.0000      -0.474170       -12.9028
 204   2.0000      -0.471651       -12.8343
 205   2.0000      -0.469092       -12.7646
 206   2.0000      -0.459356       -12.4997
 207   2.0000      -0.457211       -12.4413
 208   2.0000      -0.456368       -12.4184
 209   2.0000      -0.455171       -12.3858
 210   2.0000      -0.452635       -12.3168
 211   2.0000      -0.449613       -12.2346
 212   2.0000      -0.448999       -12.2179
 213   2.0000      -0.446051       -12.1377
 214   2.0000      -0.445395       -12.1198
 215   2.0000      -0.444385       -12.0923
 216   2.0000      -0.443330       -12.0636
 217   2.0000      -0.438859       -11.9419
 218   2.0000      -0.437327       -11.9003
 219   2.0000      -0.435217       -11.8429
 220   2.0000      -0.434954       -11.8357
 221   2.0000      -0.433700       -11.8016
 222   2.0000      -0.428177       -11.6513
 223   2.0000      -0.425658       -11.5827
 224   2.0000      -0.424058       -11.5392
 225   2.0000      -0.423637       -11.5278
 226   2.0000      -0.419304       -11.4098
 227   2.0000      -0.415361       -11.3025
 228   2.0000      -0.412758       -11.2317
 229   2.0000      -0.410172       -11.1613
 230   2.0000      -0.401496       -10.9253
 231   2.0000      -0.401104       -10.9146
 232   2.0000      -0.382709       -10.4140
 233   2.0000      -0.378567       -10.3013
 234   2.0000      -0.377312       -10.2672
 235   2.0000      -0.367623       -10.0035
 236   2.0000      -0.358942        -9.7673
 237   2.0000      -0.356854        -9.7105
 238   2.0000      -0.351755        -9.5717
 239   2.0000      -0.351531        -9.5657
 240   2.0000      -0.345656        -9.4058
 241   2.0000      -0.339881        -9.2486
 242   2.0000      -0.338471        -9.2103
 243   2.0000      -0.336553        -9.1581
 244   2.0000      -0.331607        -9.0235
 245   2.0000      -0.323088        -8.7917
 246   2.0000      -0.321947        -8.7606
 247   2.0000      -0.316796        -8.6205
 248   2.0000      -0.315718        -8.5911
 249   2.0000      -0.303603        -8.2615
 250   2.0000      -0.294819        -8.0224
 251   2.0000      -0.257032        -6.9942
 252   2.0000      -0.239260        -6.5106
 253   0.0000      -0.133668        -3.6373
 254   0.0000      -0.095293        -2.5931
 255   0.0000      -0.083426        -2.2701
 256   0.0000      -0.062717        -1.7066
 257   0.0000      -0.059060        -1.6071

MULLIKEN ATOMIC CHARGES
-----------------------
   0 C :    0.293834
   1 C :   -0.333074
   2 C :   -0.184565
   3 N :    0.152878
   4 C :   -0.197937
   5 N :    0.171167
   6 C :    0.019708
   7 C :   -0.020108
   8 C :   -0.065136
   9 C :    0.113172
  10 C :   -0.094569
  11 C :   -0.020725
  12 S :    0.144296
  13 C :   -0.048339
  14 C :    0.025145
  15 C :    0.157271
  16 O :   -0.154480
  17 C :   -0.051585
  18 C :   -0.073770
  19 C :    0.060383
  20 C :   -0.049877
  21 C :   -0.046902
  22 N :    0.050879
  23 C :   -0.131146
  24 C :   -0.128183
  25 N :    0.063166
  26 C :   -0.204637
  27 N :    0.241759
  28 C :   -0.213453
  29 N :    0.244119
  30 C :    0.075170
  31 C :    0.004358
  32 C :    0.036250
  33 N :   -0.275119
  34 S :    0.574133
  35 N :   -0.238485
  36 C :    0.000010
  37 N :   -0.239730
  38 C :    0.127898
  39 C :    0.171197
  40 O :   -0.198263
  41 C :   -0.107097
  42 C :   -0.005636
  43 C :    0.141436
  44 O :   -0.181854
  45 N :   -0.276405
  46 C :    0.117527
  47 C :    0.164042
  48 C :   -0.048554
  49 C :    0.090349
  50 C :   -0.146320
  51 C :    0.215577
  52 F :   -0.170721
  53 C :    0.201741
  54 F :   -0.168096
  55 C :   -0.254060
  56 S :    0.255924
  57 C :    0.231228
  58 N :   -0.283064
  59 C :    0.122504
  60 C :    0.142019
  61 O :   -0.182688
  62 C :   -0.033505
  63 C :   -0.112038
  64 C :    0.148765
  65 O :   -0.198733
  66 N :   -0.267377
  67 C :    0.109674
  68 C :    0.073327
  69 C :   -0.015705
  70 C :    0.002155
  71 H :   -0.013173
  72 H :   -0.005683
  73 H :    0.040387
  74 H :   -0.006743
  75 H :    0.049134
  76 H :    0.025894
  77 H :    0.049472
  78 H :    0.055036
  79 H :    0.059826
  80 H :    0.037387
  81 H :    0.040273
  82 H :   -0.015400
  83 H :    0.016665
  84 H :    0.040374
  85 H :    0.031224
  86 H :    0.056708
  87 H :    0.062316
  88 H :    0.041998
  89 H :    0.042076
  90 H :    0.017373
  91 H :    0.016972
  92 H :    0.036755
Sum of atomic charges:    0.0000000

LOEWDIN ATOMIC CHARGES
----------------------
   0 C :    0.073296
   1 C :   -0.127989
   2 C :   -0.017191
   3 N :   -0.047413
   4 C :   -0.023134
   5 N :   -0.041473
   6 C :   -0.021636
   7 C :   -0.051845
   8 C :    0.023176
   9 C :   -0.034009
  10 C :   -0.144524
  11 C :   -0.007799
  12 S :    0.432422
  13 C :   -0.147896
  14 C :   -0.057982
  15 C :    0.086012
  16 O :   -0.145138
  17 C :   -0.063304
  18 C :    0.076322
  19 C :   -0.029032
  20 C :    0.007114
  21 C :   -0.007375
  22 N :    0.004447
  23 C :   -0.030313
  24 C :   -0.020332
  25 N :   -0.000984
  26 C :   -0.035163
  27 N :    0.002752
  28 C :   -0.039267
  29 N :   -0.001433
  30 C :   -0.015972
  31 C :   -0.033326
  32 C :   -0.024272
  33 N :   -0.280814
  34 S :    0.716173
  35 N :   -0.260281
  36 C :    0.067672
  37 N :    0.010294
  38 C :    0.026214
  39 C :    0.080005
  40 O :   -0.193164
  41 C :   -0.126848
  42 C :   -0.087657
  43 C :    0.085837
  44 O :   -0.185169
  45 N :   -0.008111
  46 C :    0.029013
  47 C :    0.091838
  48 C :   -0.050282
  49 C :    0.025172
  50 C :   -0.204286
  51 C :    0.032174
  52 F :   -0.045151
  53 C :    0.027235
  54 F :   -0.036373
  55 C :   -0.206363
  56 S :    0.559106
  57 C :    0.059032
  58 N :   -0.010382
  59 C :    0.023085
  60 C :    0.082587
  61 O :   -0.187756
  62 C :   -0.120351
  63 C :   -0.131883
  64 C :    0.070880
  65 O :   -0.198344
  66 N :   -0.004541
  67 C :    0.029217
  68 C :    0.077249
  69 C :   -0.029829
  70 C :   -0.012202
  71 H :    0.039791
  72 H :    0.041131
  73 H :    0.030106
  74 H :    0.035342
  75 H :    0.049846
  76 H :    0.025575
  77 H :    0.025930
  78 H :    0.038900
  79 H :    0.042145
  80 H :    0.028094
  81 H :    0.029153
  82 H :    0.029430
  83 H :    0.041900
  84 H :    0.024737
  85 H :    0.024610
  86 H :    0.038905
  87 H :    0.042638
  88 H :    0.027667
  89 H :    0.027401
  90 H :    0.049405
  91 H :    0.023365
  92 H :    0.034196

  Mayer bond orders larger than 0.100000
B(  0-C ,  1-C ) :   1.6578 B(  0-C ,  6-C ) :   1.0124 B(  0-C , 17-C ) :   1.0469
B(  1-C ,  2-C ) :   1.1375 B(  1-C ,  4-C ) :   1.1436 B(  2-C ,  3-N ) :   2.9736
B(  4-C ,  5-N ) :   2.9880 B(  6-C ,  7-C ) :   1.2660 B(  6-C , 11-C ) :   1.4059
B(  7-C ,  8-C ) :   1.4228 B(  7-C , 15-C ) :   0.9560 B(  8-C ,  9-C ) :   1.2482
B(  8-C , 71-H ) :   1.0167 B(  9-C , 10-C ) :   1.2974 B(  9-C , 14-C ) :   1.1725
B( 10-C , 11-C ) :   1.3281 B( 10-C , 12-S ) :   1.1000 B( 11-C , 72-H ) :   0.9831
B( 12-S , 13-C ) :   1.1269 B( 13-C , 14-C ) :   1.6291 B( 13-C , 73-H ) :   0.9680
B( 14-C , 74-H ) :   0.9991 B( 15-C , 16-O ) :   2.2164 B( 15-C , 17-C ) :   0.9268
B( 17-C , 18-C ) :   1.6660 B( 18-C , 19-C ) :   1.1226 B( 18-C , 75-H ) :   0.9281
B( 19-C , 20-C ) :   1.2620 B( 19-C , 30-C ) :   0.1332 B( 19-C , 32-C ) :   1.2236
B( 20-C , 21-C ) :   1.1111 B( 20-C , 25-N ) :   1.4561 B( 21-C , 22-N ) :   1.4595
B( 21-C , 30-C ) :   1.2677 B( 22-N , 23-C ) :   1.7047 B( 23-C , 24-C ) :   1.2089
B( 23-C , 28-C ) :   1.1484 B( 24-C , 25-N ) :   1.7412 B( 24-C , 26-C ) :   1.1525
B( 26-C , 27-N ) :   3.0470 B( 28-C , 29-N ) :   3.0480 B( 30-C , 31-C ) :   1.2820
B( 30-C , 36-C ) :   1.0130 B( 31-C , 32-C ) :   1.0945 B( 31-C , 35-N ) :   1.5101
B( 32-C , 33-N ) :   1.4899 B( 33-N , 34-S ) :   1.3012 B( 33-N , 35-N ) :   0.1523
B( 34-S , 35-N ) :   1.3187 B( 36-C , 37-N ) :   1.2447 B( 36-C , 42-C ) :   1.4188
B( 37-N , 38-C ) :   0.9602 B( 37-N , 39-C ) :   1.0418 B( 38-C , 76-H ) :   0.9718
B( 38-C , 77-H ) :   0.9619 B( 38-C , 78-H ) :   0.9512 B( 39-C , 40-O ) :   2.0412
B( 39-C , 41-C ) :   0.9997 B( 40-O , 83-H ) :   0.1116 B( 41-C , 42-C ) :   1.2565
B( 41-C , 47-C ) :   1.3078 B( 42-C , 43-C ) :   0.9508 B( 43-C , 44-O ) :   2.1548
B( 43-C , 45-N ) :   1.0341 B( 45-N , 46-C ) :   0.9639 B( 45-N , 47-C ) :   1.1730
B( 46-C , 79-H ) :   0.9511 B( 46-C , 80-H ) :   0.9726 B( 46-C , 81-H ) :   0.9724
B( 47-C , 48-C ) :   1.1805 B( 48-C , 49-C ) :   1.5830 B( 48-C , 82-H ) :   0.9645
B( 49-C , 50-C ) :   1.1580 B( 49-C , 83-H ) :   0.9335 B( 50-C , 51-C ) :   1.3888
B( 50-C , 55-C ) :   0.1368 B( 50-C , 56-S ) :   1.1021 B( 51-C , 52-F ) :   1.1283
B( 51-C , 53-C ) :   1.2718 B( 53-C , 54-F ) :   1.1583 B( 53-C , 55-C ) :   1.3582
B( 55-C , 56-S ) :   1.1553 B( 55-C , 57-C ) :   1.1464 B( 57-C , 58-N ) :   1.2130
B( 57-C , 63-C ) :   1.3604 B( 58-N , 59-C ) :   0.9552 B( 58-N , 60-C ) :   1.0142
B( 59-C , 84-H ) :   0.9736 B( 59-C , 85-H ) :   0.9739 B( 59-C , 86-H ) :   0.9471
B( 60-C , 61-O ) :   2.1482 B( 60-C , 62-C ) :   0.9867 B( 62-C , 63-C ) :   1.2298
B( 62-C , 68-C ) :   1.3781 B( 63-C , 64-C ) :   0.9876 B( 64-C , 65-O ) :   2.0834
B( 64-C , 66-N ) :   1.0522 B( 66-N , 67-C ) :   0.9613 B( 66-N , 68-C ) :   1.1774
B( 67-C , 87-H ) :   0.9466 B( 67-C , 88-H ) :   0.9715 B( 67-C , 89-H ) :   0.9715
B( 68-C , 69-C ) :   1.1589 B( 69-C , 70-C ) :   1.8755 B( 69-C , 90-H ) :   0.9365
B( 70-C , 91-H ) :   0.9603 B( 70-C , 92-H ) :   0.9396

-----------------------------------------------------------------------------
         ABSORPTION SPECTRUM VIA TRANSITION ELECTRIC DIPOLE MOMENTS
-----------------------------------------------------------------------------
State   Energy  Wavelength   fosc         T2         TX        TY        TZ
        (cm-1)    (nm)                  (au**2)     (au)      (au)      (au)
-----------------------------------------------------------------------------
   0    8168.1   1224.3   0.509992591  20.55516   1.10942  -4.29438  -0.93949
   1   15488.1    645.7   0.297033509   6.31368   0.25231  -2.17611   1.23067
   2   17322.9    577.3   0.152657570   2.90116  -0.28827   1.67772   0.05752
   3   19251.3    519.4   0.155705428   2.66269   0.13650  -1.62502   0.05812
   4   20765.0    481.6   0.238238883   3.77708  -0.22931   0.88115   1.71699
   5   21137.5    473.1   0.195880011   3.05078  -0.42585  -1.37278   0.99242
   6   22007.2    454.4   0.005055488   0.07563   0.20086   0.16010   0.09823
   7   22223.8    450.0   0.016201558   0.24000   0.29293   0.25559   0.29811
   8   23268.9    429.8   0.047088698   0.66622  -0.28271  -0.76570   0.00066
   9   24061.7    415.6   0.150818927   2.06351  -0.30470  -0.13440   1.39736
  10   24844.1    402.5   0.041454960   0.54932  -0.36899  -0.11084   0.63316
  11   25113.8    398.2   0.003686714   0.04833  -0.14182   0.01492  -0.16731
  12   25765.4    388.1   0.068586549   0.87635   0.17748   0.18070   0.90122
  13   26570.1    376.4   0.078257191   0.96963   0.06390  -0.91783   0.35090
  14   26714.5    374.3   0.082440686   1.01595   0.73534  -0.01154  -0.68927
  15   27000.0    370.4   0.151195301   1.84353  -0.51662   1.24597   0.15555
  16   27622.4    362.0   0.010120889   0.12062   0.15416  -0.27423   0.14717
  17   28019.8    356.9   0.045930965   0.53966   0.70249  -0.06594  -0.20447
  18   28076.4    356.2   0.055162334   0.64681  -0.34864  -0.72394   0.03419
  19   28507.5    350.8   0.041468580   0.47889   0.35701   0.33304  -0.49042
  20   28897.9    346.0   0.223666690   2.54807  -0.54114   1.50033  -0.06507
  21   29120.7    343.4   0.024766167   0.27998  -0.47853  -0.20853   0.08666
  22   29520.6    338.7   0.038137634   0.42531   0.15319  -0.56308  -0.29117
  23   29964.1    333.7   0.195209928   2.14475   0.78847   0.59867  -1.07919
  24   30117.7    332.0   0.203137387   2.22046   1.16835   0.73751   0.55814
  25   30209.9    331.0   0.023630147   0.25751   0.32837   0.34114   0.18250
  26   30549.7    327.3   0.083175935   0.89633   0.16437  -0.85011   0.38290
  27   31095.5    321.6   0.207027001   2.19182  -0.65146  -1.27590  -0.37350
  28   31238.5    320.1   0.188269012   1.98411  -1.18934  -0.23106   0.71846
  29   31378.0    318.7   0.028838210   0.30257   0.50417  -0.10585   0.19281
  30   32004.8    312.5   0.048740073   0.50136  -0.01241  -0.56976   0.42021
  31   32170.3    310.8   0.082228618   0.84148   0.07349   0.79394  -0.45358
  32   32441.8    308.2   0.023729193   0.24080   0.48387   0.06047   0.05487
  33   32533.5    307.4   0.052874010   0.53504  -0.72465  -0.04087   0.09088
  34   32976.7    303.2   0.001784574   0.01782  -0.07486   0.09557   0.05548
  35   33648.6    297.2   0.019664263   0.19239   0.18100   0.32894   0.22677
  36   33677.4    296.9   0.140785371   1.37624   0.83817   0.80383  -0.16605
  37   34008.1    294.0   0.201395131   1.94959   0.64450  -1.22973   0.14823
  38   34492.1    289.9   0.137010831   1.30771  -0.90978  -0.64039   0.26440
  39   34973.6    285.9   0.415254038   3.90885  -1.87280   0.07429  -0.62923
  40   35158.0    284.4   0.047001977   0.44012   0.19896  -0.25056   0.58116
  41   35568.9    281.1   0.004032100   0.03732   0.01390   0.13867  -0.13377
  42   36035.7    277.5   0.031484106   0.28763   0.37185   0.23636  -0.30576
  43   36293.3    275.5   0.003731237   0.03385   0.09628  -0.06577   0.14231
  44   36642.8    272.9   0.012482144   0.11214   0.31681   0.10469  -0.02851
  45   37018.7    270.1   0.075958508   0.67551   0.67634   0.09304  -0.45762
  46   37196.0    268.8   0.136001324   1.20371   0.62696   0.24596  -0.86611
  47   37659.8    265.5   0.129386487   1.13106   0.82294   0.10584  -0.66531
  48   37873.0    264.0   0.085395992   0.74231   0.64444   0.47563  -0.31746
  49   38231.3    261.6   0.033824577   0.29127   0.44401   0.24647  -0.18269
  50   38573.5    259.2   0.019435246   0.16587   0.07206  -0.38004  -0.12747
  51   38737.5    258.1   0.013882553   0.11798  -0.21100  -0.23861   0.12854
  52   39177.0    255.3   0.008921256   0.07497   0.24738  -0.10060  -0.06041
  53   39260.9    254.7   0.014507025   0.12164   0.21099   0.27747   0.01192
  54   39545.9    252.9   0.013903353   0.11574  -0.20308   0.08717   0.25865
  55   39566.3    252.7   0.094766593   0.78851   0.67313   0.09387  -0.57148
  56   39609.8    252.5   0.017508291   0.14552   0.15631  -0.17185  -0.30258
  57   39849.1    250.9   0.064093606   0.52951   0.07407  -0.43982   0.57496
  58   40106.3    249.3   0.155469559   1.27617  -0.67612   0.89723  -0.11831
  59   40255.5    248.4   0.055454883   0.45351   0.13001  -0.60420   0.26749

FINAL SINGLE POINT ENERGY     -4303.569097694975

DIPOLE MOMENT
-------------
                                X             Y             Z
Electronic contribution:     17.00591     -49.28279      14.82828
Nuclear contribution   :    -21.50937      50.26253     -14.41674
                        -----------------------------------------
Total Dipole Moment    :     -4.50346       0.97974       0.41154
                        -----------------------------------------
Magnitude (a.u.)       :      4.62714
Magnitude (Debye)      :     11.76125

Rotational constants in cm-1:     0.002082     0.000282     0.000271
Rotational constants in MHz :    62.404188     8.450238     8.117563

                             ****ORCA TERMINATED NORMALLY****
TOTAL RUN TIME: 0 days 0 hours 9 minutes 43 seconds 456 msec
