                         Program Version 4.2.0 -  RELEASE  -
|  1> # ORCA input file
|  2> # SCF done       -194.518881751145          0.000553221996
|  3> ! CAM-B3LYP def2-SVP def2/J RIJCOSX Grid4 TightSCF
|  4> %maxcore 5000
|  5> %tddft
|  6>     Mode sTDDFT
|  7>     Ethresh 5.0
|  8>     maxcore 5000
|  9> end
| 10>
| 11> %pal
| 12>   nprocs 6
| 13>   end
| 14> * xyz 0 1
| 15>    C       -2.58470        10.59946         3.23469
| 16>    C       -3.42441        11.49250         3.85337
| 17>    C       -3.11725        12.16385         5.05473
| 18>    N       -2.93162        12.74443         6.02793
| 19>    C       -4.70639        11.86910         3.40407
| 20>    N       -5.75865        12.22915         3.11449
| 21>    C       -1.26664        10.20919         3.72898
| 22>    C       -0.71780         9.24680         2.84678
| 23>    C        0.52076         8.68470         3.03334
| 24>    C        1.25922         9.09361         4.14901
| 25>    C        0.70412        10.05339         5.02743
| 26>    C       -0.55064        10.62055         4.83744
| 27>    S        1.78374        10.41746         6.33974
| 28>    C        2.95017         9.29177         5.69735
| 29>    C        2.55373         8.67304         4.56010
| 30>   Br        4.58144         9.03972         6.58826
| 31>    C       -1.67700         8.99115         1.75745
| 32>    O       -1.52379         8.20581         0.83808
| 33>    C       -2.82493         9.86624         2.00837
| 34>    C       -3.92506         9.99363         1.19515
| 35>    C       -4.25138         9.34270        -0.00134
| 36>    S       -3.31437         8.08370        -0.80403
| 37>    C       -4.49787         7.98501        -2.04805
| 38>    C       -5.55731         8.89307        -1.85238
| 39>    C       -5.42140         9.64695        -0.70536
| 40>    S       -6.75955         8.82314        -3.11779
| 41>    C       -5.83746         7.57498        -3.91023
| 42>    C       -6.02347         6.84340        -5.08477
| 43>    C       -5.00880         5.93706        -5.29982
| 44>    S       -3.80144         5.99210        -4.02850
| 45>    C       -4.66933         7.24063        -3.21645
| 46>    C       -4.85513         5.01239        -6.39575
| 47>    C       -5.60744         5.16763        -7.57147
| 48>    C       -5.44426         4.27516        -8.60225
| 49>    C       -4.50479         3.23174        -8.49925
| 50>    C       -3.75781         3.06936        -7.34029
| 51>    C       -3.94226         3.95483        -6.30032
| 52>    C       -4.46781         2.51557        -9.75181
| 53>    C       -5.37288         3.12163       -10.64078
| 54>    C       -6.12840         4.23885        -9.95054
| 55>    C       -7.60018         3.77684        -9.82922
| 56>    C       -8.50387         4.65640        -8.97534
| 57>    C       -6.01248         5.57250       -10.70175
| 58>    C       -4.56250         5.98158       -10.93422
| 59>    C       -5.49611         2.66449       -11.92750
| 60>    C       -4.72016         1.57417       -12.36522
| 61>    C       -3.83426         0.97172       -11.45512
| 62>    C       -3.70079         1.43310       -10.16433
| 63>    C       -4.85381         1.13407       -13.72385
| 64>    C       -4.29991         0.01936       -14.27153
| 65>    C       -4.44363        -0.34716       -15.62084
| 66>    C       -3.92290        -1.49649       -16.16160
| 67>    C       -3.99379        -1.92458       -17.50899
| 68>    C       -3.38726        -3.12067       -17.75231
| 69>    C       -2.80919        -3.71361       -16.60995
| 70>    S       -3.04752        -2.68822       -15.21054
| 71>    C       -2.15135        -4.92547       -16.51531
| 72>    C       -1.86711        -5.84899       -17.54467
| 73>    C       -1.21167        -6.96371       -17.11864
| 74>    C       -0.94052        -6.99875       -15.72662
| 75>    S       -1.55251        -5.52502       -14.98631
| 76>    C       -0.30995        -8.02578       -15.07322
| 77>    C       -0.01676        -8.16758       -13.70038
| 78>    C        0.62844        -9.27555       -13.14380
| 79>    C        0.74638        -9.08416       -11.74461
| 80>    C        1.29016        -9.86479       -10.74988
| 81>    C        1.24240        -9.37465        -9.43335
| 82>    C        1.69188        -9.90867        -8.23571
| 83>    C        1.39245        -8.99469        -7.17448
| 84>    C        0.75737        -7.89644        -7.72207
| 85>    C        0.63922        -8.08706        -9.13481
| 86>    C        0.09710        -7.30739       -10.11911
| 87>    C        0.14329        -7.79725       -11.44319
| 88>    C       -0.31150        -7.25517       -12.62762
| 89>    C        1.69098        -9.16735        -5.77345
| 90>    C        2.29369       -10.22304        -5.23305
| 91>    H        0.90831         7.95438         2.34049
| 92>    H       -0.92537        11.34927         5.53627
| 93>    H        3.14806         7.95076         4.03087
| 94>    H       -4.67390        10.71472         1.49979
| 95>    H       -6.12200        10.39070        -0.37106
| 96>    H       -6.87324         6.96338        -5.73021
| 97>    H       -6.27862         6.00601        -7.66630
| 98>    H       -3.03808         2.26939        -7.25619
| 99>    H       -3.37032         3.84130        -5.39050
|100>    H       -7.60015         2.76669        -9.41105
|101>    H       -8.01175         3.71427       -10.83911
|102>    H       -8.17518         4.65797        -7.93952
|103>    H       -9.51898         4.26604        -9.00597
|104>    H       -8.52620         5.67902        -9.34287
|105>    H       -6.51501         6.35330       -10.12933
|106>    H       -6.52297         5.48033       -11.66276
|107>    H       -4.03926         6.09160        -9.98678
|108>    H       -4.52010         6.93078       -11.46362
|109>    H       -4.04217         5.23244       -11.52680
|110>    H       -6.18359         3.13161       -12.61875
|111>    H       -3.22972         0.13875       -11.77797
|112>    H       -3.00555         0.96252        -9.48502
|113>    H       -5.46867         1.75838       -14.36156
|114>    H       -3.71286        -0.65199       -13.65910
|115>    H       -4.99140         0.31185       -16.28183
|116>    H       -4.49049        -1.33182       -18.25704
|117>    H       -3.34681        -3.59261       -18.71789
|118>    H       -2.15040        -5.66626       -18.56576
|119>    H       -0.91368        -7.77342       -17.76183
|120>    H        0.00198        -8.85238       -15.70153
|121>    H        0.97788       -10.13483       -13.68634
|122>    H        1.74034       -10.82400       -10.96396
|123>    H        2.18634       -10.85546        -8.11811
|124>    H        0.40485        -7.03454        -7.18529
|125>    H       -0.35463        -6.34830        -9.90794
|126>    H       -0.80641        -6.30810       -12.73308
|127>    H        1.38226        -8.34564        -5.13874
|128>    H        2.61840       -11.06374        -5.82177
|129>    H        2.48431       -10.28217        -4.17548
|130> *
|131>
|132>                          ****END OF INPUT****

CARTESIAN COORDINATES (ANGSTROEM)
---------------------------------
  C     -2.584700   10.599460    3.234690
  C     -3.424410   11.492500    3.853370
  C     -3.117250   12.163850    5.054730
  N     -2.931620   12.744430    6.027930
  C     -4.706390   11.869100    3.404070
  N     -5.758650   12.229150    3.114490
  C     -1.266640   10.209190    3.728980
  C     -0.717800    9.246800    2.846780
  C      0.520760    8.684700    3.033340
  C      1.259220    9.093610    4.149010
  C      0.704120   10.053390    5.027430
  C     -0.550640   10.620550    4.837440
  S      1.783740   10.417460    6.339740
  C      2.950170    9.291770    5.697350
  C      2.553730    8.673040    4.560100
  Br     4.581440    9.039720    6.588260
  C     -1.677000    8.991150    1.757450
  O     -1.523790    8.205810    0.838080
  C     -2.824930    9.866240    2.008370
  C     -3.925060    9.993630    1.195150
  C     -4.251380    9.342700   -0.001340
  S     -3.314370    8.083700   -0.804030
  C     -4.497870    7.985010   -2.048050
  C     -5.557310    8.893070   -1.852380
  C     -5.421400    9.646950   -0.705360
  S     -6.759550    8.823140   -3.117790
  C     -5.837460    7.574980   -3.910230
  C     -6.023470    6.843400   -5.084770
  C     -5.008800    5.937060   -5.299820
  S     -3.801440    5.992100   -4.028500
  C     -4.669330    7.240630   -3.216450
  C     -4.855130    5.012390   -6.395750
  C     -5.607440    5.167630   -7.571470
  C     -5.444260    4.275160   -8.602250
  C     -4.504790    3.231740   -8.499250
  C     -3.757810    3.069360   -7.340290
  C     -3.942260    3.954830   -6.300320
  C     -4.467810    2.515570   -9.751810
  C     -5.372880    3.121630  -10.640780
  C     -6.128400    4.238850   -9.950540
  C     -7.600180    3.776840   -9.829220
  C     -8.503870    4.656400   -8.975340
  C     -6.012480    5.572500  -10.701750
  C     -4.562500    5.981580  -10.934220
  C     -5.496110    2.664490  -11.927500
  C     -4.720160    1.574170  -12.365220
  C     -3.834260    0.971720  -11.455120
  C     -3.700790    1.433100  -10.164330
  C     -4.853810    1.134070  -13.723850
  C     -4.299910    0.019360  -14.271530
  C     -4.443630   -0.347160  -15.620840
  C     -3.922900   -1.496490  -16.161600
  C     -3.993790   -1.924580  -17.508990
  C     -3.387260   -3.120670  -17.752310
  C     -2.809190   -3.713610  -16.609950
  S     -3.047520   -2.688220  -15.210540
  C     -2.151350   -4.925470  -16.515310
  C     -1.867110   -5.848990  -17.544670
  C     -1.211670   -6.963710  -17.118640
  C     -0.940520   -6.998750  -15.726620
  S     -1.552510   -5.525020  -14.986310
  C     -0.309950   -8.025780  -15.073220
  C     -0.016760   -8.167580  -13.700380
  C      0.628440   -9.275550  -13.143800
  C      0.746380   -9.084160  -11.744610
  C      1.290160   -9.864790  -10.749880
  C      1.242400   -9.374650   -9.433350
  C      1.691880   -9.908670   -8.235710
  C      1.392450   -8.994690   -7.174480
  C      0.757370   -7.896440   -7.722070
  C      0.639220   -8.087060   -9.134810
  C      0.097100   -7.307390  -10.119110
  C      0.143290   -7.797250  -11.443190
  C     -0.311500   -7.255170  -12.627620
  C      1.690980   -9.167350   -5.773450
  C      2.293690  -10.223040   -5.233050
  H      0.908310    7.954380    2.340490
  H     -0.925370   11.349270    5.536270
  H      3.148060    7.950760    4.030870
  H     -4.673900   10.714720    1.499790
  H     -6.122000   10.390700   -0.371060
  H     -6.873240    6.963380   -5.730210
  H     -6.278620    6.006010   -7.666300
  H     -3.038080    2.269390   -7.256190
  H     -3.370320    3.841300   -5.390500
  H     -7.600150    2.766690   -9.411050
  H     -8.011750    3.714270  -10.839110
  H     -8.175180    4.657970   -7.939520
  H     -9.518980    4.266040   -9.005970
  H     -8.526200    5.679020   -9.342870
  H     -6.515010    6.353300  -10.129330
  H     -6.522970    5.480330  -11.662760
  H     -4.039260    6.091600   -9.986780
  H     -4.520100    6.930780  -11.463620
  H     -4.042170    5.232440  -11.526800
  H     -6.183590    3.131610  -12.618750
  H     -3.229720    0.138750  -11.777970
  H     -3.005550    0.962520   -9.485020
  H     -5.468670    1.758380  -14.361560
  H     -3.712860   -0.651990  -13.659100
  H     -4.991400    0.311850  -16.281830
  H     -4.490490   -1.331820  -18.257040
  H     -3.346810   -3.592610  -18.717890
  H     -2.150400   -5.666260  -18.565760
  H     -0.913680   -7.773420  -17.761830
  H      0.001980   -8.852380  -15.701530
  H      0.977880  -10.134830  -13.686340
  H      1.740340  -10.824000  -10.963960
  H      2.186340  -10.855460   -8.118110
  H      0.404850   -7.034540   -7.185290
  H     -0.354630   -6.348300   -9.907940
  H     -0.806410   -6.308100  -12.733080
  H      1.382260   -8.345640   -5.138740
  H      2.618400  -11.063740   -5.821770
  H      2.484310  -10.282170   -4.175480

 Total Charge           Charge          ....    0
 Multiplicity           Mult            ....    1
 Number of Electrons    NEL             ....  588
 Basis Dimension        Dim             .... 1301

ORBITAL ENERGIES
----------------

  NO   OCC          E(Eh)            E(eV)
   0   2.0000    -482.882852    -13139.9104
   1   2.0000     -88.972025     -2421.0519
   2   2.0000     -88.963933     -2420.8317
   3   2.0000     -88.962420     -2420.7905
   4   2.0000     -88.961411     -2420.7631
   5   2.0000     -88.938734     -2420.1460
   6   2.0000     -88.935713     -2420.0638
   7   2.0000     -62.560559     -1702.3594
   8   2.0000     -56.394508     -1534.5726
   9   2.0000     -56.391795     -1534.4987
  10   2.0000     -56.391763     -1534.4979
  11   2.0000     -19.215777      -522.8879
  12   2.0000     -14.411797      -392.1649
  13   2.0000     -14.408472      -392.0745
  14   2.0000     -10.363951      -282.0174
  15   2.0000     -10.355555      -281.7890
  16   2.0000     -10.336455      -281.2693
  17   2.0000     -10.334624      -281.2194
  18   2.0000     -10.321517      -280.8628
  19   2.0000     -10.318195      -280.7724
  20   2.0000     -10.315131      -280.6890
  21   2.0000     -10.315106      -280.6883
  22   2.0000     -10.313275      -280.6385
  23   2.0000     -10.312092      -280.6063
  24   2.0000     -10.311478      -280.5896
  25   2.0000     -10.311445      -280.5887
  26   2.0000     -10.307184      -280.4727
  27   2.0000     -10.306551      -280.4555
  28   2.0000     -10.303801      -280.3807
  29   2.0000     -10.303637      -280.3762
  30   2.0000     -10.303428      -280.3705
  31   2.0000     -10.301096      -280.3071
  32   2.0000     -10.300968      -280.3036
  33   2.0000     -10.300357      -280.2870
  34   2.0000     -10.299073      -280.2520
  35   2.0000     -10.298518      -280.2369
  36   2.0000     -10.298392      -280.2335
  37   2.0000     -10.297212      -280.2014
  38   2.0000     -10.296892      -280.1927
  39   2.0000     -10.293538      -280.1014
  40   2.0000     -10.289763      -279.9987
  41   2.0000     -10.288351      -279.9603
  42   2.0000     -10.287747      -279.9438
  43   2.0000     -10.285989      -279.8960
  44   2.0000     -10.283598      -279.8309
  45   2.0000     -10.281481      -279.7733
  46   2.0000     -10.280218      -279.7390
  47   2.0000     -10.279416      -279.7171
  48   2.0000     -10.279345      -279.7152
  49   2.0000     -10.278805      -279.7005
  50   2.0000     -10.276672      -279.6425
  51   2.0000     -10.275893      -279.6213
  52   2.0000     -10.275717      -279.6165
  53   2.0000     -10.275670      -279.6152
  54   2.0000     -10.274583      -279.5856
  55   2.0000     -10.274021      -279.5703
  56   2.0000     -10.273374      -279.5527
  57   2.0000     -10.271726      -279.5079
  58   2.0000     -10.271570      -279.5036
  59   2.0000     -10.271042      -279.4893
  60   2.0000     -10.269600      -279.4500
  61   2.0000     -10.269324      -279.4425
  62   2.0000     -10.269169      -279.4383
  63   2.0000     -10.268728      -279.4263
  64   2.0000     -10.267881      -279.4032
  65   2.0000     -10.267118      -279.3825
  66   2.0000     -10.266944      -279.3777
  67   2.0000     -10.266631      -279.3692
  68   2.0000     -10.266044      -279.3533
  69   2.0000     -10.265351      -279.3344
  70   2.0000     -10.265191      -279.3300
  71   2.0000     -10.264383      -279.3081
  72   2.0000     -10.264381      -279.3080
  73   2.0000     -10.263664      -279.2885
  74   2.0000     -10.263635      -279.2877
  75   2.0000     -10.263271      -279.2778
  76   2.0000     -10.262803      -279.2651
  77   2.0000     -10.256652      -279.0977
  78   2.0000     -10.253629      -279.0154
  79   2.0000     -10.246506      -278.8216
  80   2.0000      -8.789982      -239.1876
  81   2.0000      -8.068036      -219.5424
  82   2.0000      -8.058993      -219.2964
  83   2.0000      -8.056605      -219.2314
  84   2.0000      -8.055404      -219.1987
  85   2.0000      -8.034627      -218.6333
  86   2.0000      -8.031985      -218.5614
  87   2.0000      -6.626283      -180.3103
  88   2.0000      -6.611729      -179.9143
  89   2.0000      -6.611507      -179.9083
  90   2.0000      -6.037728      -164.2949
  91   2.0000      -6.033445      -164.1784
  92   2.0000      -6.029255      -164.0644
  93   2.0000      -6.028493      -164.0436
  94   2.0000      -6.026380      -163.9861
  95   2.0000      -6.025145      -163.9525
  96   2.0000      -6.024397      -163.9322
  97   2.0000      -6.022555      -163.8820
  98   2.0000      -6.020689      -163.8313
  99   2.0000      -6.020567      -163.8280
 100   2.0000      -6.017462      -163.7435
 101   2.0000      -6.017046      -163.7321
 102   2.0000      -6.004403      -163.3881
 103   2.0000      -6.001716      -163.3150
 104   2.0000      -6.000385      -163.2788
 105   2.0000      -5.997804      -163.2085
 106   2.0000      -5.995537      -163.1469
 107   2.0000      -5.992820      -163.0729
 108   2.0000      -2.742133       -74.6172
 109   2.0000      -2.738036       -74.5057
 110   2.0000      -2.737963       -74.5038
 111   2.0000      -2.726349       -74.1877
 112   2.0000      -2.726335       -74.1873
 113   2.0000      -1.131342       -30.7854
 114   2.0000      -1.022300       -27.8182
 115   2.0000      -1.018640       -27.7186
 116   2.0000      -1.008986       -27.4559
 117   2.0000      -0.989900       -26.9365
 118   2.0000      -0.989170       -26.9167
 119   2.0000      -0.988155       -26.8891
 120   2.0000      -0.985653       -26.8210
 121   2.0000      -0.984320       -26.7847
 122   2.0000      -0.981332       -26.7034
 123   2.0000      -0.966389       -26.2968
 124   2.0000      -0.957416       -26.0526
 125   2.0000      -0.948467       -25.8091
 126   2.0000      -0.938981       -25.5510
 127   2.0000      -0.929547       -25.2943
 128   2.0000      -0.914995       -24.8983
 129   2.0000      -0.904362       -24.6089
 130   2.0000      -0.900246       -24.4969
 131   2.0000      -0.894743       -24.3472
 132   2.0000      -0.893495       -24.3132
 133   2.0000      -0.881767       -23.9941
 134   2.0000      -0.880904       -23.9706
 135   2.0000      -0.871166       -23.7056
 136   2.0000      -0.866173       -23.5698
 137   2.0000      -0.861706       -23.4482
 138   2.0000      -0.853379       -23.2216
 139   2.0000      -0.847202       -23.0535
 140   2.0000      -0.842087       -22.9143
 141   2.0000      -0.837662       -22.7940
 142   2.0000      -0.836399       -22.7596
 143   2.0000      -0.835247       -22.7282
 144   2.0000      -0.831995       -22.6397
 145   2.0000      -0.829691       -22.5770
 146   2.0000      -0.825325       -22.4582
 147   2.0000      -0.814756       -22.1706
 148   2.0000      -0.811502       -22.0821
 149   2.0000      -0.795908       -21.6578
 150   2.0000      -0.793525       -21.5929
 151   2.0000      -0.790807       -21.5189
 152   2.0000      -0.780234       -21.2312
 153   2.0000      -0.764816       -20.8117
 154   2.0000      -0.762142       -20.7389
 155   2.0000      -0.756673       -20.5901
 156   2.0000      -0.749178       -20.3862
 157   2.0000      -0.742312       -20.1993
 158   2.0000      -0.733327       -19.9549
 159   2.0000      -0.718994       -19.5648
 160   2.0000      -0.714261       -19.4360
 161   2.0000      -0.703520       -19.1437
 162   2.0000      -0.693011       -18.8578
 163   2.0000      -0.691010       -18.8033
 164   2.0000      -0.687527       -18.7086
 165   2.0000      -0.683315       -18.5939
 166   2.0000      -0.677805       -18.4440
 167   2.0000      -0.672547       -18.3009
 168   2.0000      -0.667173       -18.1547
 169   2.0000      -0.664437       -18.0803
 170   2.0000      -0.657569       -17.8934
 171   2.0000      -0.653490       -17.7824
 172   2.0000      -0.650118       -17.6906
 173   2.0000      -0.643039       -17.4980
 174   2.0000      -0.639660       -17.4060
 175   2.0000      -0.637766       -17.3545
 176   2.0000      -0.633235       -17.2312
 177   2.0000      -0.627022       -17.0621
 178   2.0000      -0.622269       -16.9328
 179   2.0000      -0.618943       -16.8423
 180   2.0000      -0.617652       -16.8072
 181   2.0000      -0.615798       -16.7567
 182   2.0000      -0.606930       -16.5154
 183   2.0000      -0.603568       -16.4239
 184   2.0000      -0.594876       -16.1874
 185   2.0000      -0.592755       -16.1297
 186   2.0000      -0.589161       -16.0319
 187   2.0000      -0.587856       -15.9964
 188   2.0000      -0.579632       -15.7726
 189   2.0000      -0.577657       -15.7188
 190   2.0000      -0.574054       -15.6208
 191   2.0000      -0.567417       -15.4402
 192   2.0000      -0.564184       -15.3522
 193   2.0000      -0.555242       -15.1089
 194   2.0000      -0.550408       -14.9774
 195   2.0000      -0.543751       -14.7962
 196   2.0000      -0.541368       -14.7314
 197   2.0000      -0.539194       -14.6722
 198   2.0000      -0.537877       -14.6364
 199   2.0000      -0.533933       -14.5291
 200   2.0000      -0.533253       -14.5106
 201   2.0000      -0.529454       -14.4072
 202   2.0000      -0.529285       -14.4026
 203   2.0000      -0.526116       -14.3164
 204   2.0000      -0.524020       -14.2593
 205   2.0000      -0.521284       -14.1849
 206   2.0000      -0.520400       -14.1608
 207   2.0000      -0.520055       -14.1514
 208   2.0000      -0.518269       -14.1028
 209   2.0000      -0.516425       -14.0526
 210   2.0000      -0.513921       -13.9845
 211   2.0000      -0.506747       -13.7893
 212   2.0000      -0.505116       -13.7449
 213   2.0000      -0.502062       -13.6618
 214   2.0000      -0.498117       -13.5545
 215   2.0000      -0.496227       -13.5030
 216   2.0000      -0.493980       -13.4419
 217   2.0000      -0.493231       -13.4215
 218   2.0000      -0.491839       -13.3836
 219   2.0000      -0.491225       -13.3669
 220   2.0000      -0.488489       -13.2925
 221   2.0000      -0.488210       -13.2849
 222   2.0000      -0.486261       -13.2318
 223   2.0000      -0.484987       -13.1972
 224   2.0000      -0.481933       -13.1141
 225   2.0000      -0.476534       -12.9671
 226   2.0000      -0.474814       -12.9203
 227   2.0000      -0.471838       -12.8394
 228   2.0000      -0.470551       -12.8043
 229   2.0000      -0.467304       -12.7160
 230   2.0000      -0.465977       -12.6799
 231   2.0000      -0.464603       -12.6425
 232   2.0000      -0.462039       -12.5727
 233   2.0000      -0.460965       -12.5435
 234   2.0000      -0.458109       -12.4658
 235   2.0000      -0.455310       -12.3896
 236   2.0000      -0.452867       -12.3231
 237   2.0000      -0.449724       -12.2376
 238   2.0000      -0.448801       -12.2125
 239   2.0000      -0.447274       -12.1709
 240   2.0000      -0.446609       -12.1528
 241   2.0000      -0.445658       -12.1270
 242   2.0000      -0.444635       -12.0991
 243   2.0000      -0.443567       -12.0701
 244   2.0000      -0.442226       -12.0336
 245   2.0000      -0.438569       -11.9341
 246   2.0000      -0.437448       -11.9036
 247   2.0000      -0.435907       -11.8616
 248   2.0000      -0.435030       -11.8378
 249   2.0000      -0.433544       -11.7973
 250   2.0000      -0.424289       -11.5455
 251   2.0000      -0.423856       -11.5337
 252   2.0000      -0.422908       -11.5079
 253   2.0000      -0.422348       -11.4927
 254   2.0000      -0.421396       -11.4668
 255   2.0000      -0.419382       -11.4120
 256   2.0000      -0.419003       -11.4016
 257   2.0000      -0.415380       -11.3031
 258   2.0000      -0.412598       -11.2274
 259   2.0000      -0.410983       -11.1834
 260   2.0000      -0.407856       -11.0983
 261   2.0000      -0.405643       -11.0381
 262   2.0000      -0.402711       -10.9583
 263   2.0000      -0.402106       -10.9419
 264   2.0000      -0.399247       -10.8641
 265   2.0000      -0.394534       -10.7358
 266   2.0000      -0.388778       -10.5792
 267   2.0000      -0.387947       -10.5566
 268   2.0000      -0.385808       -10.4984
 269   2.0000      -0.384965       -10.4754
 270   2.0000      -0.381665       -10.3856
 271   2.0000      -0.379519       -10.3272
 272   2.0000      -0.372782       -10.1439
 273   2.0000      -0.372330       -10.1316
 274   2.0000      -0.364764        -9.9257
 275   2.0000      -0.360887        -9.8202
 276   2.0000      -0.349254        -9.5037
 277   2.0000      -0.336967        -9.1693
 278   2.0000      -0.333970        -9.0878
 279   2.0000      -0.330840        -9.0026
 280   2.0000      -0.330176        -8.9846
 281   2.0000      -0.322267        -8.7693
 282   2.0000      -0.317718        -8.6455
 283   2.0000      -0.314957        -8.5704
 284   2.0000      -0.313284        -8.5249
 285   2.0000      -0.312259        -8.4970
 286   2.0000      -0.295590        -8.0434
 287   2.0000      -0.289753        -7.8846
 288   2.0000      -0.286331        -7.7915
 289   2.0000      -0.272925        -7.4267
 290   2.0000      -0.266831        -7.2608
 291   2.0000      -0.251020        -6.8306
 292   2.0000      -0.239548        -6.5184
 293   2.0000      -0.196012        -5.3337
 294   0.0000      -0.094664        -2.5759
 295   0.0000      -0.089869        -2.4454
 296   0.0000      -0.069841        -1.9005
 297   0.0000      -0.057751        -1.5715
 298   0.0000      -0.031678        -0.8620

MULLIKEN ATOMIC CHARGES
-----------------------
   0 C :    0.327891
   1 C :   -0.363369
   2 C :   -0.188279
   3 N :    0.145581
   4 C :   -0.186556
   5 N :    0.143667
   6 C :    0.013809
   7 C :   -0.008305
   8 C :   -0.076148
   9 C :    0.122398
  10 C :   -0.091087
  11 C :   -0.025210
  12 S :    0.185196
  13 C :   -0.121988
  14 C :    0.034280
  15 Br:    0.020873
  16 C :    0.159888
  17 O :   -0.181903
  18 C :   -0.097220
  19 C :   -0.019876
  20 C :   -0.056951
  21 S :    0.206035
  22 C :   -0.049022
  23 C :    0.003114
  24 C :   -0.052676
  25 S :    0.157652
  26 C :   -0.011387
  27 C :   -0.053617
  28 C :   -0.065455
  29 S :    0.146679
  30 C :   -0.085875
  31 C :    0.151117
  32 C :   -0.113608
  33 C :    0.018983
  34 C :    0.108640
  35 C :   -0.054410
  36 C :   -0.038771
  37 C :    0.097432
  38 C :    0.022036
  39 C :   -0.132089
  40 C :    0.083545
  41 C :    0.029508
  42 C :    0.051680
  43 C :    0.027434
  44 C :   -0.111183
  45 C :    0.133641
  46 C :   -0.012049
  47 C :   -0.043504
  48 C :   -0.020817
  49 C :    0.020647
  50 C :   -0.019590
  51 C :   -0.016760
  52 C :    0.034872
  53 C :    0.023158
  54 C :   -0.044881
  55 S :    0.054529
  56 C :   -0.030530
  57 C :    0.022609
  58 C :    0.033679
  59 C :   -0.023900
  60 S :    0.041925
  61 C :   -0.015356
  62 C :    0.062023
  63 C :   -0.042344
  64 C :    0.071523
  65 C :   -0.001192
  66 C :    0.043880
  67 C :   -0.018998
  68 C :    0.061715
  69 C :   -0.029587
  70 C :    0.061383
  71 C :    0.001547
  72 C :    0.035692
  73 C :   -0.024571
  74 C :    0.009624
  75 C :   -0.024904
  76 H :   -0.011799
  77 H :   -0.008034
  78 H :   -0.003910
  79 H :    0.006643
  80 H :    0.009140
  81 H :   -0.014929
  82 H :   -0.037688
  83 H :   -0.031854
  84 H :   -0.014695
  85 H :    0.005392
  86 H :   -0.003906
  87 H :    0.017880
  88 H :    0.013636
  89 H :    0.001757
  90 H :    0.003950
  91 H :   -0.003068
  92 H :    0.019455
  93 H :    0.008517
  94 H :    0.023061
  95 H :   -0.043501
  96 H :   -0.031999
  97 H :   -0.038016
  98 H :   -0.029285
  99 H :    0.000973
 100 H :   -0.021943
 101 H :   -0.017269
 102 H :   -0.016607
 103 H :   -0.017544
 104 H :   -0.015533
 105 H :   -0.025639
 106 H :   -0.030254
 107 H :   -0.027429
 108 H :   -0.025445
 109 H :   -0.028106
 110 H :   -0.025686
 111 H :   -0.009403
 112 H :   -0.019936
 113 H :    0.006809
 114 H :    0.020347
Sum of atomic charges:   -0.0000000

LOEWDIN ATOMIC CHARGES
----------------------
   0 C :    0.078634
   1 C :   -0.148995
   2 C :   -0.018229
   3 N :   -0.059334
   4 C :   -0.020931
   5 N :   -0.058894
   6 C :   -0.019776
   7 C :   -0.049455
   8 C :    0.020658
   9 C :   -0.033695
  10 C :   -0.144511
  11 C :   -0.010123
  12 S :    0.431732
  13 C :   -0.272424
  14 C :   -0.070678
  15 Br:    0.134699
  16 C :    0.083880
  17 O :   -0.169158
  18 C :   -0.118633
  19 C :    0.057482
  20 C :   -0.182492
  21 S :    0.493145
  22 C :   -0.197254
  23 C :   -0.200038
  24 C :   -0.019672
  25 S :    0.400321
  26 C :   -0.172508
  27 C :   -0.077678
  28 C :   -0.131837
  29 S :    0.438504
  30 C :   -0.230042
  31 C :   -0.044926
  32 C :   -0.015496
  33 C :    0.005398
  34 C :   -0.009325
  35 C :   -0.017804
  36 C :   -0.023825
  37 C :   -0.025009
  38 C :    0.005553
  39 C :   -0.034206
  40 C :   -0.008462
  41 C :   -0.059885
  42 C :   -0.015793
  43 C :   -0.056338
  44 C :   -0.023980
  45 C :   -0.020287
  46 C :   -0.015488
  47 C :   -0.016393
  48 C :   -0.024679
  49 C :   -0.027704
  50 C :   -0.062479
  51 C :   -0.142488
  52 C :   -0.040599
  53 C :   -0.031282
  54 C :   -0.185918
  55 S :    0.358576
  56 C :   -0.175931
  57 C :   -0.042699
  58 C :   -0.029546
  59 C :   -0.156495
  60 S :    0.370170
  61 C :   -0.044844
  62 C :   -0.062747
  63 C :    0.008786
  64 C :   -0.058157
  65 C :    0.069745
  66 C :   -0.062481
  67 C :    0.045844
  68 C :   -0.059305
  69 C :    0.012830
  70 C :   -0.058414
  71 C :    0.069708
  72 C :   -0.061610
  73 C :    0.030226
  74 C :   -0.020895
  75 C :   -0.055961
  76 H :    0.040417
  77 H :    0.040827
  78 H :    0.038481
  79 H :    0.050621
  80 H :    0.042145
  81 H :    0.032428
  82 H :    0.023897
  83 H :    0.028443
  84 H :    0.020096
  85 H :    0.027296
  86 H :    0.020399
  87 H :    0.023088
  88 H :    0.028168
  89 H :    0.019119
  90 H :    0.018641
  91 H :    0.020241
  92 H :    0.025195
  93 H :    0.023739
  94 H :    0.026085
  95 H :    0.022471
  96 H :    0.025832
  97 H :    0.026178
  98 H :    0.024870
  99 H :    0.019272
 100 H :    0.030310
 101 H :    0.031648
 102 H :    0.030746
 103 H :    0.030340
 104 H :    0.032064
 105 H :    0.034439
 106 H :    0.022706
 107 H :    0.033962
 108 H :    0.024554
 109 H :    0.023805
 110 H :    0.034908
 111 H :    0.013727
 112 H :    0.029130
 113 H :    0.017365
 114 H :    0.024264

  Mayer bond orders larger than 0.100000
B(  0-C ,  1-C ) :   1.6092 B(  0-C ,  6-C ) :   0.9949 B(  0-C , 18-C ) :   1.0919
B(  1-C ,  2-C ) :   1.1492 B(  1-C ,  4-C ) :   1.1481 B(  2-C ,  3-N ) :   2.9650
B(  4-C ,  5-N ) :   2.9566 B(  6-C ,  7-C ) :   1.2759 B(  6-C , 11-C ) :   1.4137
B(  7-C ,  8-C ) :   1.4223 B(  7-C , 16-C ) :   0.9577 B(  8-C ,  9-C ) :   1.2404
B(  8-C , 76-H ) :   1.0184 B(  9-C , 10-C ) :   1.3094 B(  9-C , 14-C ) :   1.1598
B( 10-C , 11-C ) :   1.3250 B( 10-C , 12-S ) :   1.0861 B( 11-C , 77-H ) :   0.9808
B( 12-S , 13-C ) :   1.0862 B( 13-C , 14-C ) :   1.6188 B( 13-C , 15-Br) :   1.0170
B( 14-C , 78-H ) :   1.0013 B( 16-C , 17-O ) :   2.1292 B( 16-C , 18-C ) :   0.9815
B( 18-C , 19-C ) :   1.4692 B( 19-C , 20-C ) :   1.2921 B( 19-C , 79-H ) :   0.9391
B( 20-C , 21-S ) :   1.0620 B( 20-C , 24-C ) :   1.3550 B( 21-S , 22-C ) :   1.0657
B( 22-C , 23-C ) :   1.3732 B( 22-C , 30-C ) :   1.3199 B( 23-C , 24-C ) :   1.3395
B( 23-C , 25-S ) :   1.0295 B( 24-C , 80-H ) :   1.0123 B( 25-S , 26-C ) :   1.0536
B( 26-C , 27-C ) :   1.2550 B( 26-C , 30-C ) :   1.4547 B( 27-C , 28-C ) :   1.5332
B( 27-C , 81-H ) :   0.9972 B( 28-C , 29-S ) :   1.1132 B( 28-C , 31-C ) :   1.0552
B( 29-S , 30-C ) :   1.0602 B( 31-C , 32-C ) :   1.3062 B( 31-C , 36-C ) :   1.3376
B( 32-C , 33-C ) :   1.4101 B( 32-C , 82-H ) :   0.9959 B( 33-C , 34-C ) :   1.3714
B( 33-C , 39-C ) :   0.9147 B( 34-C , 35-C ) :   1.3358 B( 34-C , 37-C ) :   1.0046
B( 35-C , 36-C ) :   1.3954 B( 35-C , 83-H ) :   0.9916 B( 36-C , 84-H ) :   0.9797
B( 37-C , 38-C ) :   1.3743 B( 37-C , 47-C ) :   1.3195 B( 38-C , 39-C ) :   0.9235
B( 38-C , 44-C ) :   1.3832 B( 39-C , 40-C ) :   1.0132 B( 39-C , 42-C ) :   1.0355
B( 40-C , 41-C ) :   1.1148 B( 40-C , 85-H ) :   0.9383 B( 40-C , 86-H ) :   0.9370
B( 41-C , 87-H ) :   0.9604 B( 41-C , 88-H ) :   0.9593 B( 41-C , 89-H ) :   0.9627
B( 42-C , 43-C ) :   1.1053 B( 42-C , 90-H ) :   0.9378 B( 42-C , 91-H ) :   0.9380
B( 43-C , 92-H ) :   0.9645 B( 43-C , 93-H ) :   0.9645 B( 43-C , 94-H ) :   0.9628
B( 44-C , 45-C ) :   1.2784 B( 44-C , 95-H ) :   1.0110 B( 45-C , 46-C ) :   1.3309
B( 45-C , 48-C ) :   1.0747 B( 46-C , 47-C ) :   1.4098 B( 46-C , 96-H ) :   0.9851
B( 47-C , 97-H ) :   0.9896 B( 48-C , 49-C ) :   1.6421 B( 48-C , 98-H ) :   0.9889
B( 49-C , 50-C ) :   1.1544 B( 49-C , 99-H ) :   0.9622 B( 50-C , 51-C ) :   1.5569
B( 50-C ,100-H ) :   0.9858 B( 51-C , 52-C ) :   1.1450 B( 51-C , 55-S ) :   1.0320
B( 52-C , 53-C ) :   1.5827 B( 52-C ,101-H ) :   0.9992 B( 53-C , 54-C ) :   1.1947
B( 53-C ,102-H ) :   0.9940 B( 54-C , 55-S ) :   1.0366 B( 54-C , 56-C ) :   1.5047
B( 56-C , 57-C ) :   1.1876 B( 56-C , 60-S ) :   1.0435 B( 57-C , 58-C ) :   1.5903
B( 57-C ,103-H ) :   0.9933 B( 58-C , 59-C ) :   1.1411 B( 58-C ,104-H ) :   0.9990
B( 59-C , 60-S ) :   1.0179 B( 59-C , 61-C ) :   1.5784 B( 61-C , 62-C ) :   1.1338
B( 61-C ,105-H ) :   0.9685 B( 62-C , 63-C ) :   1.4381 B( 62-C , 73-C ) :   1.1308
B( 63-C , 64-C ) :   1.1128 B( 63-C ,106-H ) :   1.0191 B( 64-C , 65-C ) :   1.4303
B( 64-C , 72-C ) :   1.1281 B( 65-C , 66-C ) :   1.1403 B( 65-C ,107-H ) :   1.0040
B( 66-C , 67-C ) :   1.4319 B( 66-C , 70-C ) :   1.1264 B( 67-C , 68-C ) :   1.1493
B( 67-C ,108-H ) :   1.0070 B( 68-C , 69-C ) :   1.5062 B( 68-C , 74-C ) :   1.0841
B( 69-C , 70-C ) :   1.0851 B( 69-C ,109-H ) :   1.0164 B( 70-C , 71-C ) :   1.4650
B( 71-C , 72-C ) :   1.1256 B( 71-C ,110-H ) :   1.0037 B( 72-C , 73-C ) :   1.4635
B( 73-C ,111-H ) :   0.9897 B( 74-C , 75-C ) :   1.9352 B( 74-C ,112-H ) :   0.9661
B( 75-C ,113-H ) :   0.9519 B( 75-C ,114-H ) :   0.9492

-----------------------------------------------------------------------------
         ABSORPTION SPECTRUM VIA TRANSITION ELECTRIC DIPOLE MOMENTS
-----------------------------------------------------------------------------
State   Energy  Wavelength   fosc         T2         TX        TY        TZ
        (cm-1)    (nm)                  (au**2)     (au)      (au)      (au)
-----------------------------------------------------------------------------
   0    6130.5   1631.2   0.020061890   1.07733  -0.47148   0.88450  -0.26962
   1   13937.2    717.5   1.610630431  38.04489   2.27954  -5.65590  -0.92701
   2   14710.7    679.8   0.006577587   0.14720  -0.15308   0.33621   0.10358
   3   17238.9    580.1   0.567962174  10.84637  -1.35445   0.07635  -3.00100
   4   19962.6    500.9   1.503458131  24.79424   1.47687   1.90509   4.35703
   5   22378.4    446.9   0.107360716   1.57940   0.40248  -0.32315   1.14585
   6   22963.0    435.5   0.032295678   0.46301   0.27100  -0.08717   0.61804
   7   24105.5    414.8   0.415655055   5.67667  -0.42257  -0.24714  -2.33174
   8   24423.5    409.4   0.072068636   0.97143   0.30420  -0.69392  -0.63037
   9   25659.8    389.7   1.117662871  14.33949  -0.19822  -0.35502  -3.76486
  10   26094.7    383.2   0.149272406   1.88323  -0.08320  -0.58717  -1.23755
  11   26222.3    381.4   0.024354514   0.30576  -0.49652   0.22168   0.10044
  12   27298.0    366.3   0.094761243   1.14281  -0.19934  -0.26135  -1.01724
  13   27825.1    359.4   0.043420316   0.51373  -0.05213   0.16160  -0.69634
  14   28265.8    353.8   0.348088569   4.05419  -1.61248   0.24377  -1.18096
  15   28496.6    350.9   0.060127335   0.69463  -0.77686   0.26505  -0.14443
  16   28952.8    345.4   0.089818746   1.02130  -0.64504   0.20603   0.75018
  17   29629.7    337.5   0.260284584   2.89199  -0.74368   0.55084  -1.42671
  18   29656.5    337.2   0.004452279   0.04942  -0.08872  -0.00728  -0.20371
  19   30401.1    328.9   0.010942311   0.11849  -0.16005  -0.10894  -0.28462
  20   30842.3    324.2   0.045295738   0.48349  -0.60763   0.33747  -0.01954
  21   31211.8    320.4   0.042871549   0.45219  -0.63962   0.03681  -0.20426
  22   32425.0    308.4   0.144739452   1.46954   0.57557  -0.73273   0.77548
  23   32574.7    307.0   0.005518128   0.05577   0.18832  -0.07341   0.12213
  24   32925.5    303.7   0.064531768   0.64523   0.26088  -0.45529   0.60818
  25   33001.5    303.0   0.000023730   0.00024  -0.00490  -0.01209  -0.00815
  26   33051.5    302.6   0.120769668   1.20294  -0.15477  -0.44009  -0.99263
  27   33455.2    298.9   0.627329275   6.17316   2.06352  -1.37917  -0.11371
  28   33531.2    298.2   0.009040437   0.08876   0.23608  -0.18173   0.00077
  29   33621.7    297.4   0.028557056   0.27962  -0.48082   0.21231   0.05792
  30   33893.0    295.0   0.050987956   0.49526  -0.17655  -0.19134  -0.65382
  31   34337.1    291.2   0.057698410   0.55319  -0.33009  -0.34328  -0.57130
  32   34730.1    287.9   0.073745337   0.69904   0.03983   0.13099   0.82480
  33   34755.5    287.7   0.009703826   0.09192   0.06705  -0.05299  -0.29088
  34   35267.2    283.5   0.104079104   0.97156  -0.17162   0.66811   0.70408
  35   35664.7    280.4   0.043706080   0.40344   0.42261  -0.36172   0.30660
  36   35891.1    278.6   0.095457262   0.87558  -0.21660   0.08734   0.90611
  37   36025.7    277.6   0.067640833   0.61812  -0.08330   0.11893   0.77268
  38   36203.7    276.2   0.025688062   0.23359   0.24023  -0.31007  -0.28237
  39   36719.2    272.3   0.009127787   0.08184  -0.12454   0.07343  -0.24685
  40   36906.6    271.0   0.023177872   0.20675   0.17470  -0.01605   0.41949
  41   37170.6    269.0   0.002769725   0.02453  -0.10495   0.10107   0.05746
  42   37462.9    266.9   0.011972447   0.10521  -0.05201  -0.24269  -0.20882
  43   37547.9    266.3   0.003360997   0.02947  -0.13746  -0.10082  -0.02022
  44   37941.1    263.6   0.065453460   0.56794  -0.59508   0.31743  -0.33622
  45   38105.5    262.4   0.051440710   0.44442   0.49349  -0.43287   0.11625
  46   38173.8    262.0   0.014431343   0.12446  -0.18174   0.12352  -0.27599
  47   38706.1    258.4   0.120760589   1.02712  -0.56204  -0.08763  -0.83878
  48   38921.3    256.9   0.054515090   0.46111  -0.52518   0.42908   0.03448
  49   38999.9    256.4   0.058609226   0.49474   0.04331   0.40575   0.57291
  50   39186.6    255.2   0.152643146   1.28238   0.15969   0.10852   1.11584
  51   39247.6    254.8   0.020301391   0.17029  -0.20130  -0.00300  -0.36022
  52   39530.8    253.0   0.088997627   0.74117  -0.33037   0.58436  -0.53903
  53   39693.1    251.9   0.033481418   0.27769   0.48187  -0.16921   0.12985
  54   40088.4    249.4   0.031976730   0.26260  -0.07230   0.47057   0.18956

FINAL SINGLE POINT ENERGY     -7681.985405881400

DIPOLE MOMENT
-------------
                                X             Y             Z
Electronic contribution:     98.78566     146.10210     246.71206
Nuclear contribution   :    -97.95570    -148.90447    -249.95265
                        -----------------------------------------
Total Dipole Moment    :      0.82996      -2.80237      -3.24058
                        -----------------------------------------
Magnitude (a.u.)       :      4.36388
Magnitude (Debye)      :     11.09210

Rotational constants in cm-1:     0.000667     0.000145     0.000123
Rotational constants in MHz :    19.985589     4.346137     3.678374

                             ****ORCA TERMINATED NORMALLY****
TOTAL RUN TIME: 0 days 0 hours 21 minutes 23 seconds 15 msec
