                         Program Version 4.2.0 -  RELEASE  -
|  1> # ORCA input file
|  2> # SCF done       -196.992929889001          0.000982902811
|  3> ! CAM-B3LYP def2-SVP def2/J RIJCOSX Grid4 TightSCF
|  4> %maxcore 5000
|  5> %tddft
|  6>     Mode sTDDFT
|  7>     Ethresh 5.0
|  8>     maxcore 5000
|  9> end
| 10>
| 11> %pal
| 12>   nprocs 6
| 13>   end
| 14> * xyz 0 1
| 15>    C       11.28787       -18.03182        -5.14721
| 16>    C       11.49102       -16.71467        -5.00356
| 17>    C       12.50001       -15.90700        -5.62616
| 18>    C       12.45507       -14.59939        -5.28571
| 19>    C       11.41424       -14.26792        -4.37418
| 20>    S       10.48932       -15.69133        -3.96072
| 21>    C       11.12396       -13.02155        -3.85977
| 22>    C       11.78868       -11.79980        -4.12149
| 23>    C       11.26664       -10.72682        -3.46630
| 24>    C       10.15564       -11.02532        -2.64402
| 25>    S        9.80559       -12.75044        -2.74701
| 26>    C        9.31359       -10.27723        -1.85031
| 27>    C        9.22470        -8.91724        -1.49233
| 28>    C       10.12958        -7.84426        -1.73358
| 29>    C        9.84922        -6.48955        -1.29395
| 30>    N       10.70485        -5.50289        -1.62210
| 31>    C       11.81263        -5.77982        -2.25774
| 32>    C       12.13561        -7.12937        -2.60163
| 33>    N       11.28305        -8.10006        -2.35101
| 34>    C       13.35759        -7.45037        -3.23514
| 35>    N       14.34541        -7.70450        -3.76003
| 36>    C       12.70603        -4.73240        -2.59606
| 37>    N       13.46929        -3.92529        -2.87709
| 38>    C        8.69151        -6.14235        -0.57147
| 39>    C        7.80535        -7.20460        -0.30283
| 40>    C        8.07075        -8.55185        -0.74095
| 41>    N        7.11599        -9.39602        -0.35634
| 42>    S        6.00521        -8.59021         0.48141
| 43>    N        6.66795        -7.13163         0.39606
| 44>    C        8.40484        -4.79217        -0.11617
| 45>    C        7.07377        -4.34977        -0.07885
| 46>    C        6.78932        -3.09728         0.40122
| 47>    C        7.81720        -2.24963         0.84758
| 48>    C        9.13923        -2.67032         0.79725
| 49>    C        9.42238        -3.93350         0.32003
| 50>    C        7.21813        -1.03570         1.35421
| 51>    C        5.82101        -1.12945         1.21358
| 52>    C        5.44076        -2.42475         0.53383
| 53>    C        4.89738        -2.19561        -0.89502
| 54>    C        3.59950        -1.40572        -0.99155
| 55>    C        4.46803        -3.25981         1.38145
| 56>    C        5.05865        -3.65253         2.73088
| 57>    C        5.01150        -0.13956         1.71652
| 58>    C        5.58096         0.99371         2.31374
| 59>    C        6.97234         1.06776         2.45104
| 60>    C        7.79203         0.06337         1.98009
| 61>    C        4.69949         2.01925         2.83472
| 62>    C        4.91462         3.34589         2.93291
| 63>    C        5.98348         4.13158         2.38262
| 64>    C        6.66024         3.84671         1.17783
| 65>    C        7.76265         4.64990         0.71272
| 66>    N        8.45176         4.26676        -0.36462
| 67>    C        8.08116         3.19327        -1.02755
| 68>    C        6.89242         2.48904        -0.65235
| 69>    N        6.22768         2.82103         0.42318
| 70>    C        6.42613         1.42502        -1.46159
| 71>    N        6.09541         0.56889        -2.14762
| 72>    C        8.84821         2.76685        -2.13605
| 73>    N        9.44765         2.40069        -3.04218
| 74>    C        8.16889         5.85518         1.37112
| 75>    C        7.41397         6.18612         2.52285
| 76>    C        6.35166         5.33874         3.01169
| 77>    N        5.79293         5.83508         4.11791
| 78>    S        6.51083         7.21943         4.50011
| 79>    N        7.57452         7.25802         3.28992
| 80>    C        9.24868         6.57286         0.83939
| 81>    C        9.87113         7.73803         1.23227
| 82>    C       10.97252         8.27733         0.51500
| 83>    C       11.47929         9.42938         1.02964
| 84>    C       10.79991         9.86426         2.18988
| 85>    S        9.49641         8.76204         2.59644
| 86>    C       11.06487        10.98373         2.95118
| 87>    C       12.08214        11.95428         2.73597
| 88>    C       12.10629        12.94863         3.65209
| 89>    C       11.10051        12.83792         4.66876
| 90>    S       10.13110        11.38455         4.37210
| 91>    C       10.88180        13.66568         5.70049
| 92>    H       11.91934       -18.61783        -5.79143
| 93>    H       10.49547       -18.54132        -4.63021
| 94>    H       13.21376       -16.34390        -6.30154
| 95>    H       13.13371       -13.85216        -5.65633
| 96>    H       12.63293       -11.73954        -4.78450
| 97>    H       11.64917        -9.72789        -3.54372
| 98>    H        8.50461       -10.85101        -1.40911
| 99>    H        6.28758        -4.99837        -0.42970
|100>    H        9.93683        -2.02873         1.14096
|101>    H       10.44343        -4.27909         0.30963
|102>    H        4.75599        -3.17648        -1.35460
|103>    H        5.66217        -1.66532        -1.46628
|104>    H        2.79744        -1.87729        -0.42881
|105>    H        3.29590        -1.35047        -2.03427
|106>    H        3.74106        -0.38984        -0.63430
|107>    H        4.20526        -4.16273         0.82694
|108>    H        3.55542        -2.68542         1.54545
|109>    H        5.93438        -4.28307         2.59657
|110>    H        4.32482        -4.20327         3.31536
|111>    H        5.35343        -2.76816         3.29227
|112>    H        3.93604        -0.21069         1.65349
|113>    H        7.40288         1.91385         2.96830
|114>    H        8.86284         0.12286         2.11183
|115>    H        3.75541         1.64636         3.21545
|116>    H        4.20734         3.93458         3.50482
|117>    H        9.66786         6.11385        -0.04910
|118>    H       11.35324         7.78666        -0.36362
|119>    H       12.31134         9.96517         0.60932
|120>    H       12.76126        11.87823         1.90559
|121>    H       12.80183        13.76883         3.65393
|122>    H       11.49614        14.53676         5.84549
|123>    H       10.09629        13.48740         6.41169
|124> *
|125>
|126>                          ****END OF INPUT****

CARTESIAN COORDINATES (ANGSTROEM)
---------------------------------
  C     11.287870  -18.031820   -5.147210
  C     11.491020  -16.714670   -5.003560
  C     12.500010  -15.907000   -5.626160
  C     12.455070  -14.599390   -5.285710
  C     11.414240  -14.267920   -4.374180
  S     10.489320  -15.691330   -3.960720
  C     11.123960  -13.021550   -3.859770
  C     11.788680  -11.799800   -4.121490
  C     11.266640  -10.726820   -3.466300
  C     10.155640  -11.025320   -2.644020
  S      9.805590  -12.750440   -2.747010
  C      9.313590  -10.277230   -1.850310
  C      9.224700   -8.917240   -1.492330
  C     10.129580   -7.844260   -1.733580
  C      9.849220   -6.489550   -1.293950
  N     10.704850   -5.502890   -1.622100
  C     11.812630   -5.779820   -2.257740
  C     12.135610   -7.129370   -2.601630
  N     11.283050   -8.100060   -2.351010
  C     13.357590   -7.450370   -3.235140
  N     14.345410   -7.704500   -3.760030
  C     12.706030   -4.732400   -2.596060
  N     13.469290   -3.925290   -2.877090
  C      8.691510   -6.142350   -0.571470
  C      7.805350   -7.204600   -0.302830
  C      8.070750   -8.551850   -0.740950
  N      7.115990   -9.396020   -0.356340
  S      6.005210   -8.590210    0.481410
  N      6.667950   -7.131630    0.396060
  C      8.404840   -4.792170   -0.116170
  C      7.073770   -4.349770   -0.078850
  C      6.789320   -3.097280    0.401220
  C      7.817200   -2.249630    0.847580
  C      9.139230   -2.670320    0.797250
  C      9.422380   -3.933500    0.320030
  C      7.218130   -1.035700    1.354210
  C      5.821010   -1.129450    1.213580
  C      5.440760   -2.424750    0.533830
  C      4.897380   -2.195610   -0.895020
  C      3.599500   -1.405720   -0.991550
  C      4.468030   -3.259810    1.381450
  C      5.058650   -3.652530    2.730880
  C      5.011500   -0.139560    1.716520
  C      5.580960    0.993710    2.313740
  C      6.972340    1.067760    2.451040
  C      7.792030    0.063370    1.980090
  C      4.699490    2.019250    2.834720
  C      4.914620    3.345890    2.932910
  C      5.983480    4.131580    2.382620
  C      6.660240    3.846710    1.177830
  C      7.762650    4.649900    0.712720
  N      8.451760    4.266760   -0.364620
  C      8.081160    3.193270   -1.027550
  C      6.892420    2.489040   -0.652350
  N      6.227680    2.821030    0.423180
  C      6.426130    1.425020   -1.461590
  N      6.095410    0.568890   -2.147620
  C      8.848210    2.766850   -2.136050
  N      9.447650    2.400690   -3.042180
  C      8.168890    5.855180    1.371120
  C      7.413970    6.186120    2.522850
  C      6.351660    5.338740    3.011690
  N      5.792930    5.835080    4.117910
  S      6.510830    7.219430    4.500110
  N      7.574520    7.258020    3.289920
  C      9.248680    6.572860    0.839390
  C      9.871130    7.738030    1.232270
  C     10.972520    8.277330    0.515000
  C     11.479290    9.429380    1.029640
  C     10.799910    9.864260    2.189880
  S      9.496410    8.762040    2.596440
  C     11.064870   10.983730    2.951180
  C     12.082140   11.954280    2.735970
  C     12.106290   12.948630    3.652090
  C     11.100510   12.837920    4.668760
  S     10.131100   11.384550    4.372100
  C     10.881800   13.665680    5.700490
  H     11.919340  -18.617830   -5.791430
  H     10.495470  -18.541320   -4.630210
  H     13.213760  -16.343900   -6.301540
  H     13.133710  -13.852160   -5.656330
  H     12.632930  -11.739540   -4.784500
  H     11.649170   -9.727890   -3.543720
  H      8.504610  -10.851010   -1.409110
  H      6.287580   -4.998370   -0.429700
  H      9.936830   -2.028730    1.140960
  H     10.443430   -4.279090    0.309630
  H      4.755990   -3.176480   -1.354600
  H      5.662170   -1.665320   -1.466280
  H      2.797440   -1.877290   -0.428810
  H      3.295900   -1.350470   -2.034270
  H      3.741060   -0.389840   -0.634300
  H      4.205260   -4.162730    0.826940
  H      3.555420   -2.685420    1.545450
  H      5.934380   -4.283070    2.596570
  H      4.324820   -4.203270    3.315360
  H      5.353430   -2.768160    3.292270
  H      3.936040   -0.210690    1.653490
  H      7.402880    1.913850    2.968300
  H      8.862840    0.122860    2.111830
  H      3.755410    1.646360    3.215450
  H      4.207340    3.934580    3.504820
  H      9.667860    6.113850   -0.049100
  H     11.353240    7.786660   -0.363620
  H     12.311340    9.965170    0.609320
  H     12.761260   11.878230    1.905590
  H     12.801830   13.768830    3.653930
  H     11.496140   14.536760    5.845490
  H     10.096290   13.487400    6.411690

 Total Charge           Charge          ....    0
 Multiplicity           Mult            ....    1
 Number of Electrons    NEL             ....  566
 Basis Dimension        Dim             .... 1262

ORBITAL ENERGIES
----------------

  NO   OCC          E(Eh)            E(eV)
   0   2.0000     -89.032111     -2422.6869
   1   2.0000     -89.028674     -2422.5934
   2   2.0000     -88.954596     -2420.5776
   3   2.0000     -88.953544     -2420.5490
   4   2.0000     -88.949987     -2420.4522
   5   2.0000     -88.947563     -2420.3862
   6   2.0000     -14.447239      -393.1294
   7   2.0000     -14.447126      -393.1263
   8   2.0000     -14.446540      -393.1103
   9   2.0000     -14.441267      -392.9669
  10   2.0000     -14.440007      -392.9326
  11   2.0000     -14.439224      -392.9113
  12   2.0000     -14.437957      -392.8768
  13   2.0000     -14.436298      -392.8316
  14   2.0000     -14.417781      -392.3278
  15   2.0000     -14.417663      -392.3245
  16   2.0000     -14.415214      -392.2579
  17   2.0000     -14.411915      -392.1681
  18   2.0000     -10.364470      -282.0316
  19   2.0000     -10.363415      -282.0029
  20   2.0000     -10.361432      -281.9489
  21   2.0000     -10.359477      -281.8957
  22   2.0000     -10.334165      -281.2069
  23   2.0000     -10.332787      -281.1694
  24   2.0000     -10.331497      -281.1343
  25   2.0000     -10.330139      -281.0974
  26   2.0000     -10.328627      -281.0562
  27   2.0000     -10.328326      -281.0480
  28   2.0000     -10.327807      -281.0339
  29   2.0000     -10.326847      -281.0078
  30   2.0000     -10.325765      -280.9783
  31   2.0000     -10.324203      -280.9358
  32   2.0000     -10.323022      -280.9037
  33   2.0000     -10.321237      -280.8551
  34   2.0000     -10.318250      -280.7738
  35   2.0000     -10.316576      -280.7283
  36   2.0000     -10.313334      -280.6401
  37   2.0000     -10.312287      -280.6116
  38   2.0000     -10.311922      -280.6017
  39   2.0000     -10.309626      -280.5392
  40   2.0000     -10.309512      -280.5361
  41   2.0000     -10.308657      -280.5128
  42   2.0000     -10.306411      -280.4517
  43   2.0000     -10.306393      -280.4512
  44   2.0000     -10.302666      -280.3498
  45   2.0000     -10.301131      -280.3080
  46   2.0000     -10.297710      -280.2149
  47   2.0000     -10.296176      -280.1732
  48   2.0000     -10.295848      -280.1643
  49   2.0000     -10.291506      -280.0461
  50   2.0000     -10.291424      -280.0439
  51   2.0000     -10.289425      -279.9895
  52   2.0000     -10.288570      -279.9662
  53   2.0000     -10.288483      -279.9639
  54   2.0000     -10.284668      -279.8601
  55   2.0000     -10.283298      -279.8228
  56   2.0000     -10.280618      -279.7498
  57   2.0000     -10.274340      -279.5790
  58   2.0000     -10.268027      -279.4072
  59   2.0000     -10.267731      -279.3992
  60   2.0000     -10.265389      -279.3354
  61   2.0000     -10.264997      -279.3248
  62   2.0000     -10.260452      -279.2011
  63   2.0000     -10.259045      -279.1628
  64   2.0000     -10.256901      -279.1045
  65   2.0000     -10.256816      -279.1022
  66   2.0000     -10.256006      -279.0801
  67   2.0000     -10.255209      -279.0584
  68   2.0000     -10.254546      -279.0404
  69   2.0000     -10.253813      -279.0204
  70   2.0000     -10.253287      -279.0061
  71   2.0000     -10.251954      -278.9699
  72   2.0000     -10.249007      -278.8897
  73   2.0000     -10.247366      -278.8450
  74   2.0000     -10.238332      -278.5992
  75   2.0000     -10.232647      -278.4445
  76   2.0000     -10.230381      -278.3828
  77   2.0000      -8.123433      -221.0498
  78   2.0000      -8.120204      -220.9620
  79   2.0000      -8.051285      -219.0866
  80   2.0000      -8.047887      -218.9941
  81   2.0000      -8.046701      -218.9619
  82   2.0000      -8.044045      -218.8896
  83   2.0000      -6.094591      -165.8423
  84   2.0000      -6.091323      -165.7533
  85   2.0000      -6.086945      -165.6342
  86   2.0000      -6.085944      -165.6070
  87   2.0000      -6.083535      -165.5414
  88   2.0000      -6.082880      -165.5236
  89   2.0000      -6.021032      -163.8406
  90   2.0000      -6.017706      -163.7501
  91   2.0000      -6.017076      -163.7330
  92   2.0000      -6.016465      -163.7163
  93   2.0000      -6.013693      -163.6409
  94   2.0000      -6.013299      -163.6302
  95   2.0000      -6.012532      -163.6093
  96   2.0000      -6.011976      -163.5942
  97   2.0000      -6.009735      -163.5332
  98   2.0000      -6.009015      -163.5136
  99   2.0000      -6.007347      -163.4682
 100   2.0000      -6.005006      -163.4045
 101   2.0000      -1.130303       -30.7571
 102   2.0000      -1.126394       -30.6507
 103   2.0000      -1.103485       -30.0273
 104   2.0000      -1.102471       -29.9998
 105   2.0000      -1.030143       -28.0316
 106   2.0000      -1.029173       -28.0052
 107   2.0000      -1.004343       -27.3296
 108   2.0000      -1.000678       -27.2298
 109   2.0000      -0.999705       -27.2033
 110   2.0000      -0.999356       -27.1938
 111   2.0000      -0.990608       -26.9558
 112   2.0000      -0.990196       -26.9446
 113   2.0000      -0.986570       -26.8459
 114   2.0000      -0.982431       -26.7333
 115   2.0000      -0.978671       -26.6310
 116   2.0000      -0.975874       -26.5549
 117   2.0000      -0.971659       -26.4402
 118   2.0000      -0.962148       -26.1814
 119   2.0000      -0.960512       -26.1369
 120   2.0000      -0.929674       -25.2977
 121   2.0000      -0.907921       -24.7058
 122   2.0000      -0.901891       -24.5417
 123   2.0000      -0.895995       -24.3813
 124   2.0000      -0.892493       -24.2860
 125   2.0000      -0.890121       -24.2214
 126   2.0000      -0.885805       -24.1040
 127   2.0000      -0.876980       -23.8638
 128   2.0000      -0.868140       -23.6233
 129   2.0000      -0.857483       -23.3333
 130   2.0000      -0.853794       -23.2329
 131   2.0000      -0.851212       -23.1627
 132   2.0000      -0.844108       -22.9694
 133   2.0000      -0.834196       -22.6996
 134   2.0000      -0.827526       -22.5181
 135   2.0000      -0.822160       -22.3721
 136   2.0000      -0.820253       -22.3202
 137   2.0000      -0.817403       -22.2427
 138   2.0000      -0.816418       -22.2159
 139   2.0000      -0.816257       -22.2115
 140   2.0000      -0.813515       -22.1369
 141   2.0000      -0.795833       -21.6557
 142   2.0000      -0.793667       -21.5968
 143   2.0000      -0.792966       -21.5777
 144   2.0000      -0.775190       -21.0940
 145   2.0000      -0.764689       -20.8082
 146   2.0000      -0.747632       -20.3441
 147   2.0000      -0.745445       -20.2846
 148   2.0000      -0.734341       -19.9824
 149   2.0000      -0.721079       -19.6216
 150   2.0000      -0.719176       -19.5698
 151   2.0000      -0.713203       -19.4072
 152   2.0000      -0.704200       -19.1623
 153   2.0000      -0.693397       -18.8683
 154   2.0000      -0.690839       -18.7987
 155   2.0000      -0.688688       -18.7401
 156   2.0000      -0.684420       -18.6240
 157   2.0000      -0.683227       -18.5916
 158   2.0000      -0.678386       -18.4598
 159   2.0000      -0.674097       -18.3431
 160   2.0000      -0.670696       -18.2506
 161   2.0000      -0.664230       -18.0746
 162   2.0000      -0.651281       -17.7222
 163   2.0000      -0.648893       -17.6573
 164   2.0000      -0.646398       -17.5894
 165   2.0000      -0.640494       -17.4287
 166   2.0000      -0.636835       -17.3292
 167   2.0000      -0.634695       -17.2709
 168   2.0000      -0.632626       -17.2146
 169   2.0000      -0.625190       -17.0123
 170   2.0000      -0.622917       -16.9504
 171   2.0000      -0.616828       -16.7848
 172   2.0000      -0.612166       -16.6579
 173   2.0000      -0.611290       -16.6341
 174   2.0000      -0.609141       -16.5756
 175   2.0000      -0.604458       -16.4481
 176   2.0000      -0.596773       -16.2390
 177   2.0000      -0.588321       -16.0090
 178   2.0000      -0.584379       -15.9018
 179   2.0000      -0.583555       -15.8793
 180   2.0000      -0.576767       -15.6946
 181   2.0000      -0.569498       -15.4968
 182   2.0000      -0.564709       -15.3665
 183   2.0000      -0.563459       -15.3325
 184   2.0000      -0.557546       -15.1716
 185   2.0000      -0.555392       -15.1130
 186   2.0000      -0.548793       -14.9334
 187   2.0000      -0.545053       -14.8316
 188   2.0000      -0.542502       -14.7622
 189   2.0000      -0.542306       -14.7569
 190   2.0000      -0.534167       -14.5354
 191   2.0000      -0.532901       -14.5010
 192   2.0000      -0.523975       -14.2581
 193   2.0000      -0.522248       -14.2111
 194   2.0000      -0.519783       -14.1440
 195   2.0000      -0.518902       -14.1200
 196   2.0000      -0.517390       -14.0789
 197   2.0000      -0.513704       -13.9786
 198   2.0000      -0.511141       -13.9089
 199   2.0000      -0.506399       -13.7798
 200   2.0000      -0.505797       -13.7634
 201   2.0000      -0.505492       -13.7551
 202   2.0000      -0.503448       -13.6995
 203   2.0000      -0.501515       -13.6469
 204   2.0000      -0.500240       -13.6122
 205   2.0000      -0.497592       -13.5402
 206   2.0000      -0.494022       -13.4430
 207   2.0000      -0.491148       -13.3648
 208   2.0000      -0.488616       -13.2959
 209   2.0000      -0.483714       -13.1625
 210   2.0000      -0.482357       -13.1256
 211   2.0000      -0.478524       -13.0213
 212   2.0000      -0.476978       -12.9792
 213   2.0000      -0.474074       -12.9002
 214   2.0000      -0.472732       -12.8637
 215   2.0000      -0.471357       -12.8263
 216   2.0000      -0.468524       -12.7492
 217   2.0000      -0.468383       -12.7453
 218   2.0000      -0.466075       -12.6825
 219   2.0000      -0.465416       -12.6646
 220   2.0000      -0.462348       -12.5811
 221   2.0000      -0.460372       -12.5274
 222   2.0000      -0.456267       -12.4157
 223   2.0000      -0.454573       -12.3696
 224   2.0000      -0.452586       -12.3155
 225   2.0000      -0.445966       -12.1353
 226   2.0000      -0.445051       -12.1104
 227   2.0000      -0.444430       -12.0936
 228   2.0000      -0.440888       -11.9972
 229   2.0000      -0.439171       -11.9505
 230   2.0000      -0.438205       -11.9242
 231   2.0000      -0.437598       -11.9076
 232   2.0000      -0.437008       -11.8916
 233   2.0000      -0.433616       -11.7993
 234   2.0000      -0.432447       -11.7675
 235   2.0000      -0.430776       -11.7220
 236   2.0000      -0.429638       -11.6911
 237   2.0000      -0.429552       -11.6887
 238   2.0000      -0.428670       -11.6647
 239   2.0000      -0.426617       -11.6088
 240   2.0000      -0.423594       -11.5266
 241   2.0000      -0.421343       -11.4653
 242   2.0000      -0.419986       -11.4284
 243   2.0000      -0.417783       -11.3684
 244   2.0000      -0.415736       -11.3128
 245   2.0000      -0.414639       -11.2829
 246   2.0000      -0.408332       -11.1113
 247   2.0000      -0.406479       -11.0609
 248   2.0000      -0.405860       -11.0440
 249   2.0000      -0.405498       -11.0342
 250   2.0000      -0.400028       -10.8853
 251   2.0000      -0.397991       -10.8299
 252   2.0000      -0.397049       -10.8042
 253   2.0000      -0.395317       -10.7571
 254   2.0000      -0.393641       -10.7115
 255   2.0000      -0.391735       -10.6596
 256   2.0000      -0.390179       -10.6173
 257   2.0000      -0.388407       -10.5691
 258   2.0000      -0.387301       -10.5390
 259   2.0000      -0.375062       -10.2060
 260   2.0000      -0.372289       -10.1305
 261   2.0000      -0.367175        -9.9913
 262   2.0000      -0.361985        -9.8501
 263   2.0000      -0.359482        -9.7820
 264   2.0000      -0.351781        -9.5725
 265   2.0000      -0.350194        -9.5293
 266   2.0000      -0.345527        -9.4023
 267   2.0000      -0.344529        -9.3751
 268   2.0000      -0.341791        -9.3006
 269   2.0000      -0.340011        -9.2522
 270   2.0000      -0.337998        -9.1974
 271   2.0000      -0.334547        -9.1035
 272   2.0000      -0.333962        -9.0876
 273   2.0000      -0.331624        -9.0239
 274   2.0000      -0.326170        -8.8755
 275   2.0000      -0.319439        -8.6924
 276   2.0000      -0.305488        -8.3128
 277   2.0000      -0.294875        -8.0240
 278   2.0000      -0.290860        -7.9147
 279   2.0000      -0.280329        -7.6281
 280   2.0000      -0.254121        -6.9150
 281   2.0000      -0.219745        -5.9796
 282   2.0000      -0.212779        -5.7900
 283   0.0000      -0.115353        -3.1389
 284   0.0000      -0.111875        -3.0443
 285   0.0000      -0.059853        -1.6287
 286   0.0000      -0.058652        -1.5960
 287   0.0000      -0.035734        -0.9724

MULLIKEN ATOMIC CHARGES
-----------------------
   0 C :   -0.017570
   1 C :   -0.070875
   2 C :    0.061175
   3 C :    0.030155
   4 C :   -0.052721
   5 S :    0.099767
   6 C :   -0.044816
   7 C :    0.019840
   8 C :    0.054232
   9 C :   -0.040952
  10 S :    0.097591
  11 C :   -0.062323
  12 C :    0.120186
  13 C :   -0.062000
  14 C :   -0.049495
  15 N :    0.043353
  16 C :   -0.128030
  17 C :   -0.124086
  18 N :    0.020477
  19 C :   -0.235870
  20 N :    0.229091
  21 C :   -0.212186
  22 N :    0.229998
  23 C :    0.095693
  24 C :   -0.007803
  25 C :   -0.007027
  26 N :   -0.281024
  27 S :    0.526317
  28 N :   -0.289203
  29 C :    0.004917
  30 C :   -0.052092
  31 C :    0.001067
  32 C :    0.115244
  33 C :   -0.062941
  34 C :    0.030878
  35 C :    0.105265
  36 C :    0.037320
  37 C :   -0.125928
  38 C :    0.077802
  39 C :    0.034874
  40 C :    0.050592
  41 C :    0.027639
  42 C :   -0.116008
  43 C :    0.123101
  44 C :   -0.003180
  45 C :   -0.073462
  46 C :    0.020098
  47 C :   -0.052169
  48 C :    0.045968
  49 C :   -0.081307
  50 C :   -0.044218
  51 N :    0.050891
  52 C :   -0.150782
  53 C :   -0.128343
  54 N :    0.059659
  55 C :   -0.168923
  56 N :    0.218266
  57 C :   -0.215773
  58 N :    0.226578
  59 C :    0.121082
  60 C :    0.031209
  61 C :    0.001708
  62 N :   -0.276804
  63 S :    0.527736
  64 N :   -0.320120
  65 C :   -0.141913
  66 C :    0.022977
  67 C :    0.021387
  68 C :    0.044392
  69 C :   -0.036671
  70 S :    0.130065
  71 C :   -0.064089
  72 C :    0.028695
  73 C :    0.060746
  74 C :   -0.069890
  75 S :    0.097840
  76 C :   -0.016606
  77 H :    0.027897
  78 H :    0.029717
  79 H :   -0.003632
  80 H :   -0.001293
  81 H :   -0.004701
  82 H :   -0.012812
  83 H :    0.002728
  84 H :   -0.033839
  85 H :   -0.038590
  86 H :   -0.028579
  87 H :   -0.015069
  88 H :    0.018879
  89 H :   -0.006785
  90 H :    0.011901
  91 H :    0.015873
  92 H :   -0.004736
  93 H :    0.003244
  94 H :    0.024355
  95 H :    0.001439
  96 H :    0.015578
  97 H :   -0.039344
  98 H :   -0.024616
  99 H :   -0.037016
 100 H :   -0.005868
 101 H :    0.001361
 102 H :    0.004916
 103 H :   -0.001634
 104 H :   -0.010928
 105 H :   -0.003937
 106 H :   -0.001900
 107 H :    0.028768
 108 H :    0.029953
Sum of atomic charges:   -0.0000000

LOEWDIN ATOMIC CHARGES
----------------------
   0 C :   -0.057009
   1 C :   -0.141159
   2 C :   -0.019155
   3 C :   -0.025111
   4 C :   -0.158522
   5 S :    0.369371
   6 C :   -0.188694
   7 C :   -0.013148
   8 C :   -0.037640
   9 C :   -0.108023
  10 S :    0.389353
  11 C :   -0.062403
  12 C :   -0.019071
  13 C :   -0.016465
  14 C :   -0.005731
  15 N :    0.006219
  16 C :   -0.031050
  17 C :   -0.047111
  18 N :    0.006231
  19 C :   -0.040716
  20 N :   -0.023359
  21 C :   -0.034403
  22 N :   -0.011360
  23 C :   -0.026059
  24 C :   -0.039903
  25 C :   -0.041488
  26 N :   -0.282636
  27 S :    0.659104
  28 N :   -0.283517
  29 C :   -0.022301
  30 C :   -0.002837
  31 C :    0.002474
  32 C :   -0.009063
  33 C :   -0.025433
  34 C :   -0.000847
  35 C :   -0.017592
  36 C :    0.008459
  37 C :   -0.033661
  38 C :   -0.010964
  39 C :   -0.058775
  40 C :   -0.015594
  41 C :   -0.057920
  42 C :   -0.018605
  43 C :   -0.024001
  44 C :   -0.023744
  45 C :   -0.027955
  46 C :    0.002849
  47 C :   -0.028910
  48 C :   -0.053345
  49 C :   -0.007646
  50 C :   -0.012646
  51 N :   -0.000263
  52 C :   -0.044689
  53 C :   -0.024281
  54 N :    0.013566
  55 C :   -0.017656
  56 N :   -0.009572
  57 C :   -0.039337
  58 N :   -0.018286
  59 C :   -0.021642
  60 C :   -0.042589
  61 C :   -0.038289
  62 N :   -0.291433
  63 S :    0.653006
  64 N :   -0.291386
  65 C :   -0.050753
  66 C :   -0.123211
  67 C :   -0.032458
  68 C :   -0.020774
  69 C :   -0.198594
  70 S :    0.437882
  71 C :   -0.156123
  72 C :   -0.026723
  73 C :   -0.017980
  74 C :   -0.141842
  75 S :    0.368402
  76 C :   -0.054658
  77 H :    0.032198
  78 H :    0.029787
  79 H :    0.036790
  80 H :    0.036497
  81 H :    0.035602
  82 H :    0.029859
  83 H :    0.034843
  84 H :    0.022026
  85 H :    0.025871
  86 H :    0.023795
  87 H :    0.016299
  88 H :    0.025875
  89 H :    0.014973
  90 H :    0.028519
  91 H :    0.022117
  92 H :    0.019860
  93 H :    0.017954
  94 H :    0.026186
  95 H :    0.020585
  96 H :    0.023915
  97 H :    0.023878
  98 H :    0.025286
  99 H :    0.025774
 100 H :    0.032322
 101 H :    0.035709
 102 H :    0.040856
 103 H :    0.037077
 104 H :    0.031744
 105 H :    0.035388
 106 H :    0.037093
 107 H :    0.032644
 108 H :    0.029870

  Mayer bond orders larger than 0.100000
B(  0-C ,  1-C ) :   1.8597 B(  0-C , 77-H ) :   0.9512 B(  0-C , 78-H ) :   0.9419
B(  1-C ,  2-C ) :   1.0812 B(  1-C ,  5-S ) :   1.0062 B(  2-C ,  3-C ) :   1.6534
B(  2-C , 79-H ) :   0.9934 B(  3-C ,  4-C ) :   1.1607 B(  3-C , 80-H ) :   0.9925
B(  4-C ,  5-S ) :   1.0664 B(  4-C ,  6-C ) :   1.5055 B(  6-C ,  7-C ) :   1.1875
B(  6-C , 10-S ) :   1.0458 B(  7-C ,  8-C ) :   1.5592 B(  7-C , 81-H ) :   0.9958
B(  8-C ,  9-C ) :   1.1879 B(  8-C , 82-H ) :   0.9835 B(  9-C , 10-S ) :   1.0777
B(  9-C , 11-C ) :   1.4482 B( 11-C , 12-C ) :   1.3227 B( 11-C , 83-H ) :   0.9203
B( 12-C , 13-C ) :   1.1742 B( 12-C , 23-C ) :   0.1165 B( 12-C , 25-C ) :   1.1644
B( 13-C , 14-C ) :   1.0771 B( 13-C , 18-N ) :   1.4841 B( 14-C , 15-N ) :   1.4141
B( 14-C , 23-C ) :   1.3191 B( 15-N , 16-C ) :   1.7453 B( 16-C , 17-C ) :   1.2077
B( 16-C , 21-C ) :   1.1534 B( 17-C , 18-N ) :   1.6688 B( 17-C , 19-C ) :   1.1532
B( 19-C , 20-N ) :   3.0379 B( 21-C , 22-N ) :   3.0464 B( 23-C , 24-C ) :   1.2242
B( 23-C , 29-C ) :   1.0045 B( 24-C , 25-C ) :   1.1040 B( 24-C , 28-N ) :   1.4990
B( 25-C , 26-N ) :   1.5444 B( 26-N , 27-S ) :   1.2711 B( 26-N , 28-N ) :   0.1495
B( 27-S , 28-N ) :   1.2701 B( 29-C , 30-C ) :   1.3111 B( 29-C , 34-C ) :   1.3583
B( 30-C , 31-C ) :   1.4106 B( 30-C , 84-H ) :   0.9892 B( 31-C , 32-C ) :   1.3717
B( 31-C , 37-C ) :   0.9211 B( 32-C , 33-C ) :   1.3299 B( 32-C , 35-C ) :   0.9921
B( 33-C , 34-C ) :   1.3930 B( 33-C , 85-H ) :   0.9920 B( 34-C , 86-H ) :   0.9787
B( 35-C , 36-C ) :   1.3786 B( 35-C , 45-C ) :   1.3257 B( 36-C , 37-C ) :   0.9180
B( 36-C , 42-C ) :   1.3754 B( 37-C , 38-C ) :   1.0138 B( 37-C , 40-C ) :   1.0323
B( 38-C , 39-C ) :   1.1147 B( 38-C , 87-H ) :   0.9320 B( 38-C , 88-H ) :   0.9289
B( 39-C , 89-H ) :   0.9620 B( 39-C , 90-H ) :   0.9584 B( 39-C , 91-H ) :   0.9597
B( 40-C , 41-C ) :   1.1068 B( 40-C , 92-H ) :   0.9376 B( 40-C , 93-H ) :   0.9390
B( 41-C , 94-H ) :   0.9606 B( 41-C , 95-H ) :   0.9641 B( 41-C , 96-H ) :   0.9652
B( 42-C , 43-C ) :   1.3065 B( 42-C , 97-H ) :   1.0069 B( 43-C , 44-C ) :   1.3519
B( 43-C , 46-C ) :   1.0227 B( 44-C , 45-C ) :   1.3883 B( 44-C , 98-H ) :   0.9745
B( 45-C , 99-H ) :   0.9962 B( 46-C , 47-C ) :   1.7755 B( 46-C ,100-H ) :   0.9588
B( 47-C , 48-C ) :   1.1031 B( 47-C ,101-H ) :   0.9484 B( 48-C , 49-C ) :   1.2785
B( 48-C , 59-C ) :   0.1138 B( 48-C , 61-C ) :   1.2128 B( 49-C , 50-C ) :   1.1095
B( 49-C , 54-N ) :   1.4241 B( 50-C , 51-N ) :   1.4854 B( 50-C , 59-C ) :   1.1828
B( 51-N , 52-C ) :   1.7007 B( 52-C , 53-C ) :   1.2095 B( 52-C , 57-C ) :   1.1564
B( 53-C , 54-N ) :   1.7316 B( 53-C , 55-C ) :   1.1671 B( 55-C , 56-N ) :   2.9626
B( 57-C , 58-N ) :   3.0457 B( 59-C , 60-C ) :   1.1488 B( 59-C , 65-C ) :   1.2918
B( 60-C , 61-C ) :   1.1123 B( 60-C , 64-N ) :   1.4918 B( 61-C , 62-N ) :   1.5465
B( 62-N , 63-S ) :   1.2634 B( 62-N , 64-N ) :   0.1448 B( 63-S , 64-N ) :   1.2532
B( 65-C , 66-C ) :   1.4386 B( 65-C ,102-H ) :   0.9433 B( 66-C , 67-C ) :   1.1618
B( 66-C , 70-S ) :   1.0813 B( 67-C , 68-C ) :   1.5695 B( 67-C ,103-H ) :   1.0034
B( 68-C , 69-C ) :   1.1846 B( 68-C ,104-H ) :   0.9930 B( 69-C , 70-S ) :   1.0044
B( 69-C , 71-C ) :   1.5173 B( 71-C , 72-C ) :   1.1587 B( 71-C , 75-S ) :   1.0680
B( 72-C , 73-C ) :   1.6522 B( 72-C ,105-H ) :   0.9928 B( 73-C , 74-C ) :   1.0813
B( 73-C ,106-H ) :   0.9932 B( 74-C , 75-S ) :   1.0048 B( 74-C , 76-C ) :   1.8572
B( 76-C ,107-H ) :   0.9512 B( 76-C ,108-H ) :   0.9427

-----------------------------------------------------------------------------
         ABSORPTION SPECTRUM VIA TRANSITION ELECTRIC DIPOLE MOMENTS
-----------------------------------------------------------------------------
State   Energy  Wavelength   fosc         T2         TX        TY        TZ
        (cm-1)    (nm)                  (au**2)     (au)      (au)      (au)
-----------------------------------------------------------------------------
   0    7810.9   1280.3   0.854813760  36.02868  -1.26224  -5.66486  -1.53127
   1    8514.6   1174.4   0.322076494  12.45283  -1.78504   2.70887   1.38870
   2   13077.4    764.7   0.060521500   1.52358  -0.80173  -0.86499  -0.36415
   3   14976.6    667.7   0.003484162   0.07659   0.18733  -0.20319   0.01447
   4   17440.7    573.4   0.096648203   1.82434  -0.38464  -1.11959  -0.65031
   5   18477.1    541.2   0.004064211   0.07241   0.16834  -0.12869  -0.16588
   6   19490.2    513.1   0.750180688  12.67143   0.78495   3.19271   1.36451
   7   19772.7    505.7   0.336748779   5.60681   0.43906  -2.20453  -0.74436
   8   22198.6    450.5   0.127693565   1.89373  -0.11799  -1.10812  -0.80740
   9   23135.8    432.2   0.183899760   2.61682  -0.31073   1.49730   0.52758
  10   23285.4    429.5   0.060693304   0.85809  -0.00260   0.89802  -0.22725
  11   23588.3    423.9   0.233458065   3.25828   1.28799  -0.99885  -0.77567
  12   23872.7    418.9   0.027602009   0.38064  -0.53411   0.09682   0.29325
  13   24145.6    414.2   0.119212048   1.62539  -0.32668   0.52072   1.11693
  14   25103.5    398.4   0.019740565   0.25888  -0.03321   0.38999   0.32510
  15   25342.5    394.6   0.138542425   1.79973   0.32958  -1.22681  -0.43132
  16   25880.8    386.4   0.012209952   0.15531  -0.09965  -0.19791   0.32591
  17   26635.9    375.4   0.011224514   0.13873  -0.17396   0.30372   0.12736
  18   26673.6    374.9   0.003484345   0.04300  -0.07702  -0.13623  -0.13606
  19   27435.4    364.5   0.019999459   0.23998  -0.09964   0.47909   0.02290
  20   27601.7    362.3   0.016297657   0.19439   0.02790  -0.42787   0.10263
  21   28422.9    351.8   0.081017848   0.93840  -0.45910   0.84890   0.08363
  22   28600.1    349.6   0.015592485   0.17948   0.16484  -0.27632  -0.27561
  23   28729.5    348.1   0.028611719   0.32786  -0.03136  -0.18663   0.54042
  24   28945.5    345.5   0.044788525   0.50940  -0.32574  -0.30205   0.55863
  25   29215.2    342.3   0.017878289   0.20146   0.13461  -0.42235   0.07045
  26   29591.6    337.9   0.010946780   0.12179   0.05508  -0.33998   0.05627
  27   29650.2    337.3   0.001103958   0.01226   0.04550  -0.01507  -0.09980
  28   30370.4    329.3   0.015407541   0.16702  -0.02765   0.35739   0.19628
  29   30439.8    328.5   0.081931275   0.88610   0.19970  -0.86664  -0.30848
  30   30801.7    324.7   0.035141884   0.37560  -0.49005  -0.30142   0.21118
  31   31159.3    320.9   0.280556554   2.96420  -0.75773   1.02399   1.15823
  32   31529.4    317.2   0.135258891   1.41229   1.11686   0.25710  -0.31436
  33   31712.7    315.3   0.704714013   7.31569   1.06022  -1.23371  -2.16092
  34   31831.4    314.2   0.321445201   3.32450  -1.63557  -0.64333   0.48531
  35   32261.2    310.0   0.015942327   0.16268   0.04381   0.37139   0.15112
  36   32325.0    309.4   0.049061419   0.49966   0.43188  -0.16779  -0.53384
  37   32513.7    307.6   0.016063243   0.16265   0.36104  -0.07346  -0.16400
  38   33120.9    301.9   0.063667653   0.63284  -0.17862   0.67944   0.37322
  39   33517.8    298.3   0.017864331   0.17546  -0.19706   0.33405   0.15824
  40   33668.2    297.0   0.125112190   1.22336  -0.15396   1.02508   0.38583
  41   34010.6    294.0   0.015535544   0.15038  -0.25495  -0.15249   0.24925
  42   34205.3    292.4   0.156570475   1.50693  -0.76730  -0.95022   0.12352
  43   34396.3    290.7   0.047392906   0.45360   0.54738  -0.37344  -0.12052
  44   34491.7    289.9   0.033907938   0.32364   0.48846   0.27671  -0.09210
  45   34768.3    287.6   0.042397579   0.40145  -0.24045   0.26851   0.52109
  46   35179.9    284.3   0.008519642   0.07973  -0.00610   0.17714   0.21980
  47   35968.1    278.0   0.103092601   0.94359  -0.79760   0.17192   0.52713
  48   36330.3    275.3   0.084214734   0.76312   0.29461  -0.61452  -0.54653
  49   36756.0    272.1   0.003264890   0.02924  -0.06453  -0.07269   0.14069
  50   36821.5    271.6   0.019134013   0.17107  -0.11129  -0.39403  -0.05853
  51   37057.9    269.8   0.144494037   1.28364  -0.80307   0.55985   0.57034
  52   37460.2    266.9   0.092096284   0.80937  -0.72042  -0.30555   0.44385
  53   37600.1    266.0   0.122013032   1.06830  -0.22270   0.67089   0.75406
  54   37632.1    265.7   0.004953818   0.04334   0.04123  -0.09546   0.18034
  55   38277.7    261.2   0.027336287   0.23511   0.00420  -0.46122  -0.14957
  56   38430.7    260.2   0.007788678   0.06672  -0.20644   0.09895   0.11964
  57   38925.1    256.9   0.006999424   0.05920   0.15490   0.07138  -0.17352
  58   39107.0    255.7   0.118638770   0.99873   0.27743  -0.52613  -0.80309
  59   39226.7    254.9   0.002794537   0.02345  -0.14458  -0.01238   0.04896
  60   39503.5    253.1   0.057678438   0.48068   0.09134   0.29920   0.61872
  61   39600.1    252.5   0.034218725   0.28447  -0.20028   0.17470   0.46243
  62   39781.4    251.4   0.125857473   1.04154   0.18192  -0.81834  -0.58203
  63   39793.6    251.3   0.063378290   0.52433   0.25342   0.67831   0.00047
  64   39911.3    250.6   0.117989706   0.97325   0.62650   0.73633  -0.19635
  65   40048.1    249.7   0.035814476   0.29441  -0.29771   0.45243   0.03296
  66   40146.9    249.1   0.032785258   0.26885   0.00149  -0.51757   0.03109
  67   40173.1    248.9   0.017229436   0.14119  -0.26041  -0.21550   0.16413
  68   40298.0    248.2   0.002664801   0.02177   0.02388  -0.14201  -0.03214

FINAL SINGLE POINT ENERGY     -5309.050109529497

DIPOLE MOMENT
-------------
                                X             Y             Z
Electronic contribution:     19.25148       3.93225      -3.56315
Nuclear contribution   :    -19.38911      -2.44503       5.53578
                        -----------------------------------------
Total Dipole Moment    :     -0.13763       1.48722       1.97263
                        -----------------------------------------
Magnitude (a.u.)       :      2.47427
Magnitude (Debye)      :      6.28910

Rotational constants in cm-1:     0.001888     0.000200     0.000187
Rotational constants in MHz :    56.615450     5.994836     5.599191

                             ****ORCA TERMINATED NORMALLY****
TOTAL RUN TIME: 0 days 0 hours 13 minutes 56 seconds 421 msec
