                         Program Version 4.2.0 -  RELEASE  -
|  1> # ORCA input file
|  2> # SCF done       -154.787485289513          0.000957828212
|  3> ! CAM-B3LYP def2-SVP def2/J RIJCOSX Grid4 TightSCF
|  4> %maxcore 5000
|  5> %tddft
|  6>     Mode sTDDFT
|  7>     Ethresh 5.0
|  8>     maxcore 5000
|  9> end
| 10>
| 11> %pal
| 12>   nprocs 6
| 13>   end
| 14> * xyz 0 1
| 15>    C       21.76547        16.41711         9.59659
| 16>    N       21.30021        15.14785         9.52665
| 17>    C       20.57056        14.99266         8.37772
| 18>    C       20.58387        16.20688         7.70919
| 19>    C       21.33860        17.09787         8.48270
| 20>    C       19.96209        13.79022         8.03130
| 21>    C       19.42762        12.74339         7.72803
| 22>    C       18.80088        11.56178         7.35116
| 23>    C       18.86172        10.42056         8.07552
| 24>    C       18.22591         9.20032         7.71610
| 25>    S       18.41794         7.80640         8.77351
| 26>    C       17.43670         6.84303         7.73217
| 27>    C       16.99561         7.58592         6.63061
| 28>    C       17.43858         8.90808         6.62188
| 29>    S       15.99654         6.65425         5.54765
| 30>    C       16.17713         5.26363         6.58322
| 31>    C       15.69271         3.96176         6.51358
| 32>    C       16.10930         3.19170         7.58736
| 33>    S       17.12224         4.12269         8.69660
| 34>    C       16.97348         5.52612         7.70602
| 35>    C       15.85944         1.84380         7.90325
| 36>    C       15.11774         0.93506         7.19437
| 37>    C       14.91444        -0.42169         7.56140
| 38>    C       14.15002        -1.13690         6.69301
| 39>    C       13.69588        -0.39191         5.58103
| 40>    S       14.27841         1.25921         5.68755
| 41>    C       12.92194        -0.80864         4.52120
| 42>    C       12.39547        -2.09668         4.26401
| 43>    C       11.68549        -2.18031         3.10998
| 44>    C       11.59386        -0.96494         2.37001
| 45>    S       12.45980         0.29568         3.24289
| 46>    C       10.96907        -0.84373         1.16331
| 47>    C       10.81435         0.29337         0.30852
| 48>    C       10.32106         0.07658        -0.99508
| 49>    C       10.18394         1.12971        -1.86004
| 50>    C       10.50983         2.43741        -1.45443
| 51>    C       10.97232         2.67134        -0.16672
| 52>    C       11.12360         1.60734         0.69633
| 53>    C       10.27744         3.33584        -2.56120
| 54>    C        9.81451         2.58722        -3.65771
| 55>    C        9.70796         1.12338        -3.29484
| 56>    C        8.25575         0.62293        -3.40193
| 57>    C        7.28755         1.43188        -2.54738
| 58>    C       10.61974         0.25752        -4.18344
| 59>    C       12.07799         0.69751        -4.13584
| 60>    C        9.53261         3.19427        -4.85550
| 61>    C        9.70591         4.58099        -4.99117
| 62>    C       10.14799         5.31402        -3.87987
| 63>    C       10.43829         4.70962        -2.67452
| 64>    C        9.45863         5.28599        -6.22609
| 65>    C        9.20311         4.73407        -7.42805
| 66>    C        8.98935         5.47011        -8.63167
| 67>    N        8.79470         4.83719        -9.82607
| 68>    C        8.62581         5.75349       -10.82385
| 69>    C        8.70880         7.01577       -10.24758
| 70>    C        8.93591         6.83813        -8.88545
| 71>    C        8.41714         5.38905       -12.15217
| 72>    C        8.24050         5.06737       -13.30685
| 73>    C        8.04033         4.69179       -14.64280
| 74>    C        7.88711         5.56066       -15.64031
| 75>    H       22.36299        16.75057        10.42231
| 76>    H       21.45724        14.42103        10.20483
| 77>    H       20.10185        16.41075         6.77394
| 78>    H       21.54577        18.12358         8.24985
| 79>    H       18.24494        11.59807         6.42358
| 80>    H       19.42689        10.40970         8.99799
| 81>    H       17.19248         9.61473         5.85173
| 82>    H       15.06961         3.59992         5.71894
| 83>    H       16.31455         1.48110         8.81606
| 84>    H       15.34752        -0.82185         8.46142
| 85>    H       13.90026        -2.17533         6.81906
| 86>    H       12.56387        -2.92077         4.93425
| 87>    H       11.21785        -3.08058         2.75069
| 88>    H       10.54813        -1.76582         0.77749
| 89>    H       10.07026        -0.92904        -1.30339
| 90>    H       11.21347         3.67238         0.15807
| 91>    H       11.47123         1.79744         1.69841
| 92>    H        8.22292        -0.42455        -3.09384
| 93>    H        7.94356         0.67288        -4.44751
| 94>    H        7.56844         1.38067        -1.49784
| 95>    H        6.27722         1.04308        -2.65366
| 96>    H        7.28914         2.47620        -2.85146
| 97>    H       10.25833         0.31054        -5.21296
| 98>    H       10.54323        -0.78197        -3.85674
| 99>    H       12.18012         1.72499        -4.47813
|100>    H       12.68347         0.05898        -4.77529
|101>    H       12.46448         0.63509        -3.12106
|102>    H        9.17259         2.60898        -5.68802
|103>    H       10.27364         6.38279        -3.98221
|104>    H       10.78598         5.29500        -1.83631
|105>    H        9.51574         6.36426        -6.16138
|106>    H        9.16488         3.65725        -7.53553
|107>    H        8.78572         3.83910        -9.95859
|108>    H        8.61375         7.94645       -10.77127
|109>    H        9.04723         7.61742        -8.15821
|110>    H        8.01364         3.62356       -14.82572
|111>    H        7.90958         6.62366       -15.46895
|112>    H        7.73229         5.23205       -16.65330
|113> *
|114>
|115>                          ****END OF INPUT****

CARTESIAN COORDINATES (ANGSTROEM)
---------------------------------
  C     21.765470   16.417110    9.596590
  N     21.300210   15.147850    9.526650
  C     20.570560   14.992660    8.377720
  C     20.583870   16.206880    7.709190
  C     21.338600   17.097870    8.482700
  C     19.962090   13.790220    8.031300
  C     19.427620   12.743390    7.728030
  C     18.800880   11.561780    7.351160
  C     18.861720   10.420560    8.075520
  C     18.225910    9.200320    7.716100
  S     18.417940    7.806400    8.773510
  C     17.436700    6.843030    7.732170
  C     16.995610    7.585920    6.630610
  C     17.438580    8.908080    6.621880
  S     15.996540    6.654250    5.547650
  C     16.177130    5.263630    6.583220
  C     15.692710    3.961760    6.513580
  C     16.109300    3.191700    7.587360
  S     17.122240    4.122690    8.696600
  C     16.973480    5.526120    7.706020
  C     15.859440    1.843800    7.903250
  C     15.117740    0.935060    7.194370
  C     14.914440   -0.421690    7.561400
  C     14.150020   -1.136900    6.693010
  C     13.695880   -0.391910    5.581030
  S     14.278410    1.259210    5.687550
  C     12.921940   -0.808640    4.521200
  C     12.395470   -2.096680    4.264010
  C     11.685490   -2.180310    3.109980
  C     11.593860   -0.964940    2.370010
  S     12.459800    0.295680    3.242890
  C     10.969070   -0.843730    1.163310
  C     10.814350    0.293370    0.308520
  C     10.321060    0.076580   -0.995080
  C     10.183940    1.129710   -1.860040
  C     10.509830    2.437410   -1.454430
  C     10.972320    2.671340   -0.166720
  C     11.123600    1.607340    0.696330
  C     10.277440    3.335840   -2.561200
  C      9.814510    2.587220   -3.657710
  C      9.707960    1.123380   -3.294840
  C      8.255750    0.622930   -3.401930
  C      7.287550    1.431880   -2.547380
  C     10.619740    0.257520   -4.183440
  C     12.077990    0.697510   -4.135840
  C      9.532610    3.194270   -4.855500
  C      9.705910    4.580990   -4.991170
  C     10.147990    5.314020   -3.879870
  C     10.438290    4.709620   -2.674520
  C      9.458630    5.285990   -6.226090
  C      9.203110    4.734070   -7.428050
  C      8.989350    5.470110   -8.631670
  N      8.794700    4.837190   -9.826070
  C      8.625810    5.753490  -10.823850
  C      8.708800    7.015770  -10.247580
  C      8.935910    6.838130   -8.885450
  C      8.417140    5.389050  -12.152170
  C      8.240500    5.067370  -13.306850
  C      8.040330    4.691790  -14.642800
  C      7.887110    5.560660  -15.640310
  H     22.362990   16.750570   10.422310
  H     21.457240   14.421030   10.204830
  H     20.101850   16.410750    6.773940
  H     21.545770   18.123580    8.249850
  H     18.244940   11.598070    6.423580
  H     19.426890   10.409700    8.997990
  H     17.192480    9.614730    5.851730
  H     15.069610    3.599920    5.718940
  H     16.314550    1.481100    8.816060
  H     15.347520   -0.821850    8.461420
  H     13.900260   -2.175330    6.819060
  H     12.563870   -2.920770    4.934250
  H     11.217850   -3.080580    2.750690
  H     10.548130   -1.765820    0.777490
  H     10.070260   -0.929040   -1.303390
  H     11.213470    3.672380    0.158070
  H     11.471230    1.797440    1.698410
  H      8.222920   -0.424550   -3.093840
  H      7.943560    0.672880   -4.447510
  H      7.568440    1.380670   -1.497840
  H      6.277220    1.043080   -2.653660
  H      7.289140    2.476200   -2.851460
  H     10.258330    0.310540   -5.212960
  H     10.543230   -0.781970   -3.856740
  H     12.180120    1.724990   -4.478130
  H     12.683470    0.058980   -4.775290
  H     12.464480    0.635090   -3.121060
  H      9.172590    2.608980   -5.688020
  H     10.273640    6.382790   -3.982210
  H     10.785980    5.295000   -1.836310
  H      9.515740    6.364260   -6.161380
  H      9.164880    3.657250   -7.535530
  H      8.785720    3.839100   -9.958590
  H      8.613750    7.946450  -10.771270
  H      9.047230    7.617420   -8.158210
  H      8.013640    3.623560  -14.825720
  H      7.909580    6.623660  -15.468950
  H      7.732290    5.232050  -16.653300

 Total Charge           Charge          ....    0
 Multiplicity           Mult            ....    1
 Number of Electrons    NEL             ....  450
 Basis Dimension        Dim             .... 1050

ORBITAL ENERGIES
----------------

  NO   OCC          E(Eh)            E(eV)
   0   2.0000     -88.953115     -2420.5373
   1   2.0000     -88.951157     -2420.4840
   2   2.0000     -88.948806     -2420.4201
   3   2.0000     -88.940688     -2420.1992
   4   2.0000     -88.939787     -2420.1746
   5   2.0000     -14.454820      -393.3356
   6   2.0000     -14.454513      -393.3273
   7   2.0000     -10.304841      -280.4090
   8   2.0000     -10.303832      -280.3815
   9   2.0000     -10.302504      -280.3454
  10   2.0000     -10.301315      -280.3130
  11   2.0000     -10.301111      -280.3075
  12   2.0000     -10.300597      -280.2935
  13   2.0000     -10.299475      -280.2630
  14   2.0000     -10.298476      -280.2358
  15   2.0000     -10.298098      -280.2255
  16   2.0000     -10.297754      -280.2161
  17   2.0000     -10.294864      -280.1375
  18   2.0000     -10.294220      -280.1200
  19   2.0000     -10.293570      -280.1023
  20   2.0000     -10.286679      -279.9148
  21   2.0000     -10.283988      -279.8415
  22   2.0000     -10.282846      -279.8105
  23   2.0000     -10.281772      -279.7812
  24   2.0000     -10.281406      -279.7713
  25   2.0000     -10.280890      -279.7572
  26   2.0000     -10.280712      -279.7524
  27   2.0000     -10.280249      -279.7398
  28   2.0000     -10.279753      -279.7263
  29   2.0000     -10.275525      -279.6113
  30   2.0000     -10.274452      -279.5820
  31   2.0000     -10.274213      -279.5756
  32   2.0000     -10.273613      -279.5592
  33   2.0000     -10.272830      -279.5379
  34   2.0000     -10.272225      -279.5215
  35   2.0000     -10.271692      -279.5069
  36   2.0000     -10.265850      -279.3480
  37   2.0000     -10.264978      -279.3243
  38   2.0000     -10.264494      -279.3111
  39   2.0000     -10.264467      -279.3103
  40   2.0000     -10.264327      -279.3065
  41   2.0000     -10.264054      -279.2991
  42   2.0000     -10.263480      -279.2835
  43   2.0000     -10.263041      -279.2715
  44   2.0000     -10.262828      -279.2657
  45   2.0000     -10.262804      -279.2651
  46   2.0000     -10.262677      -279.2616
  47   2.0000     -10.262100      -279.2459
  48   2.0000     -10.261789      -279.2375
  49   2.0000     -10.261288      -279.2238
  50   2.0000     -10.260858      -279.2121
  51   2.0000     -10.260431      -279.2005
  52   2.0000     -10.258774      -279.1554
  53   2.0000     -10.258607      -279.1509
  54   2.0000     -10.252082      -278.9733
  55   2.0000     -10.248511      -278.8762
  56   2.0000     -10.248038      -278.8633
  57   2.0000     -10.244860      -278.7768
  58   2.0000     -10.241272      -278.6792
  59   2.0000     -10.241229      -278.6780
  60   2.0000      -8.048276      -219.0047
  61   2.0000      -8.046370      -218.9529
  62   2.0000      -8.043997      -218.8883
  63   2.0000      -8.036597      -218.6869
  64   2.0000      -8.035610      -218.6601
  65   2.0000      -6.017794      -163.7525
  66   2.0000      -6.015947      -163.7022
  67   2.0000      -6.013808      -163.6440
  68   2.0000      -6.013712      -163.6414
  69   2.0000      -6.011990      -163.5946
  70   2.0000      -6.009925      -163.5384
  71   2.0000      -6.009894      -163.5375
  72   2.0000      -6.007806      -163.4807
  73   2.0000      -6.006388      -163.4421
  74   2.0000      -6.005427      -163.4160
  75   2.0000      -6.004982      -163.4039
  76   2.0000      -6.002287      -163.3305
  77   2.0000      -6.001338      -163.3047
  78   2.0000      -5.997513      -163.2006
  79   2.0000      -5.996460      -163.1720
  80   2.0000      -1.072086       -29.1729
  81   2.0000      -1.068934       -29.0872
  82   2.0000      -1.008832       -27.4517
  83   2.0000      -0.989521       -26.9262
  84   2.0000      -0.981180       -26.6993
  85   2.0000      -0.971764       -26.4431
  86   2.0000      -0.964439       -26.2437
  87   2.0000      -0.939178       -25.5563
  88   2.0000      -0.922628       -25.1060
  89   2.0000      -0.914794       -24.8928
  90   2.0000      -0.892307       -24.2809
  91   2.0000      -0.891320       -24.2541
  92   2.0000      -0.885906       -24.1067
  93   2.0000      -0.881837       -23.9960
  94   2.0000      -0.870958       -23.7000
  95   2.0000      -0.862627       -23.4733
  96   2.0000      -0.860008       -23.4020
  97   2.0000      -0.857385       -23.3306
  98   2.0000      -0.852408       -23.1952
  99   2.0000      -0.843888       -22.9634
 100   2.0000      -0.836262       -22.7558
 101   2.0000      -0.832381       -22.6502
 102   2.0000      -0.831698       -22.6317
 103   2.0000      -0.827359       -22.5136
 104   2.0000      -0.826798       -22.4983
 105   2.0000      -0.822696       -22.3867
 106   2.0000      -0.815530       -22.1917
 107   2.0000      -0.808551       -22.0018
 108   2.0000      -0.799057       -21.7434
 109   2.0000      -0.788587       -21.4585
 110   2.0000      -0.775537       -21.1034
 111   2.0000      -0.769114       -20.9287
 112   2.0000      -0.755246       -20.5513
 113   2.0000      -0.753987       -20.5170
 114   2.0000      -0.735886       -20.0245
 115   2.0000      -0.722399       -19.6575
 116   2.0000      -0.708809       -19.2877
 117   2.0000      -0.701273       -19.0826
 118   2.0000      -0.687597       -18.7105
 119   2.0000      -0.679808       -18.4985
 120   2.0000      -0.674601       -18.3568
 121   2.0000      -0.672950       -18.3119
 122   2.0000      -0.670471       -18.2444
 123   2.0000      -0.669492       -18.2178
 124   2.0000      -0.667952       -18.1759
 125   2.0000      -0.658579       -17.9208
 126   2.0000      -0.656694       -17.8696
 127   2.0000      -0.652226       -17.7480
 128   2.0000      -0.648233       -17.6393
 129   2.0000      -0.647703       -17.6249
 130   2.0000      -0.643841       -17.5198
 131   2.0000      -0.633719       -17.2444
 132   2.0000      -0.622056       -16.9270
 133   2.0000      -0.619744       -16.8641
 134   2.0000      -0.614168       -16.7124
 135   2.0000      -0.612105       -16.6562
 136   2.0000      -0.608716       -16.5640
 137   2.0000      -0.590404       -16.0657
 138   2.0000      -0.586470       -15.9587
 139   2.0000      -0.583433       -15.8760
 140   2.0000      -0.576109       -15.6767
 141   2.0000      -0.573063       -15.5938
 142   2.0000      -0.567903       -15.4534
 143   2.0000      -0.557105       -15.1596
 144   2.0000      -0.550557       -14.9814
 145   2.0000      -0.541405       -14.7324
 146   2.0000      -0.540651       -14.7118
 147   2.0000      -0.537782       -14.6338
 148   2.0000      -0.532882       -14.5005
 149   2.0000      -0.525356       -14.2957
 150   2.0000      -0.522461       -14.2169
 151   2.0000      -0.520891       -14.1742
 152   2.0000      -0.517084       -14.0706
 153   2.0000      -0.516232       -14.0474
 154   2.0000      -0.514663       -14.0047
 155   2.0000      -0.512635       -13.9495
 156   2.0000      -0.511299       -13.9131
 157   2.0000      -0.510530       -13.8922
 158   2.0000      -0.509487       -13.8638
 159   2.0000      -0.509112       -13.8536
 160   2.0000      -0.507957       -13.8222
 161   2.0000      -0.502012       -13.6604
 162   2.0000      -0.497273       -13.5315
 163   2.0000      -0.495392       -13.4803
 164   2.0000      -0.491881       -13.3848
 165   2.0000      -0.487841       -13.2748
 166   2.0000      -0.483038       -13.1441
 167   2.0000      -0.477793       -13.0014
 168   2.0000      -0.476292       -12.9606
 169   2.0000      -0.474762       -12.9189
 170   2.0000      -0.471539       -12.8312
 171   2.0000      -0.470237       -12.7958
 172   2.0000      -0.469509       -12.7760
 173   2.0000      -0.468157       -12.7392
 174   2.0000      -0.467582       -12.7235
 175   2.0000      -0.465536       -12.6679
 176   2.0000      -0.460603       -12.5336
 177   2.0000      -0.456869       -12.4321
 178   2.0000      -0.456549       -12.4233
 179   2.0000      -0.454233       -12.3603
 180   2.0000      -0.451815       -12.2945
 181   2.0000      -0.445183       -12.1140
 182   2.0000      -0.444347       -12.0913
 183   2.0000      -0.441266       -12.0075
 184   2.0000      -0.439645       -11.9634
 185   2.0000      -0.437495       -11.9048
 186   2.0000      -0.433658       -11.8004
 187   2.0000      -0.426651       -11.6098
 188   2.0000      -0.423291       -11.5183
 189   2.0000      -0.422668       -11.5014
 190   2.0000      -0.420465       -11.4414
 191   2.0000      -0.419968       -11.4279
 192   2.0000      -0.416167       -11.3245
 193   2.0000      -0.413282       -11.2460
 194   2.0000      -0.412196       -11.2164
 195   2.0000      -0.410654       -11.1745
 196   2.0000      -0.402572       -10.9545
 197   2.0000      -0.401938       -10.9373
 198   2.0000      -0.401438       -10.9237
 199   2.0000      -0.394549       -10.7362
 200   2.0000      -0.388740       -10.5782
 201   2.0000      -0.384972       -10.4756
 202   2.0000      -0.379391       -10.3237
 203   2.0000      -0.379087       -10.3155
 204   2.0000      -0.376417       -10.2428
 205   2.0000      -0.366015        -9.9598
 206   2.0000      -0.354133        -9.6364
 207   2.0000      -0.338350        -9.2070
 208   2.0000      -0.337355        -9.1799
 209   2.0000      -0.336717        -9.1625
 210   2.0000      -0.333110        -9.0644
 211   2.0000      -0.325747        -8.8640
 212   2.0000      -0.322212        -8.7678
 213   2.0000      -0.319685        -8.6991
 214   2.0000      -0.319167        -8.6850
 215   2.0000      -0.316262        -8.6059
 216   2.0000      -0.312624        -8.5069
 217   2.0000      -0.308189        -8.3862
 218   2.0000      -0.302000        -8.2178
 219   2.0000      -0.280135        -7.6228
 220   2.0000      -0.276144        -7.5143
 221   2.0000      -0.262444        -7.1415
 222   2.0000      -0.234526        -6.3818
 223   2.0000      -0.224663        -6.1134
 224   2.0000      -0.200024        -5.4429
 225   0.0000      -0.073896        -2.0108
 226   0.0000      -0.037314        -1.0154
 227   0.0000      -0.024968        -0.6794
 228   0.0000      -0.000842        -0.0229
 229   0.0000       0.014934         0.4064

MULLIKEN ATOMIC CHARGES
-----------------------
   0 C :    0.045280
   1 N :   -0.049525
   2 C :   -0.013008
   3 C :   -0.016204
   4 C :   -0.001789
   5 C :    0.095348
   6 C :   -0.078415
   7 C :   -0.083693
   8 C :    0.054434
   9 C :   -0.082995
  10 S :    0.141706
  11 C :   -0.083492
  12 C :   -0.029754
  13 C :   -0.032531
  14 S :    0.145649
  15 C :   -0.043341
  16 C :   -0.035164
  17 C :   -0.096011
  18 S :    0.131522
  19 C :   -0.073921
  20 C :    0.035139
  21 C :   -0.029499
  22 C :    0.033644
  23 C :    0.027691
  24 C :   -0.038686
  25 S :    0.048486
  26 C :   -0.035443
  27 C :    0.027603
  28 C :    0.036734
  29 C :   -0.008241
  30 S :    0.054518
  31 C :   -0.039885
  32 C :    0.118806
  33 C :   -0.117379
  34 C :    0.026173
  35 C :    0.109242
  36 C :   -0.052546
  37 C :   -0.019741
  38 C :    0.103779
  39 C :    0.011565
  40 C :   -0.140326
  41 C :    0.072269
  42 C :    0.024674
  43 C :    0.068603
  44 C :    0.027161
  45 C :   -0.093101
  46 C :    0.130664
  47 C :   -0.024884
  48 C :   -0.045211
  49 C :   -0.028730
  50 C :    0.040182
  51 C :    0.092916
  52 N :   -0.042218
  53 C :    0.016843
  54 C :   -0.003382
  55 C :   -0.055791
  56 C :    0.112451
  57 C :   -0.137846
  58 C :   -0.091535
  59 C :   -0.006018
  60 H :   -0.004134
  61 H :    0.123292
  62 H :   -0.029315
  63 H :   -0.021262
  64 H :    0.022327
  65 H :   -0.012374
  66 H :   -0.017806
  67 H :   -0.002173
  68 H :   -0.018881
  69 H :   -0.014691
  70 H :   -0.015581
  71 H :   -0.015176
  72 H :   -0.014580
  73 H :   -0.025450
  74 H :   -0.043569
  75 H :   -0.036896
  76 H :   -0.015961
  77 H :   -0.005522
  78 H :   -0.006086
  79 H :    0.022811
  80 H :    0.006175
  81 H :    0.023214
  82 H :   -0.008301
  83 H :   -0.004449
  84 H :    0.021510
  85 H :    0.006588
  86 H :    0.022775
  87 H :   -0.049633
  88 H :   -0.030250
  89 H :   -0.037174
  90 H :   -0.026842
  91 H :   -0.037744
  92 H :    0.118662
  93 H :   -0.030174
  94 H :   -0.027041
  95 H :    0.025936
  96 H :    0.029099
  97 H :    0.025899
Sum of atomic charges:   -0.0000000

LOEWDIN ATOMIC CHARGES
----------------------
   0 C :   -0.012081
   1 N :    0.100890
   2 C :   -0.046396
   3 C :   -0.048751
   4 C :   -0.080205
   5 C :   -0.047536
   6 C :   -0.043430
   7 C :   -0.037936
   8 C :   -0.031036
   9 C :   -0.162513
  10 S :    0.419367
  11 C :   -0.220147
  12 C :   -0.189457
  13 C :   -0.066814
  14 S :    0.398075
  15 C :   -0.188481
  16 C :   -0.079126
  17 C :   -0.159415
  18 S :    0.413040
  19 C :   -0.218721
  20 C :   -0.080058
  21 C :   -0.146278
  22 C :   -0.032607
  23 C :   -0.038491
  24 C :   -0.180515
  25 S :    0.377741
  26 C :   -0.176802
  27 C :   -0.039254
  28 C :   -0.027508
  29 C :   -0.146911
  30 S :    0.376716
  31 C :   -0.047638
  32 C :   -0.029628
  33 C :   -0.019904
  34 C :    0.000606
  35 C :   -0.016038
  36 C :   -0.016776
  37 C :   -0.024641
  38 C :   -0.021012
  39 C :    0.005333
  40 C :   -0.035310
  41 C :   -0.011851
  42 C :   -0.057786
  43 C :   -0.012283
  44 C :   -0.057612
  45 C :   -0.022253
  46 C :   -0.022260
  47 C :   -0.020713
  48 C :   -0.018502
  49 C :   -0.018384
  50 C :   -0.035731
  51 C :   -0.012742
  52 N :    0.102612
  53 C :   -0.040072
  54 C :   -0.042008
  55 C :   -0.067132
  56 C :   -0.051574
  57 C :   -0.041528
  58 C :   -0.043665
  59 C :   -0.026070
  60 H :    0.019708
  61 H :    0.092396
  62 H :    0.026481
  63 H :    0.023858
  64 H :    0.041281
  65 H :    0.030689
  66 H :    0.031432
  67 H :    0.019937
  68 H :    0.032410
  69 H :    0.032548
  70 H :    0.031156
  71 H :    0.031287
  72 H :    0.032278
  73 H :    0.031913
  74 H :    0.022367
  75 H :    0.027111
  76 H :    0.011071
  77 H :    0.018684
  78 H :    0.018394
  79 H :    0.025938
  80 H :    0.022924
  81 H :    0.026204
  82 H :    0.017632
  83 H :    0.018914
  84 H :    0.025817
  85 H :    0.022882
  86 H :    0.026242
  87 H :    0.019873
  88 H :    0.025312
  89 H :    0.026521
  90 H :    0.027431
  91 H :    0.022002
  92 H :    0.090559
  93 H :    0.027613
  94 H :    0.022844
  95 H :    0.042151
  96 H :    0.028125
  97 H :    0.025217

  Mayer bond orders larger than 0.100000
B(  0-C ,  1-N ) :   1.2356 B(  0-C ,  2-C ) :   0.1062 B(  0-C ,  4-C ) :   1.4710
B(  0-C , 60-H ) :   0.9920 B(  1-N ,  2-C ) :   1.2356 B(  1-N , 61-H ) :   0.9430
B(  2-C ,  3-C ) :   1.4757 B(  2-C ,  5-C ) :   0.8291 B(  3-C ,  4-C ) :   1.3172
B(  3-C , 62-H ) :   1.0156 B(  4-C , 63-H ) :   1.0039 B(  5-C ,  6-C ) :   2.2254
B(  6-C ,  7-C ) :   1.0136 B(  7-C ,  8-C ) :   1.7275 B(  7-C , 64-H ) :   0.9493
B(  8-C ,  9-C ) :   1.1223 B(  8-C , 65-H ) :   0.9648 B(  9-C , 10-S ) :   1.0844
B(  9-C , 13-C ) :   1.5168 B( 10-S , 11-C ) :   1.0708 B( 11-C , 12-C ) :   1.4566
B( 11-C , 19-C ) :   1.3126 B( 12-C , 13-C ) :   1.2784 B( 12-C , 14-S ) :   1.0472
B( 13-C , 66-H ) :   0.9931 B( 14-S , 15-C ) :   1.0473 B( 15-C , 16-C ) :   1.2996
B( 15-C , 19-C ) :   1.4578 B( 16-C , 17-C ) :   1.4768 B( 16-C , 67-H ) :   0.9777
B( 17-C , 18-S ) :   1.0749 B( 17-C , 20-C ) :   1.1722 B( 18-S , 19-C ) :   1.0678
B( 20-C , 21-C ) :   1.6049 B( 20-C , 68-H ) :   0.9508 B( 21-C , 22-C ) :   1.1446
B( 21-C , 25-S ) :   1.0370 B( 22-C , 23-C ) :   1.5944 B( 22-C , 69-H ) :   0.9985
B( 23-C , 24-C ) :   1.1826 B( 23-C , 70-H ) :   0.9921 B( 24-C , 25-S ) :   1.0329
B( 24-C , 26-C ) :   1.5276 B( 26-C , 27-C ) :   1.1734 B( 26-C , 30-S ) :   1.0355
B( 27-C , 28-C ) :   1.6084 B( 27-C , 71-H ) :   0.9923 B( 28-C , 29-C ) :   1.1265
B( 28-C , 72-H ) :   0.9984 B( 29-C , 30-S ) :   1.0234 B( 29-C , 31-C ) :   1.6030
B( 31-C , 32-C ) :   1.1026 B( 31-C , 73-H ) :   0.9705 B( 32-C , 33-C ) :   1.2617
B( 32-C , 37-C ) :   1.3221 B( 33-C , 34-C ) :   1.3931 B( 33-C , 74-H ) :   1.0134
B( 34-C , 35-C ) :   1.3538 B( 34-C , 40-C ) :   0.9137 B( 35-C , 36-C ) :   1.3342
B( 35-C , 38-C ) :   1.0002 B( 36-C , 37-C ) :   1.4114 B( 36-C , 75-H ) :   0.9905
B( 37-C , 76-H ) :   0.9670 B( 38-C , 39-C ) :   1.3544 B( 38-C , 48-C ) :   1.3438
B( 39-C , 40-C ) :   0.9166 B( 39-C , 45-C ) :   1.4126 B( 40-C , 41-C ) :   1.0374
B( 40-C , 43-C ) :   1.0400 B( 41-C , 42-C ) :   1.1006 B( 41-C , 77-H ) :   0.9388
B( 41-C , 78-H ) :   0.9389 B( 42-C , 79-H ) :   0.9644 B( 42-C , 80-H ) :   0.9637
B( 42-C , 81-H ) :   0.9646 B( 43-C , 44-C ) :   1.1018 B( 43-C , 82-H ) :   0.9381
B( 43-C , 83-H ) :   0.9389 B( 44-C , 84-H ) :   0.9643 B( 44-C , 85-H ) :   0.9635
B( 44-C , 86-H ) :   0.9644 B( 45-C , 46-C ) :   1.2951 B( 45-C , 87-H ) :   0.9974
B( 46-C , 47-C ) :   1.3365 B( 46-C , 49-C ) :   1.0674 B( 47-C , 48-C ) :   1.3749
B( 47-C , 88-H ) :   0.9929 B( 48-C , 89-H ) :   0.9900 B( 49-C , 50-C ) :   1.7157
B( 49-C , 90-H ) :   0.9871 B( 50-C , 51-C ) :   1.0758 B( 50-C , 91-H ) :   0.9510
B( 51-C , 52-N ) :   1.2102 B( 51-C , 53-C ) :   0.1209 B( 51-C , 55-C ) :   1.4222
B( 52-N , 53-C ) :   1.2329 B( 52-N , 92-H ) :   0.9366 B( 53-C , 54-C ) :   1.4407
B( 53-C , 56-C ) :   0.8176 B( 54-C , 55-C ) :   1.3251 B( 54-C , 93-H ) :   1.0148
B( 55-C , 94-H ) :   1.0043 B( 56-C , 57-C ) :   2.2973 B( 57-C , 58-C ) :   1.0179
B( 58-C , 59-C ) :   1.9314 B( 58-C , 95-H ) :   0.9614 B( 59-C , 96-H ) :   0.9637
B( 59-C , 97-H ) :   0.9553

-----------------------------------------------------------------------------
         ABSORPTION SPECTRUM VIA TRANSITION ELECTRIC DIPOLE MOMENTS
-----------------------------------------------------------------------------
State   Energy  Wavelength   fosc         T2         TX        TY        TZ
        (cm-1)    (nm)                  (au**2)     (au)      (au)      (au)
-----------------------------------------------------------------------------
   0   14294.1    699.6   1.854891577  42.72069  -3.52844  -3.17088  -4.49626
   1   21958.6    455.4   0.422510932   6.33444  -0.04497   1.96537  -1.57154
   2   23055.7    433.7   2.065022247  29.48641   0.36670   4.58088  -2.89266
   3   24871.1    402.1   0.102549192   1.35742   0.24781   0.91769   0.67369
   4   26567.3    376.4   0.391914185   4.85645  -0.65732  -0.38041  -2.06874
   5   28906.5    345.9   0.287479008   3.27406  -0.35634   0.63049  -1.65818
   6   29646.0    337.3   0.391780126   4.35062   0.62510   0.40572   1.94814
   7   29938.4    334.0   0.055473119   0.61000  -0.32086  -0.20878   0.68078
   8   30513.5    327.7   0.145040602   1.56485  -0.67426  -0.99945  -0.33365
   9   32198.4    310.6   0.264824631   2.70769   0.00221   1.37596  -0.90245
  10   32808.5    304.8   0.007579798   0.07606  -0.05435   0.07187  -0.26065
  11   33616.9    297.5   0.019688864   0.19281   0.08804   0.42144   0.08630
  12   33840.2    295.5   0.005529585   0.05379   0.00277   0.03827   0.22874
  13   34559.6    289.4   0.065811500   0.62691  -0.20254  -0.17040  -0.74623
  14   34699.4    288.2   0.103607333   0.98298   0.22263   0.47062   0.84376
  15   35585.3    281.0   0.128596366   1.18969   0.25380   1.03592   0.22834
  16   36367.1    275.0   0.024818248   0.22467   0.00187   0.20915  -0.42534
  17   36485.7    274.1   0.016351964   0.14754   0.00380  -0.32816  -0.19961
  18   36860.2    271.3   0.086583149   0.77331  -0.35158  -0.04566  -0.80475
  19   37267.9    268.3   0.032356052   0.28582   0.08992  -0.52684  -0.01325
  20   38085.7    262.6   0.118399728   1.02345  -0.29069  -0.03717  -0.96828
  21   38270.3    261.3   0.029201246   0.25120   0.30054   0.12121   0.38234
  22   38628.5    258.9   0.016325874   0.13914   0.03196  -0.27124  -0.25406
  23   39338.6    254.2   0.021225997   0.17763  -0.19050  -0.17693  -0.33172
  24   39836.6    251.0   0.003601388   0.02976  -0.08965   0.13479  -0.05963

FINAL SINGLE POINT ENERGY     -4139.426058397886

DIPOLE MOMENT
-------------
                                X             Y             Z
Electronic contribution:     47.99760      14.67176      90.81715
Nuclear contribution   :    -47.97040     -16.18073     -90.36691
                        -----------------------------------------
Total Dipole Moment    :      0.02719      -1.50896       0.45023
                        -----------------------------------------
Magnitude (a.u.)       :      1.57494
Magnitude (Debye)      :      4.00317

Rotational constants in cm-1:     0.000915     0.000289     0.000222
Rotational constants in MHz :    27.427217     8.656150     6.657824

                             ****ORCA TERMINATED NORMALLY****
TOTAL RUN TIME: 0 days 0 hours 7 minutes 43 seconds 910 msec
