                         Program Version 4.2.0 -  RELEASE  -
|  1> # ORCA input file
|  2> # SCF done       -182.341437710645          0.000210598195
|  3> ! CAM-B3LYP def2-SVP def2/J RIJCOSX Grid4 TightSCF
|  4> %maxcore 5000
|  5> %tddft
|  6>     Mode sTDDFT
|  7>     Ethresh 5.0
|  8>     maxcore 5000
|  9> end
| 10>
| 11> %pal
| 12>   nprocs 6
| 13>   end
| 14> * xyz 0 1
| 15>    C       -2.73367         3.45467         5.25764
| 16>    C       -2.55552         3.07454         6.56853
| 17>    C       -2.54169         3.97635         7.64842
| 18>    N       -2.50904         4.65489         8.57561
| 19>    C       -2.34776         1.76217         7.03046
| 20>    N       -2.20546         0.73458         7.52886
| 21>    C       -3.00116         4.82191         4.81878
| 22>    C       -3.04151         4.83957         3.40429
| 23>    C       -3.30444         5.97733         2.68364
| 24>    C       -3.54251         7.15932         3.39590
| 25>    C       -3.49118         7.13386         4.80849
| 26>    C       -3.22190         5.98154         5.53659
| 27>    S       -3.82968         8.69595         5.49049
| 28>    C       -4.04896         9.35045         3.88757
| 29>    C       -3.86628         8.44958         2.89336
| 30>   Br       -4.52058        11.15304         3.68473
| 31>    C       -2.75536         3.47860         2.89898
| 32>    O       -2.65915         3.15665         1.72983
| 33>    C       -2.62172         2.62754         4.08572
| 34>    C       -2.44725         1.25848         4.08670
| 35>    C       -2.08707         0.40752         3.04350
| 36>    S       -1.48294         0.94009         1.49090
| 37>    C       -0.89760        -0.63204         1.16057
| 38>    C       -1.17484        -1.55539         2.12782
| 39>    C       -0.80522        -2.99890         2.03724
| 40>    C       -1.89971        -0.98586         3.20545
| 41>    C       -2.43330        -1.77381         4.27087
| 42>    C       -3.62486        -1.55008         4.87874
| 43>    C       -4.21203        -2.46061         5.79636
| 44>    C       -5.53503        -2.42022         6.08992
| 45>    C       -6.27116        -3.41986         6.78472
| 46>    S       -7.95642        -3.59159         6.36184
| 47>    C       -8.06757        -5.06016         7.24283
| 48>    C       -6.90083        -5.40899         7.84748
| 49>    C       -6.73221        -6.62482         8.69665
| 50>    C       -5.86360        -4.45526         7.61766
| 51>    C       -4.61016        -4.51827         8.32979
| 52>    C       -4.05951        -3.44528         8.93364
| 53>    C       -2.92180        -3.50145         9.78603
| 54>    C       -2.60795        -2.46408        10.59887
| 55>    C       -1.55351        -2.43656        11.54555
| 56>    S       -0.57093        -3.84356        11.83618
| 57>    C        0.21076        -3.07685        13.16595
| 58>    C       -0.24927        -1.82441        13.40480
| 59>    C        0.25704        -0.94145        14.49597
| 60>    C       -1.24954        -1.42293        12.46173
| 61>    C       -1.88329        -0.14351        12.50609
| 62>    C       -2.38150         0.51896        11.42966
| 63>    C       -3.19732         1.66760        11.50682
| 64>    C       -3.79651         2.16799        10.38660
| 65>    C       -4.69478         3.24297        10.36613
| 66>    C       -5.37594         3.70010         9.26540
| 67>    C       -5.52391         3.13950         7.94877
| 68>    C       -5.49442         1.81162         7.58540
| 69>    C       -5.62138         1.36681         6.25863
| 70>    N       -5.67702         0.94259         5.19103
| 71>    C       -5.40947         0.71102         8.46106
| 72>    N       -5.40786        -0.24827         9.09331
| 73>    C       -5.89447         4.23162         7.04891
| 74>    C       -6.14033         5.39356         7.82081
| 75>    C       -5.91276         5.07983         9.25151
| 76>    O       -6.09988         5.80599        10.20070
| 77>    C       -6.51420         6.58821         7.25827
| 78>    C       -6.65477         6.64032         5.86609
| 79>    C       -6.41565         5.47362         5.10601
| 80>    C       -6.03611         4.26448         5.67532
| 81>    S       -6.64084         5.75448         3.40627
| 82>    C       -7.03501         7.42204         3.73458
| 83>    C       -7.01053         7.74871         5.04807
| 84>   Br       -7.42187         8.57420         2.30719
| 85>    H       -3.33439         5.95816         1.60564
| 86>    H       -3.20328         6.01675         6.61287
| 87>    H       -3.96634         8.68165         1.84866
| 88>    H       -2.55414         0.75678         5.04099
| 89>    H       -0.38778        -0.81742         0.23398
| 90>    H       -0.26564        -3.19269         1.11420
| 91>    H       -1.69855        -3.62164         2.05902
| 92>    H       -0.17250        -3.28392         2.87712
| 93>    H       -1.89585        -2.68342         4.50702
| 94>    H       -4.23398        -0.70891         4.57539
| 95>    H       -3.59654        -3.26112         6.18347
| 96>    H       -6.13204        -1.63608         5.64008
| 97>    H       -9.00148        -5.58673         7.27015
| 98>    H       -7.66247        -7.18458         8.74531
| 99>    H       -6.43817        -6.34216         9.70666
|100>    H       -5.95736        -7.27174         8.28629
|101>    H       -4.18871        -5.50338         8.48835
|102>    H       -4.54157        -2.48158         8.83394
|103>    H       -2.33224        -4.41013         9.80585
|104>    H       -3.25309        -1.59807        10.57045
|105>    H        0.97379        -3.60998        13.69834
|106>    H        1.05294        -1.43711        15.04543
|107>    H       -0.54596        -0.69926        15.19191
|108>    H        0.64112        -0.00953        14.08356
|109>    H       -1.96602         0.31430        13.48472
|110>    H       -2.18118         0.14527        10.43509
|111>    H       -3.41696         2.09377        12.47718
|112>    H       -3.54634         1.69490         9.44846
|113>    H       -4.80816         3.83567        11.26670
|114>    H       -6.69278         7.45811         7.87043
|115>    H       -5.85831         3.40768         5.04702
|116>    H       -7.23056         8.73014         5.42756
|117> *
|118>
|119>                          ****END OF INPUT****

CARTESIAN COORDINATES (ANGSTROEM)
---------------------------------
  C     -2.733670    3.454670    5.257640
  C     -2.555520    3.074540    6.568530
  C     -2.541690    3.976350    7.648420
  N     -2.509040    4.654890    8.575610
  C     -2.347760    1.762170    7.030460
  N     -2.205460    0.734580    7.528860
  C     -3.001160    4.821910    4.818780
  C     -3.041510    4.839570    3.404290
  C     -3.304440    5.977330    2.683640
  C     -3.542510    7.159320    3.395900
  C     -3.491180    7.133860    4.808490
  C     -3.221900    5.981540    5.536590
  S     -3.829680    8.695950    5.490490
  C     -4.048960    9.350450    3.887570
  C     -3.866280    8.449580    2.893360
  Br    -4.520580   11.153040    3.684730
  C     -2.755360    3.478600    2.898980
  O     -2.659150    3.156650    1.729830
  C     -2.621720    2.627540    4.085720
  C     -2.447250    1.258480    4.086700
  C     -2.087070    0.407520    3.043500
  S     -1.482940    0.940090    1.490900
  C     -0.897600   -0.632040    1.160570
  C     -1.174840   -1.555390    2.127820
  C     -0.805220   -2.998900    2.037240
  C     -1.899710   -0.985860    3.205450
  C     -2.433300   -1.773810    4.270870
  C     -3.624860   -1.550080    4.878740
  C     -4.212030   -2.460610    5.796360
  C     -5.535030   -2.420220    6.089920
  C     -6.271160   -3.419860    6.784720
  S     -7.956420   -3.591590    6.361840
  C     -8.067570   -5.060160    7.242830
  C     -6.900830   -5.408990    7.847480
  C     -6.732210   -6.624820    8.696650
  C     -5.863600   -4.455260    7.617660
  C     -4.610160   -4.518270    8.329790
  C     -4.059510   -3.445280    8.933640
  C     -2.921800   -3.501450    9.786030
  C     -2.607950   -2.464080   10.598870
  C     -1.553510   -2.436560   11.545550
  S     -0.570930   -3.843560   11.836180
  C      0.210760   -3.076850   13.165950
  C     -0.249270   -1.824410   13.404800
  C      0.257040   -0.941450   14.495970
  C     -1.249540   -1.422930   12.461730
  C     -1.883290   -0.143510   12.506090
  C     -2.381500    0.518960   11.429660
  C     -3.197320    1.667600   11.506820
  C     -3.796510    2.167990   10.386600
  C     -4.694780    3.242970   10.366130
  C     -5.375940    3.700100    9.265400
  C     -5.523910    3.139500    7.948770
  C     -5.494420    1.811620    7.585400
  C     -5.621380    1.366810    6.258630
  N     -5.677020    0.942590    5.191030
  C     -5.409470    0.711020    8.461060
  N     -5.407860   -0.248270    9.093310
  C     -5.894470    4.231620    7.048910
  C     -6.140330    5.393560    7.820810
  C     -5.912760    5.079830    9.251510
  O     -6.099880    5.805990   10.200700
  C     -6.514200    6.588210    7.258270
  C     -6.654770    6.640320    5.866090
  C     -6.415650    5.473620    5.106010
  C     -6.036110    4.264480    5.675320
  S     -6.640840    5.754480    3.406270
  C     -7.035010    7.422040    3.734580
  C     -7.010530    7.748710    5.048070
  Br    -7.421870    8.574200    2.307190
  H     -3.334390    5.958160    1.605640
  H     -3.203280    6.016750    6.612870
  H     -3.966340    8.681650    1.848660
  H     -2.554140    0.756780    5.040990
  H     -0.387780   -0.817420    0.233980
  H     -0.265640   -3.192690    1.114200
  H     -1.698550   -3.621640    2.059020
  H     -0.172500   -3.283920    2.877120
  H     -1.895850   -2.683420    4.507020
  H     -4.233980   -0.708910    4.575390
  H     -3.596540   -3.261120    6.183470
  H     -6.132040   -1.636080    5.640080
  H     -9.001480   -5.586730    7.270150
  H     -7.662470   -7.184580    8.745310
  H     -6.438170   -6.342160    9.706660
  H     -5.957360   -7.271740    8.286290
  H     -4.188710   -5.503380    8.488350
  H     -4.541570   -2.481580    8.833940
  H     -2.332240   -4.410130    9.805850
  H     -3.253090   -1.598070   10.570450
  H      0.973790   -3.609980   13.698340
  H      1.052940   -1.437110   15.045430
  H     -0.545960   -0.699260   15.191910
  H      0.641120   -0.009530   14.083560
  H     -1.966020    0.314300   13.484720
  H     -2.181180    0.145270   10.435090
  H     -3.416960    2.093770   12.477180
  H     -3.546340    1.694900    9.448460
  H     -4.808160    3.835670   11.266700
  H     -6.692780    7.458110    7.870430
  H     -5.858310    3.407680    5.047020
  H     -7.230560    8.730140    5.427560

 Total Charge           Charge          ....    0
 Multiplicity           Mult            ....    1
 Number of Electrons    NEL             ....  568
 Basis Dimension        Dim             .... 1196

ORBITAL ENERGIES
----------------

  NO   OCC          E(Eh)            E(eV)
   0   2.0000    -482.882608    -13139.9038
   1   2.0000    -482.882368    -13139.8973
   2   2.0000     -88.971511     -2421.0379
   3   2.0000     -88.970652     -2421.0145
   4   2.0000     -88.947440     -2420.3829
   5   2.0000     -88.945754     -2420.3370
   6   2.0000     -88.939074     -2420.1552
   7   2.0000     -62.560243     -1702.3508
   8   2.0000     -62.559833     -1702.3396
   9   2.0000     -56.394183     -1534.5637
  10   2.0000     -56.393770     -1534.5525
  11   2.0000     -56.391504     -1534.4908
  12   2.0000     -56.391456     -1534.4895
  13   2.0000     -56.391134     -1534.4808
  14   2.0000     -56.391013     -1534.4775
  15   2.0000     -19.206346      -522.6312
  16   2.0000     -19.201646      -522.5034
  17   2.0000     -14.418185      -392.3388
  18   2.0000     -14.413988      -392.2246
  19   2.0000     -14.408918      -392.0866
  20   2.0000     -14.407615      -392.0511
  21   2.0000     -10.356039      -281.8021
  22   2.0000     -10.353454      -281.7318
  23   2.0000     -10.353384      -281.7299
  24   2.0000     -10.352650      -281.7099
  25   2.0000     -10.334765      -281.2233
  26   2.0000     -10.333220      -281.1812
  27   2.0000     -10.332503      -281.1617
  28   2.0000     -10.328708      -281.0584
  29   2.0000     -10.323568      -280.9186
  30   2.0000     -10.318928      -280.7923
  31   2.0000     -10.318591      -280.7831
  32   2.0000     -10.318310      -280.7755
  33   2.0000     -10.313438      -280.6429
  34   2.0000     -10.312486      -280.6170
  35   2.0000     -10.309422      -280.5336
  36   2.0000     -10.300962      -280.3034
  37   2.0000     -10.300826      -280.2997
  38   2.0000     -10.300739      -280.2974
  39   2.0000     -10.300705      -280.2964
  40   2.0000     -10.299399      -280.2609
  41   2.0000     -10.299214      -280.2559
  42   2.0000     -10.298498      -280.2364
  43   2.0000     -10.298445      -280.2349
  44   2.0000     -10.298249      -280.2296
  45   2.0000     -10.293575      -280.1024
  46   2.0000     -10.293299      -280.0949
  47   2.0000     -10.292716      -280.0790
  48   2.0000     -10.292522      -280.0738
  49   2.0000     -10.291792      -280.0539
  50   2.0000     -10.291658      -280.0503
  51   2.0000     -10.290810      -280.0272
  52   2.0000     -10.287130      -279.9270
  53   2.0000     -10.285637      -279.8864
  54   2.0000     -10.284736      -279.8619
  55   2.0000     -10.283888      -279.8388
  56   2.0000     -10.283379      -279.8250
  57   2.0000     -10.279211      -279.7116
  58   2.0000     -10.278457      -279.6910
  59   2.0000     -10.277523      -279.6656
  60   2.0000     -10.276018      -279.6247
  61   2.0000     -10.275748      -279.6173
  62   2.0000     -10.274427      -279.5814
  63   2.0000     -10.274027      -279.5705
  64   2.0000     -10.272694      -279.5342
  65   2.0000     -10.271803      -279.5100
  66   2.0000     -10.271454      -279.5005
  67   2.0000     -10.267830      -279.4019
  68   2.0000     -10.267100      -279.3820
  69   2.0000     -10.266968      -279.3784
  70   2.0000     -10.266836      -279.3748
  71   2.0000     -10.266529      -279.3665
  72   2.0000     -10.266277      -279.3596
  73   2.0000     -10.265598      -279.3411
  74   2.0000     -10.262919      -279.2682
  75   2.0000     -10.260510      -279.2027
  76   2.0000     -10.259982      -279.1883
  77   2.0000     -10.257173      -279.1119
  78   2.0000      -8.789613      -239.1775
  79   2.0000      -8.789185      -239.1659
  80   2.0000      -8.066691      -219.5058
  81   2.0000      -8.065801      -219.4816
  82   2.0000      -8.041922      -218.8318
  83   2.0000      -8.041879      -218.8306
  84   2.0000      -8.035250      -218.6503
  85   2.0000      -6.625819      -180.2977
  86   2.0000      -6.625410      -180.2866
  87   2.0000      -6.611415      -179.9058
  88   2.0000      -6.611176      -179.8992
  89   2.0000      -6.610950      -179.8931
  90   2.0000      -6.610775      -179.8883
  91   2.0000      -6.036440      -164.2599
  92   2.0000      -6.035562      -164.2360
  93   2.0000      -6.032156      -164.1433
  94   2.0000      -6.031300      -164.1200
  95   2.0000      -6.027983      -164.0298
  96   2.0000      -6.027028      -164.0038
  97   2.0000      -6.011369      -163.5777
  98   2.0000      -6.011129      -163.5711
  99   2.0000      -6.006911      -163.4564
 100   2.0000      -6.006712      -163.4509
 101   2.0000      -6.004477      -163.3901
 102   2.0000      -6.004134      -163.3808
 103   2.0000      -6.004074      -163.3792
 104   2.0000      -6.000290      -163.2762
 105   2.0000      -5.997489      -163.2000
 106   2.0000      -2.741711       -74.6057
 107   2.0000      -2.741282       -74.5941
 108   2.0000      -2.737652       -74.4953
 109   2.0000      -2.737530       -74.4920
 110   2.0000      -2.737242       -74.4841
 111   2.0000      -2.737116       -74.4807
 112   2.0000      -2.726048       -74.1795
 113   2.0000      -2.726031       -74.1791
 114   2.0000      -2.725624       -74.1680
 115   2.0000      -2.725602       -74.1674
 116   2.0000      -1.122149       -30.5352
 117   2.0000      -1.116487       -30.3811
 118   2.0000      -1.020866       -27.7792
 119   2.0000      -1.014499       -27.6059
 120   2.0000      -1.012150       -27.5420
 121   2.0000      -1.007281       -27.4095
 122   2.0000      -0.991743       -26.9867
 123   2.0000      -0.991189       -26.9716
 124   2.0000      -0.985869       -26.8269
 125   2.0000      -0.981560       -26.7096
 126   2.0000      -0.980829       -26.6897
 127   2.0000      -0.979247       -26.6467
 128   2.0000      -0.971643       -26.4397
 129   2.0000      -0.937710       -25.5164
 130   2.0000      -0.935608       -25.4592
 131   2.0000      -0.919752       -25.0277
 132   2.0000      -0.905119       -24.6295
 133   2.0000      -0.903443       -24.5839
 134   2.0000      -0.901880       -24.5414
 135   2.0000      -0.900599       -24.5065
 136   2.0000      -0.894822       -24.3493
 137   2.0000      -0.890914       -24.2430
 138   2.0000      -0.880441       -23.9580
 139   2.0000      -0.878649       -23.9092
 140   2.0000      -0.871979       -23.7278
 141   2.0000      -0.870173       -23.6786
 142   2.0000      -0.868026       -23.6202
 143   2.0000      -0.866073       -23.5670
 144   2.0000      -0.848014       -23.0756
 145   2.0000      -0.841186       -22.8898
 146   2.0000      -0.832505       -22.6536
 147   2.0000      -0.824872       -22.4459
 148   2.0000      -0.822706       -22.3870
 149   2.0000      -0.821605       -22.3570
 150   2.0000      -0.803956       -21.8768
 151   2.0000      -0.792612       -21.5681
 152   2.0000      -0.780716       -21.2444
 153   2.0000      -0.772841       -21.0301
 154   2.0000      -0.759899       -20.6779
 155   2.0000      -0.752736       -20.4830
 156   2.0000      -0.749462       -20.3939
 157   2.0000      -0.747483       -20.3400
 158   2.0000      -0.745622       -20.2894
 159   2.0000      -0.741504       -20.1774
 160   2.0000      -0.714492       -19.4423
 161   2.0000      -0.708291       -19.2736
 162   2.0000      -0.700748       -19.0683
 163   2.0000      -0.692800       -18.8520
 164   2.0000      -0.689500       -18.7622
 165   2.0000      -0.683695       -18.6043
 166   2.0000      -0.679628       -18.4936
 167   2.0000      -0.677055       -18.4236
 168   2.0000      -0.660229       -17.9657
 169   2.0000      -0.657569       -17.8934
 170   2.0000      -0.654347       -17.8057
 171   2.0000      -0.645195       -17.5567
 172   2.0000      -0.643766       -17.5178
 173   2.0000      -0.639726       -17.4078
 174   2.0000      -0.632689       -17.2163
 175   2.0000      -0.628031       -17.0896
 176   2.0000      -0.617330       -16.7984
 177   2.0000      -0.616008       -16.7624
 178   2.0000      -0.614479       -16.7208
 179   2.0000      -0.610006       -16.5991
 180   2.0000      -0.605821       -16.4852
 181   2.0000      -0.595350       -16.2003
 182   2.0000      -0.590453       -16.0671
 183   2.0000      -0.590044       -16.0559
 184   2.0000      -0.586375       -15.9561
 185   2.0000      -0.580396       -15.7934
 186   2.0000      -0.578570       -15.7437
 187   2.0000      -0.565453       -15.3868
 188   2.0000      -0.557159       -15.1611
 189   2.0000      -0.553607       -15.0644
 190   2.0000      -0.549601       -14.9554
 191   2.0000      -0.547728       -14.9044
 192   2.0000      -0.544980       -14.8297
 193   2.0000      -0.543799       -14.7975
 194   2.0000      -0.542732       -14.7685
 195   2.0000      -0.535815       -14.5803
 196   2.0000      -0.529239       -14.4013
 197   2.0000      -0.526513       -14.3271
 198   2.0000      -0.524708       -14.2780
 199   2.0000      -0.522317       -14.2130
 200   2.0000      -0.520377       -14.1602
 201   2.0000      -0.517544       -14.0831
 202   2.0000      -0.516234       -14.0474
 203   2.0000      -0.510586       -13.8937
 204   2.0000      -0.508218       -13.8293
 205   2.0000      -0.507857       -13.8195
 206   2.0000      -0.506640       -13.7864
 207   2.0000      -0.503442       -13.6994
 208   2.0000      -0.500723       -13.6254
 209   2.0000      -0.499516       -13.5925
 210   2.0000      -0.498089       -13.5537
 211   2.0000      -0.494919       -13.4674
 212   2.0000      -0.494321       -13.4512
 213   2.0000      -0.488792       -13.3007
 214   2.0000      -0.488499       -13.2927
 215   2.0000      -0.485427       -13.2092
 216   2.0000      -0.482649       -13.1335
 217   2.0000      -0.481661       -13.1067
 218   2.0000      -0.481212       -13.0944
 219   2.0000      -0.478137       -13.0108
 220   2.0000      -0.472462       -12.8564
 221   2.0000      -0.470497       -12.8029
 222   2.0000      -0.468487       -12.7482
 223   2.0000      -0.467525       -12.7220
 224   2.0000      -0.462972       -12.5981
 225   2.0000      -0.459094       -12.4926
 226   2.0000      -0.457873       -12.4594
 227   2.0000      -0.456779       -12.4296
 228   2.0000      -0.455772       -12.4022
 229   2.0000      -0.454783       -12.3753
 230   2.0000      -0.453035       -12.3277
 231   2.0000      -0.450851       -12.2683
 232   2.0000      -0.448920       -12.2157
 233   2.0000      -0.448101       -12.1934
 234   2.0000      -0.445040       -12.1102
 235   2.0000      -0.444099       -12.0845
 236   2.0000      -0.442850       -12.0506
 237   2.0000      -0.439584       -11.9617
 238   2.0000      -0.438720       -11.9382
 239   2.0000      -0.437755       -11.9119
 240   2.0000      -0.436705       -11.8833
 241   2.0000      -0.434077       -11.8118
 242   2.0000      -0.433174       -11.7873
 243   2.0000      -0.432171       -11.7600
 244   2.0000      -0.429801       -11.6955
 245   2.0000      -0.426772       -11.6130
 246   2.0000      -0.425334       -11.5739
 247   2.0000      -0.424028       -11.5384
 248   2.0000      -0.422757       -11.5038
 249   2.0000      -0.420117       -11.4320
 250   2.0000      -0.416727       -11.3397
 251   2.0000      -0.410927       -11.1819
 252   2.0000      -0.408595       -11.1184
 253   2.0000      -0.405418       -11.0320
 254   2.0000      -0.404450       -11.0057
 255   2.0000      -0.402419       -10.9504
 256   2.0000      -0.401249       -10.9185
 257   2.0000      -0.397118       -10.8061
 258   2.0000      -0.393861       -10.7175
 259   2.0000      -0.392313       -10.6754
 260   2.0000      -0.389872       -10.6089
 261   2.0000      -0.387397       -10.5416
 262   2.0000      -0.378104       -10.2887
 263   2.0000      -0.373795       -10.1715
 264   2.0000      -0.371867       -10.1190
 265   2.0000      -0.368616       -10.0305
 266   2.0000      -0.364842        -9.9279
 267   2.0000      -0.349541        -9.5115
 268   2.0000      -0.347591        -9.4584
 269   2.0000      -0.340270        -9.2592
 270   2.0000      -0.339490        -9.2380
 271   2.0000      -0.325236        -8.8501
 272   2.0000      -0.324950        -8.8424
 273   2.0000      -0.311092        -8.4652
 274   2.0000      -0.309731        -8.4282
 275   2.0000      -0.306846        -8.3497
 276   2.0000      -0.298277        -8.1165
 277   2.0000      -0.296880        -8.0785
 278   2.0000      -0.292908        -7.9704
 279   2.0000      -0.283496        -7.7143
 280   2.0000      -0.273571        -7.4442
 281   2.0000      -0.267738        -7.2855
 282   2.0000      -0.246067        -6.6958
 283   2.0000      -0.225984        -6.1493
 284   0.0000      -0.091215        -2.4821
 285   0.0000      -0.082394        -2.2420
 286   0.0000      -0.057273        -1.5585
 287   0.0000      -0.052954        -1.4410
 288   0.0000      -0.032583        -0.8866

MULLIKEN ATOMIC CHARGES
-----------------------
   0 C :    0.321020
   1 C :   -0.397139
   2 C :   -0.191131
   3 N :    0.150910
   4 C :   -0.177393
   5 N :    0.134669
   6 C :    0.025904
   7 C :   -0.014879
   8 C :   -0.079621
   9 C :    0.126939
  10 C :   -0.099868
  11 C :   -0.022843
  12 S :    0.170935
  13 C :   -0.127750
  14 C :    0.049698
  15 Br:    0.017297
  16 C :    0.149012
  17 O :   -0.171371
  18 C :   -0.115260
  19 C :   -0.016049
  20 C :   -0.124144
  21 S :    0.179842
  22 C :   -0.092733
  23 C :   -0.084453
  24 C :    0.119545
  25 C :    0.127594
  26 C :   -0.056880
  27 C :    0.028885
  28 C :    0.007829
  29 C :    0.052869
  30 C :   -0.169275
  31 S :    0.112985
  32 C :   -0.131089
  33 C :   -0.072024
  34 C :    0.118000
  35 C :    0.113847
  36 C :   -0.066209
  37 C :    0.039383
  38 C :   -0.009310
  39 C :   -0.000933
  40 C :   -0.102217
  41 S :    0.103049
  42 C :   -0.125562
  43 C :   -0.068926
  44 C :    0.117572
  45 C :    0.112707
  46 C :   -0.032599
  47 C :   -0.000447
  48 C :    0.041828
  49 C :    0.001649
  50 C :    0.073525
  51 C :   -0.127160
  52 C :    0.303153
  53 C :   -0.370465
  54 C :   -0.127107
  55 N :    0.101010
  56 C :   -0.190534
  57 N :    0.173168
  58 C :   -0.005688
  59 C :    0.004854
  60 C :    0.149866
  61 O :   -0.143996
  62 C :   -0.100423
  63 C :    0.124431
  64 C :   -0.101250
  65 C :   -0.010251
  66 S :    0.182149
  67 C :   -0.135980
  68 C :    0.057582
  69 Br:    0.017093
  70 H :   -0.013965
  71 H :   -0.010506
  72 H :   -0.005622
  73 H :    0.022844
  74 H :    0.019354
  75 H :    0.006739
  76 H :    0.033777
  77 H :    0.031443
  78 H :   -0.014672
  79 H :    0.022019
  80 H :   -0.002161
  81 H :   -0.001990
  82 H :    0.012205
  83 H :    0.005540
  84 H :    0.031579
  85 H :    0.024798
  86 H :   -0.019792
  87 H :    0.020518
  88 H :   -0.012615
  89 H :    0.014051
  90 H :    0.013320
  91 H :    0.008982
  92 H :    0.027561
  93 H :    0.030549
  94 H :   -0.005721
  95 H :    0.031822
  96 H :   -0.002851
  97 H :    0.008972
  98 H :    0.009214
  99 H :   -0.012478
 100 H :   -0.014412
 101 H :   -0.006341
Sum of atomic charges:   -0.0000000

LOEWDIN ATOMIC CHARGES
----------------------
   0 C :    0.080644
   1 C :   -0.171131
   2 C :   -0.017664
   3 N :   -0.069612
   4 C :   -0.016365
   5 N :   -0.069134
   6 C :   -0.022171
   7 C :   -0.049594
   8 C :    0.015811
   9 C :   -0.038634
  10 C :   -0.146697
  11 C :   -0.009221
  12 S :    0.434522
  13 C :   -0.274437
  14 C :   -0.069891
  15 Br:    0.132250
  16 C :    0.078040
  17 O :   -0.165850
  18 C :   -0.131933
  19 C :    0.069987
  20 C :   -0.188139
  21 S :    0.491923
  22 C :   -0.161489
  23 C :   -0.071281
  24 C :   -0.044995
  25 C :   -0.000785
  26 C :   -0.050019
  27 C :    0.019543
  28 C :   -0.026088
  29 C :   -0.012597
  30 C :   -0.172823
  31 S :    0.432125
  32 C :   -0.193731
  33 C :   -0.057300
  34 C :   -0.044614
  35 C :   -0.052395
  36 C :   -0.034958
  37 C :    0.000118
  38 C :   -0.019667
  39 C :   -0.036576
  40 C :   -0.146783
  41 S :    0.429367
  42 C :   -0.191602
  43 C :   -0.055998
  44 C :   -0.044506
  45 C :   -0.070300
  46 C :    0.016150
  47 C :   -0.029854
  48 C :    0.046640
  49 C :   -0.039043
  50 C :    0.085654
  51 C :   -0.102316
  52 C :    0.076732
  53 C :   -0.157366
  54 C :    0.006168
  55 N :   -0.076075
  56 C :   -0.007377
  57 N :   -0.056449
  58 C :   -0.023565
  59 C :   -0.047197
  60 C :    0.084923
  61 O :   -0.144954
  62 C :    0.015626
  63 C :   -0.037563
  64 C :   -0.145188
  65 C :   -0.014518
  66 S :    0.439984
  67 C :   -0.275997
  68 C :   -0.072253
  69 Br:    0.135871
  70 H :    0.039345
  71 H :    0.038620
  72 H :    0.036460
  73 H :    0.048574
  74 H :    0.023911
  75 H :    0.032210
  76 H :    0.037788
  77 H :    0.035709
  78 H :    0.027655
  79 H :    0.030707
  80 H :    0.028581
  81 H :    0.030875
  82 H :    0.019876
  83 H :    0.031419
  84 H :    0.036958
  85 H :    0.033209
  86 H :    0.022393
  87 H :    0.035671
  88 H :    0.018294
  89 H :    0.041867
  90 H :    0.020759
  91 H :    0.033331
  92 H :    0.034330
  93 H :    0.036456
  94 H :    0.030112
  95 H :    0.040463
  96 H :    0.032396
  97 H :    0.030993
  98 H :    0.043790
  99 H :    0.040396
 100 H :    0.037066
 101 H :    0.036400

  Mayer bond orders larger than 0.100000
B(  0-C ,  1-C ) :   1.5714 B(  0-C ,  6-C ) :   0.9840 B(  0-C , 18-C ) :   1.1375
B(  1-C ,  2-C ) :   1.1694 B(  1-C ,  4-C ) :   1.1595 B(  2-C ,  3-N ) :   2.8996
B(  4-C ,  5-N ) :   2.8832 B(  6-C ,  7-C ) :   1.2815 B(  6-C , 11-C ) :   1.4068
B(  7-C ,  8-C ) :   1.4226 B(  7-C , 16-C ) :   0.9383 B(  8-C ,  9-C ) :   1.2236
B(  8-C , 70-H ) :   1.0221 B(  9-C , 10-C ) :   1.3183 B(  9-C , 14-C ) :   1.1598
B( 10-C , 11-C ) :   1.3156 B( 10-C , 12-S ) :   1.0858 B( 11-C , 71-H ) :   0.9836
B( 12-S , 13-C ) :   1.0870 B( 13-C , 14-C ) :   1.6052 B( 13-C , 15-Br) :   1.0171
B( 14-C , 72-H ) :   1.0039 B( 16-C , 17-O ) :   2.1692 B( 16-C , 18-C ) :   0.9764
B( 18-C , 19-C ) :   1.4396 B( 19-C , 20-C ) :   1.3278 B( 19-C , 73-H ) :   0.9350
B( 20-C , 21-S ) :   1.0908 B( 20-C , 25-C ) :   1.2906 B( 21-S , 22-C ) :   1.1788
B( 22-C , 23-C ) :   1.5269 B( 22-C , 74-H ) :   0.9626 B( 23-C , 24-C ) :   1.0945
B( 23-C , 25-C ) :   1.2835 B( 24-C , 75-H ) :   0.9501 B( 24-C , 76-H ) :   0.9436
B( 24-C , 77-H ) :   0.9430 B( 25-C , 26-C ) :   1.1356 B( 26-C , 27-C ) :   1.6129
B( 26-C , 78-H ) :   0.9570 B( 27-C , 28-C ) :   1.1627 B( 27-C , 79-H ) :   0.9710
B( 28-C , 29-C ) :   1.6689 B( 28-C , 80-H ) :   0.9785 B( 29-C , 30-C ) :   1.1154
B( 29-C , 81-H ) :   0.9513 B( 30-C , 31-S ) :   1.1289 B( 30-C , 35-C ) :   1.4573
B( 31-S , 32-C ) :   1.1495 B( 32-C , 33-C ) :   1.5797 B( 32-C , 82-H ) :   0.9663
B( 33-C , 34-C ) :   1.0966 B( 33-C , 35-C ) :   1.2567 B( 34-C , 83-H ) :   0.9508
B( 34-C , 84-H ) :   0.9419 B( 34-C , 85-H ) :   0.9452 B( 35-C , 36-C ) :   1.0588
B( 36-C , 37-C ) :   1.7007 B( 36-C , 86-H ) :   0.9555 B( 37-C , 38-C ) :   1.1400
B( 37-C , 87-H ) :   0.9739 B( 38-C , 39-C ) :   1.6534 B( 38-C , 88-H ) :   0.9840
B( 39-C , 40-C ) :   1.1429 B( 39-C , 89-H ) :   0.9701 B( 40-C , 41-S ) :   1.1382
B( 40-C , 45-C ) :   1.4257 B( 41-S , 42-C ) :   1.1234 B( 42-C , 43-C ) :   1.6162
B( 42-C , 90-H ) :   0.9659 B( 43-C , 44-C ) :   1.0983 B( 43-C , 45-C ) :   1.2103
B( 44-C , 91-H ) :   0.9508 B( 44-C , 92-H ) :   0.9409 B( 44-C , 93-H ) :   0.9461
B( 45-C , 46-C ) :   1.1067 B( 46-C , 47-C ) :   1.6224 B( 46-C , 94-H ) :   0.9592
B( 47-C , 48-C ) :   1.1540 B( 47-C , 95-H ) :   0.9804 B( 48-C , 49-C ) :   1.5861
B( 48-C , 96-H ) :   0.9963 B( 49-C , 50-C ) :   1.1676 B( 49-C , 97-H ) :   0.9526
B( 50-C , 51-C ) :   1.5502 B( 50-C , 98-H ) :   0.9569 B( 51-C , 52-C ) :   1.0832
B( 51-C , 60-C ) :   0.9517 B( 52-C , 53-C ) :   1.5853 B( 52-C , 58-C ) :   1.0107
B( 53-C , 54-C ) :   1.1593 B( 53-C , 56-C ) :   1.1778 B( 54-C , 55-N ) :   2.8126
B( 56-C , 57-N ) :   2.9305 B( 58-C , 59-C ) :   1.2793 B( 58-C , 65-C ) :   1.4233
B( 59-C , 60-C ) :   0.9116 B( 59-C , 62-C ) :   1.4212 B( 60-C , 61-O ) :   2.2716
B( 62-C , 63-C ) :   1.2293 B( 62-C , 99-H ) :   1.0202 B( 63-C , 64-C ) :   1.3163
B( 63-C , 68-C ) :   1.1565 B( 64-C , 65-C ) :   1.3206 B( 64-C , 66-S ) :   1.0913
B( 65-C ,100-H ) :   0.9774 B( 66-S , 67-C ) :   1.0857 B( 67-C , 68-C ) :   1.6147
B( 67-C , 69-Br) :   1.0153 B( 68-C ,101-H ) :   1.0017

-----------------------------------------------------------------------------
         ABSORPTION SPECTRUM VIA TRANSITION ELECTRIC DIPOLE MOMENTS
-----------------------------------------------------------------------------
State   Energy  Wavelength   fosc         T2         TX        TY        TZ
        (cm-1)    (nm)                  (au**2)     (au)      (au)      (au)
-----------------------------------------------------------------------------
   0   13553.5    737.8   0.035944110   0.87307  -0.87154   0.27056   0.20071
   1   16371.4    610.8   0.505064802  10.15634   0.35577   2.98885  -1.04715
   2   18127.3    551.7   0.239748778   4.35411   0.74355  -1.76183   0.83499
   3   20038.9    499.0   0.075384726   1.23847   0.61111   0.52940   0.76469
   4   22266.7    449.1   0.420122572   6.21149  -0.60619  -0.21926  -2.40748
   5   23207.0    430.9   0.268767670   3.81271   0.96670   0.14256   1.69052
   6   23722.5    421.5   0.159144687   2.20855   0.98920   0.55804  -0.95845
   7   23829.0    419.7   0.047209583   0.65223   0.33458  -0.72561  -0.11737
   8   24949.3    400.8   0.404153084   5.33290   0.74786  -2.11214  -0.55898
   9   25320.0    394.9   0.140471959   1.82642   0.37948   1.26749  -0.27550
  10   25705.2    389.0   0.037462195   0.47979  -0.14215  -0.35026   0.58043
  11   26554.7    376.6   0.277213543   3.43676  -0.64406   1.10327  -1.34340
  12   26895.9    371.8   0.183044199   2.24050   0.56638   1.38546  -0.01427
  13   27667.7    361.4   0.359550090   4.27820   0.55499  -0.38929   1.95413
  14   27682.1    361.2   0.000270189   0.00321  -0.02146   0.04038  -0.03349
  15   28032.6    356.7   0.025400666   0.29830  -0.02358  -0.15588  -0.52292
  16   29073.8    344.0   0.022119041   0.25046  -0.29353  -0.33494  -0.22829
  17   29233.4    342.1   0.080933514   0.91143   0.05442  -0.93613   0.17925
  18   29626.8    337.5   0.043232981   0.48040   0.49567  -0.27433  -0.39933
  19   29852.5    335.0   0.007979630   0.08800  -0.06512  -0.28532  -0.04850
  20   30083.1    332.4   0.090039902   0.98534   0.02198  -0.98013  -0.15561
  21   30496.0    327.9   0.075917400   0.81955   0.28462  -0.72119   0.46735
  22   30715.8    325.6   0.174804618   1.87356  -0.36302   1.29776  -0.23999
  23   30800.5    324.7   0.131027087   1.40049  -0.23073   0.93111  -0.69303
  24   31279.0    319.7   0.020747286   0.21837   0.00132   0.21144  -0.41672
  25   31376.0    318.7   0.022870597   0.23997   0.03154  -0.47745   0.10495
  26   31404.5    318.4   0.219430642   2.30028   1.41159   0.54676   0.09356
  27   31544.4    317.0   0.290463129   3.03141   1.47405  -0.92656   0.00863
  28   31875.8    313.7   0.081507292   0.84180   0.42097  -0.81517   0.00899
  29   32176.5    310.8   0.037803944   0.38679   0.09348   0.59194  -0.16631
  30   32410.8    308.5   0.061964507   0.62940  -0.13505  -0.62406  -0.47086
  31   32490.8    307.8   0.116354178   1.17896   0.92486  -0.08711   0.56214
  32   32694.4    305.9   0.026899438   0.27086  -0.25929   0.44583  -0.06976
  33   33062.8    302.5   0.124760243   1.24226   0.59482   0.89045  -0.30909
  34   33469.3    298.8   0.106044398   1.04308  -0.48931  -0.11036  -0.88965
  35   33633.1    297.3   0.183411611   1.79529   1.27779  -0.05151   0.39987
  36   33940.2    294.6   0.376061892   3.64772   0.44344  -1.74791   0.62919
  37   34295.8    291.6   0.046624228   0.44755   0.21774   0.47510  -0.41764
  38   34769.8    287.6   0.356197914   3.37260   0.66986  -1.32616   1.07944
  39   35233.1    283.8   0.171845508   1.60570  -1.13894   0.37533  -0.40944
  40   35359.3    282.8   0.077592888   0.72243   0.68055  -0.46540   0.20662
  41   35576.2    281.1   0.040204891   0.37204  -0.09878   0.57472  -0.17884
  42   35680.0    280.3   0.134424440   1.24031  -0.16659   0.03595   1.10057
  43   36528.1    273.8   0.065687194   0.59201  -0.10153   0.65020   0.39868
  44   36607.9    273.2   0.029030102   0.26107   0.43471  -0.05693  -0.26240
  45   37191.0    268.9   0.067821498   0.60035  -0.64425  -0.40155  -0.15509
  46   37321.2    267.9   0.014391408   0.12695  -0.24437  -0.24973  -0.06978
  47   37438.7    267.1   0.149172645   1.31173  -0.78923  -0.76962   0.31068
  48   37716.1    265.1   0.015520585   0.13547  -0.20676  -0.23431  -0.19449
  49   37920.8    263.7   0.045026250   0.39090  -0.19409  -0.11676  -0.58275
  50   38103.9    262.4   0.053605929   0.46315   0.51773   0.41333   0.15576
  51   38330.8    260.9   0.027195901   0.23358  -0.16915  -0.39780  -0.21614
  52   38540.7    259.5   0.036463217   0.31147  -0.02745   0.27762   0.48336
  53   38705.8    258.4   0.113004679   0.96116  -0.24298   0.27928   0.90781
  54   39030.8    256.2   0.024970599   0.21062   0.13400  -0.41538  -0.14184
  55   39318.0    254.3   0.006548218   0.05483  -0.18255  -0.06775   0.13005
  56   39486.5    253.3   0.026584942   0.22165  -0.23478  -0.30684  -0.26902
  57   39704.3    251.9   0.086809048   0.71979   0.75882  -0.08079  -0.37075
  58   40044.1    249.7   0.011960281   0.09833   0.06921  -0.10431   0.28750
  59   40156.1    249.0   0.094420070   0.77408   0.03282  -0.17171   0.86228
  60   40250.0    248.4   0.153094832   1.25219   0.00450  -0.02873   1.11864

FINAL SINGLE POINT ENERGY     -9695.626193172273

DIPOLE MOMENT
-------------
                                X             Y             Z
Electronic contribution:    -56.50331     228.31901    -105.67029
Nuclear contribution   :     57.23943    -229.02529     105.32609
                        -----------------------------------------
Total Dipole Moment    :      0.73613      -0.70628      -0.34420
                        -----------------------------------------
Magnitude (a.u.)       :      1.07665
Magnitude (Debye)      :      2.73664

Rotational constants in cm-1:     0.001277     0.000467     0.000426
Rotational constants in MHz :    38.281343    13.987981    12.762493

                             ****ORCA TERMINATED NORMALLY****
TOTAL RUN TIME: 0 days 0 hours 12 minutes 2 seconds 143 msec
