                         Program Version 4.2.0 -  RELEASE  -
|  1> # ORCA input file
|  2> # SCF done       -205.854854662483          0.000881114906
|  3> ! CAM-B3LYP def2-SVP def2/J RIJCOSX Grid4 TightSCF
|  4> %maxcore 5000
|  5> %tddft
|  6>     Mode sTDDFT
|  7>     Ethresh 5.0
|  8>     maxcore 5000
|  9> end
| 10>
| 11> %pal
| 12>   nprocs 6
| 13>   end
| 14> * xyz 0 1
| 15>    C       -0.99774        -0.12926        -3.22313
| 16>    C       -1.34282        -1.34247        -2.67479
| 17>    C       -0.62143        -2.53585        -2.88014
| 18>    N       -0.07967        -3.54002        -3.01004
| 19>    C       -2.45520        -1.58017        -1.84384
| 20>    N       -3.34152        -1.84720        -1.16192
| 21>    C        0.15748         0.10052        -4.08871
| 22>    C        0.17498         1.46588        -4.46656
| 23>    C        1.13905         1.99932        -5.28539
| 24>    C        2.14027         1.14238        -5.75601
| 25>    C        2.11812        -0.21864        -5.37198
| 26>    C        1.14016        -0.75738        -4.54295
| 27>    S        3.44663        -1.09929        -6.06313
| 28>    C        4.00560         0.35353        -6.84933
| 29>    C        3.23848         1.44291        -6.60731
| 30>   Br        5.54784         0.29521        -7.91496
| 31>    C       -0.97246         2.14854        -3.84388
| 32>    O       -1.25858         3.33017        -3.96007
| 33>    C       -1.68585         1.13231        -3.07354
| 34>    C       -2.83496         1.33919        -2.33508
| 35>    C       -3.58225         2.49313        -2.13034
| 36>    S       -3.23575         4.07653        -2.75167
| 37>    C       -4.62591         4.78766        -1.98528
| 38>    C       -5.38694         3.80529        -1.28942
| 39>    C       -4.78386         2.51946        -1.35836
| 40>    C       -5.38410         1.42416        -0.72194
| 41>    C       -6.56879         1.60632        -0.05484
| 42>    F       -7.15767         0.56993         0.55380
| 43>    C       -7.18713         2.86598        -0.02047
| 44>    F       -8.36580         3.00921         0.60649
| 45>    C       -6.61327         3.95338        -0.62786
| 46>    C       -4.78605         6.16418        -2.15264
| 47>    C       -5.68579         7.00558        -1.53331
| 48>    C       -5.78826         8.36330        -1.80463
| 49>    C       -6.71804         9.18862        -1.19049
| 50>    C       -6.93293        10.56235        -1.40439
| 51>    C       -7.95656        11.09243        -0.66265
| 52>    C       -8.59014        10.15738         0.17145
| 53>    S       -7.85532         8.58597        -0.00303
| 54>    C       -9.66196        10.34268         1.04079
| 55>    C      -10.39793        11.50818         1.30647
| 56>    C      -11.40868        11.32220         2.21164
| 57>    C      -11.50538        10.00949         2.71787
| 58>    S      -10.27298         9.00728         1.98291
| 59>    C      -12.51756         9.55009         3.54675
| 60>    C      -12.68884         8.29797         4.13128
| 61>    S      -14.31830         7.79663         4.50378
| 62>    C      -13.83303         6.20016         4.97608
| 63>    C      -12.42260         6.08537         4.93340
| 64>    C      -11.77364         7.27187         4.49067
| 65>    C      -10.37701         7.36008         4.56524
| 66>    C       -9.65726         6.26530         4.96482
| 67>    F       -8.32087         6.34471         5.03690
| 68>    C      -10.29716         5.06295         5.31924
| 69>    F       -9.55774         4.01065         5.68981
| 70>    C      -11.66348         4.97195         5.32351
| 71>    C      -14.74549         5.22512         5.38076
| 72>    C      -16.10746         5.38564         5.41454
| 73>    C      -17.02773         4.40598         5.81804
| 74>    C      -16.84509         3.25587         6.54646
| 75>    C      -15.80427         2.78135         7.42318
| 76>    C      -14.93298         3.53962         8.17015
| 77>    C      -14.01826         3.00226         9.09714
| 78>    N      -13.24272         2.62149         9.85342
| 79>    C      -14.89598         4.94600         8.16158
| 80>    N      -14.82944         6.09172         8.20696
| 81>    C      -16.00067         1.34250         7.59648
| 82>    C      -17.25158         0.98418         7.03543
| 83>    C      -17.86733         2.18240         6.43070
| 84>    O      -18.95695         2.27355         5.91045
| 85>    C      -17.73619        -0.30008         7.07247
| 86>    C      -16.94237        -1.27962         7.67994
| 87>    C      -15.68651        -0.91488         8.22019
| 88>    C      -15.20011         0.38726         8.19098
| 89>    S      -14.86466        -2.28166         8.90843
| 90>    C      -16.20355        -3.31047         8.47285
| 91>    C      -17.21365        -2.66596         7.84198
| 92>   Br      -16.14031        -5.13767         8.89090
| 93>    H        1.12267         3.04363        -5.55508
| 94>    H        1.17010        -1.80150        -4.28081
| 95>    H        3.43711         2.41869        -7.01158
| 96>    H       -3.22991         0.46862        -1.83244
| 97>    H       -4.95268         0.43594        -0.74113
| 98>    H       -7.14217         4.88906        -0.59553
| 99>    H       -4.08481         6.61894        -2.84323
|100>    H       -6.34934         6.61947        -0.77513
|101>    H       -5.13413         8.80923        -2.54171
|102>    H       -6.33393        11.12567        -2.09778
|103>    H       -8.26031        12.12299        -0.70174
|104>    H      -10.17915        12.44626         0.82954
|105>    H      -12.08072        12.09779         2.53359
|106>    H      -13.34629        10.23741         3.67272
|107>    H       -9.85527         8.27577         4.34871
|108>    H      -12.12788         4.05404         5.64357
|109>    H      -14.32865         4.26213         5.64144
|110>    H      -16.51763         6.31277         5.03518
|111>    H      -18.04151         4.52292         5.44538
|112>    H      -18.69657        -0.54383         6.64616
|113>    H      -14.23425         0.61570         8.61030
|114>    H      -18.11347        -3.14646         7.50375
|115> *
|116>
|117>                          ****END OF INPUT****

CARTESIAN COORDINATES (ANGSTROEM)
---------------------------------
  C     -0.997740   -0.129260   -3.223130
  C     -1.342820   -1.342470   -2.674790
  C     -0.621430   -2.535850   -2.880140
  N     -0.079670   -3.540020   -3.010040
  C     -2.455200   -1.580170   -1.843840
  N     -3.341520   -1.847200   -1.161920
  C      0.157480    0.100520   -4.088710
  C      0.174980    1.465880   -4.466560
  C      1.139050    1.999320   -5.285390
  C      2.140270    1.142380   -5.756010
  C      2.118120   -0.218640   -5.371980
  C      1.140160   -0.757380   -4.542950
  S      3.446630   -1.099290   -6.063130
  C      4.005600    0.353530   -6.849330
  C      3.238480    1.442910   -6.607310
  Br     5.547840    0.295210   -7.914960
  C     -0.972460    2.148540   -3.843880
  O     -1.258580    3.330170   -3.960070
  C     -1.685850    1.132310   -3.073540
  C     -2.834960    1.339190   -2.335080
  C     -3.582250    2.493130   -2.130340
  S     -3.235750    4.076530   -2.751670
  C     -4.625910    4.787660   -1.985280
  C     -5.386940    3.805290   -1.289420
  C     -4.783860    2.519460   -1.358360
  C     -5.384100    1.424160   -0.721940
  C     -6.568790    1.606320   -0.054840
  F     -7.157670    0.569930    0.553800
  C     -7.187130    2.865980   -0.020470
  F     -8.365800    3.009210    0.606490
  C     -6.613270    3.953380   -0.627860
  C     -4.786050    6.164180   -2.152640
  C     -5.685790    7.005580   -1.533310
  C     -5.788260    8.363300   -1.804630
  C     -6.718040    9.188620   -1.190490
  C     -6.932930   10.562350   -1.404390
  C     -7.956560   11.092430   -0.662650
  C     -8.590140   10.157380    0.171450
  S     -7.855320    8.585970   -0.003030
  C     -9.661960   10.342680    1.040790
  C    -10.397930   11.508180    1.306470
  C    -11.408680   11.322200    2.211640
  C    -11.505380   10.009490    2.717870
  S    -10.272980    9.007280    1.982910
  C    -12.517560    9.550090    3.546750
  C    -12.688840    8.297970    4.131280
  S    -14.318300    7.796630    4.503780
  C    -13.833030    6.200160    4.976080
  C    -12.422600    6.085370    4.933400
  C    -11.773640    7.271870    4.490670
  C    -10.377010    7.360080    4.565240
  C     -9.657260    6.265300    4.964820
  F     -8.320870    6.344710    5.036900
  C    -10.297160    5.062950    5.319240
  F     -9.557740    4.010650    5.689810
  C    -11.663480    4.971950    5.323510
  C    -14.745490    5.225120    5.380760
  C    -16.107460    5.385640    5.414540
  C    -17.027730    4.405980    5.818040
  C    -16.845090    3.255870    6.546460
  C    -15.804270    2.781350    7.423180
  C    -14.932980    3.539620    8.170150
  C    -14.018260    3.002260    9.097140
  N    -13.242720    2.621490    9.853420
  C    -14.895980    4.946000    8.161580
  N    -14.829440    6.091720    8.206960
  C    -16.000670    1.342500    7.596480
  C    -17.251580    0.984180    7.035430
  C    -17.867330    2.182400    6.430700
  O    -18.956950    2.273550    5.910450
  C    -17.736190   -0.300080    7.072470
  C    -16.942370   -1.279620    7.679940
  C    -15.686510   -0.914880    8.220190
  C    -15.200110    0.387260    8.190980
  S    -14.864660   -2.281660    8.908430
  C    -16.203550   -3.310470    8.472850
  C    -17.213650   -2.665960    7.841980
  Br   -16.140310   -5.137670    8.890900
  H      1.122670    3.043630   -5.555080
  H      1.170100   -1.801500   -4.280810
  H      3.437110    2.418690   -7.011580
  H     -3.229910    0.468620   -1.832440
  H     -4.952680    0.435940   -0.741130
  H     -7.142170    4.889060   -0.595530
  H     -4.084810    6.618940   -2.843230
  H     -6.349340    6.619470   -0.775130
  H     -5.134130    8.809230   -2.541710
  H     -6.333930   11.125670   -2.097780
  H     -8.260310   12.122990   -0.701740
  H    -10.179150   12.446260    0.829540
  H    -12.080720   12.097790    2.533590
  H    -13.346290   10.237410    3.672720
  H     -9.855270    8.275770    4.348710
  H    -12.127880    4.054040    5.643570
  H    -14.328650    4.262130    5.641440
  H    -16.517630    6.312770    5.035180
  H    -18.041510    4.522920    5.445380
  H    -18.696570   -0.543830    6.646160
  H    -14.234250    0.615700    8.610300
  H    -18.113470   -3.146460    7.503750

 Total Charge           Charge          ....    0
 Multiplicity           Mult            ....    1
 Number of Electrons    NEL             ....  628
 Basis Dimension        Dim             .... 1262

ORBITAL ENERGIES
----------------

  NO   OCC          E(Eh)            E(eV)
   0   2.0000    -482.882331    -13139.8962
   1   2.0000    -482.880870    -13139.8565
   2   2.0000     -88.981262     -2421.3032
   3   2.0000     -88.974580     -2421.1214
   4   2.0000     -88.971235     -2421.0304
   5   2.0000     -88.970372     -2421.0069
   6   2.0000     -88.969909     -2420.9943
   7   2.0000     -88.968060     -2420.9440
   8   2.0000     -62.560048     -1702.3454
   9   2.0000     -62.558605     -1702.3062
  10   2.0000     -56.393991     -1534.5585
  11   2.0000     -56.392553     -1534.5194
  12   2.0000     -56.391288     -1534.4850
  13   2.0000     -56.391251     -1534.4839
  14   2.0000     -56.389842     -1534.4456
  15   2.0000     -56.389806     -1534.4446
  16   2.0000     -24.794969      -674.7054
  17   2.0000     -24.793755      -674.6724
  18   2.0000     -24.792032      -674.6255
  19   2.0000     -24.791367      -674.6074
  20   2.0000     -19.215043      -522.8679
  21   2.0000     -19.206175      -522.6266
  22   2.0000     -14.412342      -392.1798
  23   2.0000     -14.410338      -392.1252
  24   2.0000     -14.408845      -392.0846
  25   2.0000     -14.405915      -392.0049
  26   2.0000     -10.379379      -282.4373
  27   2.0000     -10.376484      -282.3585
  28   2.0000     -10.376140      -282.3491
  29   2.0000     -10.373597      -282.2799
  30   2.0000     -10.362578      -281.9801
  31   2.0000     -10.357236      -281.8347
  32   2.0000     -10.354619      -281.7635
  33   2.0000     -10.353521      -281.7336
  34   2.0000     -10.336373      -281.2670
  35   2.0000     -10.334827      -281.2249
  36   2.0000     -10.334219      -281.2084
  37   2.0000     -10.333974      -281.2017
  38   2.0000     -10.333883      -281.1992
  39   2.0000     -10.333820      -281.1975
  40   2.0000     -10.333598      -281.1915
  41   2.0000     -10.331468      -281.1335
  42   2.0000     -10.330277      -281.1011
  43   2.0000     -10.324953      -280.9562
  44   2.0000     -10.321346      -280.8581
  45   2.0000     -10.320198      -280.8269
  46   2.0000     -10.320147      -280.8255
  47   2.0000     -10.316478      -280.7256
  48   2.0000     -10.316351      -280.7222
  49   2.0000     -10.314024      -280.6589
  50   2.0000     -10.312355      -280.6135
  51   2.0000     -10.311945      -280.6023
  52   2.0000     -10.311241      -280.5831
  53   2.0000     -10.310994      -280.5764
  54   2.0000     -10.310582      -280.5652
  55   2.0000     -10.309983      -280.5489
  56   2.0000     -10.309572      -280.5377
  57   2.0000     -10.308918      -280.5199
  58   2.0000     -10.308352      -280.5045
  59   2.0000     -10.308241      -280.5015
  60   2.0000     -10.307426      -280.4793
  61   2.0000     -10.306071      -280.4424
  62   2.0000     -10.305145      -280.4172
  63   2.0000     -10.304023      -280.3867
  64   2.0000     -10.303230      -280.3651
  65   2.0000     -10.302611      -280.3483
  66   2.0000     -10.302295      -280.3397
  67   2.0000     -10.301889      -280.3287
  68   2.0000     -10.301637      -280.3218
  69   2.0000     -10.300951      -280.3031
  70   2.0000     -10.300520      -280.2914
  71   2.0000     -10.300060      -280.2789
  72   2.0000     -10.299928      -280.2753
  73   2.0000     -10.299486      -280.2633
  74   2.0000     -10.299038      -280.2511
  75   2.0000     -10.298804      -280.2447
  76   2.0000     -10.296341      -280.1777
  77   2.0000     -10.295520      -280.1553
  78   2.0000     -10.294072      -280.1159
  79   2.0000     -10.292866      -280.0831
  80   2.0000     -10.291656      -280.0502
  81   2.0000     -10.288416      -279.9620
  82   2.0000     -10.287454      -279.9358
  83   2.0000     -10.287370      -279.9336
  84   2.0000     -10.286688      -279.9150
  85   2.0000     -10.286251      -279.9031
  86   2.0000      -8.789476      -239.1738
  87   2.0000      -8.788044      -239.1348
  88   2.0000      -8.076406      -219.7702
  89   2.0000      -8.067577      -219.5299
  90   2.0000      -8.067208      -219.5199
  91   2.0000      -8.066412      -219.4982
  92   2.0000      -8.066040      -219.4881
  93   2.0000      -8.064428      -219.4442
  94   2.0000      -6.625751      -180.2959
  95   2.0000      -6.624342      -180.2575
  96   2.0000      -6.611210      -179.9002
  97   2.0000      -6.611042      -179.8956
  98   2.0000      -6.609776      -179.8611
  99   2.0000      -6.609584      -179.8559
 100   2.0000      -6.045413      -164.5040
 101   2.0000      -6.041437      -164.3959
 102   2.0000      -6.038989      -164.3292
 103   2.0000      -6.036887      -164.2720
 104   2.0000      -6.036783      -164.2692
 105   2.0000      -6.036106      -164.2508
 106   2.0000      -6.035711      -164.2401
 107   2.0000      -6.034027      -164.1942
 108   2.0000      -6.032629      -164.1562
 109   2.0000      -6.032178      -164.1439
 110   2.0000      -6.031817      -164.1341
 111   2.0000      -6.031536      -164.1264
 112   2.0000      -6.030351      -164.0942
 113   2.0000      -6.030045      -164.0859
 114   2.0000      -6.028439      -164.0422
 115   2.0000      -6.027625      -164.0200
 116   2.0000      -6.027131      -164.0066
 117   2.0000      -6.025539      -163.9632
 118   2.0000      -2.741646       -74.6040
 119   2.0000      -2.740202       -74.5647
 120   2.0000      -2.737534       -74.4921
 121   2.0000      -2.737407       -74.4886
 122   2.0000      -2.736108       -74.4533
 123   2.0000      -2.736014       -74.4507
 124   2.0000      -2.725867       -74.1746
 125   2.0000      -2.725838       -74.1738
 126   2.0000      -2.724408       -74.1349
 127   2.0000      -2.724400       -74.1347
 128   2.0000      -1.317395       -35.8481
 129   2.0000      -1.314370       -35.7658
 130   2.0000      -1.302422       -35.4407
 131   2.0000      -1.299531       -35.3620
 132   2.0000      -1.129678       -30.7401
 133   2.0000      -1.121231       -30.5102
 134   2.0000      -1.022032       -27.8109
 135   2.0000      -1.017541       -27.6887
 136   2.0000      -1.017472       -27.6868
 137   2.0000      -1.016217       -27.6527
 138   2.0000      -1.012073       -27.5399
 139   2.0000      -1.007837       -27.4246
 140   2.0000      -1.007674       -27.4202
 141   2.0000      -0.996530       -27.1170
 142   2.0000      -0.988632       -26.9020
 143   2.0000      -0.988538       -26.8995
 144   2.0000      -0.983475       -26.7617
 145   2.0000      -0.983325       -26.7576
 146   2.0000      -0.957056       -26.0428
 147   2.0000      -0.952286       -25.9130
 148   2.0000      -0.940305       -25.5870
 149   2.0000      -0.939146       -25.5554
 150   2.0000      -0.932262       -25.3681
 151   2.0000      -0.927432       -25.2367
 152   2.0000      -0.910098       -24.7650
 153   2.0000      -0.903223       -24.5780
 154   2.0000      -0.902646       -24.5623
 155   2.0000      -0.901687       -24.5361
 156   2.0000      -0.887133       -24.1401
 157   2.0000      -0.880709       -23.9653
 158   2.0000      -0.880318       -23.9547
 159   2.0000      -0.878691       -23.9104
 160   2.0000      -0.872990       -23.7553
 161   2.0000      -0.865556       -23.5530
 162   2.0000      -0.860035       -23.4027
 163   2.0000      -0.852392       -23.1948
 164   2.0000      -0.850338       -23.1389
 165   2.0000      -0.846338       -23.0300
 166   2.0000      -0.844124       -22.9698
 167   2.0000      -0.838566       -22.8185
 168   2.0000      -0.824614       -22.4389
 169   2.0000      -0.824121       -22.4255
 170   2.0000      -0.821308       -22.3489
 171   2.0000      -0.803570       -21.8662
 172   2.0000      -0.789928       -21.4950
 173   2.0000      -0.776361       -21.1259
 174   2.0000      -0.760872       -20.7044
 175   2.0000      -0.755581       -20.5604
 176   2.0000      -0.751010       -20.4360
 177   2.0000      -0.747303       -20.3351
 178   2.0000      -0.744021       -20.2458
 179   2.0000      -0.742752       -20.2113
 180   2.0000      -0.727113       -19.7857
 181   2.0000      -0.716655       -19.5012
 182   2.0000      -0.708356       -19.2753
 183   2.0000      -0.699480       -19.0338
 184   2.0000      -0.696316       -18.9477
 185   2.0000      -0.690297       -18.7839
 186   2.0000      -0.685993       -18.6668
 187   2.0000      -0.684491       -18.6259
 188   2.0000      -0.681428       -18.5426
 189   2.0000      -0.673601       -18.3296
 190   2.0000      -0.668165       -18.1817
 191   2.0000      -0.661089       -17.9891
 192   2.0000      -0.656716       -17.8702
 193   2.0000      -0.654519       -17.8104
 194   2.0000      -0.651676       -17.7330
 195   2.0000      -0.644536       -17.5387
 196   2.0000      -0.640909       -17.4400
 197   2.0000      -0.638938       -17.3864
 198   2.0000      -0.632990       -17.2245
 199   2.0000      -0.628988       -17.1156
 200   2.0000      -0.623638       -16.9701
 201   2.0000      -0.621055       -16.8998
 202   2.0000      -0.620281       -16.8787
 203   2.0000      -0.617427       -16.8010
 204   2.0000      -0.616545       -16.7770
 205   2.0000      -0.610608       -16.6155
 206   2.0000      -0.609913       -16.5966
 207   2.0000      -0.594802       -16.1854
 208   2.0000      -0.593280       -16.1440
 209   2.0000      -0.589449       -16.0397
 210   2.0000      -0.585058       -15.9202
 211   2.0000      -0.583063       -15.8660
 212   2.0000      -0.581482       -15.8229
 213   2.0000      -0.579827       -15.7779
 214   2.0000      -0.579187       -15.7605
 215   2.0000      -0.572566       -15.5803
 216   2.0000      -0.563087       -15.3224
 217   2.0000      -0.555854       -15.1255
 218   2.0000      -0.553148       -15.0519
 219   2.0000      -0.550443       -14.9783
 220   2.0000      -0.548670       -14.9301
 221   2.0000      -0.545976       -14.8568
 222   2.0000      -0.543453       -14.7881
 223   2.0000      -0.541843       -14.7443
 224   2.0000      -0.540635       -14.7114
 225   2.0000      -0.539599       -14.6832
 226   2.0000      -0.537264       -14.6197
 227   2.0000      -0.536707       -14.6045
 228   2.0000      -0.533349       -14.5132
 229   2.0000      -0.531259       -14.4563
 230   2.0000      -0.528329       -14.3766
 231   2.0000      -0.526964       -14.3394
 232   2.0000      -0.524729       -14.2786
 233   2.0000      -0.521229       -14.1834
 234   2.0000      -0.518508       -14.1093
 235   2.0000      -0.517148       -14.0723
 236   2.0000      -0.515373       -14.0240
 237   2.0000      -0.513870       -13.9831
 238   2.0000      -0.510509       -13.8917
 239   2.0000      -0.509784       -13.8719
 240   2.0000      -0.506399       -13.7798
 241   2.0000      -0.502454       -13.6725
 242   2.0000      -0.502007       -13.6603
 243   2.0000      -0.500807       -13.6277
 244   2.0000      -0.499140       -13.5823
 245   2.0000      -0.494913       -13.4673
 246   2.0000      -0.492325       -13.3968
 247   2.0000      -0.491476       -13.3738
 248   2.0000      -0.489390       -13.3170
 249   2.0000      -0.488850       -13.3023
 250   2.0000      -0.488611       -13.2958
 251   2.0000      -0.487647       -13.2695
 252   2.0000      -0.484801       -13.1921
 253   2.0000      -0.478250       -13.0138
 254   2.0000      -0.476635       -12.9699
 255   2.0000      -0.474257       -12.9052
 256   2.0000      -0.468869       -12.7586
 257   2.0000      -0.468711       -12.7543
 258   2.0000      -0.462887       -12.5958
 259   2.0000      -0.460614       -12.5339
 260   2.0000      -0.458721       -12.4824
 261   2.0000      -0.454842       -12.3769
 262   2.0000      -0.453418       -12.3381
 263   2.0000      -0.450748       -12.2655
 264   2.0000      -0.448041       -12.1918
 265   2.0000      -0.445654       -12.1269
 266   2.0000      -0.445014       -12.1094
 267   2.0000      -0.444804       -12.1037
 268   2.0000      -0.444139       -12.0856
 269   2.0000      -0.441572       -12.0158
 270   2.0000      -0.440654       -11.9908
 271   2.0000      -0.438130       -11.9221
 272   2.0000      -0.437221       -11.8974
 273   2.0000      -0.435557       -11.8521
 274   2.0000      -0.434674       -11.8281
 275   2.0000      -0.433378       -11.7928
 276   2.0000      -0.431338       -11.7373
 277   2.0000      -0.426163       -11.5965
 278   2.0000      -0.424555       -11.5527
 279   2.0000      -0.422706       -11.5024
 280   2.0000      -0.421341       -11.4653
 281   2.0000      -0.421187       -11.4611
 282   2.0000      -0.419321       -11.4103
 283   2.0000      -0.415060       -11.2944
 284   2.0000      -0.410354       -11.1663
 285   2.0000      -0.408898       -11.1267
 286   2.0000      -0.404246       -11.0001
 287   2.0000      -0.403651       -10.9839
 288   2.0000      -0.400730       -10.9044
 289   2.0000      -0.394968       -10.7476
 290   2.0000      -0.384450       -10.4614
 291   2.0000      -0.382564       -10.4101
 292   2.0000      -0.377353       -10.2683
 293   2.0000      -0.371797       -10.1171
 294   2.0000      -0.370417       -10.0796
 295   2.0000      -0.368878       -10.0377
 296   2.0000      -0.361373        -9.8335
 297   2.0000      -0.357996        -9.7416
 298   2.0000      -0.351694        -9.5701
 299   2.0000      -0.345242        -9.3945
 300   2.0000      -0.333369        -9.0714
 301   2.0000      -0.330731        -8.9997
 302   2.0000      -0.330686        -8.9984
 303   2.0000      -0.325878        -8.8676
 304   2.0000      -0.324767        -8.8374
 305   2.0000      -0.320427        -8.7193
 306   2.0000      -0.312517        -8.5040
 307   2.0000      -0.310618        -8.4523
 308   2.0000      -0.309755        -8.4289
 309   2.0000      -0.289692        -7.8829
 310   2.0000      -0.289178        -7.8689
 311   2.0000      -0.279097        -7.5946
 312   2.0000      -0.251924        -6.8552
 313   2.0000      -0.214227        -5.8294
 314   0.0000      -0.130152        -3.5416
 315   0.0000      -0.096880        -2.6362
 316   0.0000      -0.073862        -2.0099
 317   0.0000      -0.062088        -1.6895
 318   0.0000      -0.053165        -1.4467

MULLIKEN ATOMIC CHARGES
-----------------------
   0 C :    0.327076
   1 C :   -0.364766
   2 C :   -0.184514
   3 N :    0.141950
   4 C :   -0.180804
   5 N :    0.136034
   6 C :    0.009102
   7 C :   -0.008641
   8 C :   -0.075915
   9 C :    0.117217
  10 C :   -0.094573
  11 C :   -0.020423
  12 S :    0.184986
  13 C :   -0.123914
  14 C :    0.038081
  15 Br:    0.019290
  16 C :    0.153806
  17 O :   -0.194112
  18 C :   -0.104310
  19 C :   -0.028641
  20 C :   -0.076345
  21 S :    0.223284
  22 C :   -0.080579
  23 C :    0.137871
  24 C :    0.127978
  25 C :   -0.122340
  26 C :    0.229852
  27 F :   -0.164311
  28 C :    0.217442
  29 F :   -0.175650
  30 C :   -0.122266
  31 C :    0.028107
  32 C :   -0.005828
  33 C :    0.001687
  34 C :   -0.019799
  35 C :    0.036334
  36 C :    0.027132
  37 C :   -0.033787
  38 S :    0.074399
  39 C :   -0.047532
  40 C :    0.034361
  41 C :    0.033619
  42 C :   -0.040507
  43 S :    0.098642
  44 C :    0.003410
  45 C :   -0.113654
  46 S :    0.173990
  47 C :   -0.093719
  48 C :    0.140720
  49 C :    0.117147
  50 C :   -0.110423
  51 C :    0.216972
  52 F :   -0.173896
  53 C :    0.235840
  54 F :   -0.166891
  55 C :   -0.115876
  56 C :    0.031652
  57 C :   -0.001722
  58 C :    0.045825
  59 C :   -0.134698
  60 C :    0.269920
  61 C :   -0.360120
  62 C :   -0.176468
  63 N :    0.147843
  64 C :   -0.201532
  65 N :    0.163758
  66 C :   -0.002015
  67 C :    0.008043
  68 C :    0.130467
  69 O :   -0.150903
  70 C :   -0.074301
  71 C :    0.114750
  72 C :   -0.091826
  73 C :   -0.021725
  74 S :    0.184066
  75 C :   -0.125394
  76 C :    0.039590
  77 Br:    0.020882
  78 H :   -0.014168
  79 H :   -0.007627
  80 H :   -0.005811
  81 H :   -0.020514
  82 H :    0.015463
  83 H :   -0.018310
  84 H :   -0.008417
  85 H :    0.013951
  86 H :   -0.006713
  87 H :   -0.004077
  88 H :   -0.005788
  89 H :   -0.007345
  90 H :   -0.002927
  91 H :    0.002561
  92 H :    0.004000
  93 H :   -0.005677
  94 H :    0.012663
  95 H :   -0.002106
  96 H :    0.023256
  97 H :   -0.011382
  98 H :   -0.005362
  99 H :   -0.004076
Sum of atomic charges:   -0.0000000

LOEWDIN ATOMIC CHARGES
----------------------
   0 C :    0.076652
   1 C :   -0.155556
   2 C :   -0.019167
   3 N :   -0.062559
   4 C :   -0.015838
   5 N :   -0.066577
   6 C :   -0.018627
   7 C :   -0.049496
   8 C :    0.018573
   9 C :   -0.035293
  10 C :   -0.145489
  11 C :   -0.010968
  12 S :    0.431738
  13 C :   -0.273644
  14 C :   -0.070918
  15 Br:    0.133472
  16 C :    0.081895
  17 O :   -0.180424
  18 C :   -0.119184
  19 C :    0.041539
  20 C :   -0.195582
  21 S :    0.551594
  22 C :   -0.144521
  23 C :   -0.051590
  24 C :   -0.015420
  25 C :   -0.035695
  26 C :    0.072544
  27 F :   -0.044731
  28 C :    0.061148
  29 F :   -0.055369
  30 C :   -0.035953
  31 C :   -0.048443
  32 C :   -0.014532
  33 C :   -0.049048
  34 C :   -0.136507
  35 C :   -0.032084
  36 C :   -0.025546
  37 C :   -0.175074
  38 S :    0.390607
  39 C :   -0.174025
  40 C :   -0.031212
  41 C :   -0.028049
  42 C :   -0.147516
  43 S :    0.418940
  44 C :   -0.076283
  45 C :   -0.151224
  46 S :    0.490999
  47 C :   -0.175079
  48 C :   -0.022341
  49 C :   -0.053318
  50 C :   -0.043071
  51 C :    0.063100
  52 F :   -0.051566
  53 C :    0.072217
  54 F :   -0.045645
  55 C :   -0.036977
  56 C :    0.019713
  57 C :   -0.054072
  58 C :    0.060870
  59 C :   -0.104551
  60 C :    0.063545
  61 C :   -0.156456
  62 C :   -0.023463
  63 N :   -0.059399
  64 C :   -0.017633
  65 N :   -0.049807
  66 C :   -0.018290
  67 C :   -0.051980
  68 C :    0.081069
  69 O :   -0.149748
  70 C :    0.021116
  71 C :   -0.034823
  72 C :   -0.144264
  73 C :   -0.014554
  74 S :    0.431165
  75 C :   -0.273053
  76 C :   -0.070375
  77 Br:    0.134656
  78 H :    0.039311
  79 H :    0.040835
  80 H :    0.037746
  81 H :    0.045549
  82 H :    0.047849
  83 H :    0.037702
  84 H :    0.031750
  85 H :    0.020979
  86 H :    0.036711
  87 H :    0.037011
  88 H :    0.035193
  89 H :    0.034967
  90 H :    0.036933
  91 H :    0.039424
  92 H :    0.030712
  93 H :    0.042300
  94 H :    0.038343
  95 H :    0.026501
  96 H :    0.046493
  97 H :    0.040630
  98 H :    0.040077
  99 H :    0.038442

  Mayer bond orders larger than 0.100000
B(  0-C ,  1-C ) :   1.5879 B(  0-C ,  6-C ) :   0.9905 B(  0-C , 18-C ) :   1.1165
B(  1-C ,  2-C ) :   1.1486 B(  1-C ,  4-C ) :   1.1534 B(  2-C ,  3-N ) :   2.9623
B(  4-C ,  5-N ) :   2.9674 B(  6-C ,  7-C ) :   1.2753 B(  6-C , 11-C ) :   1.4232
B(  7-C ,  8-C ) :   1.4292 B(  7-C , 16-C ) :   0.9569 B(  8-C ,  9-C ) :   1.2367
B(  8-C , 78-H ) :   1.0166 B(  9-C , 10-C ) :   1.3149 B(  9-C , 14-C ) :   1.1627
B( 10-C , 11-C ) :   1.3195 B( 10-C , 12-S ) :   1.0860 B( 11-C , 79-H ) :   0.9786
B( 12-S , 13-C ) :   1.0872 B( 13-C , 14-C ) :   1.6186 B( 13-C , 15-Br) :   1.0162
B( 14-C , 80-H ) :   0.9997 B( 16-C , 17-O ) :   2.1114 B( 16-C , 18-C ) :   0.9912
B( 18-C , 19-C ) :   1.4323 B( 19-C , 20-C ) :   1.3640 B( 19-C , 81-H ) :   0.9301
B( 20-C , 21-S ) :   1.0959 B( 20-C , 24-C ) :   1.1953 B( 21-S , 22-C ) :   1.1527
B( 22-C , 23-C ) :   1.2141 B( 22-C , 31-C ) :   1.2422 B( 23-C , 24-C ) :   1.2708
B( 23-C , 30-C ) :   1.1919 B( 24-C , 25-C ) :   1.2169 B( 25-C , 26-C ) :   1.4490
B( 25-C , 30-C ) :   0.1106 B( 25-C , 82-H ) :   0.9887 B( 26-C , 27-F ) :   1.1577
B( 26-C , 28-C ) :   1.1960 B( 28-C , 29-F ) :   1.1381 B( 28-C , 30-C ) :   1.4669
B( 30-C , 83-H ) :   0.9950 B( 31-C , 32-C ) :   1.5173 B( 31-C , 84-H ) :   0.9542
B( 32-C , 33-C ) :   1.2472 B( 32-C , 85-H ) :   0.9668 B( 33-C , 34-C ) :   1.4591
B( 33-C , 86-H ) :   0.9888 B( 34-C , 35-C ) :   1.1920 B( 34-C , 38-S ) :   1.0542
B( 35-C , 36-C ) :   1.5286 B( 35-C , 87-H ) :   1.0010 B( 36-C , 37-C ) :   1.2385
B( 36-C , 88-H ) :   0.9949 B( 37-C , 38-S ) :   1.0652 B( 37-C , 39-C ) :   1.4264
B( 39-C , 40-C ) :   1.2322 B( 39-C , 43-S ) :   1.0625 B( 40-C , 41-C ) :   1.5360
B( 40-C , 89-H ) :   0.9945 B( 41-C , 42-C ) :   1.1903 B( 41-C , 90-H ) :   0.9988
B( 42-C , 43-S ) :   1.0500 B( 42-C , 44-C ) :   1.5137 B( 44-C , 45-C ) :   1.2484
B( 44-C , 91-H ) :   0.9445 B( 45-C , 46-S ) :   1.1582 B( 45-C , 49-C ) :   1.2599
B( 46-S , 47-C ) :   1.1151 B( 47-C , 48-C ) :   1.2594 B( 47-C , 56-C ) :   1.3161
B( 48-C , 49-C ) :   1.2461 B( 48-C , 55-C ) :   1.1951 B( 49-C , 50-C ) :   1.1835
B( 50-C , 51-C ) :   1.4955 B( 50-C , 55-C ) :   0.1080 B( 50-C , 92-H ) :   0.9784
B( 51-C , 52-F ) :   1.1303 B( 51-C , 53-C ) :   1.1779 B( 53-C , 54-F ) :   1.1423
B( 53-C , 55-C ) :   1.4758 B( 55-C , 93-H ) :   0.9964 B( 56-C , 57-C ) :   1.5022
B( 56-C , 94-H ) :   0.9510 B( 57-C , 58-C ) :   1.2507 B( 57-C , 95-H ) :   0.9611
B( 58-C , 59-C ) :   1.5610 B( 58-C , 96-H ) :   0.9315 B( 59-C , 60-C ) :   1.0755
B( 59-C , 68-C ) :   0.9583 B( 60-C , 61-C ) :   1.6051 B( 60-C , 66-C ) :   1.0038
B( 61-C , 62-C ) :   1.1290 B( 61-C , 64-C ) :   1.1778 B( 62-C , 63-N ) :   2.9849
B( 64-C , 65-N ) :   2.9850 B( 66-C , 67-C ) :   1.2768 B( 66-C , 73-C ) :   1.4198
B( 67-C , 68-C ) :   0.9174 B( 67-C , 70-C ) :   1.4301 B( 68-C , 69-O ) :   2.2534
B( 70-C , 71-C ) :   1.2466 B( 70-C , 97-H ) :   1.0160 B( 71-C , 72-C ) :   1.3113
B( 71-C , 76-C ) :   1.1628 B( 72-C , 73-C ) :   1.3253 B( 72-C , 74-S ) :   1.0845
B( 73-C , 98-H ) :   0.9823 B( 74-S , 75-C ) :   1.0867 B( 75-C , 76-C ) :   1.6198
B( 75-C , 77-Br) :   1.0172 B( 76-C , 99-H ) :   0.9999

-----------------------------------------------------------------------------
         ABSORPTION SPECTRUM VIA TRANSITION ELECTRIC DIPOLE MOMENTS
-----------------------------------------------------------------------------
State   Energy  Wavelength   fosc         T2         TX        TY        TZ
        (cm-1)    (nm)                  (au**2)     (au)      (au)      (au)
-----------------------------------------------------------------------------
   0    6310.1   1584.8   0.993926238  51.85567   5.71834  -0.98435  -4.26466
   1   12634.4    791.5   0.168138848   4.38117  -0.20121   2.07039  -0.23277
   2   14484.6    690.4   1.236563762  28.10506  -0.66614   5.21585  -0.67548
   3   18075.2    553.2   0.065400713   1.19118  -0.32224   1.04213  -0.03606
   4   19302.1    518.1   0.032989532   0.56266   0.48158  -0.51955  -0.24660
   5   20912.1    478.2   0.020850230   0.32824   0.46527   0.33262   0.03354
   6   21950.7    455.6   0.031048211   0.46565   0.67189   0.00337  -0.11921
   7   22611.2    442.3   0.007333894   0.10678   0.30481   0.06235   0.09991
   8   23681.2    422.3   0.118898841   1.65291  -0.30963  -1.22974  -0.21160
   9   24407.8    409.7   0.099387325   1.34054   0.93352   0.36057  -0.58230
  10   24762.6    403.8   0.024354270   0.32378   0.48521   0.25297   0.15607
  11   26024.7    384.3   0.088394660   1.11819  -0.74160  -0.61748   0.43236
  12   26154.0    382.4   0.042250229   0.53182  -0.50226   0.41254   0.33071
  13   26428.7    378.4   0.027111169   0.33771   0.25251   0.52083  -0.05185
  14   26597.2    376.0   0.030926322   0.38280   0.55286   0.13637  -0.24196
  15   27064.3    369.5   0.162604183   1.97793   1.06507   0.22118  -0.89142
  16   27456.6    364.2   0.091917676   1.10212  -1.03522  -0.06617   0.16141
  17   27675.4    361.3   0.016974515   0.20192   0.25654   0.34940  -0.11845
  18   28039.3    356.6   0.021964850   0.25789  -0.39688   0.29704  -0.11021
  19   28201.6    354.6   0.001937341   0.02262   0.02428   0.02517  -0.14626
  20   28475.3    351.2   0.018227902   0.21074  -0.31560  -0.12764   0.30797
  21   28715.2    348.2   0.032866014   0.37680  -0.23934   0.46664  -0.31900
  22   29236.4    342.0   0.016369943   0.18433   0.22362   0.14423   0.33694
  23   29414.1    340.0   0.021631764   0.24211   0.05297   0.43081  -0.23175
  24   30516.8    327.7   0.347700993   3.75097   0.39405   1.89124  -0.13752
  25   30748.5    325.2   0.064938119   0.69527  -0.71281  -0.37873  -0.20913
  26   31102.3    321.5   0.322416915   3.41272   1.35797  -0.13678  -1.24496
  27   31418.3    318.3   0.323327302   3.38794   1.09990   1.04908  -1.03807
  28   31966.8    312.8   0.085263085   0.87809   0.37073  -0.85826  -0.06352
  29   32178.8    310.8   0.010444359   0.10685  -0.26461  -0.18553  -0.04909
  30   32614.3    306.6   0.113242932   1.14309   0.35845   1.00457  -0.07382
  31   32836.8    304.5   0.065378441   0.65546  -0.28500  -0.47871   0.58743
  32   32895.3    304.0   0.049225755   0.49264  -0.35253   0.57650  -0.18979
  33   33067.6    302.4   0.013648501   0.13588  -0.29878  -0.12179   0.17826
  34   33104.4    302.1   0.000814822   0.00810   0.03873   0.06824  -0.04412
  35   33382.5    299.6   0.226148832   2.23024  -1.18233  -0.49772   0.76460
  36   33678.9    296.9   0.024977769   0.24416   0.20647  -0.05709  -0.44528
  37   34000.8    294.1   0.019656385   0.19032   0.41270  -0.14141  -0.00252
  38   34303.8    291.5   0.022161398   0.21268  -0.45288   0.05003  -0.07125
  39   34775.1    287.6   0.112160712   1.06181  -0.92259  -0.35918   0.28570
  40   34843.5    287.0   0.095160721   0.89911  -0.31661  -0.88511  -0.12430
  41   34899.8    286.5   0.067920087   0.64069  -0.19420  -0.76254   0.14666
  42   35133.3    284.6   0.190362754   1.78377  -0.04901  -1.32516  -0.15913
  43   35356.8    282.8   0.026919293   0.25065   0.48443  -0.07179   0.10403
  44   35796.3    279.4   0.058586503   0.53881  -0.11522  -0.42305   0.58870
  45   36075.3    277.2   0.082619872   0.75396   0.68514   0.37727  -0.37711
  46   36267.4    275.7   0.231074558   2.09755   1.01512   1.00267  -0.24846
  47   36463.2    274.2   0.088931710   0.80293   0.10245   0.59092  -0.66577
  48   37154.2    269.1   0.014097175   0.12491   0.24798  -0.24222  -0.06889
  49   37539.3    266.4   0.008173223   0.07168   0.25172   0.07341  -0.05407
  50   37607.3    265.9   0.043273305   0.37881   0.61282   0.01446  -0.05529
  51   37656.5    265.6   0.025436790   0.22238  -0.26806  -0.29078   0.25685
  52   37782.4    264.7   0.014688348   0.12798  -0.24171  -0.13311   0.22769
  53   38263.1    261.3   0.000427963   0.00368   0.04548   0.03046   0.02620
  54   38558.1    259.3   0.036834817   0.31450  -0.37762   0.38395   0.15646
  55   38704.5    258.4   0.023059641   0.19614   0.42409  -0.03469  -0.12283
  56   38911.1    257.0   0.038672588   0.32719   0.47055  -0.30504  -0.11283
  57   39019.6    256.3   0.029950778   0.25270  -0.42308   0.21270   0.16869
  58   39094.6    255.8   0.044691896   0.37635   0.37101  -0.19249   0.44905
  59   39468.6    253.4   0.042178934   0.35182  -0.40005  -0.43506  -0.05001
  60   39783.9    251.4   0.138209325   1.14368   0.24391  -0.79589  -0.67137
  61   39973.4    250.2   0.143508404   1.18190  -0.84303   0.60973  -0.31533
  62   40159.2    249.0   0.164879238   1.35163  -1.06705  -0.31908  -0.33348

FINAL SINGLE POINT ENERGY    -10600.839081992075

DIPOLE MOMENT
-------------
                                X             Y             Z
Electronic contribution:     68.64516    -138.32370     -10.59814
Nuclear contribution   :    -68.97088     143.34350       7.76536
                        -----------------------------------------
Total Dipole Moment    :     -0.32571       5.01980      -2.83278
                        -----------------------------------------
Magnitude (a.u.)       :      5.77314
Magnitude (Debye)      :     14.67416

Rotational constants in cm-1:     0.000664     0.000171     0.000139
Rotational constants in MHz :    19.891940     5.121283     4.163927

                             ****ORCA TERMINATED NORMALLY****
TOTAL RUN TIME: 0 days 0 hours 11 minutes 41 seconds 973 msec
