                         Program Version 4.2.0 -  RELEASE  -
|  1> # ORCA input file
|  2> # SCF done       -175.123389102755          0.000424897707
|  3> ! CAM-B3LYP def2-SVP def2/J RIJCOSX Grid4 TightSCF
|  4> %maxcore 5000
|  5> %tddft
|  6>     Mode sTDDFT
|  7>     Ethresh 5.0
|  8>     maxcore 5000
|  9> end
| 10>
| 11> %pal
| 12>   nprocs 6
| 13>   end
| 14> * xyz 0 1
| 15>    C       -4.40779         2.29036         1.36299
| 16>    C       -3.66981         3.08229         2.21051
| 17>    C       -4.11893         4.31025         2.73395
| 18>    N       -4.43049         5.31744         3.19045
| 19>    C       -2.39492         2.75506         2.71397
| 20>    N       -1.37255         2.54196         3.19341
| 21>    C       -5.78223         2.54543         0.94975
| 22>    C       -6.24686         1.42735         0.21580
| 23>    C       -7.51873         1.35439        -0.29479
| 24>    C       -8.37626         2.43772        -0.07044
| 25>    C       -7.90060         3.55340         0.65652
| 26>    C       -6.61268         3.62763         1.17334
| 27>    S       -9.12007         4.78297         0.81110
| 28>    C      -10.23827         3.79110        -0.08682
| 29>    C       -9.72666         2.60229        -0.48445
| 30>   Br      -11.97760         4.41651        -0.41225
| 31>    C       -5.16735         0.42295         0.11417
| 32>    O       -5.22540        -0.63080        -0.48721
| 33>    C       -4.01180         1.01037         0.81988
| 34>    C       -2.73505         0.50976         0.81515
| 35>    C       -2.29581        -0.77189         0.41937
| 36>    S       -0.70031        -0.85775        -0.29979
| 37>    C       -0.90603        -2.52253        -0.63917
| 38>    C       -2.09398        -3.02103        -0.19764
| 39>    C       -2.49850        -4.44933        -0.34796
| 40>    C       -2.89386        -2.03355         0.44749
| 41>    C       -4.11593        -2.36819         1.12529
| 42>    C       -4.58964        -1.74429         2.22211
| 43>    C       -5.84515        -2.05348         2.82438
| 44>    C       -6.39699        -1.28538         3.78583
| 45>    C       -7.69221        -1.45651         4.39242
| 46>    C       -8.33738        -2.59859         4.66785
| 47>    C       -7.78830        -3.97229         4.44410
| 48>    C       -9.71355        -2.55947         5.29123
| 49>    N      -10.64444        -3.37289         4.54982
| 50>    C      -11.16366        -4.53079         4.99480
| 51>    C      -11.84964        -5.41064         4.21274
| 52>    C      -12.48315        -6.59329         4.64063
| 53>    C      -12.67179        -7.08950         5.90704
| 54>    C      -13.34885        -8.29714         6.20883
| 55>    C      -13.46728        -8.57212         7.53740
| 56>    C      -12.88771        -7.59820         8.37861
| 57>    S      -12.17208        -6.32619         7.41546
| 58>    C      -12.85592        -7.57171         9.75946
| 59>    C      -13.38892        -8.51792        10.65895
| 60>    C      -13.20770        -8.19345        11.96913
| 61>    C      -12.52132        -6.97285        12.18482
| 62>    S      -12.10681        -6.25196        10.64373
| 63>    C      -12.24302        -6.44758        13.42556
| 64>    C      -11.57370        -5.25601        13.72956
| 65>    S      -10.92328        -4.27976        12.43510
| 66>    C      -10.27461        -3.13114        13.50661
| 67>    C      -10.53353        -3.44699        14.82154
| 68>    C      -11.28722        -4.65981        14.98036
| 69>    C      -11.61856        -5.04194        16.30789
| 70>    C      -12.43304        -6.25518        16.63828
| 71>    F      -11.83974        -7.41654        16.28430
| 72>    F      -12.67898        -6.37985        17.95262
| 73>    F      -13.64948        -6.26043        16.05389
| 74>    C      -11.19606        -4.26979        17.36494
| 75>    C      -10.44585        -3.09775        17.19904
| 76>    C      -10.11140        -2.66987        15.94117
| 77>    O       -9.40464        -1.55757        15.63839
| 78>    C       -8.96050        -0.73940        16.69636
| 79>    H       -7.84420         0.48808        -0.84903
| 80>    H       -6.29514         4.50202         1.71637
| 81>    H      -10.27657         1.87132        -1.04865
| 82>    H       -1.93352         1.19599         1.06608
| 83>    H       -0.12747        -3.05349        -1.15217
| 84>    H       -1.72132        -5.01076        -0.85968
| 85>    H       -3.41909        -4.52013        -0.92600
| 86>    H       -2.67266        -4.90044         0.62797
| 87>    H       -4.66087        -3.21168         0.72411
| 88>    H       -4.02242        -0.93652         2.66632
| 89>    H       -6.39069        -2.88888         2.41101
| 90>    H       -5.85732        -0.39981         4.10217
| 91>    H       -8.16675        -0.52830         4.69250
| 92>    H       -6.70133        -3.95716         4.45514
| 93>    H       -8.11380        -4.37620         3.48482
| 94>    H       -8.14446        -4.64746         5.22048
| 95>    H      -10.08044        -1.52727         5.32514
| 96>    H       -9.67426        -2.94291         6.31553
| 97>    H      -10.72988        -3.16596         3.56487
| 98>    H      -11.01712        -4.71849         6.04721
| 99>    H      -11.92273        -5.19142         3.15476
|100>    H      -12.90912        -7.20334         3.85322
|101>    H      -13.73637        -8.92581         5.42596
|102>    H      -13.96067        -9.44113         7.93365
|103>    H      -13.89123        -9.40602        10.31977
|104>    H      -13.54793        -8.79066        12.79639
|105>    H      -12.59321        -7.05739        14.23873
|106>    H       -9.73627        -2.28125        13.14182
|107>    H      -11.44848        -4.56465        18.37110
|108>    H      -10.15262        -2.55176        18.08006
|109>    H       -8.42513         0.08418        16.22720
|110>    H       -8.28234        -1.28130        17.36243
|111>    H       -9.80102        -0.34428        17.27484
|112> *
|113>
|114>                          ****END OF INPUT****

CARTESIAN COORDINATES (ANGSTROEM)
---------------------------------
  C     -4.407790    2.290360    1.362990
  C     -3.669810    3.082290    2.210510
  C     -4.118930    4.310250    2.733950
  N     -4.430490    5.317440    3.190450
  C     -2.394920    2.755060    2.713970
  N     -1.372550    2.541960    3.193410
  C     -5.782230    2.545430    0.949750
  C     -6.246860    1.427350    0.215800
  C     -7.518730    1.354390   -0.294790
  C     -8.376260    2.437720   -0.070440
  C     -7.900600    3.553400    0.656520
  C     -6.612680    3.627630    1.173340
  S     -9.120070    4.782970    0.811100
  C    -10.238270    3.791100   -0.086820
  C     -9.726660    2.602290   -0.484450
  Br   -11.977600    4.416510   -0.412250
  C     -5.167350    0.422950    0.114170
  O     -5.225400   -0.630800   -0.487210
  C     -4.011800    1.010370    0.819880
  C     -2.735050    0.509760    0.815150
  C     -2.295810   -0.771890    0.419370
  S     -0.700310   -0.857750   -0.299790
  C     -0.906030   -2.522530   -0.639170
  C     -2.093980   -3.021030   -0.197640
  C     -2.498500   -4.449330   -0.347960
  C     -2.893860   -2.033550    0.447490
  C     -4.115930   -2.368190    1.125290
  C     -4.589640   -1.744290    2.222110
  C     -5.845150   -2.053480    2.824380
  C     -6.396990   -1.285380    3.785830
  C     -7.692210   -1.456510    4.392420
  C     -8.337380   -2.598590    4.667850
  C     -7.788300   -3.972290    4.444100
  C     -9.713550   -2.559470    5.291230
  N    -10.644440   -3.372890    4.549820
  C    -11.163660   -4.530790    4.994800
  C    -11.849640   -5.410640    4.212740
  C    -12.483150   -6.593290    4.640630
  C    -12.671790   -7.089500    5.907040
  C    -13.348850   -8.297140    6.208830
  C    -13.467280   -8.572120    7.537400
  C    -12.887710   -7.598200    8.378610
  S    -12.172080   -6.326190    7.415460
  C    -12.855920   -7.571710    9.759460
  C    -13.388920   -8.517920   10.658950
  C    -13.207700   -8.193450   11.969130
  C    -12.521320   -6.972850   12.184820
  S    -12.106810   -6.251960   10.643730
  C    -12.243020   -6.447580   13.425560
  C    -11.573700   -5.256010   13.729560
  S    -10.923280   -4.279760   12.435100
  C    -10.274610   -3.131140   13.506610
  C    -10.533530   -3.446990   14.821540
  C    -11.287220   -4.659810   14.980360
  C    -11.618560   -5.041940   16.307890
  C    -12.433040   -6.255180   16.638280
  F    -11.839740   -7.416540   16.284300
  F    -12.678980   -6.379850   17.952620
  F    -13.649480   -6.260430   16.053890
  C    -11.196060   -4.269790   17.364940
  C    -10.445850   -3.097750   17.199040
  C    -10.111400   -2.669870   15.941170
  O     -9.404640   -1.557570   15.638390
  C     -8.960500   -0.739400   16.696360
  H     -7.844200    0.488080   -0.849030
  H     -6.295140    4.502020    1.716370
  H    -10.276570    1.871320   -1.048650
  H     -1.933520    1.195990    1.066080
  H     -0.127470   -3.053490   -1.152170
  H     -1.721320   -5.010760   -0.859680
  H     -3.419090   -4.520130   -0.926000
  H     -2.672660   -4.900440    0.627970
  H     -4.660870   -3.211680    0.724110
  H     -4.022420   -0.936520    2.666320
  H     -6.390690   -2.888880    2.411010
  H     -5.857320   -0.399810    4.102170
  H     -8.166750   -0.528300    4.692500
  H     -6.701330   -3.957160    4.455140
  H     -8.113800   -4.376200    3.484820
  H     -8.144460   -4.647460    5.220480
  H    -10.080440   -1.527270    5.325140
  H     -9.674260   -2.942910    6.315530
  H    -10.729880   -3.165960    3.564870
  H    -11.017120   -4.718490    6.047210
  H    -11.922730   -5.191420    3.154760
  H    -12.909120   -7.203340    3.853220
  H    -13.736370   -8.925810    5.425960
  H    -13.960670   -9.441130    7.933650
  H    -13.891230   -9.406020   10.319770
  H    -13.547930   -8.790660   12.796390
  H    -12.593210   -7.057390   14.238730
  H     -9.736270   -2.281250   13.141820
  H    -11.448480   -4.564650   18.371100
  H    -10.152620   -2.551760   18.080060
  H     -8.425130    0.084180   16.227200
  H     -8.282340   -1.281300   17.362430
  H     -9.801020   -0.344280   17.274840

 Total Charge           Charge          ....    0
 Multiplicity           Mult            ....    1
 Number of Electrons    NEL             ....  512
 Basis Dimension        Dim             .... 1099

ORBITAL ENERGIES
----------------

  NO   OCC          E(Eh)            E(eV)
   0   2.0000    -482.887278    -13140.0309
   1   2.0000     -88.976877     -2421.1839
   2   2.0000     -88.965146     -2420.8647
   3   2.0000     -88.949972     -2420.4518
   4   2.0000     -88.930961     -2419.9345
   5   2.0000     -88.927894     -2419.8510
   6   2.0000     -62.564997     -1702.4801
   7   2.0000     -56.398947     -1534.6934
   8   2.0000     -56.396231     -1534.6195
   9   2.0000     -56.396199     -1534.6186
  10   2.0000     -24.780811      -674.3202
  11   2.0000     -24.778232      -674.2500
  12   2.0000     -24.777966      -674.2427
  13   2.0000     -19.250417      -523.8305
  14   2.0000     -19.214279      -522.8471
  15   2.0000     -14.440754      -392.9529
  16   2.0000     -14.414317      -392.2335
  17   2.0000     -14.414177      -392.2297
  18   2.0000     -10.497144      -285.6418
  19   2.0000     -10.363442      -282.0036
  20   2.0000     -10.360389      -281.9205
  21   2.0000     -10.340626      -281.3827
  22   2.0000     -10.340019      -281.3662
  23   2.0000     -10.334656      -281.2203
  24   2.0000     -10.325893      -280.9818
  25   2.0000     -10.324307      -280.9387
  26   2.0000     -10.323771      -280.9241
  27   2.0000     -10.317395      -280.7506
  28   2.0000     -10.317331      -280.7488
  29   2.0000     -10.316164      -280.7171
  30   2.0000     -10.315074      -280.6874
  31   2.0000     -10.312294      -280.6118
  32   2.0000     -10.308300      -280.5031
  33   2.0000     -10.307910      -280.4925
  34   2.0000     -10.307413      -280.4790
  35   2.0000     -10.305988      -280.4402
  36   2.0000     -10.300829      -280.2998
  37   2.0000     -10.299185      -280.2551
  38   2.0000     -10.298263      -280.2300
  39   2.0000     -10.295632      -280.1584
  40   2.0000     -10.295065      -280.1430
  41   2.0000     -10.291973      -280.0588
  42   2.0000     -10.291614      -280.0491
  43   2.0000     -10.290433      -280.0169
  44   2.0000     -10.287166      -279.9280
  45   2.0000     -10.286614      -279.9130
  46   2.0000     -10.285980      -279.8957
  47   2.0000     -10.282849      -279.8106
  48   2.0000     -10.282102      -279.7902
  49   2.0000     -10.281407      -279.7713
  50   2.0000     -10.279699      -279.7248
  51   2.0000     -10.279317      -279.7144
  52   2.0000     -10.277670      -279.6696
  53   2.0000     -10.277571      -279.6669
  54   2.0000     -10.276940      -279.6498
  55   2.0000     -10.275402      -279.6079
  56   2.0000     -10.274448      -279.5819
  57   2.0000     -10.272886      -279.5394
  58   2.0000     -10.272784      -279.5367
  59   2.0000     -10.270424      -279.4724
  60   2.0000     -10.269716      -279.4532
  61   2.0000     -10.269375      -279.4439
  62   2.0000     -10.265916      -279.3498
  63   2.0000     -10.264778      -279.3188
  64   2.0000     -10.261933      -279.2414
  65   2.0000     -10.259872      -279.1853
  66   2.0000     -10.259222      -279.1676
  67   2.0000     -10.252798      -278.9928
  68   2.0000      -8.794426      -239.3085
  69   2.0000      -8.072704      -219.6694
  70   2.0000      -8.061290      -219.3589
  71   2.0000      -8.045201      -218.9210
  72   2.0000      -8.026752      -218.4190
  73   2.0000      -8.023870      -218.3406
  74   2.0000      -6.630716      -180.4310
  75   2.0000      -6.616164      -180.0350
  76   2.0000      -6.615970      -180.0297
  77   2.0000      -6.042408      -164.4223
  78   2.0000      -6.038125      -164.3057
  79   2.0000      -6.033966      -164.1926
  80   2.0000      -6.030553      -164.0997
  81   2.0000      -6.026308      -163.9842
  82   2.0000      -6.023458      -163.9066
  83   2.0000      -6.014197      -163.6546
  84   2.0000      -6.009804      -163.5351
  85   2.0000      -6.008209      -163.4917
  86   2.0000      -5.996493      -163.1729
  87   2.0000      -5.993633      -163.0950
  88   2.0000      -5.992510      -163.0645
  89   2.0000      -5.989463      -162.9816
  90   2.0000      -5.987756      -162.9351
  91   2.0000      -5.984884      -162.8570
  92   2.0000      -2.746596       -74.7387
  93   2.0000      -2.742490       -74.6269
  94   2.0000      -2.742364       -74.6235
  95   2.0000      -2.730782       -74.3084
  96   2.0000      -2.730775       -74.3082
  97   2.0000      -1.368699       -37.2442
  98   2.0000      -1.270519       -34.5726
  99   2.0000      -1.268437       -34.5159
 100   2.0000      -1.154379       -31.4122
 101   2.0000      -1.127959       -30.6933
 102   2.0000      -1.042088       -28.3567
 103   2.0000      -1.023099       -27.8399
 104   2.0000      -1.013130       -27.5687
 105   2.0000      -0.998678       -27.1754
 106   2.0000      -0.992731       -27.0136
 107   2.0000      -0.988575       -26.9005
 108   2.0000      -0.982525       -26.7359
 109   2.0000      -0.974567       -26.5193
 110   2.0000      -0.953585       -25.9484
 111   2.0000      -0.943218       -25.6663
 112   2.0000      -0.928228       -25.2584
 113   2.0000      -0.923695       -25.1350
 114   2.0000      -0.908659       -24.7259
 115   2.0000      -0.907271       -24.6881
 116   2.0000      -0.904800       -24.6209
 117   2.0000      -0.886860       -24.1327
 118   2.0000      -0.886190       -24.1145
 119   2.0000      -0.877949       -23.8902
 120   2.0000      -0.875301       -23.8182
 121   2.0000      -0.867581       -23.6081
 122   2.0000      -0.855211       -23.2715
 123   2.0000      -0.843236       -22.9456
 124   2.0000      -0.832982       -22.6666
 125   2.0000      -0.829712       -22.5776
 126   2.0000      -0.824577       -22.4379
 127   2.0000      -0.820915       -22.3382
 128   2.0000      -0.811849       -22.0915
 129   2.0000      -0.806093       -21.9349
 130   2.0000      -0.800244       -21.7757
 131   2.0000      -0.795300       -21.6412
 132   2.0000      -0.790673       -21.5153
 133   2.0000      -0.778352       -21.1800
 134   2.0000      -0.766008       -20.8441
 135   2.0000      -0.760639       -20.6980
 136   2.0000      -0.751997       -20.4629
 137   2.0000      -0.749219       -20.3873
 138   2.0000      -0.743840       -20.2409
 139   2.0000      -0.718244       -19.5444
 140   2.0000      -0.713034       -19.4026
 141   2.0000      -0.700209       -19.0537
 142   2.0000      -0.693384       -18.8679
 143   2.0000      -0.691851       -18.8262
 144   2.0000      -0.686900       -18.6915
 145   2.0000      -0.678906       -18.4740
 146   2.0000      -0.674652       -18.3582
 147   2.0000      -0.666347       -18.1322
 148   2.0000      -0.660654       -17.9773
 149   2.0000      -0.658911       -17.9299
 150   2.0000      -0.656668       -17.8688
 151   2.0000      -0.651171       -17.7193
 152   2.0000      -0.646009       -17.5788
 153   2.0000      -0.642029       -17.4705
 154   2.0000      -0.632236       -17.2040
 155   2.0000      -0.628256       -17.0957
 156   2.0000      -0.623099       -16.9554
 157   2.0000      -0.617272       -16.7968
 158   2.0000      -0.613855       -16.7038
 159   2.0000      -0.609517       -16.5858
 160   2.0000      -0.607196       -16.5226
 161   2.0000      -0.597781       -16.2664
 162   2.0000      -0.595837       -16.2136
 163   2.0000      -0.588149       -16.0044
 164   2.0000      -0.583057       -15.8658
 165   2.0000      -0.579709       -15.7747
 166   2.0000      -0.578655       -15.7460
 167   2.0000      -0.570803       -15.5323
 168   2.0000      -0.568639       -15.4735
 169   2.0000      -0.556460       -15.1420
 170   2.0000      -0.555847       -15.1254
 171   2.0000      -0.551769       -15.0144
 172   2.0000      -0.546346       -14.8668
 173   2.0000      -0.544853       -14.8262
 174   2.0000      -0.543155       -14.7800
 175   2.0000      -0.541011       -14.7217
 176   2.0000      -0.535457       -14.5705
 177   2.0000      -0.531782       -14.4705
 178   2.0000      -0.530674       -14.4404
 179   2.0000      -0.527233       -14.3467
 180   2.0000      -0.526146       -14.3172
 181   2.0000      -0.520828       -14.1724
 182   2.0000      -0.518343       -14.1048
 183   2.0000      -0.518242       -14.1021
 184   2.0000      -0.513263       -13.9666
 185   2.0000      -0.510719       -13.8974
 186   2.0000      -0.509067       -13.8524
 187   2.0000      -0.507482       -13.8093
 188   2.0000      -0.505095       -13.7443
 189   2.0000      -0.500615       -13.6224
 190   2.0000      -0.495686       -13.4883
 191   2.0000      -0.495515       -13.4837
 192   2.0000      -0.493927       -13.4404
 193   2.0000      -0.493847       -13.4383
 194   2.0000      -0.491320       -13.3695
 195   2.0000      -0.489553       -13.3214
 196   2.0000      -0.486772       -13.2457
 197   2.0000      -0.481369       -13.0987
 198   2.0000      -0.476873       -12.9764
 199   2.0000      -0.476242       -12.9592
 200   2.0000      -0.475981       -12.9521
 201   2.0000      -0.472426       -12.8554
 202   2.0000      -0.471114       -12.8197
 203   2.0000      -0.468556       -12.7501
 204   2.0000      -0.466293       -12.6885
 205   2.0000      -0.466091       -12.6830
 206   2.0000      -0.465053       -12.6547
 207   2.0000      -0.463394       -12.6096
 208   2.0000      -0.460394       -12.5280
 209   2.0000      -0.457452       -12.4479
 210   2.0000      -0.452791       -12.3211
 211   2.0000      -0.450525       -12.2594
 212   2.0000      -0.449899       -12.2424
 213   2.0000      -0.448984       -12.2175
 214   2.0000      -0.448302       -12.1989
 215   2.0000      -0.446883       -12.1603
 216   2.0000      -0.444940       -12.1074
 217   2.0000      -0.442902       -12.0520
 218   2.0000      -0.440921       -11.9981
 219   2.0000      -0.439249       -11.9526
 220   2.0000      -0.434337       -11.8189
 221   2.0000      -0.428438       -11.6584
 222   2.0000      -0.427422       -11.6307
 223   2.0000      -0.425962       -11.5910
 224   2.0000      -0.423357       -11.5201
 225   2.0000      -0.422346       -11.4926
 226   2.0000      -0.418595       -11.3905
 227   2.0000      -0.414465       -11.2782
 228   2.0000      -0.414033       -11.2664
 229   2.0000      -0.409612       -11.1461
 230   2.0000      -0.407530       -11.0895
 231   2.0000      -0.407094       -11.0776
 232   2.0000      -0.405002       -11.0207
 233   2.0000      -0.396319       -10.7844
 234   2.0000      -0.394728       -10.7411
 235   2.0000      -0.389197       -10.5906
 236   2.0000      -0.378249       -10.2927
 237   2.0000      -0.377824       -10.2811
 238   2.0000      -0.376603       -10.2479
 239   2.0000      -0.370870       -10.0919
 240   2.0000      -0.367050        -9.9879
 241   2.0000      -0.347833        -9.4650
 242   2.0000      -0.346185        -9.4202
 243   2.0000      -0.337601        -9.1866
 244   2.0000      -0.322859        -8.7854
 245   2.0000      -0.321908        -8.7596
 246   2.0000      -0.317148        -8.6300
 247   2.0000      -0.316181        -8.6037
 248   2.0000      -0.307335        -8.3630
 249   2.0000      -0.299754        -8.1567
 250   2.0000      -0.296826        -8.0770
 251   2.0000      -0.288566        -7.8523
 252   2.0000      -0.278908        -7.5895
 253   2.0000      -0.262556        -7.1445
 254   2.0000      -0.239987        -6.5304
 255   2.0000      -0.184135        -5.0106
 256   0.0000      -0.093409        -2.5418
 257   0.0000      -0.064652        -1.7593
 258   0.0000      -0.058227        -1.5844
 259   0.0000      -0.024247        -0.6598
 260   0.0000      -0.009652        -0.2626

MULLIKEN ATOMIC CHARGES
-----------------------
   0 C :    0.310596
   1 C :   -0.356218
   2 C :   -0.183118
   3 N :    0.148775
   4 C :   -0.212577
   5 N :    0.164673
   6 C :    0.016914
   7 C :   -0.016192
   8 C :   -0.078993
   9 C :    0.119507
  10 C :   -0.093315
  11 C :   -0.025017
  12 S :    0.184994
  13 C :   -0.124410
  14 C :    0.037200
  15 Br:    0.022449
  16 C :    0.163536
  17 O :   -0.146683
  18 C :   -0.126566
  19 C :    0.016852
  20 C :   -0.188483
  21 S :    0.140159
  22 C :   -0.102601
  23 C :   -0.100502
  24 C :    0.117947
  25 C :    0.184261
  26 C :   -0.021920
  27 C :    0.024788
  28 C :    0.003077
  29 C :   -0.001007
  30 C :    0.003107
  31 C :   -0.218164
  32 C :    0.100139
  33 C :    0.218596
  34 N :   -0.155594
  35 C :    0.055192
  36 C :   -0.043828
  37 C :    0.011915
  38 C :   -0.046740
  39 C :    0.044677
  40 C :    0.007284
  41 C :   -0.027442
  42 S :    0.022731
  43 C :   -0.039529
  44 C :    0.026654
  45 C :    0.025177
  46 C :   -0.049427
  47 S :    0.047037
  48 C :   -0.029044
  49 C :   -0.144356
  50 S :    0.125897
  51 C :   -0.120412
  52 C :    0.027120
  53 C :    0.176525
  54 C :   -0.140980
  55 C :    0.518531
  56 F :   -0.175739
  57 F :   -0.159873
  58 F :   -0.173384
  59 C :   -0.009305
  60 C :   -0.140917
  61 C :    0.248746
  62 O :   -0.300084
  63 C :    0.177680
  64 H :   -0.015836
  65 H :   -0.006812
  66 H :   -0.004799
  67 H :    0.030332
  68 H :    0.027501
  69 H :    0.011023
  70 H :    0.038292
  71 H :    0.033306
  72 H :   -0.015622
  73 H :    0.007990
  74 H :   -0.012597
  75 H :   -0.002486
  76 H :   -0.013959
  77 H :    0.033523
  78 H :    0.030547
  79 H :    0.018986
  80 H :    0.007810
  81 H :    0.034208
  82 H :    0.117105
  83 H :    0.020116
  84 H :   -0.036784
  85 H :   -0.019457
  86 H :   -0.021348
  87 H :   -0.022400
  88 H :   -0.022613
  89 H :   -0.014968
  90 H :   -0.010684
  91 H :    0.017401
  92 H :   -0.008253
  93 H :   -0.033853
  94 H :    0.038799
  95 H :    0.027552
  96 H :    0.027664
Sum of atomic charges:    0.0000000

LOEWDIN ATOMIC CHARGES
----------------------
   0 C :    0.075612
   1 C :   -0.147423
   2 C :   -0.018900
   3 N :   -0.057167
   4 C :   -0.027480
   5 N :   -0.053307
   6 C :   -0.022825
   7 C :   -0.046122
   8 C :    0.017497
   9 C :   -0.033643
  10 C :   -0.146162
  11 C :   -0.010640
  12 S :    0.431113
  13 C :   -0.272093
  14 C :   -0.072292
  15 Br:    0.135340
  16 C :    0.080350
  17 O :   -0.134745
  18 C :   -0.106270
  19 C :    0.052906
  20 C :   -0.182071
  21 S :    0.451774
  22 C :   -0.165719
  23 C :   -0.057017
  24 C :   -0.043409
  25 C :   -0.011078
  26 C :   -0.016842
  27 C :   -0.005163
  28 C :   -0.023007
  29 C :   -0.021446
  30 C :   -0.055432
  31 C :   -0.033438
  32 C :   -0.052744
  33 C :    0.047780
  34 N :    0.009928
  35 C :    0.045424
  36 C :   -0.139701
  37 C :   -0.034780
  38 C :   -0.180543
  39 C :   -0.023725
  40 C :   -0.060746
  41 C :   -0.168211
  42 S :    0.358104
  43 C :   -0.196218
  44 C :   -0.040142
  45 C :   -0.040171
  46 C :   -0.155683
  47 S :    0.351510
  48 C :   -0.088032
  49 C :   -0.175479
  50 S :    0.478791
  51 C :   -0.201765
  52 C :   -0.066631
  53 C :   -0.041235
  54 C :   -0.103088
  55 C :    0.175199
  56 F :   -0.070376
  57 F :   -0.059081
  58 F :   -0.067310
  59 C :    0.001036
  60 C :   -0.105718
  61 C :    0.078666
  62 O :   -0.089301
  63 C :    0.079716
  64 H :    0.038910
  65 H :    0.040718
  66 H :    0.037934
  67 H :    0.045070
  68 H :    0.026858
  69 H :    0.034243
  70 H :    0.038825
  71 H :    0.038358
  72 H :    0.029407
  73 H :    0.030421
  74 H :    0.027695
  75 H :    0.029501
  76 H :    0.027736
  77 H :    0.036629
  78 H :    0.035407
  79 H :    0.033245
  80 H :    0.024907
  81 H :    0.037270
  82 H :    0.079082
  83 H :    0.011894
  84 H :    0.020367
  85 H :    0.033768
  86 H :    0.030166
  87 H :    0.028226
  88 H :    0.028863
  89 H :    0.032233
  90 H :    0.028473
  91 H :    0.023866
  92 H :    0.031695
  93 H :    0.026961
  94 H :    0.029412
  95 H :    0.017653
  96 H :    0.017830

  Mayer bond orders larger than 0.100000
B(  0-C ,  1-C ) :   1.6227 B(  0-C ,  6-C ) :   1.0010 B(  0-C , 18-C ) :   1.0749
B(  1-C ,  2-C ) :   1.1441 B(  1-C ,  4-C ) :   1.1495 B(  2-C ,  3-N ) :   2.9699
B(  4-C ,  5-N ) :   2.9927 B(  6-C ,  7-C ) :   1.2742 B(  6-C , 11-C ) :   1.4102
B(  7-C ,  8-C ) :   1.4301 B(  7-C , 16-C ) :   0.9369 B(  8-C ,  9-C ) :   1.2393
B(  8-C , 64-H ) :   1.0169 B(  9-C , 10-C ) :   1.3122 B(  9-C , 14-C ) :   1.1628
B( 10-C , 11-C ) :   1.3261 B( 10-C , 12-S ) :   1.0834 B( 11-C , 65-H ) :   0.9804
B( 12-S , 13-C ) :   1.0879 B( 13-C , 14-C ) :   1.6169 B( 13-C , 15-Br) :   1.0184
B( 14-C , 66-H ) :   0.9999 B( 16-C , 17-O ) :   2.2043 B( 16-C , 18-C ) :   0.9607
B( 18-C , 19-C ) :   1.5764 B( 19-C , 20-C ) :   1.1976 B( 19-C , 67-H ) :   0.9282
B( 20-C , 21-S ) :   1.1110 B( 20-C , 25-C ) :   1.4019 B( 21-S , 22-C ) :   1.1750
B( 22-C , 23-C ) :   1.5559 B( 22-C , 68-H ) :   0.9657 B( 23-C , 24-C ) :   1.0964
B( 23-C , 25-C ) :   1.2624 B( 24-C , 69-H ) :   0.9498 B( 24-C , 70-H ) :   0.9434
B( 24-C , 71-H ) :   0.9423 B( 25-C , 26-C ) :   1.0848 B( 26-C , 27-C ) :   1.7142
B( 26-C , 72-H ) :   0.9492 B( 27-C , 28-C ) :   1.1257 B( 27-C , 73-H ) :   0.9740
B( 28-C , 29-C ) :   1.7077 B( 28-C , 74-H ) :   0.9843 B( 29-C , 30-C ) :   1.0686
B( 29-C , 75-H ) :   0.9606 B( 30-C , 31-C ) :   1.8352 B( 30-C , 76-H ) :   0.9471
B( 31-C , 32-C ) :   1.0726 B( 31-C , 33-C ) :   1.0469 B( 32-C , 77-H ) :   0.9441
B( 32-C , 78-H ) :   0.9409 B( 32-C , 79-H ) :   0.9443 B( 33-C , 34-N ) :   0.9959
B( 33-C , 80-H ) :   0.9392 B( 33-C , 81-H ) :   0.9276 B( 34-N , 35-C ) :   1.2462
B( 34-N , 82-H ) :   0.9427 B( 35-C , 36-C ) :   1.5589 B( 35-C , 83-H ) :   0.9456
B( 36-C , 37-C ) :   1.2298 B( 36-C , 84-H ) :   0.9606 B( 37-C , 38-C ) :   1.5782
B( 37-C , 85-H ) :   0.9588 B( 38-C , 39-C ) :   1.1597 B( 38-C , 42-S ) :   1.0087
B( 39-C , 40-C ) :   1.5788 B( 39-C , 86-H ) :   0.9969 B( 40-C , 41-C ) :   1.1942
B( 40-C , 87-H ) :   0.9923 B( 41-C , 42-S ) :   1.0434 B( 41-C , 43-C ) :   1.5054
B( 43-C , 44-C ) :   1.1945 B( 43-C , 47-S ) :   1.0211 B( 44-C , 45-C ) :   1.5775
B( 44-C , 88-H ) :   0.9919 B( 45-C , 46-C ) :   1.1582 B( 45-C , 89-H ) :   0.9997
B( 46-C , 47-S ) :   1.0335 B( 46-C , 48-C ) :   1.5571 B( 48-C , 49-C ) :   1.2067
B( 48-C , 90-H ) :   0.9449 B( 49-C , 50-S ) :   1.1369 B( 49-C , 53-C ) :   1.3396
B( 50-S , 51-C ) :   1.1827 B( 51-C , 52-C ) :   1.4316 B( 51-C , 91-H ) :   0.9697
B( 52-C , 53-C ) :   1.2346 B( 52-C , 61-C ) :   1.1606 B( 53-C , 54-C ) :   1.1863
B( 54-C , 55-C ) :   0.9587 B( 54-C , 59-C ) :   1.5596 B( 55-C , 56-F ) :   1.1157
B( 55-C , 57-F ) :   1.1553 B( 55-C , 58-F ) :   1.1328 B( 59-C , 60-C ) :   1.1798
B( 59-C , 92-H ) :   0.9878 B( 60-C , 61-C ) :   1.4366 B( 60-C , 93-H ) :   1.0023
B( 61-C , 62-O ) :   1.2187 B( 62-O , 63-C ) :   0.9575 B( 63-C , 94-H ) :   0.9796
B( 63-C , 95-H ) :   0.9697 B( 63-C , 96-H ) :   0.9697

-----------------------------------------------------------------------------
         ABSORPTION SPECTRUM VIA TRANSITION ELECTRIC DIPOLE MOMENTS
-----------------------------------------------------------------------------
State   Energy  Wavelength   fosc         T2         TX        TY        TZ
        (cm-1)    (nm)                  (au**2)     (au)      (au)      (au)
-----------------------------------------------------------------------------
   0   11570.2    864.3   0.041223315   1.17295   0.38525   0.35569  -0.94764
   1   14200.0    704.2   1.067176311  24.74133  -0.23368  -0.49404  -4.94395
   2   17547.1    569.9   0.020702524   0.38841   0.38111   0.49168   0.03759
   3   18465.0    541.6   0.241149247   4.29944  -0.27327  -1.99992   0.47442
   4   22253.9    449.4   0.035706969   0.52823   0.12776   0.16493  -0.69621
   5   23672.3    422.4   0.111225709   1.54682  -1.06453   0.49526   0.41027
   6   24073.5    415.4   0.088633957   1.21209   0.12579   1.06943  -0.22933
   7   24257.3    412.2   0.184348273   2.50191  -0.69707   0.83811   1.14611
   8   24825.6    402.8   0.099008738   1.31295  -0.89550  -0.69982   0.14590
   9   25510.4    392.0   0.523188213   6.75175   1.21216   2.20043  -0.66370
  10   27443.5    364.4   0.261901668   3.14177  -1.56504   0.65510  -0.51308
  11   27865.7    358.9   0.115564171   1.36530  -0.18232   0.99278   0.58860
  12   29232.1    342.1   0.119547117   1.34634   0.78294   0.85039   0.10095
  13   29625.9    337.5   0.061602344   0.68454   0.18441  -0.79804   0.11689
  14   29778.0    335.8   0.009879910   0.10923   0.32126  -0.07230   0.02818
  15   29911.0    334.3   0.060084769   0.66132   0.80675  -0.07223   0.07246
  16   30324.7    329.8   0.175587399   1.90622  -1.35648   0.23247  -0.11018
  17   30436.6    328.6   0.055677031   0.60222  -0.14735  -0.73449   0.20256
  18   32313.1    309.5   0.100265321   1.02152  -0.85678  -0.30890  -0.43822
  19   32619.6    306.6   0.261017325   2.63431   1.37125  -0.06723   0.86571
  20   32917.2    303.8   0.282224524   2.82259   1.26866   0.83229   0.72138
  21   33306.5    300.2   0.011895601   0.11758   0.06186  -0.13824  -0.30764
  22   33605.8    297.6   0.062986404   0.61703   0.73093   0.26214  -0.11856
  23   34025.2    293.9   0.039523929   0.38241   0.58331   0.02874  -0.20332
  24   34708.3    288.1   0.104242889   0.98875  -0.70455   0.55897   0.42416
  25   35273.9    283.5   0.331854003   3.09720  -1.71839  -0.24353   0.29162
  26   35690.7    280.2   0.407504315   3.75883  -1.71362   0.42390   0.80166
  27   35707.1    280.1   0.048500695   0.44717   0.63064  -0.03074  -0.22026
  28   36098.3    277.0   0.007229710   0.06593   0.05139   0.15748  -0.19620
  29   36554.0    273.6   0.198872494   1.79108   0.32709  -1.14408  -0.61251
  30   37216.3    268.7   0.035122328   0.31069  -0.49602  -0.25427  -0.00162
  31   37980.3    263.3   0.000030607   0.00027  -0.00017   0.00615  -0.01508
  32   38330.8    260.9   0.004717039   0.04051   0.03656   0.01155  -0.19759
  33   38450.1    260.1   0.007656414   0.06555  -0.03094  -0.16159   0.19618
  34   38636.5    258.8   0.027757681   0.23652  -0.03480   0.20926   0.43763
  35   38732.1    258.2   0.018687960   0.15884  -0.28818  -0.25184  -0.11121
  36   38907.9    257.0   0.009707590   0.08214  -0.18968   0.03600   0.21181
  37   39862.4    250.9   0.023080266   0.19061  -0.04828   0.20042   0.38486
  38   40103.6    249.4   0.000050659   0.00042   0.00646  -0.00205  -0.01923

FINAL SINGLE POINT ENERGY     -7100.438937705760

DIPOLE MOMENT
-------------
                                X             Y             Z
Electronic contribution:    -51.86711      87.83982     -38.36486
Nuclear contribution   :     52.04080     -88.29136      35.52507
                        -----------------------------------------
Total Dipole Moment    :      0.17369      -0.45154      -2.83979
                        -----------------------------------------
Magnitude (a.u.)       :      2.88070
Magnitude (Debye)      :      7.32217

Rotational constants in cm-1:     0.000995     0.000267     0.000263
Rotational constants in MHz :    29.828077     8.004401     7.884561

                             ****ORCA TERMINATED NORMALLY****
TOTAL RUN TIME: 0 days 0 hours 8 minutes 13 seconds 890 msec
