                         Program Version 4.2.0 -  RELEASE  -
|  1> # ORCA input file
|  2> # SCF done       -176.972507120683          0.000316711266
|  3> ! CAM-B3LYP def2-SVP def2/J RIJCOSX Grid4 TightSCF
|  4> %maxcore 5000
|  5> %tddft
|  6>     Mode sTDDFT
|  7>     Ethresh 5.0
|  8>     maxcore 5000
|  9> end
| 10>
| 11> %pal
| 12>   nprocs 6
| 13>   end
| 14> * xyz 0 1
| 15>    C       -5.46095        -0.40865         4.02528
| 16>    C       -6.03332         0.02830         5.19626
| 17>    C       -5.88216        -0.61742         6.43824
| 18>    N       -5.78399        -1.09604         7.47792
| 19>    C       -6.87130         1.15651         5.29871
| 20>    N       -7.57735         2.04997         5.45195
| 21>    C       -4.67990        -1.62994         3.85902
| 22>    C       -4.37593        -1.78458         2.48459
| 23>    C       -3.64160        -2.83989         2.00417
| 24>    C       -3.18608        -3.79042         2.92545
| 25>    C       -3.49430        -3.62657         4.29565
| 26>    C       -4.23846        -2.55762         4.78194
| 27>    S       -2.82465        -4.90849         5.25955
| 28>    C       -2.14956        -5.63715         3.82676
| 29>    C       -2.41136        -4.95847         2.68499
| 30>   Br       -1.15876        -7.22335         3.97483
| 31>    C       -4.94562        -0.65087         1.72377
| 32>    O       -4.80746        -0.43991         0.53440
| 33>    C       -5.59931         0.20719         2.73005
| 34>    C       -6.01569         1.50181         2.49884
| 35>    C       -6.33447         2.07335         1.26553
| 36>    S       -6.11200         3.79266         1.06558
| 37>    C       -6.59409         3.76797        -0.59496
| 38>    C       -6.99292         2.46267        -0.96990
| 39>    C       -6.86366         1.51350         0.08331
| 40>    C       -7.34041         0.20505        -0.09487
| 41>    C       -7.82980        -0.15727        -1.31972
| 42>    F       -8.29475        -1.40062        -1.51126
| 43>    C       -7.87867         0.76033        -2.38818
| 44>    F       -8.35449         0.35717        -3.57773
| 45>    C       -7.48738         2.06036        -2.22028
| 46>    C       -6.57904         4.91875        -1.39754
| 47>    C       -6.09913         6.12808        -0.97861
| 48>    C       -6.09021         7.31535        -1.72985
| 49>    S       -5.28105         8.73230        -1.04870
| 50>    C       -5.69716         9.65740        -2.43168
| 51>    N       -5.45311        10.91886        -2.73980
| 52>    C       -5.97902        11.24140        -3.90239
| 53>    S       -6.84515         9.90365        -4.71207
| 54>    C       -6.43694         8.89692        -3.36491
| 55>    C       -6.64876         7.58562        -2.97421
| 56>    C       -5.86883        12.51281        -4.45472
| 57>    C       -5.13681        13.49244        -3.81162
| 58>    C       -4.93317        14.82855        -4.22364
| 59>    C       -4.13559        15.55058        -3.38321
| 60>    C       -3.67125        14.81020        -2.27751
| 61>    S       -4.29902        13.16946        -2.32149
| 62>    C       -2.82451        15.21576        -1.26200
| 63>    C       -2.28963        16.50416        -1.02187
| 64>    C       -1.46995        16.55448         0.06006
| 65>    C       -1.30624        15.31310         0.74205
| 66>    S       -2.26815        14.08473        -0.05743
| 67>    C       -0.44154        15.14167         1.78592
| 68>    C       -0.05036        13.99357         2.53587
| 69>    C       -0.75637        12.78598         2.65957
| 70>    O       -1.98792        12.80546         2.11248
| 71>    C       -2.83639        11.68077         2.00638
| 72>    C       -0.19499        11.67772         3.38200
| 73>    O       -0.94000        10.53698         3.40717
| 74>    C       -0.44303         9.41251         4.09430
| 75>    C        1.02252        11.77681         4.01182
| 76>    C        1.72267        12.98999         3.96109
| 77>    C        1.18731        14.10089         3.23240
| 78>    N        1.98248        15.16402         3.28523
| 79>    S        3.27685        14.79687         4.17834
| 80>    N        2.89208        13.27261         4.53023
| 81>    H       -3.42459        -2.93121         0.95149
| 82>    H       -4.44301        -2.47178         5.83614
| 83>    H       -2.07190        -5.26552         1.71260
| 84>    H       -6.02994         2.18169         3.34321
| 85>    H       -7.34757        -0.50541         0.71351
| 86>    H       -7.57247         2.75030        -3.04347
| 87>    H       -6.96228         4.81639        -2.40156
| 88>    H       -5.67588         6.19296         0.01569
| 89>    H       -7.19305         6.86164        -3.55081
| 90>    H       -6.35492        12.72720        -5.39287
| 91>    H       -5.37825        15.21255        -5.12454
| 92>    H       -3.86713        16.57995        -3.54179
| 93>    H       -2.53295        17.34900        -1.64090
| 94>    H       -0.96644        17.44200         0.40111
| 95>    H        0.13741        16.02026         2.04849
| 96>    H       -3.15869        11.32803         2.98673
| 97>    H       -2.36314        10.86512         1.45900
| 98>    H       -3.69754        12.03803         1.44176
| 99>    H       -1.20306         8.64268         3.97138
|100>    H       -0.30544         9.62116         5.15924
|101>    H        0.50026         9.06396         3.66385
|102>    H        1.45624        10.95771         4.55773
|103> *
|104>
|105>                          ****END OF INPUT****

CARTESIAN COORDINATES (ANGSTROEM)
---------------------------------
  C     -5.460950   -0.408650    4.025280
  C     -6.033320    0.028300    5.196260
  C     -5.882160   -0.617420    6.438240
  N     -5.783990   -1.096040    7.477920
  C     -6.871300    1.156510    5.298710
  N     -7.577350    2.049970    5.451950
  C     -4.679900   -1.629940    3.859020
  C     -4.375930   -1.784580    2.484590
  C     -3.641600   -2.839890    2.004170
  C     -3.186080   -3.790420    2.925450
  C     -3.494300   -3.626570    4.295650
  C     -4.238460   -2.557620    4.781940
  S     -2.824650   -4.908490    5.259550
  C     -2.149560   -5.637150    3.826760
  C     -2.411360   -4.958470    2.684990
  Br    -1.158760   -7.223350    3.974830
  C     -4.945620   -0.650870    1.723770
  O     -4.807460   -0.439910    0.534400
  C     -5.599310    0.207190    2.730050
  C     -6.015690    1.501810    2.498840
  C     -6.334470    2.073350    1.265530
  S     -6.112000    3.792660    1.065580
  C     -6.594090    3.767970   -0.594960
  C     -6.992920    2.462670   -0.969900
  C     -6.863660    1.513500    0.083310
  C     -7.340410    0.205050   -0.094870
  C     -7.829800   -0.157270   -1.319720
  F     -8.294750   -1.400620   -1.511260
  C     -7.878670    0.760330   -2.388180
  F     -8.354490    0.357170   -3.577730
  C     -7.487380    2.060360   -2.220280
  C     -6.579040    4.918750   -1.397540
  C     -6.099130    6.128080   -0.978610
  C     -6.090210    7.315350   -1.729850
  S     -5.281050    8.732300   -1.048700
  C     -5.697160    9.657400   -2.431680
  N     -5.453110   10.918860   -2.739800
  C     -5.979020   11.241400   -3.902390
  S     -6.845150    9.903650   -4.712070
  C     -6.436940    8.896920   -3.364910
  C     -6.648760    7.585620   -2.974210
  C     -5.868830   12.512810   -4.454720
  C     -5.136810   13.492440   -3.811620
  C     -4.933170   14.828550   -4.223640
  C     -4.135590   15.550580   -3.383210
  C     -3.671250   14.810200   -2.277510
  S     -4.299020   13.169460   -2.321490
  C     -2.824510   15.215760   -1.262000
  C     -2.289630   16.504160   -1.021870
  C     -1.469950   16.554480    0.060060
  C     -1.306240   15.313100    0.742050
  S     -2.268150   14.084730   -0.057430
  C     -0.441540   15.141670    1.785920
  C     -0.050360   13.993570    2.535870
  C     -0.756370   12.785980    2.659570
  O     -1.987920   12.805460    2.112480
  C     -2.836390   11.680770    2.006380
  C     -0.194990   11.677720    3.382000
  O     -0.940000   10.536980    3.407170
  C     -0.443030    9.412510    4.094300
  C      1.022520   11.776810    4.011820
  C      1.722670   12.989990    3.961090
  C      1.187310   14.100890    3.232400
  N      1.982480   15.164020    3.285230
  S      3.276850   14.796870    4.178340
  N      2.892080   13.272610    4.530230
  H     -3.424590   -2.931210    0.951490
  H     -4.443010   -2.471780    5.836140
  H     -2.071900   -5.265520    1.712600
  H     -6.029940    2.181690    3.343210
  H     -7.347570   -0.505410    0.713510
  H     -7.572470    2.750300   -3.043470
  H     -6.962280    4.816390   -2.401560
  H     -5.675880    6.192960    0.015690
  H     -7.193050    6.861640   -3.550810
  H     -6.354920   12.727200   -5.392870
  H     -5.378250   15.212550   -5.124540
  H     -3.867130   16.579950   -3.541790
  H     -2.532950   17.349000   -1.640900
  H     -0.966440   17.442000    0.401110
  H      0.137410   16.020260    2.048490
  H     -3.158690   11.328030    2.986730
  H     -2.363140   10.865120    1.459000
  H     -3.697540   12.038030    1.441760
  H     -1.203060    8.642680    3.971380
  H     -0.305440    9.621160    5.159240
  H      0.500260    9.063960    3.663850
  H      1.456240   10.957710    4.557730

 Total Charge           Charge          ....    0
 Multiplicity           Mult            ....    1
 Number of Electrons    NEL             ....  534
 Basis Dimension        Dim             .... 1080

ORBITAL ENERGIES
----------------

  NO   OCC          E(Eh)            E(eV)
   0   2.0000    -482.878007    -13139.7786
   1   2.0000     -89.013704     -2422.1860
   2   2.0000     -88.973412     -2421.0896
   3   2.0000     -88.967214     -2420.9210
   4   2.0000     -88.966092     -2420.8905
   5   2.0000     -88.962775     -2420.8002
   6   2.0000     -88.948224     -2420.4042
   7   2.0000     -88.944592     -2420.3054
   8   2.0000     -62.555733     -1702.2280
   9   2.0000     -56.389673     -1534.4410
  10   2.0000     -56.386977     -1534.3676
  11   2.0000     -56.386940     -1534.3666
  12   2.0000     -24.786395      -674.4721
  13   2.0000     -24.786110      -674.4643
  14   2.0000     -19.268942      -524.3346
  15   2.0000     -19.267816      -524.3039
  16   2.0000     -19.199925      -522.4565
  17   2.0000     -14.431798      -392.7092
  18   2.0000     -14.430976      -392.6868
  19   2.0000     -14.414029      -392.2257
  20   2.0000     -14.401289      -391.8790
  21   2.0000     -14.400796      -391.8656
  22   2.0000     -10.369269      -282.1622
  23   2.0000     -10.367628      -282.1175
  24   2.0000     -10.363848      -282.0146
  25   2.0000     -10.362769      -281.9853
  26   2.0000     -10.351034      -281.6660
  27   2.0000     -10.349589      -281.6266
  28   2.0000     -10.343629      -281.4645
  29   2.0000     -10.340181      -281.3706
  30   2.0000     -10.337432      -281.2958
  31   2.0000     -10.332686      -281.1667
  32   2.0000     -10.325865      -280.9811
  33   2.0000     -10.324789      -280.9518
  34   2.0000     -10.324089      -280.9328
  35   2.0000     -10.319529      -280.8087
  36   2.0000     -10.319028      -280.7950
  37   2.0000     -10.317771      -280.7608
  38   2.0000     -10.315774      -280.7065
  39   2.0000     -10.314356      -280.6679
  40   2.0000     -10.314133      -280.6618
  41   2.0000     -10.311533      -280.5911
  42   2.0000     -10.309236      -280.5286
  43   2.0000     -10.308458      -280.5074
  44   2.0000     -10.308142      -280.4988
  45   2.0000     -10.306419      -280.4519
  46   2.0000     -10.305159      -280.4176
  47   2.0000     -10.304815      -280.4083
  48   2.0000     -10.300342      -280.2866
  49   2.0000     -10.298965      -280.2491
  50   2.0000     -10.298909      -280.2476
  51   2.0000     -10.298077      -280.2249
  52   2.0000     -10.296539      -280.1831
  53   2.0000     -10.295475      -280.1541
  54   2.0000     -10.295183      -280.1462
  55   2.0000     -10.294566      -280.1294
  56   2.0000     -10.294298      -280.1221
  57   2.0000     -10.294007      -280.1142
  58   2.0000     -10.293896      -280.1112
  59   2.0000     -10.291655      -280.0502
  60   2.0000     -10.291403      -280.0433
  61   2.0000     -10.290019      -280.0056
  62   2.0000     -10.289189      -279.9831
  63   2.0000     -10.288005      -279.9508
  64   2.0000     -10.287831      -279.9461
  65   2.0000     -10.287072      -279.9255
  66   2.0000     -10.282439      -279.7994
  67   2.0000     -10.280009      -279.7333
  68   2.0000     -10.279809      -279.7278
  69   2.0000     -10.277347      -279.6608
  70   2.0000      -8.785165      -239.0565
  71   2.0000      -8.105763      -220.5690
  72   2.0000      -8.068917      -219.5664
  73   2.0000      -8.063147      -219.4094
  74   2.0000      -8.062074      -219.3802
  75   2.0000      -8.058498      -219.2829
  76   2.0000      -8.043463      -218.8737
  77   2.0000      -8.039127      -218.7558
  78   2.0000      -6.621428      -180.1782
  79   2.0000      -6.606900      -179.7829
  80   2.0000      -6.606743      -179.7786
  81   2.0000      -6.077101      -165.3663
  82   2.0000      -6.069461      -165.1584
  83   2.0000      -6.067761      -165.1122
  84   2.0000      -6.037951      -164.3010
  85   2.0000      -6.033975      -164.1928
  86   2.0000      -6.032373      -164.1492
  87   2.0000      -6.031755      -164.1324
  88   2.0000      -6.031364      -164.1218
  89   2.0000      -6.028669      -164.0484
  90   2.0000      -6.027966      -164.0293
  91   2.0000      -6.027513      -164.0170
  92   2.0000      -6.024845      -163.9444
  93   2.0000      -6.024262      -163.9285
  94   2.0000      -6.023295      -163.9022
  95   2.0000      -6.019731      -163.8052
  96   2.0000      -6.013285      -163.6298
  97   2.0000      -6.008965      -163.5123
  98   2.0000      -6.008939      -163.5115
  99   2.0000      -6.004508      -163.3910
 100   2.0000      -6.004453      -163.3895
 101   2.0000      -6.000372      -163.2784
 102   2.0000      -2.737287       -74.4854
 103   2.0000      -2.733238       -74.3752
 104   2.0000      -2.733104       -74.3715
 105   2.0000      -2.721564       -74.0575
 106   2.0000      -2.721547       -74.0571
 107   2.0000      -1.308412       -35.6037
 108   2.0000      -1.293475       -35.1972
 109   2.0000      -1.182856       -32.1871
 110   2.0000      -1.161265       -31.5996
 111   2.0000      -1.116526       -30.3822
 112   2.0000      -1.114660       -30.3314
 113   2.0000      -1.076933       -29.3048
 114   2.0000      -1.011702       -27.5298
 115   2.0000      -1.010184       -27.4885
 116   2.0000      -1.000370       -27.2215
 117   2.0000      -0.997706       -27.1490
 118   2.0000      -0.984500       -26.7896
 119   2.0000      -0.980163       -26.6716
 120   2.0000      -0.976623       -26.5753
 121   2.0000      -0.975355       -26.5408
 122   2.0000      -0.971273       -26.4297
 123   2.0000      -0.958904       -26.0931
 124   2.0000      -0.948138       -25.8002
 125   2.0000      -0.933195       -25.3935
 126   2.0000      -0.918724       -24.9998
 127   2.0000      -0.904533       -24.6136
 128   2.0000      -0.899957       -24.4891
 129   2.0000      -0.896860       -24.4048
 130   2.0000      -0.889345       -24.2003
 131   2.0000      -0.878866       -23.9152
 132   2.0000      -0.874611       -23.7994
 133   2.0000      -0.868621       -23.6364
 134   2.0000      -0.868093       -23.6220
 135   2.0000      -0.855738       -23.2858
 136   2.0000      -0.846863       -23.0443
 137   2.0000      -0.843608       -22.9558
 138   2.0000      -0.838433       -22.8149
 139   2.0000      -0.828178       -22.5359
 140   2.0000      -0.823456       -22.4074
 141   2.0000      -0.821414       -22.3518
 142   2.0000      -0.818112       -22.2620
 143   2.0000      -0.813793       -22.1444
 144   2.0000      -0.802450       -21.8358
 145   2.0000      -0.790045       -21.4982
 146   2.0000      -0.777100       -21.1460
 147   2.0000      -0.759044       -20.6546
 148   2.0000      -0.746022       -20.3003
 149   2.0000      -0.741887       -20.1878
 150   2.0000      -0.738012       -20.0823
 151   2.0000      -0.724337       -19.7102
 152   2.0000      -0.711252       -19.3542
 153   2.0000      -0.705474       -19.1969
 154   2.0000      -0.698075       -18.9956
 155   2.0000      -0.689901       -18.7732
 156   2.0000      -0.680505       -18.5175
 157   2.0000      -0.678849       -18.4724
 158   2.0000      -0.675249       -18.3745
 159   2.0000      -0.670031       -18.2325
 160   2.0000      -0.667203       -18.1555
 161   2.0000      -0.657077       -17.8800
 162   2.0000      -0.653699       -17.7881
 163   2.0000      -0.647291       -17.6137
 164   2.0000      -0.643345       -17.5063
 165   2.0000      -0.636725       -17.3262
 166   2.0000      -0.631894       -17.1947
 167   2.0000      -0.623851       -16.9758
 168   2.0000      -0.622715       -16.9449
 169   2.0000      -0.621163       -16.9027
 170   2.0000      -0.616409       -16.7733
 171   2.0000      -0.615189       -16.7401
 172   2.0000      -0.611912       -16.6510
 173   2.0000      -0.608018       -16.5450
 174   2.0000      -0.594246       -16.1703
 175   2.0000      -0.592547       -16.1240
 176   2.0000      -0.588236       -16.0067
 177   2.0000      -0.583254       -15.8711
 178   2.0000      -0.582200       -15.8425
 179   2.0000      -0.574229       -15.6256
 180   2.0000      -0.570280       -15.5181
 181   2.0000      -0.563129       -15.3235
 182   2.0000      -0.560554       -15.2535
 183   2.0000      -0.556492       -15.1429
 184   2.0000      -0.553967       -15.0742
 185   2.0000      -0.549384       -14.9495
 186   2.0000      -0.545507       -14.8440
 187   2.0000      -0.543550       -14.7907
 188   2.0000      -0.541401       -14.7323
 189   2.0000      -0.538285       -14.6475
 190   2.0000      -0.537242       -14.6191
 191   2.0000      -0.535263       -14.5653
 192   2.0000      -0.533538       -14.5183
 193   2.0000      -0.532231       -14.4827
 194   2.0000      -0.526412       -14.3244
 195   2.0000      -0.524881       -14.2827
 196   2.0000      -0.523464       -14.2442
 197   2.0000      -0.519699       -14.1417
 198   2.0000      -0.516521       -14.0552
 199   2.0000      -0.513272       -13.9669
 200   2.0000      -0.509081       -13.8528
 201   2.0000      -0.505672       -13.7600
 202   2.0000      -0.502020       -13.6607
 203   2.0000      -0.498789       -13.5727
 204   2.0000      -0.497197       -13.5294
 205   2.0000      -0.496324       -13.5057
 206   2.0000      -0.495539       -13.4843
 207   2.0000      -0.491972       -13.3872
 208   2.0000      -0.488619       -13.2960
 209   2.0000      -0.486082       -13.2270
 210   2.0000      -0.482698       -13.1349
 211   2.0000      -0.479682       -13.0528
 212   2.0000      -0.477328       -12.9888
 213   2.0000      -0.476605       -12.9691
 214   2.0000      -0.472546       -12.8586
 215   2.0000      -0.470360       -12.7991
 216   2.0000      -0.466887       -12.7046
 217   2.0000      -0.466433       -12.6923
 218   2.0000      -0.460273       -12.5247
 219   2.0000      -0.458590       -12.4789
 220   2.0000      -0.455250       -12.3880
 221   2.0000      -0.450448       -12.2573
 222   2.0000      -0.448494       -12.2041
 223   2.0000      -0.446808       -12.1583
 224   2.0000      -0.441319       -12.0089
 225   2.0000      -0.439492       -11.9592
 226   2.0000      -0.436244       -11.8708
 227   2.0000      -0.435044       -11.8382
 228   2.0000      -0.434868       -11.8333
 229   2.0000      -0.431220       -11.7341
 230   2.0000      -0.429036       -11.6747
 231   2.0000      -0.428430       -11.6582
 232   2.0000      -0.426581       -11.6078
 233   2.0000      -0.421934       -11.4814
 234   2.0000      -0.420615       -11.4455
 235   2.0000      -0.414479       -11.2786
 236   2.0000      -0.412693       -11.2299
 237   2.0000      -0.411255       -11.1908
 238   2.0000      -0.409405       -11.1405
 239   2.0000      -0.407664       -11.0931
 240   2.0000      -0.398992       -10.8571
 241   2.0000      -0.397287       -10.8107
 242   2.0000      -0.395781       -10.7697
 243   2.0000      -0.394092       -10.7238
 244   2.0000      -0.392539       -10.6815
 245   2.0000      -0.386826       -10.5261
 246   2.0000      -0.382604       -10.4112
 247   2.0000      -0.377226       -10.2649
 248   2.0000      -0.367652       -10.0043
 249   2.0000      -0.364822        -9.9273
 250   2.0000      -0.363319        -9.8864
 251   2.0000      -0.354742        -9.6530
 252   2.0000      -0.340912        -9.2767
 253   2.0000      -0.339546        -9.2395
 254   2.0000      -0.336472        -9.1559
 255   2.0000      -0.328960        -8.9514
 256   2.0000      -0.322511        -8.7760
 257   2.0000      -0.318438        -8.6651
 258   2.0000      -0.312256        -8.4969
 259   2.0000      -0.311234        -8.4691
 260   2.0000      -0.303890        -8.2693
 261   2.0000      -0.301328        -8.1996
 262   2.0000      -0.296935        -8.0800
 263   2.0000      -0.283807        -7.7228
 264   2.0000      -0.276921        -7.5354
 265   2.0000      -0.243135        -6.6160
 266   2.0000      -0.213611        -5.8126
 267   0.0000      -0.104180        -2.8349
 268   0.0000      -0.083544        -2.2733
 269   0.0000      -0.058583        -1.5941
 270   0.0000      -0.046901        -1.2762
 271   0.0000      -0.028879        -0.7858

MULLIKEN ATOMIC CHARGES
-----------------------
   0 C :    0.299398
   1 C :   -0.350438
   2 C :   -0.186773
   3 N :    0.138465
   4 C :   -0.212089
   5 N :    0.151174
   6 C :    0.019771
   7 C :   -0.015155
   8 C :   -0.079156
   9 C :    0.119340
  10 C :   -0.091155
  11 C :   -0.029273
  12 S :    0.179896
  13 C :   -0.124338
  14 C :    0.037196
  15 Br:    0.015415
  16 C :    0.121768
  17 O :   -0.157061
  18 C :   -0.132981
  19 C :    0.012000
  20 C :   -0.133559
  21 S :    0.153550
  22 C :   -0.054530
  23 C :    0.106114
  24 C :    0.163934
  25 C :   -0.064750
  26 C :    0.218887
  27 F :   -0.174264
  28 C :    0.229760
  29 F :   -0.179695
  30 C :   -0.119424
  31 C :   -0.029542
  32 C :    0.071124
  33 C :   -0.105378
  34 S :    0.130991
  35 C :   -0.054895
  36 N :   -0.105622
  37 C :   -0.044491
  38 S :    0.114648
  39 C :   -0.010939
  40 C :   -0.027521
  41 C :   -0.007219
  42 C :   -0.001701
  43 C :    0.023115
  44 C :    0.040888
  45 C :   -0.061728
  46 S :    0.123930
  47 C :   -0.027838
  48 C :    0.025425
  49 C :    0.044607
  50 C :   -0.000354
  51 S :    0.106332
  52 C :   -0.061938
  53 C :    0.017438
  54 C :    0.128834
  55 O :   -0.319549
  56 C :    0.210720
  57 C :    0.227459
  58 O :   -0.329635
  59 C :    0.175613
  60 C :   -0.190871
  61 C :    0.074412
  62 C :   -0.001875
  63 N :   -0.285401
  64 S :    0.481080
  65 N :   -0.266152
  66 H :   -0.014360
  67 H :   -0.008183
  68 H :   -0.006030
  69 H :    0.024131
  70 H :   -0.003159
  71 H :   -0.013195
  72 H :   -0.012352
  73 H :   -0.003635
  74 H :   -0.007296
  75 H :   -0.020071
  76 H :   -0.015041
  77 H :   -0.014254
  78 H :   -0.012570
  79 H :   -0.003974
  80 H :    0.010201
  81 H :    0.029876
  82 H :    0.025249
  83 H :    0.036503
  84 H :    0.044010
  85 H :    0.034465
  86 H :    0.033085
  87 H :   -0.029389
Sum of atomic charges:   -0.0000000

LOEWDIN ATOMIC CHARGES
----------------------
   0 C :    0.074381
   1 C :   -0.155488
   2 C :   -0.019449
   3 N :   -0.065750
   4 C :   -0.025818
   5 N :   -0.064446
   6 C :   -0.020720
   7 C :   -0.047692
   8 C :    0.016253
   9 C :   -0.035302
  10 C :   -0.147066
  11 C :   -0.012803
  12 S :    0.427544
  13 C :   -0.274753
  14 C :   -0.070684
  15 Br:    0.130410
  16 C :    0.069940
  17 O :   -0.152239
  18 C :   -0.125102
  19 C :    0.035068
  20 C :   -0.190570
  21 S :    0.477594
  22 C :   -0.123586
  23 C :   -0.053143
  24 C :   -0.008120
  25 C :   -0.019023
  26 C :    0.074013
  27 F :   -0.051285
  28 C :    0.060057
  29 F :   -0.057548
  30 C :   -0.036511
  31 C :   -0.066980
  32 C :   -0.008416
  33 C :   -0.179206
  34 S :    0.424501
  35 C :   -0.171068
  36 N :   -0.143762
  37 C :   -0.100611
  38 S :    0.379909
  39 C :   -0.224890
  40 C :   -0.045334
  41 C :   -0.126771
  42 C :   -0.109292
  43 C :   -0.053110
  44 C :   -0.015402
  45 C :   -0.209175
  46 S :    0.429805
  47 C :   -0.151809
  48 C :   -0.044166
  49 C :   -0.006984
  50 C :   -0.150801
  51 S :    0.418024
  52 C :   -0.017205
  53 C :   -0.071547
  54 C :    0.058869
  55 O :   -0.086360
  56 C :    0.076619
  57 C :    0.042053
  58 O :   -0.093143
  59 C :    0.080406
  60 C :   -0.075771
  61 C :   -0.058220
  62 C :   -0.045934
  63 N :   -0.295768
  64 S :    0.617655
  65 N :   -0.290318
  66 H :    0.039147
  67 H :    0.040151
  68 H :    0.037641
  69 H :    0.042159
  70 H :    0.043198
  71 H :    0.038977
  72 H :    0.031776
  73 H :    0.025230
  74 H :    0.034047
  75 H :    0.032100
  76 H :    0.031967
  77 H :    0.030622
  78 H :    0.031685
  79 H :    0.036395
  80 H :    0.042943
  81 H :    0.018608
  82 H :    0.017484
  83 H :    0.019521
  84 H :    0.031907
  85 H :    0.020668
  86 H :    0.020418
  87 H :    0.039392

  Mayer bond orders larger than 0.100000
B(  0-C ,  1-C ) :   1.6102 B(  0-C ,  6-C ) :   0.9983 B(  0-C , 18-C ) :   1.1082
B(  1-C ,  2-C ) :   1.1441 B(  1-C ,  4-C ) :   1.1452 B(  2-C ,  3-N ) :   2.9681
B(  4-C ,  5-N ) :   2.9986 B(  6-C ,  7-C ) :   1.2745 B(  6-C , 11-C ) :   1.4175
B(  7-C ,  8-C ) :   1.4354 B(  7-C , 16-C ) :   0.9298 B(  8-C ,  9-C ) :   1.2347
B(  8-C , 66-H ) :   1.0174 B(  9-C , 10-C ) :   1.3175 B(  9-C , 14-C ) :   1.1611
B( 10-C , 11-C ) :   1.3186 B( 10-C , 12-S ) :   1.0819 B( 11-C , 67-H ) :   0.9814
B( 12-S , 13-C ) :   1.0868 B( 13-C , 14-C ) :   1.6194 B( 13-C , 15-Br) :   1.0139
B( 14-C , 68-H ) :   1.0005 B( 16-C , 17-O ) :   2.2006 B( 16-C , 18-C ) :   0.9787
B( 18-C , 19-C ) :   1.4652 B( 19-C , 20-C ) :   1.3104 B( 19-C , 69-H ) :   0.9349
B( 20-C , 21-S ) :   1.0791 B( 20-C , 24-C ) :   1.2837 B( 21-S , 22-C ) :   1.1841
B( 22-C , 23-C ) :   1.2504 B( 22-C , 31-C ) :   1.2447 B( 23-C , 24-C ) :   1.2514
B( 23-C , 30-C ) :   1.1803 B( 24-C , 25-C ) :   1.2006 B( 25-C , 26-C ) :   1.4830
B( 25-C , 30-C ) :   0.1084 B( 25-C , 70-H ) :   0.9868 B( 26-C , 27-F ) :   1.1310
B( 26-C , 28-C ) :   1.1760 B( 28-C , 29-F ) :   1.1266 B( 28-C , 30-C ) :   1.4844
B( 30-C , 71-H ) :   0.9981 B( 31-C , 32-C ) :   1.5788 B( 31-C , 72-H ) :   0.9659
B( 32-C , 33-C ) :   1.2122 B( 32-C , 73-H ) :   0.9550 B( 33-C , 34-S ) :   1.0671
B( 33-C , 40-C ) :   1.4320 B( 34-S , 35-C ) :   1.1208 B( 35-C , 36-N ) :   1.4283
B( 35-C , 39-C ) :   1.3010 B( 36-N , 37-C ) :   1.5320 B( 37-C , 38-S ) :   1.0457
B( 37-C , 41-C ) :   1.2435 B( 38-S , 39-C ) :   1.0516 B( 39-C , 40-C ) :   1.3364
B( 40-C , 74-H ) :   0.9960 B( 41-C , 42-C ) :   1.4931 B( 41-C , 75-H ) :   0.9619
B( 42-C , 43-C ) :   1.1760 B( 42-C , 46-S ) :   1.1122 B( 43-C , 44-C ) :   1.5545
B( 43-C , 76-H ) :   1.0001 B( 44-C , 45-C ) :   1.2111 B( 44-C , 77-H ) :   0.9945
B( 45-C , 46-S ) :   0.9895 B( 45-C , 47-C ) :   1.4922 B( 47-C , 48-C ) :   1.1754
B( 47-C , 51-S ) :   1.0653 B( 48-C , 49-C ) :   1.5959 B( 48-C , 78-H ) :   0.9946
B( 49-C , 50-C ) :   1.1308 B( 49-C , 79-H ) :   0.9999 B( 50-C , 51-S ) :   1.0260
B( 50-C , 52-C ) :   1.5958 B( 52-C , 53-C ) :   1.1455 B( 52-C , 80-H ) :   0.9511
B( 53-C , 54-C ) :   1.4207 B( 53-C , 60-C ) :   0.1082 B( 53-C , 62-C ) :   1.1668
B( 54-C , 55-O ) :   1.1984 B( 54-C , 57-C ) :   1.1468 B( 55-O , 56-C ) :   0.9029
B( 56-C , 81-H ) :   0.9779 B( 56-C , 82-H ) :   0.9759 B( 56-C , 83-H ) :   0.9683
B( 57-C , 58-O ) :   1.1366 B( 57-C , 60-C ) :   1.3951 B( 58-O , 59-C ) :   0.9513
B( 59-C , 84-H ) :   0.9772 B( 59-C , 85-H ) :   0.9687 B( 59-C , 86-H ) :   0.9692
B( 60-C , 61-C ) :   1.1298 B( 60-C , 87-H ) :   1.0388 B( 61-C , 62-C ) :   1.1657
B( 61-C , 65-N ) :   1.5448 B( 62-C , 63-N ) :   1.5742 B( 63-N , 64-S ) :   1.2337
B( 63-N , 65-N ) :   0.1445 B( 64-S , 65-N ) :   1.2520

-----------------------------------------------------------------------------
         ABSORPTION SPECTRUM VIA TRANSITION ELECTRIC DIPOLE MOMENTS
-----------------------------------------------------------------------------
State   Energy  Wavelength   fosc         T2         TX        TY        TZ
        (cm-1)    (nm)                  (au**2)     (au)      (au)      (au)
-----------------------------------------------------------------------------
   0   10451.1    956.8   1.205034542  37.95868  -2.05044  -5.79348   0.43578
   1   15937.4    627.5   1.393024286  28.77505  -2.49942   1.78607  -4.39749
   2   17658.5    566.3   0.192826754   3.59492   0.54971  -1.06145   1.47175
   3   21534.7    464.4   0.115740695   1.76939  -0.06291   1.32139   0.13911
   4   22295.1    448.5   0.032032959   0.47300  -0.51226   0.13712  -0.43794
   5   22995.9    434.9   0.231863119   3.31938  -0.01640  -1.69542   0.66682
   6   24717.4    404.6   0.180146747   2.39938  -0.13494  -1.54219  -0.05301
   7   25695.5    389.2   0.022302596   0.28574   0.52755  -0.08561  -0.01017
   8   26594.4    376.0   0.065974726   0.81670   0.69477  -0.56684  -0.11266
   9   26861.8    372.3   0.073393124   0.89949   0.47967   0.71802  -0.39224
  10   27863.0    358.9   0.011065542   0.13074   0.02827  -0.33521  -0.13259
  11   28409.9    352.0   0.046367163   0.53730   0.23084   0.53669   0.44270
  12   28793.3    347.3   0.031648083   0.36185  -0.58916  -0.11862   0.02584
  13   29231.7    342.1   0.006134937   0.06909  -0.21002   0.01047  -0.15772
  14   29795.9    335.6   0.252428808   2.78906   0.79729  -1.01846   1.05647
  15   30010.0    333.2   0.038295553   0.42010  -0.49736   0.03459  -0.41417
  16   30542.4    327.4   0.025470375   0.27454  -0.07461  -0.49465   0.15586
  17   30900.2    323.6   0.149562708   1.59345  -0.49976  -0.68507  -0.93507
  18   31305.9    319.4   0.015904756   0.16725  -0.38072  -0.06193   0.13590
  19   31460.5    317.9   0.021094357   0.22074   0.43937   0.13791  -0.09312
  20   31829.9    314.2   0.033764461   0.34922  -0.16880  -0.20991   0.52599
  21   32143.3    311.1   0.461398112   4.72564   1.24392  -1.72155  -0.46322
  22   32567.4    307.1   0.044618751   0.45103   0.40015  -0.53827  -0.03439
  23   32916.4    303.8   0.006981390   0.06982   0.10687  -0.24161  -0.00510
  24   33251.4    300.7   0.054814471   0.54270   0.56012  -0.45750   0.14024
  25   33327.0    300.1   0.211516270   2.08941   0.10355  -1.43635  -0.12481
  26   34085.0    293.4   0.131706737   1.27210   1.00669   0.09046   0.50049
  27   34663.3    288.5   0.067751618   0.64347   0.70444   0.18290   0.33732
  28   35126.9    284.7   0.050465872   0.47297  -0.28218  -0.24641  -0.57674
  29   35480.1    281.8   0.045040565   0.41792   0.38223   0.09108  -0.51335
  30   35749.8    279.7   0.012962043   0.11936   0.22718   0.21589   0.14542
  31   36501.3    274.0   0.161953034   1.46068  -0.01055  -0.16464   1.19727
  32   36559.4    273.5   0.047855241   0.43093  -0.28854   0.38151   0.44958
  33   36813.4    271.6   0.073956208   0.66137   0.28991  -0.19354  -0.73475
  34   37083.7    269.7   0.078369539   0.69573  -0.10411  -0.70981  -0.42551
  35   37699.9    265.3   0.064470568   0.56298  -0.49584   0.53441   0.17759
  36   37959.0    263.4   0.043506937   0.37733  -0.06359   0.31055   0.52616
  37   38456.6    260.0   0.009889535   0.08466   0.10096   0.06852   0.26415
  38   38658.6    258.7   0.023856571   0.20316  -0.19212  -0.09841   0.39568
  39   39081.9    255.9   0.238816472   2.01170  -1.03470  -0.77820  -0.57922
  40   39248.9    254.8   0.005099441   0.04277  -0.20307   0.02628   0.02907
  41   39425.5    253.6   0.004287905   0.03580  -0.15760  -0.10468  -0.00330
  42   39706.2    251.8   0.032054980   0.26577   0.01754   0.05779   0.51198
  43   40155.5    249.0   0.061533973   0.50448  -0.00921   0.19212  -0.68373

FINAL SINGLE POINT ENERGY     -7898.640732742951

DIPOLE MOMENT
-------------
                                X             Y             Z
Electronic contribution:     13.06606    -179.38915      27.08757
Nuclear contribution   :    -11.35924     182.85157     -29.40774
                        -----------------------------------------
Total Dipole Moment    :      1.70683       3.46242      -2.32018
                        -----------------------------------------
Magnitude (a.u.)       :      4.50387
Magnitude (Debye)      :     11.44792

Rotational constants in cm-1:     0.000987     0.000258     0.000216
Rotational constants in MHz :    29.588526     7.741870     6.480941

                             ****ORCA TERMINATED NORMALLY****
TOTAL RUN TIME: 0 days 0 hours 8 minutes 19 seconds 871 msec
