                         Program Version 4.2.0 -  RELEASE  -
|  1> # ORCA input file
|  2> # SCF done       -174.364289014362          0.000573747515
|  3> ! CAM-B3LYP def2-SVP def2/J RIJCOSX Grid4 TightSCF
|  4> %maxcore 5000
|  5> %tddft
|  6>     Mode sTDDFT
|  7>     Ethresh 5.0
|  8>     maxcore 5000
|  9> end
| 10>
| 11> %pal
| 12>   nprocs 6
| 13>   end
| 14> * xyz 0 1
| 15>    C       -2.49370         0.15119        -1.00845
| 16>    C       -2.38899        -1.13640        -0.55936
| 17>    C       -1.16533        -1.74507        -0.20495
| 18>    N       -0.20450        -2.28715         0.11075
| 19>    C       -3.45717        -2.05115        -0.42562
| 20>    N       -4.25628        -2.86908        -0.32883
| 21>    C       -1.37541         1.04454        -1.27646
| 22>    C       -1.87921         2.24332        -1.83347
| 23>    C       -1.07738         3.29475        -2.20732
| 24>    C        0.29801         3.15802        -2.01086
| 25>    C        0.79827         1.96265        -1.43984
| 26>    C       -0.01410         0.89749        -1.07324
| 27>    S        2.52150         2.02860        -1.23904
| 28>    C        2.54236         3.63942        -1.90573
| 29>    C        1.32644         4.10023        -2.27949
| 30>   Br        4.15337         4.58650        -2.00049
| 31>    C       -3.34588         2.19001        -1.90127
| 32>    O       -4.05460         3.09846        -2.27762
| 33>    C       -3.72744         0.85713        -1.34299
| 34>    C       -4.97806         0.44366        -0.99701
| 35>    C       -6.18663         1.16682        -1.20269
| 36>    O       -6.28731         2.13000        -2.14475
| 37>    C       -7.32396         1.22763        -0.41376
| 38>    C       -7.98140         0.66132         0.77446
| 39>    O       -7.66715        -0.25038         1.48975
| 40>    N       -9.10897         1.46193         0.93197
| 41>    C       -9.24600         2.50059         0.00956
| 42>    O      -10.12854         3.31493         0.01168
| 43>    C       -8.07967         2.33644        -0.86767
| 44>    C       -7.39345         2.87433        -1.94139
| 45>    C       -7.49186         4.09201        -2.68974
| 46>    C       -6.84587         4.23707        -3.85743
| 47>    C       -6.53049         5.49202        -4.49399
| 48>    C       -6.81904         5.94057        -5.77287
| 49>    N       -7.70136         5.19238        -6.59207
| 50>    O       -8.15545         4.16415        -6.11912
| 51>    O       -7.95322         5.59735        -7.70871
| 52>    C       -6.17356         7.15341        -6.13240
| 53>    C       -6.35599         7.82596        -7.44679
| 54>    C       -5.32509         7.59066        -5.12449
| 55>    S       -5.43572         6.55993        -3.71004
| 56>    C       -4.39356         8.65596        -5.17624
| 57>    C       -3.29816         8.81539        -4.37307
| 58>    C       -2.28866         9.80936        -4.52028
| 59>    C       -1.21767         9.65309        -3.69801
| 60>    C       -1.31569         8.53882        -2.83201
| 61>    S       -2.85020         7.71885        -3.07841
| 62>    C       -0.41567         8.03064        -1.92350
| 63>    C        0.88219         8.48247        -1.58513
| 64>    C        1.49858         7.68857        -0.67344
| 65>    C        0.73040         6.56654        -0.23086
| 66>    S       -0.84477         6.60260        -0.98734
| 67>    C        1.24071         5.59134         0.57702
| 68>    C        0.69673         4.35365         1.03908
| 69>    C        1.57174         3.42296         1.59958
| 70>    C        1.15295         2.17026         2.03794
| 71>    C       -0.16935         1.80691         1.97212
| 72>    C       -1.10721         2.72785         1.47652
| 73>    C       -0.68243         3.99176         0.98171
| 74>    N       -1.59394         4.84077         0.48486
| 75>    C       -2.86804         4.53640         0.52186
| 76>    C       -3.29005         3.30001         1.09249
| 77>    N       -2.42130         2.41601         1.50666
| 78>    C       -4.73952         2.98161         1.24851
| 79>    C       -3.85110         5.48216        -0.07409
| 80>    H       -1.50078         4.19779        -2.61809
| 81>    H        0.41793         0.01187        -0.63924
| 82>    H        1.15604         5.06756        -2.71495
| 83>    H       -5.10074        -0.45397        -0.40549
| 84>    H       -9.77579         1.31225         1.67613
| 85>    H       -8.04451         4.89722        -2.22923
| 86>    H       -6.42991         3.35831        -4.33687
| 87>    H       -5.99981         7.18455        -8.25224
| 88>    H       -5.82448         8.77109        -7.48599
| 89>    H       -7.41444         8.00248        -7.63157
| 90>    H       -4.50811         9.36704        -5.98235
| 91>    H       -2.38439        10.59242        -5.25177
| 92>    H       -0.35531        10.29585        -3.69573
| 93>    H        1.32317         9.36004        -2.02447
| 94>    H        2.49691         7.85051        -0.30528
| 95>    H        2.27188         5.75356         0.87467
| 96>    H        2.61860         3.68004         1.68007
| 97>    H        1.88204         1.48236         2.43890
| 98>    H       -0.51962         0.84931         2.32231
| 99>    H       -5.17350         3.62721         2.01206
|100>    H       -4.85871         1.94690         1.55822
|101>    H       -5.26966         3.16126         0.31670
|102>    H       -4.21978         5.06522        -1.01308
|103>    H       -3.37683         6.43462        -0.28285
|104>    H       -4.69887         5.63060         0.59040
|105> *
|106>
|107>                          ****END OF INPUT****

CARTESIAN COORDINATES (ANGSTROEM)
---------------------------------
  C     -2.493700    0.151190   -1.008450
  C     -2.388990   -1.136400   -0.559360
  C     -1.165330   -1.745070   -0.204950
  N     -0.204500   -2.287150    0.110750
  C     -3.457170   -2.051150   -0.425620
  N     -4.256280   -2.869080   -0.328830
  C     -1.375410    1.044540   -1.276460
  C     -1.879210    2.243320   -1.833470
  C     -1.077380    3.294750   -2.207320
  C      0.298010    3.158020   -2.010860
  C      0.798270    1.962650   -1.439840
  C     -0.014100    0.897490   -1.073240
  S      2.521500    2.028600   -1.239040
  C      2.542360    3.639420   -1.905730
  C      1.326440    4.100230   -2.279490
  Br     4.153370    4.586500   -2.000490
  C     -3.345880    2.190010   -1.901270
  O     -4.054600    3.098460   -2.277620
  C     -3.727440    0.857130   -1.342990
  C     -4.978060    0.443660   -0.997010
  C     -6.186630    1.166820   -1.202690
  O     -6.287310    2.130000   -2.144750
  C     -7.323960    1.227630   -0.413760
  C     -7.981400    0.661320    0.774460
  O     -7.667150   -0.250380    1.489750
  N     -9.108970    1.461930    0.931970
  C     -9.246000    2.500590    0.009560
  O    -10.128540    3.314930    0.011680
  C     -8.079670    2.336440   -0.867670
  C     -7.393450    2.874330   -1.941390
  C     -7.491860    4.092010   -2.689740
  C     -6.845870    4.237070   -3.857430
  C     -6.530490    5.492020   -4.493990
  C     -6.819040    5.940570   -5.772870
  N     -7.701360    5.192380   -6.592070
  O     -8.155450    4.164150   -6.119120
  O     -7.953220    5.597350   -7.708710
  C     -6.173560    7.153410   -6.132400
  C     -6.355990    7.825960   -7.446790
  C     -5.325090    7.590660   -5.124490
  S     -5.435720    6.559930   -3.710040
  C     -4.393560    8.655960   -5.176240
  C     -3.298160    8.815390   -4.373070
  C     -2.288660    9.809360   -4.520280
  C     -1.217670    9.653090   -3.698010
  C     -1.315690    8.538820   -2.832010
  S     -2.850200    7.718850   -3.078410
  C     -0.415670    8.030640   -1.923500
  C      0.882190    8.482470   -1.585130
  C      1.498580    7.688570   -0.673440
  C      0.730400    6.566540   -0.230860
  S     -0.844770    6.602600   -0.987340
  C      1.240710    5.591340    0.577020
  C      0.696730    4.353650    1.039080
  C      1.571740    3.422960    1.599580
  C      1.152950    2.170260    2.037940
  C     -0.169350    1.806910    1.972120
  C     -1.107210    2.727850    1.476520
  C     -0.682430    3.991760    0.981710
  N     -1.593940    4.840770    0.484860
  C     -2.868040    4.536400    0.521860
  C     -3.290050    3.300010    1.092490
  N     -2.421300    2.416010    1.506660
  C     -4.739520    2.981610    1.248510
  C     -3.851100    5.482160   -0.074090
  H     -1.500780    4.197790   -2.618090
  H      0.417930    0.011870   -0.639240
  H      1.156040    5.067560   -2.714950
  H     -5.100740   -0.453970   -0.405490
  H     -9.775790    1.312250    1.676130
  H     -8.044510    4.897220   -2.229230
  H     -6.429910    3.358310   -4.336870
  H     -5.999810    7.184550   -8.252240
  H     -5.824480    8.771090   -7.485990
  H     -7.414440    8.002480   -7.631570
  H     -4.508110    9.367040   -5.982350
  H     -2.384390   10.592420   -5.251770
  H     -0.355310   10.295850   -3.695730
  H      1.323170    9.360040   -2.024470
  H      2.496910    7.850510   -0.305280
  H      2.271880    5.753560    0.874670
  H      2.618600    3.680040    1.680070
  H      1.882040    1.482360    2.438900
  H     -0.519620    0.849310    2.322310
  H     -5.173500    3.627210    2.012060
  H     -4.858710    1.946900    1.558220
  H     -5.269660    3.161260    0.316700
  H     -4.219780    5.065220   -1.013080
  H     -3.376830    6.434620   -0.282850
  H     -4.698870    5.630600    0.590400

 Total Charge           Charge          ....    0
 Multiplicity           Mult            ....    1
 Number of Electrons    NEL             ....  502
 Basis Dimension        Dim             .... 1069

ORBITAL ENERGIES
----------------

  NO   OCC          E(Eh)            E(eV)
   0   2.0000    -482.889958    -13140.1038
   1   2.0000     -88.978636     -2421.2318
   2   2.0000     -88.977227     -2421.1935
   3   2.0000     -88.951164     -2420.4842
   4   2.0000     -88.947263     -2420.3781
   5   2.0000     -62.567554     -1702.5497
   6   2.0000     -56.401477     -1534.7622
   7   2.0000     -56.398821     -1534.6900
   8   2.0000     -56.398762     -1534.6883
   9   2.0000     -19.315604      -525.6043
  10   2.0000     -19.241595      -523.5904
  11   2.0000     -19.239488      -523.5331
  12   2.0000     -19.224199      -523.1170
  13   2.0000     -19.218244      -522.9550
  14   2.0000     -19.215454      -522.8791
  15   2.0000     -14.649343      -398.6289
  16   2.0000     -14.459848      -393.4725
  17   2.0000     -14.425319      -392.5329
  18   2.0000     -14.420245      -392.3948
  19   2.0000     -14.419413      -392.3722
  20   2.0000     -14.417695      -392.3254
  21   2.0000     -10.407318      -283.1975
  22   2.0000     -10.405470      -283.1472
  23   2.0000     -10.377400      -282.3834
  24   2.0000     -10.374114      -282.2940
  25   2.0000     -10.370215      -282.1879
  26   2.0000     -10.358474      -281.8684
  27   2.0000     -10.347439      -281.5681
  28   2.0000     -10.345646      -281.5193
  29   2.0000     -10.331422      -281.1323
  30   2.0000     -10.329231      -281.0727
  31   2.0000     -10.328085      -281.0415
  32   2.0000     -10.326649      -281.0024
  33   2.0000     -10.326641      -281.0022
  34   2.0000     -10.323884      -280.9272
  35   2.0000     -10.321898      -280.8731
  36   2.0000     -10.319420      -280.8057
  37   2.0000     -10.319095      -280.7968
  38   2.0000     -10.317001      -280.7399
  39   2.0000     -10.316830      -280.7352
  40   2.0000     -10.315170      -280.6900
  41   2.0000     -10.313143      -280.6349
  42   2.0000     -10.312333      -280.6128
  43   2.0000     -10.310769      -280.5703
  44   2.0000     -10.310202      -280.5549
  45   2.0000     -10.310069      -280.5512
  46   2.0000     -10.307900      -280.4922
  47   2.0000     -10.307730      -280.4876
  48   2.0000     -10.306947      -280.4663
  49   2.0000     -10.304243      -280.3927
  50   2.0000     -10.302959      -280.3578
  51   2.0000     -10.300034      -280.2782
  52   2.0000     -10.299449      -280.2623
  53   2.0000     -10.298292      -280.2308
  54   2.0000     -10.295715      -280.1607
  55   2.0000     -10.294508      -280.1278
  56   2.0000     -10.294107      -280.1169
  57   2.0000     -10.293320      -280.0955
  58   2.0000     -10.291866      -280.0559
  59   2.0000     -10.291352      -280.0419
  60   2.0000     -10.290757      -280.0257
  61   2.0000     -10.290147      -280.0091
  62   2.0000     -10.288529      -279.9651
  63   2.0000     -10.285173      -279.8738
  64   2.0000     -10.282782      -279.8087
  65   2.0000     -10.279384      -279.7163
  66   2.0000     -10.272591      -279.5314
  67   2.0000     -10.271189      -279.4933
  68   2.0000     -10.264007      -279.2978
  69   2.0000      -8.796967      -239.3777
  70   2.0000      -8.073546      -219.6924
  71   2.0000      -8.072531      -219.6647
  72   2.0000      -8.046940      -218.9684
  73   2.0000      -8.040166      -218.7841
  74   2.0000      -6.633105      -180.4960
  75   2.0000      -6.618845      -180.1079
  76   2.0000      -6.618539      -180.0996
  77   2.0000      -6.042720      -164.4308
  78   2.0000      -6.042271      -164.4186
  79   2.0000      -6.038426      -164.3139
  80   2.0000      -6.038000      -164.3023
  81   2.0000      -6.035983      -164.2474
  82   2.0000      -6.033776      -164.1874
  83   2.0000      -6.016747      -163.7240
  84   2.0000      -6.012574      -163.6105
  85   2.0000      -6.010349      -163.5499
  86   2.0000      -6.007859      -163.4821
  87   2.0000      -6.005657      -163.4222
  88   2.0000      -6.001100      -163.2982
  89   2.0000      -2.748996       -74.8040
  90   2.0000      -2.745061       -74.6969
  91   2.0000      -2.744807       -74.6900
  92   2.0000      -2.733473       -74.3816
  93   2.0000      -2.733455       -74.3811
  94   2.0000      -1.321521       -35.9604
  95   2.0000      -1.241088       -33.7717
  96   2.0000      -1.162063       -31.6214
  97   2.0000      -1.141702       -31.0673
  98   2.0000      -1.140587       -31.0370
  99   2.0000      -1.139094       -30.9963
 100   2.0000      -1.083359       -29.4797
 101   2.0000      -1.048904       -28.5421
 102   2.0000      -1.025662       -27.9097
 103   2.0000      -1.015929       -27.6448
 104   2.0000      -1.014214       -27.5982
 105   2.0000      -1.007937       -27.4274
 106   2.0000      -0.997168       -27.1343
 107   2.0000      -0.996414       -27.1138
 108   2.0000      -0.993331       -27.0299
 109   2.0000      -0.976040       -26.5594
 110   2.0000      -0.958384       -26.0789
 111   2.0000      -0.951346       -25.8874
 112   2.0000      -0.937650       -25.5147
 113   2.0000      -0.931318       -25.3425
 114   2.0000      -0.917884       -24.9769
 115   2.0000      -0.912180       -24.8217
 116   2.0000      -0.909570       -24.7507
 117   2.0000      -0.896626       -24.3984
 118   2.0000      -0.888425       -24.1753
 119   2.0000      -0.887372       -24.1466
 120   2.0000      -0.884490       -24.0682
 121   2.0000      -0.872902       -23.7529
 122   2.0000      -0.863843       -23.5064
 123   2.0000      -0.851565       -23.1723
 124   2.0000      -0.841951       -22.9106
 125   2.0000      -0.834481       -22.7074
 126   2.0000      -0.829479       -22.5713
 127   2.0000      -0.824666       -22.4403
 128   2.0000      -0.815522       -22.1915
 129   2.0000      -0.805918       -21.9301
 130   2.0000      -0.798056       -21.7162
 131   2.0000      -0.788631       -21.4597
 132   2.0000      -0.777833       -21.1659
 133   2.0000      -0.769154       -20.9298
 134   2.0000      -0.763416       -20.7736
 135   2.0000      -0.760798       -20.7024
 136   2.0000      -0.757492       -20.6124
 137   2.0000      -0.741894       -20.1880
 138   2.0000      -0.721353       -19.6290
 139   2.0000      -0.719497       -19.5785
 140   2.0000      -0.716358       -19.4931
 141   2.0000      -0.710457       -19.3325
 142   2.0000      -0.705428       -19.1957
 143   2.0000      -0.692946       -18.8560
 144   2.0000      -0.689880       -18.7726
 145   2.0000      -0.679768       -18.4974
 146   2.0000      -0.675219       -18.3736
 147   2.0000      -0.661562       -18.0020
 148   2.0000      -0.658412       -17.9163
 149   2.0000      -0.646228       -17.5848
 150   2.0000      -0.643551       -17.5119
 151   2.0000      -0.635413       -17.2905
 152   2.0000      -0.631166       -17.1749
 153   2.0000      -0.628758       -17.1094
 154   2.0000      -0.625889       -17.0313
 155   2.0000      -0.624346       -16.9893
 156   2.0000      -0.614259       -16.7148
 157   2.0000      -0.614063       -16.7095
 158   2.0000      -0.610109       -16.6019
 159   2.0000      -0.608412       -16.5557
 160   2.0000      -0.602394       -16.3920
 161   2.0000      -0.600332       -16.3359
 162   2.0000      -0.598039       -16.2735
 163   2.0000      -0.593291       -16.1443
 164   2.0000      -0.581117       -15.8130
 165   2.0000      -0.578730       -15.7481
 166   2.0000      -0.574997       -15.6465
 167   2.0000      -0.569115       -15.4864
 168   2.0000      -0.568077       -15.4582
 169   2.0000      -0.564240       -15.3537
 170   2.0000      -0.558667       -15.2021
 171   2.0000      -0.553953       -15.0738
 172   2.0000      -0.552277       -15.0282
 173   2.0000      -0.548465       -14.9245
 174   2.0000      -0.547255       -14.8916
 175   2.0000      -0.542442       -14.7606
 176   2.0000      -0.533989       -14.5306
 177   2.0000      -0.529534       -14.4094
 178   2.0000      -0.527673       -14.3587
 179   2.0000      -0.526033       -14.3141
 180   2.0000      -0.524531       -14.2732
 181   2.0000      -0.522554       -14.2194
 182   2.0000      -0.520989       -14.1768
 183   2.0000      -0.519756       -14.1433
 184   2.0000      -0.518008       -14.0957
 185   2.0000      -0.513192       -13.9647
 186   2.0000      -0.506868       -13.7926
 187   2.0000      -0.503433       -13.6991
 188   2.0000      -0.502139       -13.6639
 189   2.0000      -0.499570       -13.5940
 190   2.0000      -0.498135       -13.5549
 191   2.0000      -0.496419       -13.5083
 192   2.0000      -0.494589       -13.4584
 193   2.0000      -0.493916       -13.4401
 194   2.0000      -0.492298       -13.3961
 195   2.0000      -0.490251       -13.3404
 196   2.0000      -0.487363       -13.2618
 197   2.0000      -0.486190       -13.2299
 198   2.0000      -0.482700       -13.1349
 199   2.0000      -0.481424       -13.1002
 200   2.0000      -0.480300       -13.0696
 201   2.0000      -0.477438       -12.9918
 202   2.0000      -0.474281       -12.9058
 203   2.0000      -0.470733       -12.8093
 204   2.0000      -0.468976       -12.7615
 205   2.0000      -0.462248       -12.5784
 206   2.0000      -0.458925       -12.4880
 207   2.0000      -0.457589       -12.4516
 208   2.0000      -0.454955       -12.3799
 209   2.0000      -0.451490       -12.2857
 210   2.0000      -0.448832       -12.2134
 211   2.0000      -0.446313       -12.1448
 212   2.0000      -0.445770       -12.1300
 213   2.0000      -0.440736       -11.9930
 214   2.0000      -0.437370       -11.9014
 215   2.0000      -0.433716       -11.8020
 216   2.0000      -0.431116       -11.7313
 217   2.0000      -0.430208       -11.7066
 218   2.0000      -0.428518       -11.6606
 219   2.0000      -0.425995       -11.5919
 220   2.0000      -0.425020       -11.5654
 221   2.0000      -0.419092       -11.4041
 222   2.0000      -0.412002       -11.2111
 223   2.0000      -0.406707       -11.0671
 224   2.0000      -0.403426       -10.9778
 225   2.0000      -0.401011       -10.9121
 226   2.0000      -0.389621       -10.6021
 227   2.0000      -0.385313       -10.4849
 228   2.0000      -0.381296       -10.3756
 229   2.0000      -0.379817       -10.3353
 230   2.0000      -0.378817       -10.3081
 231   2.0000      -0.375720       -10.2239
 232   2.0000      -0.374961       -10.2032
 233   2.0000      -0.367284        -9.9943
 234   2.0000      -0.366531        -9.9738
 235   2.0000      -0.361587        -9.8393
 236   2.0000      -0.357503        -9.7282
 237   2.0000      -0.351344        -9.5606
 238   2.0000      -0.346285        -9.4229
 239   2.0000      -0.343480        -9.3466
 240   2.0000      -0.340155        -9.2561
 241   2.0000      -0.336375        -9.1532
 242   2.0000      -0.329211        -8.9583
 243   2.0000      -0.327020        -8.8987
 244   2.0000      -0.323094        -8.7918
 245   2.0000      -0.308981        -8.4078
 246   2.0000      -0.306866        -8.3503
 247   2.0000      -0.295991        -8.0543
 248   2.0000      -0.290040        -7.8924
 249   2.0000      -0.277864        -7.5611
 250   2.0000      -0.219847        -5.9823
 251   0.0000      -0.101824        -2.7708
 252   0.0000      -0.083224        -2.2646
 253   0.0000      -0.068647        -1.8680
 254   0.0000      -0.054823        -1.4918
 255   0.0000      -0.035820        -0.9747

MULLIKEN ATOMIC CHARGES
-----------------------
   0 C :    0.310767
   1 C :   -0.339221
   2 C :   -0.189295
   3 N :    0.153000
   4 C :   -0.208911
   5 N :    0.176713
   6 C :    0.041839
   7 C :   -0.033389
   8 C :   -0.065493
   9 C :    0.123414
  10 C :   -0.100374
  11 C :   -0.007720
  12 S :    0.176016
  13 C :   -0.138544
  14 C :    0.078823
  15 Br:    0.015695
  16 C :    0.151816
  17 O :   -0.146392
  18 C :   -0.051080
  19 C :   -0.047923
  20 C :    0.064423
  21 O :   -0.165879
  22 C :   -0.031945
  23 C :    0.172027
  24 O :   -0.128365
  25 N :   -0.168878
  26 C :    0.167842
  27 O :   -0.130192
  28 C :   -0.048205
  29 C :    0.093735
  30 C :   -0.038076
  31 C :    0.080720
  32 C :   -0.176694
  33 C :    0.161048
  34 N :    0.261709
  35 O :   -0.244850
  36 O :   -0.242581
  37 C :   -0.104876
  38 C :    0.165527
  39 C :   -0.136456
  40 S :    0.178130
  41 C :   -0.006622
  42 C :   -0.034418
  43 C :    0.023289
  44 C :    0.043648
  45 C :   -0.054312
  46 S :    0.041663
  47 C :   -0.028190
  48 C :    0.031601
  49 C :    0.033472
  50 C :    0.005846
  51 S :    0.075096
  52 C :   -0.070391
  53 C :    0.092223
  54 C :   -0.026253
  55 C :    0.027848
  56 C :    0.006684
  57 C :   -0.025732
  58 C :    0.027693
  59 N :   -0.054826
  60 C :   -0.127955
  61 C :   -0.206407
  62 N :    0.011379
  63 C :    0.122106
  64 C :    0.103559
  65 H :   -0.015002
  66 H :   -0.013095
  67 H :   -0.001663
  68 H :    0.045970
  69 H :    0.142409
  70 H :    0.026896
  71 H :    0.049753
  72 H :    0.034333
  73 H :   -0.003790
  74 H :    0.035767
  75 H :   -0.011987
  76 H :   -0.009413
  77 H :   -0.012308
  78 H :   -0.017641
  79 H :   -0.012521
  80 H :   -0.022041
  81 H :   -0.021527
  82 H :   -0.005692
  83 H :   -0.022740
  84 H :    0.038057
  85 H :    0.032241
  86 H :    0.025523
  87 H :    0.053414
  88 H :    0.030080
  89 H :    0.016071
Sum of atomic charges:   -0.0000000

LOEWDIN ATOMIC CHARGES
----------------------
   0 C :    0.077527
   1 C :   -0.128902
   2 C :   -0.014989
   3 N :   -0.051012
   4 C :   -0.027278
   5 N :   -0.037241
   6 C :   -0.020236
   7 C :   -0.059556
   8 C :    0.026582
   9 C :   -0.031058
  10 C :   -0.139584
  11 C :   -0.005618
  12 S :    0.441424
  13 C :   -0.275867
  14 C :   -0.058464
  15 Br:    0.133674
  16 C :    0.082630
  17 O :   -0.139266
  18 C :   -0.066722
  19 C :    0.051369
  20 C :    0.037109
  21 O :    0.057125
  22 C :   -0.065097
  23 C :    0.082030
  24 O :   -0.144411
  25 N :   -0.005744
  26 C :    0.084725
  27 O :   -0.149731
  28 C :   -0.106424
  29 C :    0.087056
  30 C :   -0.048735
  31 C :    0.018967
  32 C :   -0.161838
  33 C :   -0.073320
  34 N :    0.288651
  35 O :   -0.202263
  36 O :   -0.198361
  37 C :   -0.042832
  38 C :   -0.044873
  39 C :   -0.172637
  40 S :    0.491401
  41 C :   -0.085510
  42 C :   -0.145870
  43 C :   -0.038407
  44 C :   -0.028365
  45 C :   -0.187298
  46 S :    0.354911
  47 C :   -0.186687
  48 C :   -0.037478
  49 C :   -0.024534
  50 C :   -0.145020
  51 S :    0.433935
  52 C :   -0.043567
  53 C :   -0.034682
  54 C :   -0.014708
  55 C :   -0.022835
  56 C :   -0.013473
  57 C :   -0.016810
  58 C :   -0.006673
  59 N :   -0.058284
  60 C :    0.011781
  61 C :   -0.006079
  62 N :   -0.047447
  63 C :   -0.055580
  64 C :   -0.064039
  65 H :    0.033040
  66 H :    0.038944
  67 H :    0.038349
  68 H :    0.059586
  69 H :    0.096608
  70 H :    0.045762
  71 H :    0.047213
  72 H :    0.043134
  73 H :    0.025203
  74 H :    0.042217
  75 H :    0.037271
  76 H :    0.033365
  77 H :    0.033094
  78 H :    0.029527
  79 H :    0.032349
  80 H :    0.034207
  81 H :    0.027305
  82 H :    0.033810
  83 H :    0.035173
  84 H :    0.043223
  85 H :    0.037818
  86 H :    0.031195
  87 H :    0.039058
  88 H :    0.022533
  89 H :    0.034522

  Mayer bond orders larger than 0.100000
B(  0-C ,  1-C ) :   1.6555 B(  0-C ,  6-C ) :   1.0179 B(  0-C , 18-C ) :   1.0431
B(  1-C ,  2-C ) :   1.1474 B(  1-C ,  4-C ) :   1.1355 B(  2-C ,  3-N ) :   2.9644
B(  4-C ,  5-N ) :   2.9917 B(  6-C ,  7-C ) :   1.2690 B(  6-C , 11-C ) :   1.4015
B(  7-C ,  8-C ) :   1.4031 B(  7-C , 16-C ) :   0.9566 B(  8-C ,  9-C ) :   1.2320
B(  8-C , 65-H ) :   1.0197 B(  9-C , 10-C ) :   1.2996 B(  9-C , 14-C ) :   1.1760
B( 10-C , 11-C ) :   1.3336 B( 10-C , 12-S ) :   1.0907 B( 11-C , 66-H ) :   0.9748
B( 12-S , 13-C ) :   1.0841 B( 13-C , 14-C ) :   1.6035 B( 13-C , 15-Br) :   1.0171
B( 14-C , 67-H ) :   0.9942 B( 16-C , 17-O ) :   2.1642 B( 16-C , 18-C ) :   0.9253
B( 18-C , 19-C ) :   1.6128 B( 19-C , 20-C ) :   1.1777 B( 19-C , 68-H ) :   0.9380
B( 20-C , 21-O ) :   1.1556 B( 20-C , 22-C ) :   1.4120 B( 21-O , 29-C ) :   1.1906
B( 22-C , 23-C ) :   0.8658 B( 22-C , 28-C ) :   1.3032 B( 23-C , 24-O ) :   2.2696
B( 23-C , 25-N ) :   1.0858 B( 25-N , 26-C ) :   1.0672 B( 25-N , 69-H ) :   0.9137
B( 26-C , 27-O ) :   2.2886 B( 26-C , 28-C ) :   0.8776 B( 28-C , 29-C ) :   1.3852
B( 29-C , 30-C ) :   1.1271 B( 30-C , 31-C ) :   1.7594 B( 30-C , 70-H ) :   0.9686
B( 31-C , 32-C ) :   1.0288 B( 31-C , 71-H ) :   0.9461 B( 32-C , 33-C ) :   1.4575
B( 32-C , 40-S ) :   1.1986 B( 33-C , 34-N ) :   0.9386 B( 33-C , 37-C ) :   1.2646
B( 34-N , 35-O ) :   1.5114 B( 34-N , 36-O ) :   1.5188 B( 35-O , 36-O ) :   0.2590
B( 37-C , 38-C ) :   1.1334 B( 37-C , 39-C ) :   1.4868 B( 38-C , 72-H ) :   0.9324
B( 38-C , 73-H ) :   0.9312 B( 38-C , 74-H ) :   0.9311 B( 39-C , 40-S ) :   1.0909
B( 39-C , 41-C ) :   1.1412 B( 41-C , 42-C ) :   1.6098 B( 41-C , 75-H ) :   0.9636
B( 42-C , 43-C ) :   1.1295 B( 42-C , 46-S ) :   1.0341 B( 43-C , 44-C ) :   1.6100
B( 43-C , 76-H ) :   0.9974 B( 44-C , 45-C ) :   1.1729 B( 44-C , 77-H ) :   0.9927
B( 45-C , 46-S ) :   1.0199 B( 45-C , 47-C ) :   1.5436 B( 47-C , 48-C ) :   1.1586
B( 47-C , 51-S ) :   0.9862 B( 48-C , 49-C ) :   1.6092 B( 48-C , 78-H ) :   0.9952
B( 49-C , 50-C ) :   1.1128 B( 49-C , 79-H ) :   1.0006 B( 50-C , 51-S ) :   1.0383
B( 50-C , 52-C ) :   1.6074 B( 52-C , 53-C ) :   1.0981 B( 52-C , 80-H ) :   0.9628
B( 53-C , 54-C ) :   1.4053 B( 53-C , 58-C ) :   1.1756 B( 54-C , 55-C ) :   1.2541
B( 54-C , 81-H ) :   1.0017 B( 55-C , 56-C ) :   1.4048 B( 55-C , 82-H ) :   0.9958
B( 56-C , 57-C ) :   1.2615 B( 56-C , 83-H ) :   1.0087 B( 57-C , 58-C ) :   1.2584
B( 57-C , 62-N ) :   1.3779 B( 58-C , 59-N ) :   1.3886 B( 59-N , 60-C ) :   1.6100
B( 60-C , 61-C ) :   1.1747 B( 60-C , 64-C ) :   1.1048 B( 61-C , 62-N ) :   1.7059
B( 61-C , 63-C ) :   1.0973 B( 63-C , 84-H ) :   0.9363 B( 63-C , 85-H ) :   0.9335
B( 63-C , 86-H ) :   0.9319 B( 64-C , 87-H ) :   0.9284 B( 64-C , 88-H ) :   0.9295
B( 64-C , 89-H ) :   0.9266

-----------------------------------------------------------------------------
         ABSORPTION SPECTRUM VIA TRANSITION ELECTRIC DIPOLE MOMENTS
-----------------------------------------------------------------------------
State   Energy  Wavelength   fosc         T2         TX        TY        TZ
        (cm-1)    (nm)                  (au**2)     (au)      (au)      (au)
-----------------------------------------------------------------------------
   0   11779.5    848.9   0.022789346   0.63691   0.35265  -0.41374   0.58427
   1   15371.5    650.6   0.563861092  12.07623   1.97696  -1.44179   2.46761
   2   17717.4    564.4   0.129418476   2.40476  -1.22251  -0.40661  -0.86308
   3   21091.1    474.1   0.237330421   3.70450   0.33390  -1.47219   1.19402
   4   22580.4    442.9   0.474405318   6.91660   2.05552  -1.55087   0.53499
   5   23632.4    423.1   0.039549834   0.55095   0.00587  -0.22175   0.70834
   6   24604.7    406.4   0.374525067   5.01116   2.13934   0.25532   0.60762
   7   25794.8    387.7   0.000733360   0.00936   0.08164  -0.04462   0.02651
   8   25973.6    385.0   0.017855244   0.22631  -0.29799  -0.35640  -0.10242
   9   26377.0    379.1   0.105506033   1.31682   0.61900   0.93108  -0.25835
  10   26713.1    374.3   0.065027934   0.80140   0.85174   0.26855  -0.06185
  11   26959.5    370.9   0.065393583   0.79854  -0.66498   0.46832  -0.37016
  12   27338.9    365.8   0.014987520   0.18048   0.35123   0.11144  -0.21141
  13   27778.7    360.0   0.178858784   2.11970   0.99479   1.06284   0.02147
  14   27974.6    357.5   0.033809075   0.39787  -0.52266  -0.32557   0.13676
  15   28839.4    346.7   0.079488537   0.90739  -0.75662  -0.57734   0.03988
  16   29126.7    343.3   0.013628208   0.15404  -0.03161  -0.27399  -0.27922
  17   29797.6    335.6   0.139743547   1.54393  -0.60802  -0.92032   0.57205
  18   30316.1    329.9   0.073659467   0.79989   0.55094   0.64076  -0.29288
  19   30509.4    327.8   0.052769052   0.56940  -0.03199   0.08058   0.74959
  20   30908.6    323.5   0.051010211   0.54332  -0.26706  -0.24935  -0.64017
  21   31284.1    319.7   0.067364091   0.70889  -0.74625  -0.38642   0.05178
  22   31756.1    314.9   0.006257040   0.06487  -0.01502   0.23261   0.10264
  23   32064.1    311.9   0.204368683   2.09832   0.85927   1.06561  -0.47376
  24   32333.4    309.3   0.000151340   0.00154  -0.01832   0.02610   0.02290
  25   32470.5    308.0   0.034590025   0.35070   0.22852   0.01136   0.54621
  26   32498.0    307.7   0.232406866   2.35433   1.09270   0.93003  -0.54349
  27   32872.3    304.2   0.029422831   0.29467   0.16478   0.08411  -0.51033
  28   33062.0    302.5   0.005424550   0.05401   0.15769  -0.16661   0.03730
  29   33309.5    300.2   0.020216869   0.19981   0.17376   0.00722  -0.41178
  30   33595.9    297.7   0.359485787   3.52267   1.07051   1.49217  -0.38741
  31   34046.0    293.7   0.114857074   1.11062  -0.43172  -0.95301  -0.12654
  32   34198.4    292.4   0.038926931   0.37473   0.55869  -0.24868   0.02742
  33   34389.8    290.8   0.054822797   0.52482   0.18485  -0.55876   0.42241
  34   35204.9    284.1   0.019450947   0.18189   0.23105  -0.08421   0.34845
  35   35460.6    282.0   0.022468353   0.20859  -0.04142   0.29091  -0.34964
  36   35623.2    280.7   0.039699952   0.36689   0.59145   0.07244  -0.10874
  37   35742.2    279.8   0.010824376   0.09970   0.16474   0.18851   0.19242
  38   36127.5    276.8   0.087120792   0.79389   0.51624   0.54084  -0.48464
  39   36354.2    275.1   0.018318216   0.16588   0.28705   0.26118  -0.12358
  40   36484.6    274.1   0.010075807   0.09092   0.17640   0.21616  -0.11436
  41   36605.5    273.2   0.073842938   0.66411  -0.16445  -0.60955   0.51528
  42   37123.2    269.4   0.080985625   0.71819  -0.52349   0.18041  -0.64156
  43   37625.8    265.8   0.152317896   1.33273  -1.13370   0.21784   0.00163
  44   38083.7    262.6   0.020762173   0.17948   0.40595   0.12114  -0.00234
  45   38441.4    260.1   0.068163004   0.58375   0.63838   0.24906  -0.33792
  46   38738.8    258.1   0.013585530   0.11545   0.30475  -0.02306   0.14849
  47   38827.1    257.6   0.049976670   0.42375  -0.61030  -0.18988   0.12339
  48   39057.8    256.0   0.041551869   0.35023   0.22363  -0.53429   0.12148
  49   39253.6    254.8   0.040234774   0.33744  -0.57938   0.00482  -0.04173
  50   39382.4    253.9   0.054415550   0.45488  -0.33703  -0.40614   0.41993
  51   39426.8    253.6   0.025400892   0.21210  -0.17543  -0.24522   0.34812
  52   39622.0    252.4   0.014969211   0.12438   0.07634   0.14215  -0.31360
  53   39733.1    251.7   0.023782128   0.19705   0.44291   0.02958  -0.00109
  54   39951.1    250.3   0.025489949   0.21005   0.16589  -0.32867   0.27295
  55   39999.8    250.0   0.001411587   0.01162  -0.05868   0.01245   0.08955
  56   40099.9    249.4   0.120988839   0.99329  -0.04041  -0.69524   0.71296

FINAL SINGLE POINT ENERGY     -6786.823389729060

DIPOLE MOMENT
-------------
                                X             Y             Z
Electronic contribution:     72.71583     -16.96227      -3.79691
Nuclear contribution   :    -70.23210      20.67037       3.78032
                        -----------------------------------------
Total Dipole Moment    :      2.48373       3.70809      -0.01659
                        -----------------------------------------
Magnitude (a.u.)       :      4.46309
Magnitude (Debye)      :     11.34427

Rotational constants in cm-1:     0.001286     0.000961     0.000654
Rotational constants in MHz :    38.565059    28.815445    19.619193

                             ****ORCA TERMINATED NORMALLY****
TOTAL RUN TIME: 0 days 0 hours 11 minutes 40 seconds 628 msec
