                         Program Version 4.2.0 -  RELEASE  -
|  1> # ORCA input file
|  2> # SCF done       -138.281303144625          0.000689941844
|  3> ! CAM-B3LYP def2-SVP def2/J RIJCOSX Grid4 TightSCF
|  4> %maxcore 5000
|  5> %tddft
|  6>     Mode sTDDFT
|  7>     Ethresh 5.0
|  8>     maxcore 5000
|  9> end
| 10>
| 11> %pal
| 12>   nprocs 6
| 13>   end
| 14> * xyz 0 1
| 15>    C       -7.95531        -4.72579         1.45047
| 16>    C       -6.86643        -3.96821         1.64190
| 17>    C       -6.81146        -2.56746         1.94598
| 18>    C       -5.56009        -2.07569         2.08757
| 19>    C       -4.52802        -3.03807         1.91043
| 20>    S       -5.21653        -4.60657         1.54765
| 21>    C       -3.16953        -2.83469         2.00072
| 22>    C       -2.48430        -1.63356         2.29808
| 23>    C       -1.13028        -1.76645         2.32575
| 24>    C       -0.66381        -3.07516         2.05159
| 25>    S       -2.02157        -4.13820         1.74582
| 26>    C        0.65555        -3.46894         2.03736
| 27>    C        1.15690        -4.74299         1.77719
| 28>    S        0.14979        -6.09773         1.37587
| 29>    C        1.48870        -7.20456         1.27134
| 30>    C        2.70164        -6.52722         1.50000
| 31>    C        2.51547        -5.14205         1.79442
| 32>    C        3.62432        -4.32232         2.05068
| 33>    C        4.88053        -4.85974         1.98906
| 34>    F        5.95257        -4.08466         2.23188
| 35>    C        5.07058        -6.21368         1.65151
| 36>    F        6.32265        -6.69749         1.55902
| 37>    C        4.00903        -7.03890         1.40699
| 38>    C        1.18211        -8.55259         0.99520
| 39>    C        1.95304        -9.65487         1.19329
| 40>    C        1.52490       -10.96147         0.86164
| 41>    S        0.01768       -11.27714         0.01353
| 42>    C        0.23078       -13.02234         0.01886
| 43>    C        1.41800       -13.31020         0.64347
| 44>    C        2.13473       -12.17325         1.10217
| 45>    N        3.30354       -12.63305         1.66138
| 46>    C        3.36857       -14.01234         1.55458
| 47>    O        4.26105       -14.72536         1.93525
| 48>    N        2.20134       -14.40757         0.92815
| 49>    C       -0.77386       -13.82247        -0.62427
| 50>    C       -1.16340       -15.06828        -0.32502
| 51>    C       -0.68204       -15.87125         0.83979
| 52>    C       -2.25141       -15.72120        -1.13710
| 53>    N       -3.50310       -15.64843        -0.40838
| 54>    C       -4.55478       -16.45756        -0.72921
| 55>    C       -5.84255       -16.19339        -0.44710
| 56>    C       -6.92008       -17.09091        -0.71895
| 57>    S       -6.67972       -18.68998        -1.40936
| 58>    C       -8.37770       -19.06039        -1.43179
| 59>    C       -9.07634       -18.01093        -0.93575
| 60>    C       -8.26323       -16.90975        -0.53533
| 61>    N       -9.12380       -15.93661        -0.06348
| 62>    C      -10.42921       -16.37485        -0.15034
| 63>    O      -11.41886       -15.76677         0.17650
| 64>    N      -10.38225       -17.65007        -0.68620
| 65>    H       -8.94029        -4.29887         1.51752
| 66>    H       -7.88210        -5.77422         1.22706
| 67>    H       -7.71432        -1.99175         2.04601
| 68>    H       -5.33478        -1.04925         2.31666
| 69>    H       -3.00525        -0.71185         2.48527
| 70>    H       -0.44581        -0.96336         2.53625
| 71>    H        1.38192        -2.69978         2.26183
| 72>    H        3.50962        -3.27743         2.28755
| 73>    H        4.19482        -8.05761         1.11481
| 74>    H        0.17686        -8.72067         0.62500
| 75>    H        2.92371        -9.58472         1.66037
| 76>    H        4.03454       -12.08119         2.07467
| 77>    H        1.99753       -15.36467         0.70274
| 78>    H       -1.28313       -13.30629        -1.42971
| 79>    H       -0.20931       -15.24337         1.58909
| 80>    H        0.02072       -16.64047         0.51635
| 81>    H       -1.53198       -16.37966         1.29273
| 82>    H       -2.02016       -16.77884        -1.29438
| 83>    H       -2.33129       -15.23508        -2.12124
| 84>    H       -3.74973       -14.71686        -0.10147
| 85>    H       -4.28605       -17.39600        -1.19483
| 86>    H       -6.11652       -15.25347         0.01372
| 87>    H       -8.70917       -20.00584        -1.80505
| 88>    H       -8.87172       -15.03361         0.29605
| 89>    H      -11.20260       -18.20380        -0.85738
| 90> *
| 91>
| 92>                          ****END OF INPUT****

CARTESIAN COORDINATES (ANGSTROEM)
---------------------------------
  C     -7.955310   -4.725790    1.450470
  C     -6.866430   -3.968210    1.641900
  C     -6.811460   -2.567460    1.945980
  C     -5.560090   -2.075690    2.087570
  C     -4.528020   -3.038070    1.910430
  S     -5.216530   -4.606570    1.547650
  C     -3.169530   -2.834690    2.000720
  C     -2.484300   -1.633560    2.298080
  C     -1.130280   -1.766450    2.325750
  C     -0.663810   -3.075160    2.051590
  S     -2.021570   -4.138200    1.745820
  C      0.655550   -3.468940    2.037360
  C      1.156900   -4.742990    1.777190
  S      0.149790   -6.097730    1.375870
  C      1.488700   -7.204560    1.271340
  C      2.701640   -6.527220    1.500000
  C      2.515470   -5.142050    1.794420
  C      3.624320   -4.322320    2.050680
  C      4.880530   -4.859740    1.989060
  F      5.952570   -4.084660    2.231880
  C      5.070580   -6.213680    1.651510
  F      6.322650   -6.697490    1.559020
  C      4.009030   -7.038900    1.406990
  C      1.182110   -8.552590    0.995200
  C      1.953040   -9.654870    1.193290
  C      1.524900  -10.961470    0.861640
  S      0.017680  -11.277140    0.013530
  C      0.230780  -13.022340    0.018860
  C      1.418000  -13.310200    0.643470
  C      2.134730  -12.173250    1.102170
  N      3.303540  -12.633050    1.661380
  C      3.368570  -14.012340    1.554580
  O      4.261050  -14.725360    1.935250
  N      2.201340  -14.407570    0.928150
  C     -0.773860  -13.822470   -0.624270
  C     -1.163400  -15.068280   -0.325020
  C     -0.682040  -15.871250    0.839790
  C     -2.251410  -15.721200   -1.137100
  N     -3.503100  -15.648430   -0.408380
  C     -4.554780  -16.457560   -0.729210
  C     -5.842550  -16.193390   -0.447100
  C     -6.920080  -17.090910   -0.718950
  S     -6.679720  -18.689980   -1.409360
  C     -8.377700  -19.060390   -1.431790
  C     -9.076340  -18.010930   -0.935750
  C     -8.263230  -16.909750   -0.535330
  N     -9.123800  -15.936610   -0.063480
  C    -10.429210  -16.374850   -0.150340
  O    -11.418860  -15.766770    0.176500
  N    -10.382250  -17.650070   -0.686200
  H     -8.940290   -4.298870    1.517520
  H     -7.882100   -5.774220    1.227060
  H     -7.714320   -1.991750    2.046010
  H     -5.334780   -1.049250    2.316660
  H     -3.005250   -0.711850    2.485270
  H     -0.445810   -0.963360    2.536250
  H      1.381920   -2.699780    2.261830
  H      3.509620   -3.277430    2.287550
  H      4.194820   -8.057610    1.114810
  H      0.176860   -8.720670    0.625000
  H      2.923710   -9.584720    1.660370
  H      4.034540  -12.081190    2.074670
  H      1.997530  -15.364670    0.702740
  H     -1.283130  -13.306290   -1.429710
  H     -0.209310  -15.243370    1.589090
  H      0.020720  -16.640470    0.516350
  H     -1.531980  -16.379660    1.292730
  H     -2.020160  -16.778840   -1.294380
  H     -2.331290  -15.235080   -2.121240
  H     -3.749730  -14.716860   -0.101470
  H     -4.286050  -17.396000   -1.194830
  H     -6.116520  -15.253470    0.013720
  H     -8.709170  -20.005840   -1.805050
  H     -8.871720  -15.033610    0.296050
  H    -11.202600  -18.203800   -0.857380

 Total Charge           Charge          ....    0
 Multiplicity           Mult            ....    1
 Number of Electrons    NEL             ....  390
 Basis Dimension        Dim             ....  845

ORBITAL ENERGIES
----------------

  NO   OCC          E(Eh)            E(eV)
   0   2.0000     -88.964688     -2420.8522
   1   2.0000     -88.948370     -2420.4082
   2   2.0000     -88.948045     -2420.3994
   3   2.0000     -88.941110     -2420.2106
   4   2.0000     -88.934097     -2420.0198
   5   2.0000     -24.783317      -674.3883
   6   2.0000     -24.782904      -674.3771
   7   2.0000     -19.180244      -521.9210
   8   2.0000     -19.165362      -521.5160
   9   2.0000     -14.457980      -393.4216
  10   2.0000     -14.456495      -393.3812
  11   2.0000     -14.440895      -392.9567
  12   2.0000     -14.440619      -392.9492
  13   2.0000     -14.423843      -392.4927
  14   2.0000     -10.403309      -283.0884
  15   2.0000     -10.388610      -282.6884
  16   2.0000     -10.364203      -282.0243
  17   2.0000     -10.363460      -282.0041
  18   2.0000     -10.320420      -280.8329
  19   2.0000     -10.319635      -280.8115
  20   2.0000     -10.313405      -280.6420
  21   2.0000     -10.309541      -280.5369
  22   2.0000     -10.309315      -280.5307
  23   2.0000     -10.308813      -280.5171
  24   2.0000     -10.308737      -280.5150
  25   2.0000     -10.307936      -280.4932
  26   2.0000     -10.303578      -280.3746
  27   2.0000     -10.303475      -280.3718
  28   2.0000     -10.303440      -280.3708
  29   2.0000     -10.303156      -280.3631
  30   2.0000     -10.303068      -280.3607
  31   2.0000     -10.296391      -280.1790
  32   2.0000     -10.291642      -280.0498
  33   2.0000     -10.290372      -280.0152
  34   2.0000     -10.290071      -280.0071
  35   2.0000     -10.288279      -279.9583
  36   2.0000     -10.287814      -279.9457
  37   2.0000     -10.287472      -279.9363
  38   2.0000     -10.287168      -279.9281
  39   2.0000     -10.286877      -279.9202
  40   2.0000     -10.286404      -279.9073
  41   2.0000     -10.286126      -279.8997
  42   2.0000     -10.285758      -279.8897
  43   2.0000     -10.284890      -279.8661
  44   2.0000     -10.284596      -279.8581
  45   2.0000     -10.283230      -279.8209
  46   2.0000     -10.275733      -279.6169
  47   2.0000     -10.273119      -279.5458
  48   2.0000     -10.271912      -279.5129
  49   2.0000     -10.257701      -279.1262
  50   2.0000      -8.059535      -219.3111
  51   2.0000      -8.044024      -218.8890
  52   2.0000      -8.043560      -218.8764
  53   2.0000      -8.037849      -218.7210
  54   2.0000      -8.029401      -218.4911
  55   2.0000      -6.028555      -164.0453
  56   2.0000      -6.024428      -163.9330
  57   2.0000      -6.022274      -163.8744
  58   2.0000      -6.013808      -163.6440
  59   2.0000      -6.013274      -163.6295
  60   2.0000      -6.009640      -163.5306
  61   2.0000      -6.009232      -163.5195
  62   2.0000      -6.007655      -163.4766
  63   2.0000      -6.004975      -163.4037
  64   2.0000      -6.004789      -163.3986
  65   2.0000      -6.003741      -163.3701
  66   2.0000      -5.999152      -163.2452
  67   2.0000      -5.998399      -163.2247
  68   2.0000      -5.995012      -163.1326
  69   2.0000      -5.990720      -163.0158
  70   2.0000      -1.304211       -35.4894
  71   2.0000      -1.289565       -35.0908
  72   2.0000      -1.153345       -31.3841
  73   2.0000      -1.136904       -30.9367
  74   2.0000      -1.077611       -29.3233
  75   2.0000      -1.060249       -28.8508
  76   2.0000      -1.026389       -27.9295
  77   2.0000      -1.002301       -27.2740
  78   2.0000      -0.999702       -27.2033
  79   2.0000      -0.993099       -27.0236
  80   2.0000      -0.982469       -26.7344
  81   2.0000      -0.972829       -26.4720
  82   2.0000      -0.971395       -26.4330
  83   2.0000      -0.952181       -25.9102
  84   2.0000      -0.940529       -25.5931
  85   2.0000      -0.917609       -24.9694
  86   2.0000      -0.907178       -24.6856
  87   2.0000      -0.885380       -24.0924
  88   2.0000      -0.871122       -23.7044
  89   2.0000      -0.859096       -23.3772
  90   2.0000      -0.851978       -23.1835
  91   2.0000      -0.847103       -23.0508
  92   2.0000      -0.836041       -22.7498
  93   2.0000      -0.829434       -22.5700
  94   2.0000      -0.822107       -22.3707
  95   2.0000      -0.815942       -22.2029
  96   2.0000      -0.802713       -21.8429
  97   2.0000      -0.799616       -21.7587
  98   2.0000      -0.795047       -21.6343
  99   2.0000      -0.784374       -21.3439
 100   2.0000      -0.764485       -20.8027
 101   2.0000      -0.754797       -20.5391
 102   2.0000      -0.742757       -20.2114
 103   2.0000      -0.733289       -19.9538
 104   2.0000      -0.731480       -19.9046
 105   2.0000      -0.728096       -19.8125
 106   2.0000      -0.711245       -19.3540
 107   2.0000      -0.693224       -18.8636
 108   2.0000      -0.688109       -18.7244
 109   2.0000      -0.680908       -18.5284
 110   2.0000      -0.672722       -18.3057
 111   2.0000      -0.667786       -18.1714
 112   2.0000      -0.661272       -17.9941
 113   2.0000      -0.655977       -17.8500
 114   2.0000      -0.650116       -17.6906
 115   2.0000      -0.639810       -17.4101
 116   2.0000      -0.629451       -17.1282
 117   2.0000      -0.626492       -17.0477
 118   2.0000      -0.619127       -16.8473
 119   2.0000      -0.607891       -16.5416
 120   2.0000      -0.605773       -16.4839
 121   2.0000      -0.604052       -16.4371
 122   2.0000      -0.599495       -16.3131
 123   2.0000      -0.598547       -16.2873
 124   2.0000      -0.593705       -16.1555
 125   2.0000      -0.586215       -15.9517
 126   2.0000      -0.584970       -15.9179
 127   2.0000      -0.579522       -15.7696
 128   2.0000      -0.573120       -15.5954
 129   2.0000      -0.569893       -15.5076
 130   2.0000      -0.566654       -15.4194
 131   2.0000      -0.561162       -15.2700
 132   2.0000      -0.556170       -15.1342
 133   2.0000      -0.550757       -14.9869
 134   2.0000      -0.547512       -14.8986
 135   2.0000      -0.538598       -14.6560
 136   2.0000      -0.536156       -14.5895
 137   2.0000      -0.532272       -14.4838
 138   2.0000      -0.531035       -14.4502
 139   2.0000      -0.528814       -14.3898
 140   2.0000      -0.517897       -14.0927
 141   2.0000      -0.514527       -14.0010
 142   2.0000      -0.505757       -13.7623
 143   2.0000      -0.502983       -13.6869
 144   2.0000      -0.501941       -13.6585
 145   2.0000      -0.501844       -13.6559
 146   2.0000      -0.498312       -13.5598
 147   2.0000      -0.493246       -13.4219
 148   2.0000      -0.491883       -13.3848
 149   2.0000      -0.488341       -13.2884
 150   2.0000      -0.486774       -13.2458
 151   2.0000      -0.485680       -13.2160
 152   2.0000      -0.478778       -13.0282
 153   2.0000      -0.476151       -12.9567
 154   2.0000      -0.475041       -12.9265
 155   2.0000      -0.471442       -12.8286
 156   2.0000      -0.467459       -12.7202
 157   2.0000      -0.463156       -12.6031
 158   2.0000      -0.462383       -12.5821
 159   2.0000      -0.461618       -12.5613
 160   2.0000      -0.458127       -12.4663
 161   2.0000      -0.457016       -12.4360
 162   2.0000      -0.449372       -12.2280
 163   2.0000      -0.446832       -12.1589
 164   2.0000      -0.439079       -11.9480
 165   2.0000      -0.435609       -11.8535
 166   2.0000      -0.431650       -11.7458
 167   2.0000      -0.428474       -11.6594
 168   2.0000      -0.426126       -11.5955
 169   2.0000      -0.414097       -11.2682
 170   2.0000      -0.413582       -11.2541
 171   2.0000      -0.411593       -11.2000
 172   2.0000      -0.410475       -11.1696
 173   2.0000      -0.409147       -11.1334
 174   2.0000      -0.399781       -10.8786
 175   2.0000      -0.395676       -10.7669
 176   2.0000      -0.389676       -10.6036
 177   2.0000      -0.388435       -10.5699
 178   2.0000      -0.378092       -10.2884
 179   2.0000      -0.368209       -10.0195
 180   2.0000      -0.365310        -9.9406
 181   2.0000      -0.349889        -9.5210
 182   2.0000      -0.340129        -9.2554
 183   2.0000      -0.335507        -9.1296
 184   2.0000      -0.334833        -9.1113
 185   2.0000      -0.332242        -9.0408
 186   2.0000      -0.322248        -8.7688
 187   2.0000      -0.316475        -8.6117
 188   2.0000      -0.308616        -8.3979
 189   2.0000      -0.284608        -7.7446
 190   2.0000      -0.275070        -7.4850
 191   2.0000      -0.261837        -7.1249
 192   2.0000      -0.250766        -6.8237
 193   2.0000      -0.227953        -6.2029
 194   2.0000      -0.202693        -5.5156
 195   0.0000      -0.083403        -2.2695
 196   0.0000      -0.035273        -0.9598
 197   0.0000      -0.011571        -0.3149
 198   0.0000       0.014242         0.3876
 199   0.0000       0.015620         0.4250

MULLIKEN ATOMIC CHARGES
-----------------------
   0 C :   -0.026777
   1 C :   -0.064529
   2 C :    0.052629
   3 C :    0.030043
   4 C :   -0.066602
   5 S :    0.083509
   6 C :   -0.038238
   7 C :    0.032178
   8 C :    0.026509
   9 C :   -0.038274
  10 S :    0.064562
  11 C :   -0.016654
  12 C :   -0.091011
  13 S :    0.136708
  14 C :   -0.116414
  15 C :    0.134879
  16 C :    0.122048
  17 C :   -0.114633
  18 C :    0.220866
  19 F :   -0.182069
  20 C :    0.225320
  21 F :   -0.183608
  22 C :   -0.124686
  23 C :    0.023820
  24 C :   -0.014760
  25 C :   -0.180976
  26 S :    0.085180
  27 C :   -0.247556
  28 C :    0.185970
  29 C :    0.132306
  30 N :   -0.107347
  31 C :    0.154879
  32 O :   -0.198395
  33 N :   -0.113944
  34 C :    0.035951
  35 C :   -0.228297
  36 C :    0.071779
  37 C :    0.215076
  38 N :   -0.178602
  39 C :    0.048737
  40 C :   -0.023109
  41 C :   -0.170611
  42 S :    0.051653
  43 C :   -0.244860
  44 C :    0.205019
  45 C :    0.112120
  46 N :   -0.115889
  47 C :    0.150677
  48 O :   -0.211433
  49 N :   -0.110384
  50 H :    0.022480
  51 H :    0.023554
  52 H :   -0.009714
  53 H :   -0.010251
  54 H :   -0.016321
  55 H :   -0.013142
  56 H :   -0.019934
  57 H :   -0.013514
  58 H :   -0.019145
  59 H :   -0.006286
  60 H :   -0.024977
  61 H :    0.137109
  62 H :    0.134024
  63 H :   -0.013843
  64 H :    0.031283
  65 H :    0.025401
  66 H :    0.029335
  67 H :    0.009295
  68 H :    0.005936
  69 H :    0.111159
  70 H :    0.003143
  71 H :   -0.044184
  72 H :    0.003307
  73 H :    0.129827
  74 H :    0.132702
Sum of atomic charges:   -0.0000000

LOEWDIN ATOMIC CHARGES
----------------------
   0 C :   -0.071158
   1 C :   -0.140034
   2 C :   -0.028257
   3 C :   -0.027101
   4 C :   -0.172555
   5 S :    0.354616
   6 C :   -0.183060
   7 C :   -0.037229
   8 C :   -0.035312
   9 C :   -0.154028
  10 S :    0.368685
  11 C :   -0.077894
  12 C :   -0.178517
  13 S :    0.474518
  14 C :   -0.183226
  15 C :   -0.044347
  16 C :   -0.044151
  17 C :   -0.037462
  18 C :    0.056567
  19 F :   -0.060718
  20 C :    0.061063
  21 F :   -0.061200
  22 C :   -0.044065
  23 C :   -0.054732
  24 C :   -0.052777
  25 C :   -0.197578
  26 S :    0.403681
  27 C :   -0.205470
  28 C :   -0.019699
  29 C :   -0.018521
  30 N :    0.013481
  31 C :    0.074410
  32 O :   -0.215731
  33 N :    0.013950
  34 C :   -0.065917
  35 C :   -0.039018
  36 C :   -0.054727
  37 C :    0.047270
  38 N :   -0.031225
  39 C :    0.024657
  40 C :   -0.131290
  41 C :   -0.190879
  42 S :    0.387300
  43 C :   -0.242438
  44 C :   -0.020530
  45 C :   -0.039120
  46 N :    0.006355
  47 C :    0.072409
  48 O :   -0.228935
  49 N :    0.006793
  50 H :    0.029767
  51 H :    0.027100
  52 H :    0.034190
  53 H :    0.032889
  54 H :    0.030976
  55 H :    0.033067
  56 H :    0.036992
  57 H :    0.038605
  58 H :    0.036264
  59 H :    0.022509
  60 H :    0.026278
  61 H :    0.094809
  62 H :    0.091411
  63 H :    0.027785
  64 H :    0.032132
  65 H :    0.031445
  66 H :    0.038065
  67 H :    0.027798
  68 H :    0.014233
  69 H :    0.073855
  70 H :    0.020070
  71 H :    0.020431
  72 H :    0.019802
  73 H :    0.090228
  74 H :    0.092443

  Mayer bond orders larger than 0.100000
B(  0-C ,  1-C ) :   1.8600 B(  0-C , 50-H ) :   0.9516 B(  0-C , 51-H ) :   0.9420
B(  1-C ,  2-C ) :   1.0805 B(  1-C ,  5-S ) :   1.0070 B(  2-C ,  3-C ) :   1.6560
B(  2-C , 52-H ) :   0.9938 B(  3-C ,  4-C ) :   1.1566 B(  3-C , 53-H ) :   0.9919
B(  4-C ,  5-S ) :   1.0508 B(  4-C ,  6-C ) :   1.5429 B(  6-C ,  7-C ) :   1.1807
B(  6-C , 10-S ) :   1.0323 B(  7-C ,  8-C ) :   1.5881 B(  7-C , 54-H ) :   0.9918
B(  8-C ,  9-C ) :   1.1549 B(  8-C , 55-H ) :   0.9992 B(  9-C , 10-S ) :   1.0422
B(  9-C , 11-C ) :   1.5358 B( 11-C , 12-C ) :   1.2458 B( 11-C , 56-H ) :   0.9594
B( 12-C , 13-S ) :   1.1255 B( 12-C , 16-C ) :   1.2766 B( 13-S , 14-C ) :   1.1421
B( 14-C , 15-C ) :   1.3215 B( 14-C , 23-C ) :   1.1737 B( 15-C , 16-C ) :   1.2315
B( 15-C , 22-C ) :   1.1681 B( 16-C , 17-C ) :   1.1884 B( 17-C , 18-C ) :   1.4846
B( 17-C , 22-C ) :   0.1116 B( 17-C , 57-H ) :   0.9964 B( 18-C , 19-F ) :   1.1260
B( 18-C , 20-C ) :   1.1722 B( 20-C , 21-F ) :   1.1234 B( 20-C , 22-C ) :   1.4891
B( 22-C , 58-H ) :   0.9950 B( 23-C , 24-C ) :   1.6207 B( 23-C , 59-H ) :   0.9468
B( 24-C , 25-C ) :   1.1891 B( 24-C , 60-H ) :   0.9737 B( 25-C , 26-S ) :   1.0589
B( 25-C , 27-C ) :   0.1067 B( 25-C , 29-C ) :   1.4635 B( 26-S , 27-C ) :   1.0723
B( 27-C , 28-C ) :   1.5162 B( 27-C , 34-C ) :   1.0528 B( 28-C , 29-C ) :   1.2280
B( 28-C , 33-N ) :   1.1182 B( 29-C , 30-N ) :   1.1324 B( 30-N , 31-C ) :   1.0624
B( 30-N , 61-H ) :   0.9278 B( 31-C , 32-O ) :   2.1957 B( 31-C , 33-N ) :   1.0686
B( 33-N , 62-H ) :   0.9250 B( 34-C , 35-C ) :   1.8453 B( 34-C , 63-H ) :   0.9410
B( 35-C , 36-C ) :   1.0835 B( 35-C , 37-C ) :   1.0329 B( 36-C , 64-H ) :   0.9547
B( 36-C , 65-H ) :   0.9427 B( 36-C , 66-H ) :   0.9396 B( 37-C , 38-N ) :   0.9908
B( 37-C , 67-H ) :   0.9292 B( 37-C , 68-H ) :   0.9334 B( 38-N , 39-C ) :   1.1760
B( 38-N , 69-H ) :   0.9386 B( 39-C , 40-C ) :   1.6817 B( 39-C , 70-H ) :   0.9633
B( 40-C , 41-C ) :   1.1504 B( 40-C , 71-H ) :   0.9644 B( 41-C , 42-S ) :   1.0777
B( 41-C , 45-C ) :   1.5239 B( 42-S , 43-C ) :   1.0779 B( 43-C , 44-C ) :   1.5249
B( 43-C , 72-H ) :   0.9978 B( 44-C , 45-C ) :   1.2211 B( 44-C , 49-N ) :   1.1033
B( 45-C , 46-N ) :   1.1047 B( 46-N , 47-C ) :   1.0782 B( 46-N , 73-H ) :   0.9320
B( 47-C , 48-O ) :   2.1873 B( 47-C , 49-N ) :   1.0728 B( 49-N , 74-H ) :   0.9316

-----------------------------------------------------------------------------
         ABSORPTION SPECTRUM VIA TRANSITION ELECTRIC DIPOLE MOMENTS
-----------------------------------------------------------------------------
State   Energy  Wavelength   fosc         T2         TX        TY        TZ
        (cm-1)    (nm)                  (au**2)     (au)      (au)      (au)
-----------------------------------------------------------------------------
   0   13060.3    765.7   1.071011530  26.99710  -3.72338   3.59800   0.43354
   1   20668.0    483.8   0.002995856   0.04772  -0.21719  -0.02063  -0.01114
   2   22716.9    440.2   0.001041129   0.01509   0.10408   0.06447   0.00988
   3   24016.8    416.4   1.382645755  18.95275   3.35363   2.72220   0.54363
   4   25812.6    387.4   0.377890596   4.81959   1.08598   1.88360   0.30379
   5   28332.9    352.9   0.047759923   0.55494   0.66224  -0.12134   0.31883
   6   29252.5    341.9   0.027197055   0.30608  -0.22015   0.49380  -0.11739
   7   30221.0    330.9   0.005249756   0.05719   0.18652   0.10023   0.11114
   8   31167.7    320.8   0.008963675   0.09468  -0.29993  -0.03966  -0.05612
   9   31278.2    319.7   0.008167338   0.08596  -0.28040  -0.08482  -0.01212
  10   31593.1    316.5   0.000511154   0.00533   0.07057   0.01859   0.00017
  11   32299.2    309.6   0.053760161   0.54795   0.67256  -0.30908  -0.00940
  12   33369.1    299.7   0.028649078   0.28265   0.51491   0.13124   0.01699
  13   34624.6    288.8   0.034873012   0.33157   0.53999   0.17169   0.10251
  14   35912.2    278.5   0.769538604   7.05446  -2.44394  -1.01234  -0.23831
  15   36306.3    275.4   0.037540776   0.34041  -0.20141  -0.53618  -0.11112
  16   37242.3    268.5   0.028277672   0.24997   0.36126  -0.33068  -0.10054
  17   37331.8    267.9   0.160230205   1.41300   1.18130  -0.13168  -0.01398
  18   37851.7    264.2   0.068444620   0.59529  -0.66815  -0.35676  -0.14692
  19   38231.0    261.6   0.114039623   0.98201  -0.62036   0.65492  -0.41018
  20   38775.3    257.9   0.004876545   0.04140  -0.14252   0.03113  -0.14185
  21   38888.7    257.1   0.007243712   0.06132   0.14400   0.17518   0.09947
  22   39355.3    254.1   0.057286341   0.47921  -0.05190  -0.67749  -0.13236

FINAL SINGLE POINT ENERGY     -3998.615779313037

DIPOLE MOMENT
-------------
                                X             Y             Z
Electronic contribution:     33.59051      29.57313       5.02011
Nuclear contribution   :    -34.23856     -28.22450      -5.34120
                        -----------------------------------------
Total Dipole Moment    :     -0.64805       1.34862      -0.32109
                        -----------------------------------------
Magnitude (a.u.)       :      1.53031
Magnitude (Debye)      :      3.88974

Rotational constants in cm-1:     0.001340     0.000568     0.000402
Rotational constants in MHz :    40.163914    17.025723    12.057398

                             ****ORCA TERMINATED NORMALLY****
TOTAL RUN TIME: 0 days 0 hours 7 minutes 17 seconds 129 msec
