                         Program Version 4.2.0 -  RELEASE  -
|  1> # ORCA input file
|  2> # SCF done       -167.719201991748          0.000275488535
|  3> ! CAM-B3LYP def2-SVP def2/J RIJCOSX Grid4 TightSCF
|  4> %maxcore 5000
|  5> %tddft
|  6>     Mode sTDDFT
|  7>     Ethresh 5.0
|  8>     maxcore 5000
|  9> end
| 10>
| 11> %pal
| 12>   nprocs 6
| 13>   end
| 14> * xyz 0 1
| 15>    C        2.48207         9.06676        -2.96476
| 16>    C        2.72082         8.95919        -1.59776
| 17>    C        2.14738         7.88885        -0.83357
| 18>    N        2.46201         7.74266         0.47107
| 19>    C        3.20013         8.65514         1.02540
| 20>    C        3.69300         9.76820         0.29289
| 21>    N        3.49379         9.89036        -0.98367
| 22>    C        1.29107         6.96024        -1.45467
| 23>    C        1.02216         7.10519        -2.83121
| 24>    C        1.64724         8.14608        -3.59121
| 25>    N        1.41840         8.24417        -4.92615
| 26>    C        0.59247         7.39731        -5.46510
| 27>    C       -0.07861         6.41311        -4.70119
| 28>    N        0.13428         6.27422        -3.42588
| 29>    C        0.66656         5.89786        -0.70655
| 30>    N        0.10004         6.07279         0.46235
| 31>    C       -0.50049         4.90072         0.76739
| 32>    C       -0.33162         3.91820        -0.31650
| 33>    C       -0.99980         2.64995         0.03112
| 34>    O       -1.11246         1.64260        -0.63316
| 35>    C       -1.52056         2.92474         1.38257
| 36>    C       -1.20698         4.31100         1.78642
| 37>    N       -1.65782         4.55566         3.04095
| 38>    C       -2.20331         3.43133         3.43573
| 39>    C       -2.13974         2.36651         2.45482
| 40>    C        0.47261         4.52464        -1.24389
| 41>    C        1.07462         4.06646        -2.44737
| 42>    S        2.71907         4.46515        -2.79312
| 43>    C        2.66419         3.72917        -4.37081
| 44>    C        1.40601         3.12950        -4.58560
| 45>    C        0.51854         3.29743        -3.48218
| 46>    C       -0.77262         2.76082        -3.53316
| 47>    C       -1.17066         2.00712        -4.61603
| 48>    C       -2.50279         1.40565        -4.62619
| 49>    C       -3.10940         0.95280        -3.53643
| 50>    C       -0.27255         1.79810        -5.70205
| 51>    C       -0.68496         0.94321        -6.85935
| 52>    C        0.98349         2.35447        -5.67761
| 53>    C        3.81219         3.79391        -5.17776
| 54>    C        3.84718         3.76683        -6.54343
| 55>    C        5.06324         3.73549        -7.25317
| 56>    N        6.22230         3.38353        -6.68981
| 57>    C        7.11570         3.32862        -7.68230
| 58>    C        6.49716         3.67104        -8.98146
| 59>    C        7.50079         3.65757       -10.06332
| 60>    O        7.35465         3.94029       -11.23278
| 61>    C        8.72011         3.24702        -9.35081
| 62>    C        8.44967         3.06586        -7.90974
| 63>    N        9.57891         2.72195        -7.25111
| 64>    C       10.51543         2.67965        -8.17388
| 65>    C       10.05126         3.00298        -9.50052
| 66>    C        5.19659         3.96046        -8.70671
| 67>    C        4.19697         4.47373        -9.61179
| 68>    C        4.05106         3.90781       -10.89009
| 69>    C        3.20852         4.53293       -11.86716
| 70>    N        3.13342         4.01840       -13.12066
| 71>    C        3.84862         2.97045       -13.39034
| 72>    C        4.62428         2.31250       -12.39865
| 73>    N        4.70184         2.76055       -11.18418
| 74>    C        2.49481         5.68389       -11.54842
| 75>    C        2.60997         6.23570       -10.27624
| 76>    C        3.46439         5.63075        -9.29501
| 77>    N        3.61941         6.20595        -8.07773
| 78>    C        2.99050         7.31833        -7.84395
| 79>    C        2.13566         7.91047        -8.81030
| 80>    N        1.94009         7.37882        -9.97830
| 81>    H        2.92192         9.87364        -3.52838
| 82>    H        3.45249         8.51310         2.06713
| 83>    H        4.29187        10.53249         0.76942
| 84>    H        0.42348         7.48343        -6.53012
| 85>    H       -0.79589         5.73902        -5.14979
| 86>    H       -2.65237         3.35822         4.41092
| 87>    H       -2.51730         1.37186         2.58753
| 88>    H       -1.44789         2.92742        -2.71226
| 89>    H       -2.98747         1.32231        -5.58994
| 90>    H       -2.63431         0.97649        -2.56963
| 91>    H       -4.09264         0.51596        -3.58039
| 92>    H       -1.03119        -0.02785        -6.50933
| 93>    H        0.14720         0.79246        -7.54236
| 94>    H       -1.50111         1.41026        -7.41101
| 95>    H        1.66802         2.16454        -6.48938
| 96>    H        4.75917         3.93898        -4.67336
| 97>    H        2.93647         3.80821        -7.12171
| 98>    H       11.52569         2.42117        -7.90732
| 99>    H       10.65596         3.03188       -10.38539
|100>    H        3.79511         2.58793       -14.40074
|101>    H        5.14819         1.39225       -12.61683
|102>    H        1.89431         6.17396       -12.29727
|103>    H        3.13009         7.76908        -6.87063
|104>    H        1.60710         8.82962        -8.59439
|105> *
|106>
|107>                          ****END OF INPUT****

CARTESIAN COORDINATES (ANGSTROEM)
---------------------------------
  C      2.482070    9.066760   -2.964760
  C      2.720820    8.959190   -1.597760
  C      2.147380    7.888850   -0.833570
  N      2.462010    7.742660    0.471070
  C      3.200130    8.655140    1.025400
  C      3.693000    9.768200    0.292890
  N      3.493790    9.890360   -0.983670
  C      1.291070    6.960240   -1.454670
  C      1.022160    7.105190   -2.831210
  C      1.647240    8.146080   -3.591210
  N      1.418400    8.244170   -4.926150
  C      0.592470    7.397310   -5.465100
  C     -0.078610    6.413110   -4.701190
  N      0.134280    6.274220   -3.425880
  C      0.666560    5.897860   -0.706550
  N      0.100040    6.072790    0.462350
  C     -0.500490    4.900720    0.767390
  C     -0.331620    3.918200   -0.316500
  C     -0.999800    2.649950    0.031120
  O     -1.112460    1.642600   -0.633160
  C     -1.520560    2.924740    1.382570
  C     -1.206980    4.311000    1.786420
  N     -1.657820    4.555660    3.040950
  C     -2.203310    3.431330    3.435730
  C     -2.139740    2.366510    2.454820
  C      0.472610    4.524640   -1.243890
  C      1.074620    4.066460   -2.447370
  S      2.719070    4.465150   -2.793120
  C      2.664190    3.729170   -4.370810
  C      1.406010    3.129500   -4.585600
  C      0.518540    3.297430   -3.482180
  C     -0.772620    2.760820   -3.533160
  C     -1.170660    2.007120   -4.616030
  C     -2.502790    1.405650   -4.626190
  C     -3.109400    0.952800   -3.536430
  C     -0.272550    1.798100   -5.702050
  C     -0.684960    0.943210   -6.859350
  C      0.983490    2.354470   -5.677610
  C      3.812190    3.793910   -5.177760
  C      3.847180    3.766830   -6.543430
  C      5.063240    3.735490   -7.253170
  N      6.222300    3.383530   -6.689810
  C      7.115700    3.328620   -7.682300
  C      6.497160    3.671040   -8.981460
  C      7.500790    3.657570  -10.063320
  O      7.354650    3.940290  -11.232780
  C      8.720110    3.247020   -9.350810
  C      8.449670    3.065860   -7.909740
  N      9.578910    2.721950   -7.251110
  C     10.515430    2.679650   -8.173880
  C     10.051260    3.002980   -9.500520
  C      5.196590    3.960460   -8.706710
  C      4.196970    4.473730   -9.611790
  C      4.051060    3.907810  -10.890090
  C      3.208520    4.532930  -11.867160
  N      3.133420    4.018400  -13.120660
  C      3.848620    2.970450  -13.390340
  C      4.624280    2.312500  -12.398650
  N      4.701840    2.760550  -11.184180
  C      2.494810    5.683890  -11.548420
  C      2.609970    6.235700  -10.276240
  C      3.464390    5.630750   -9.295010
  N      3.619410    6.205950   -8.077730
  C      2.990500    7.318330   -7.843950
  C      2.135660    7.910470   -8.810300
  N      1.940090    7.378820   -9.978300
  H      2.921920    9.873640   -3.528380
  H      3.452490    8.513100    2.067130
  H      4.291870   10.532490    0.769420
  H      0.423480    7.483430   -6.530120
  H     -0.795890    5.739020   -5.149790
  H     -2.652370    3.358220    4.410920
  H     -2.517300    1.371860    2.587530
  H     -1.447890    2.927420   -2.712260
  H     -2.987470    1.322310   -5.589940
  H     -2.634310    0.976490   -2.569630
  H     -4.092640    0.515960   -3.580390
  H     -1.031190   -0.027850   -6.509330
  H      0.147200    0.792460   -7.542360
  H     -1.501110    1.410260   -7.411010
  H      1.668020    2.164540   -6.489380
  H      4.759170    3.938980   -4.673360
  H      2.936470    3.808210   -7.121710
  H     11.525690    2.421170   -7.907320
  H     10.655960    3.031880  -10.385390
  H      3.795110    2.587930  -14.400740
  H      5.148190    1.392250  -12.616830
  H      1.894310    6.173960  -12.297270
  H      3.130090    7.769080   -6.870630
  H      1.607100    8.829620   -8.594390

 Total Charge           Charge          ....    0
 Multiplicity           Mult            ....    1
 Number of Electrons    NEL             ....  446
 Basis Dimension        Dim             .... 1048

ORBITAL ENERGIES
----------------

  NO   OCC          E(Eh)            E(eV)
   0   2.0000     -88.977566     -2421.2027
   1   2.0000     -19.214780      -522.8607
   2   2.0000     -19.191891      -522.2379
   3   2.0000     -14.444177      -393.0460
   4   2.0000     -14.442369      -392.9968
   5   2.0000     -14.436454      -392.8359
   6   2.0000     -14.433666      -392.7600
   7   2.0000     -14.428730      -392.6257
   8   2.0000     -14.427744      -392.5989
   9   2.0000     -14.420861      -392.4116
  10   2.0000     -14.419765      -392.3818
  11   2.0000     -14.415031      -392.2529
  12   2.0000     -14.408247      -392.0683
  13   2.0000     -14.388200      -391.5228
  14   2.0000     -14.385173      -391.4405
  15   2.0000     -10.375547      -282.3330
  16   2.0000     -10.352671      -281.7105
  17   2.0000     -10.349782      -281.6319
  18   2.0000     -10.341935      -281.4184
  19   2.0000     -10.339138      -281.3422
  20   2.0000     -10.338654      -281.3291
  21   2.0000     -10.337990      -281.3110
  22   2.0000     -10.336345      -281.2663
  23   2.0000     -10.336211      -281.2626
  24   2.0000     -10.333627      -281.1923
  25   2.0000     -10.333016      -281.1757
  26   2.0000     -10.332300      -281.1562
  27   2.0000     -10.327461      -281.0245
  28   2.0000     -10.326541      -280.9995
  29   2.0000     -10.325955      -280.9835
  30   2.0000     -10.323362      -280.9130
  31   2.0000     -10.322964      -280.9021
  32   2.0000     -10.322461      -280.8885
  33   2.0000     -10.322374      -280.8861
  34   2.0000     -10.320272      -280.8289
  35   2.0000     -10.318635      -280.7843
  36   2.0000     -10.318099      -280.7697
  37   2.0000     -10.317285      -280.7476
  38   2.0000     -10.317061      -280.7415
  39   2.0000     -10.315028      -280.6862
  40   2.0000     -10.314570      -280.6737
  41   2.0000     -10.311976      -280.6031
  42   2.0000     -10.310644      -280.5669
  43   2.0000     -10.304013      -280.3864
  44   2.0000     -10.302788      -280.3531
  45   2.0000     -10.301073      -280.3064
  46   2.0000     -10.298979      -280.2495
  47   2.0000     -10.296628      -280.1855
  48   2.0000     -10.294856      -280.1373
  49   2.0000     -10.293421      -280.0982
  50   2.0000     -10.291320      -280.0410
  51   2.0000     -10.290442      -280.0172
  52   2.0000     -10.289203      -279.9835
  53   2.0000     -10.285749      -279.8895
  54   2.0000     -10.285653      -279.8869
  55   2.0000     -10.282995      -279.8145
  56   2.0000     -10.279190      -279.7110
  57   2.0000     -10.277913      -279.6762
  58   2.0000     -10.277658      -279.6693
  59   2.0000     -10.273538      -279.5572
  60   2.0000     -10.273044      -279.5437
  61   2.0000     -10.269128      -279.4372
  62   2.0000     -10.268715      -279.4259
  63   2.0000     -10.268168      -279.4111
  64   2.0000     -10.267512      -279.3932
  65   2.0000     -10.259453      -279.1739
  66   2.0000      -8.072010      -219.6506
  67   2.0000      -6.041001      -164.3840
  68   2.0000      -6.036903      -164.2725
  69   2.0000      -6.034877      -164.2173
  70   2.0000      -1.129170       -30.7263
  71   2.0000      -1.106009       -30.0960
  72   2.0000      -1.102177       -29.9918
  73   2.0000      -1.092075       -29.7169
  74   2.0000      -1.085245       -29.5310
  75   2.0000      -1.082702       -29.4618
  76   2.0000      -1.075870       -29.2759
  77   2.0000      -1.063243       -28.9323
  78   2.0000      -1.058848       -28.8127
  79   2.0000      -1.038652       -28.2632
  80   2.0000      -1.024422       -27.8759
  81   2.0000      -1.015868       -27.6432
  82   2.0000      -1.008415       -27.4404
  83   2.0000      -1.003636       -27.3103
  84   2.0000      -1.000399       -27.2222
  85   2.0000      -0.966043       -26.2874
  86   2.0000      -0.949868       -25.8472
  87   2.0000      -0.947652       -25.7869
  88   2.0000      -0.937648       -25.5147
  89   2.0000      -0.923459       -25.1286
  90   2.0000      -0.910370       -24.7724
  91   2.0000      -0.889422       -24.2024
  92   2.0000      -0.883618       -24.0445
  93   2.0000      -0.879504       -23.9325
  94   2.0000      -0.876798       -23.8589
  95   2.0000      -0.870471       -23.6867
  96   2.0000      -0.863207       -23.4890
  97   2.0000      -0.862032       -23.4571
  98   2.0000      -0.858464       -23.3600
  99   2.0000      -0.839940       -22.8559
 100   2.0000      -0.828781       -22.5523
 101   2.0000      -0.823306       -22.4033
 102   2.0000      -0.806175       -21.9371
 103   2.0000      -0.801545       -21.8112
 104   2.0000      -0.788819       -21.4648
 105   2.0000      -0.784809       -21.3557
 106   2.0000      -0.778688       -21.1892
 107   2.0000      -0.776011       -21.1163
 108   2.0000      -0.766699       -20.8630
 109   2.0000      -0.759754       -20.6740
 110   2.0000      -0.745919       -20.2975
 111   2.0000      -0.740723       -20.1561
 112   2.0000      -0.737485       -20.0680
 113   2.0000      -0.729513       -19.8511
 114   2.0000      -0.725138       -19.7320
 115   2.0000      -0.718850       -19.5609
 116   2.0000      -0.710816       -19.3423
 117   2.0000      -0.701165       -19.0797
 118   2.0000      -0.700493       -19.0614
 119   2.0000      -0.683632       -18.6026
 120   2.0000      -0.682988       -18.5851
 121   2.0000      -0.672881       -18.3100
 122   2.0000      -0.660548       -17.9744
 123   2.0000      -0.658589       -17.9211
 124   2.0000      -0.647663       -17.6238
 125   2.0000      -0.641190       -17.4477
 126   2.0000      -0.640328       -17.4242
 127   2.0000      -0.637755       -17.3542
 128   2.0000      -0.635397       -17.2900
 129   2.0000      -0.632358       -17.2073
 130   2.0000      -0.623930       -16.9780
 131   2.0000      -0.621164       -16.9027
 132   2.0000      -0.613260       -16.6876
 133   2.0000      -0.607086       -16.5196
 134   2.0000      -0.602593       -16.3974
 135   2.0000      -0.595882       -16.2148
 136   2.0000      -0.590979       -16.0814
 137   2.0000      -0.587966       -15.9994
 138   2.0000      -0.585774       -15.9397
 139   2.0000      -0.578512       -15.7421
 140   2.0000      -0.576971       -15.7002
 141   2.0000      -0.575906       -15.6712
 142   2.0000      -0.568200       -15.4615
 143   2.0000      -0.563453       -15.3323
 144   2.0000      -0.561842       -15.2885
 145   2.0000      -0.556331       -15.1385
 146   2.0000      -0.553145       -15.0518
 147   2.0000      -0.547761       -14.9053
 148   2.0000      -0.545635       -14.8475
 149   2.0000      -0.541559       -14.7366
 150   2.0000      -0.536267       -14.5926
 151   2.0000      -0.532711       -14.4958
 152   2.0000      -0.531264       -14.4564
 153   2.0000      -0.529946       -14.4206
 154   2.0000      -0.526633       -14.3304
 155   2.0000      -0.526255       -14.3201
 156   2.0000      -0.524139       -14.2626
 157   2.0000      -0.522892       -14.2286
 158   2.0000      -0.517368       -14.0783
 159   2.0000      -0.514677       -14.0051
 160   2.0000      -0.512918       -13.9572
 161   2.0000      -0.511323       -13.9138
 162   2.0000      -0.509507       -13.8644
 163   2.0000      -0.507825       -13.8186
 164   2.0000      -0.505932       -13.7671
 165   2.0000      -0.503481       -13.7004
 166   2.0000      -0.500576       -13.6214
 167   2.0000      -0.495073       -13.4716
 168   2.0000      -0.493437       -13.4271
 169   2.0000      -0.488519       -13.2933
 170   2.0000      -0.485974       -13.2240
 171   2.0000      -0.482465       -13.1285
 172   2.0000      -0.478366       -13.0170
 173   2.0000      -0.475941       -12.9510
 174   2.0000      -0.474006       -12.8984
 175   2.0000      -0.472509       -12.8576
 176   2.0000      -0.468375       -12.7451
 177   2.0000      -0.465774       -12.6744
 178   2.0000      -0.463237       -12.6053
 179   2.0000      -0.462609       -12.5882
 180   2.0000      -0.455497       -12.3947
 181   2.0000      -0.454363       -12.3638
 182   2.0000      -0.452364       -12.3095
 183   2.0000      -0.448390       -12.2013
 184   2.0000      -0.443298       -12.0627
 185   2.0000      -0.435952       -11.8628
 186   2.0000      -0.434965       -11.8360
 187   2.0000      -0.430106       -11.7038
 188   2.0000      -0.426129       -11.5956
 189   2.0000      -0.419031       -11.4024
 190   2.0000      -0.415653       -11.3105
 191   2.0000      -0.414982       -11.2922
 192   2.0000      -0.413610       -11.2549
 193   2.0000      -0.411941       -11.2095
 194   2.0000      -0.409418       -11.1408
 195   2.0000      -0.398166       -10.8346
 196   2.0000      -0.395605       -10.7650
 197   2.0000      -0.385171       -10.4810
 198   2.0000      -0.382911       -10.4195
 199   2.0000      -0.367691       -10.0054
 200   2.0000      -0.362655        -9.8683
 201   2.0000      -0.356605        -9.7037
 202   2.0000      -0.352937        -9.6039
 203   2.0000      -0.348295        -9.4776
 204   2.0000      -0.345632        -9.4051
 205   2.0000      -0.342823        -9.3287
 206   2.0000      -0.337535        -9.1848
 207   2.0000      -0.337169        -9.1748
 208   2.0000      -0.334565        -9.1040
 209   2.0000      -0.334256        -9.0956
 210   2.0000      -0.331030        -9.0078
 211   2.0000      -0.327947        -8.9239
 212   2.0000      -0.327475        -8.9110
 213   2.0000      -0.323580        -8.8051
 214   2.0000      -0.321494        -8.7483
 215   2.0000      -0.318096        -8.6558
 216   2.0000      -0.312835        -8.5127
 217   2.0000      -0.310632        -8.4527
 218   2.0000      -0.308805        -8.4030
 219   2.0000      -0.297427        -8.0934
 220   2.0000      -0.292625        -7.9627
 221   2.0000      -0.279779        -7.6132
 222   2.0000      -0.240118        -6.5339
 223   0.0000      -0.119759        -3.2588
 224   0.0000      -0.099257        -2.7009
 225   0.0000      -0.083944        -2.2842
 226   0.0000      -0.075391        -2.0515
 227   0.0000      -0.056200        -1.5293

MULLIKEN ATOMIC CHARGES
-----------------------
   0 C :   -0.053997
   1 C :    0.004904
   2 C :   -0.017741
   3 N :    0.029821
   4 C :    0.032472
   5 C :    0.025235
   6 N :   -0.016329
   7 C :    0.038054
   8 C :   -0.030351
   9 C :    0.031096
  10 N :   -0.031612
  11 C :    0.034975
  12 C :    0.052104
  13 N :   -0.003221
  14 C :   -0.076712
  15 N :    0.002836
  16 C :    0.069915
  17 C :   -0.161843
  18 C :    0.208666
  19 O :   -0.131642
  20 C :   -0.041934
  21 C :   -0.017063
  22 N :   -0.053102
  23 C :    0.090527
  24 C :   -0.085772
  25 C :    0.107694
  26 C :   -0.216517
  27 S :    0.194080
  28 C :   -0.117043
  29 C :    0.117555
  30 C :    0.186214
  31 C :   -0.082577
  32 C :    0.076535
  33 C :   -0.050574
  34 C :   -0.013984
  35 C :   -0.070816
  36 C :    0.101091
  37 C :   -0.116835
  38 C :    0.054391
  39 C :   -0.048583
  40 C :    0.054601
  41 N :   -0.048180
  42 C :    0.049762
  43 C :   -0.107411
  44 C :    0.193950
  45 O :   -0.140189
  46 C :   -0.045635
  47 C :   -0.032015
  48 N :   -0.061252
  49 C :    0.079711
  50 C :   -0.096452
  51 C :   -0.018736
  52 C :    0.061335
  53 C :   -0.052315
  54 C :    0.027020
  55 N :   -0.019864
  56 C :    0.025754
  57 C :    0.041717
  58 N :    0.016243
  59 C :   -0.080139
  60 C :    0.021797
  61 C :   -0.059106
  62 N :   -0.002768
  63 C :    0.017707
  64 C :    0.006778
  65 N :   -0.013167
  66 H :   -0.026397
  67 H :    0.024904
  68 H :    0.022192
  69 H :    0.011842
  70 H :    0.023782
  71 H :    0.010109
  72 H :   -0.004312
  73 H :   -0.034238
  74 H :   -0.007563
  75 H :    0.042976
  76 H :    0.019212
  77 H :    0.036664
  78 H :    0.012532
  79 H :    0.029614
  80 H :   -0.035861
  81 H :    0.022716
  82 H :   -0.006978
  83 H :   -0.001714
  84 H :   -0.016157
  85 H :    0.014868
  86 H :    0.014019
  87 H :   -0.034328
  88 H :    0.021298
  89 H :    0.021757
Sum of atomic charges:   -0.0000000

LOEWDIN ATOMIC CHARGES
----------------------
   0 C :    0.025117
   1 C :   -0.015821
   2 C :    0.010909
   3 N :   -0.021391
   4 C :    0.022039
   5 C :    0.013158
   6 N :   -0.033486
   7 C :   -0.048969
   8 C :   -0.002429
   9 C :   -0.017562
  10 N :   -0.037161
  11 C :    0.011466
  12 C :    0.024534
  13 N :   -0.025974
  14 C :    0.082410
  15 N :   -0.068709
  16 C :    0.051280
  17 C :   -0.052495
  18 C :    0.070120
  19 O :   -0.139004
  20 C :   -0.040815
  21 C :    0.023639
  22 N :   -0.093816
  23 C :    0.074611
  24 C :   -0.032752
  25 C :   -0.034554
  26 C :   -0.156781
  27 S :    0.503800
  28 C :   -0.186418
  29 C :   -0.032517
  30 C :   -0.037086
  31 C :    0.011841
  32 C :   -0.024495
  33 C :   -0.031014
  34 C :   -0.025636
  35 C :   -0.005405
  36 C :   -0.043922
  37 C :   -0.034736
  38 C :    0.024147
  39 C :   -0.049242
  40 C :    0.081070
  41 N :   -0.121247
  42 C :    0.047475
  43 C :   -0.018660
  44 C :    0.063910
  45 O :   -0.151557
  46 C :   -0.045371
  47 C :    0.007323
  48 N :   -0.103153
  49 C :    0.058990
  50 C :   -0.050328
  51 C :   -0.019077
  52 C :   -0.019914
  53 C :    0.000161
  54 C :   -0.012026
  55 N :   -0.038016
  56 C :    0.013142
  57 C :    0.018894
  58 N :   -0.022407
  59 C :    0.003833
  60 C :   -0.017026
  61 C :   -0.011406
  62 N :   -0.031501
  63 C :    0.008670
  64 C :   -0.000873
  65 N :   -0.033991
  66 H :    0.046224
  67 H :    0.031635
  68 H :    0.029892
  69 H :    0.026045
  70 H :    0.032844
  71 H :    0.024153
  72 H :    0.034798
  73 H :    0.030776
  74 H :    0.025388
  75 H :    0.027832
  76 H :    0.023875
  77 H :    0.038908
  78 H :    0.031228
  79 H :    0.035363
  80 H :    0.027268
  81 H :    0.042643
  82 H :    0.028218
  83 H :    0.019015
  84 H :    0.029895
  85 H :    0.027058
  86 H :    0.027850
  87 H :    0.042721
  88 H :    0.025385
  89 H :    0.027194

  Mayer bond orders larger than 0.100000
B(  0-C ,  1-C ) :   1.2362 B(  0-C ,  7-C ) :   0.1488 B(  0-C ,  9-C ) :   1.2291
B(  0-C , 66-H ) :   1.0638 B(  1-C ,  2-C ) :   1.1638 B(  1-C ,  6-N ) :   1.3696
B(  2-C ,  3-N ) :   1.4831 B(  2-C ,  7-C ) :   1.3184 B(  3-N ,  4-C ) :   1.7091
B(  4-C ,  5-C ) :   1.1636 B(  4-C , 67-H ) :   0.9736 B(  5-C ,  6-N ) :   1.7305
B(  5-C , 68-H ) :   0.9731 B(  7-C ,  8-C ) :   1.3276 B(  7-C , 14-C ) :   0.9617
B(  8-C ,  9-C ) :   1.1788 B(  8-C , 13-N ) :   1.4322 B(  9-C , 10-N ) :   1.3535
B( 10-N , 11-C ) :   1.6935 B( 11-C , 12-C ) :   1.1809 B( 11-C , 69-H ) :   0.9656
B( 12-C , 13-N ) :   1.6804 B( 12-C , 70-H ) :   0.9715 B( 14-C , 15-N ) :   1.6895
B( 14-C , 16-C ) :   0.1355 B( 14-C , 25-C ) :   1.0573 B( 15-N , 16-C ) :   1.3083
B( 16-C , 17-C ) :   1.0391 B( 16-C , 21-C ) :   1.4355 B( 17-C , 18-C ) :   0.8880
B( 17-C , 25-C ) :   1.6241 B( 18-C , 19-O ) :   2.2248 B( 18-C , 20-C ) :   0.9059
B( 20-C , 21-C ) :   1.0486 B( 20-C , 24-C ) :   1.6158 B( 21-C , 22-N ) :   1.3090
B( 22-N , 23-C ) :   1.6643 B( 23-C , 24-C ) :   1.0679 B( 23-C , 71-H ) :   0.9891
B( 24-C , 72-H ) :   1.0096 B( 25-C , 26-C ) :   1.0333 B( 26-C , 27-S ) :   1.2053
B( 26-C , 28-C ) :   0.1161 B( 26-C , 30-C ) :   1.3190 B( 27-S , 28-C ) :   1.1223
B( 28-C , 29-C ) :   1.3005 B( 28-C , 38-C ) :   1.1435 B( 29-C , 30-C ) :   1.2054
B( 29-C , 37-C ) :   1.2023 B( 30-C , 31-C ) :   1.2047 B( 31-C , 32-C ) :   1.4985
B( 31-C , 73-H ) :   0.9940 B( 32-C , 33-C ) :   1.0231 B( 32-C , 35-C ) :   1.2092
B( 33-C , 34-C ) :   1.9757 B( 33-C , 74-H ) :   0.9522 B( 34-C , 75-H ) :   0.9499
B( 34-C , 76-H ) :   0.9509 B( 35-C , 36-C ) :   1.0900 B( 35-C , 37-C ) :   1.5240
B( 36-C , 77-H ) :   0.9412 B( 36-C , 78-H ) :   0.9543 B( 36-C , 79-H ) :   0.9400
B( 37-C , 80-H ) :   0.9920 B( 38-C , 39-C ) :   1.5982 B( 38-C , 81-H ) :   0.9583
B( 39-C , 40-C ) :   1.2035 B( 39-C , 82-H ) :   0.9484 B( 40-C , 41-N ) :   1.5365
B( 40-C , 42-C ) :   0.1079 B( 40-C , 51-C ) :   1.0352 B( 41-N , 42-C ) :   1.4040
B( 42-C , 43-C ) :   1.0386 B( 42-C , 47-C ) :   1.3795 B( 43-C , 44-C ) :   0.8699
B( 43-C , 51-C ) :   1.6863 B( 44-C , 45-O ) :   2.2752 B( 44-C , 46-C ) :   0.9168
B( 46-C , 47-C ) :   1.0725 B( 46-C , 50-C ) :   1.5691 B( 47-C , 48-N ) :   1.3366
B( 48-N , 49-C ) :   1.6282 B( 49-C , 50-C ) :   1.1055 B( 49-C , 83-H ) :   0.9897
B( 50-C , 84-H ) :   1.0108 B( 51-C , 52-C ) :   0.9320 B( 52-C , 53-C ) :   1.3316
B( 52-C , 59-C ) :   0.1477 B( 52-C , 61-C ) :   1.3334 B( 53-C , 54-C ) :   1.1593
B( 53-C , 58-N ) :   1.4590 B( 54-C , 55-N ) :   1.3682 B( 54-C , 59-C ) :   1.2273
B( 55-N , 56-C ) :   1.7329 B( 56-C , 57-C ) :   1.1660 B( 56-C , 85-H ) :   0.9727
B( 57-C , 58-N ) :   1.7063 B( 57-C , 86-H ) :   0.9726 B( 59-C , 60-C ) :   1.2308
B( 59-C , 87-H ) :   1.0673 B( 60-C , 61-C ) :   1.1738 B( 60-C , 65-N ) :   1.3687
B( 61-C , 62-N ) :   1.4389 B( 62-N , 63-C ) :   1.6965 B( 63-C , 64-C ) :   1.1717
B( 63-C , 88-H ) :   0.9619 B( 64-C , 65-N ) :   1.7298 B( 64-C , 89-H ) :   0.9693

-----------------------------------------------------------------------------
         ABSORPTION SPECTRUM VIA TRANSITION ELECTRIC DIPOLE MOMENTS
-----------------------------------------------------------------------------
State   Energy  Wavelength   fosc         T2         TX        TY        TZ
        (cm-1)    (nm)                  (au**2)     (au)      (au)      (au)
-----------------------------------------------------------------------------
   0   10573.9    945.7   0.213269039   6.64000   1.54641  -0.44283  -2.01309
   1   15795.9    633.1   0.854905912  17.81764   3.37130  -0.07452  -2.53898
   2   17228.1    580.4   0.009753061   0.18637  -0.23150   0.30594  -0.19794
   3   20318.0    492.2   0.068144751   1.10415  -0.95303   0.26403   0.35521
   4   20571.1    486.1   0.034699722   0.55532   0.26065  -0.11373  -0.68880
   5   21602.6    462.9   0.288435126   4.39559   1.28700   1.19334  -1.14681
   6   21796.4    458.8   0.085119581   1.28564   0.66929   0.46250  -0.78980
   7   22259.5    449.2   0.038528066   0.56982   0.43317   0.16813  -0.59491
   8   23062.2    433.6   0.026288997   0.37527  -0.22513   0.04465  -0.56798
   9   23266.8    429.8   0.036822480   0.52102   0.36398   0.56876   0.25504
  10   24044.1    415.9   0.101269291   1.38658  -0.20543  -0.77610   0.86142
  11   24606.7    406.4   0.004537846   0.06071  -0.19798  -0.04925  -0.13817
  12   25201.1    396.8   0.017547066   0.22922  -0.33733   0.20975  -0.26727
  13   25388.0    393.9   0.074681344   0.96841  -0.63522   0.59515  -0.45903
  14   25746.2    388.4   0.074457968   0.95208  -0.96855   0.06344  -0.09983
  15   25966.4    385.1   0.001518377   0.01925  -0.03387  -0.12923   0.03744
  16   25987.5    384.8   0.044972856   0.56972  -0.54761   0.42089  -0.30447
  17   26245.9    381.0   0.000350855   0.00440   0.02502   0.04604  -0.04068
  18   26550.0    376.6   0.194816536   2.41566   1.36029   0.43925  -0.61019
  19   26720.1    374.3   0.113525066   1.39872   0.55941  -0.68099   0.78868
  20   27035.4    369.9   0.064150612   0.78117   0.55965   0.22251  -0.64688
  21   27206.9    367.6   0.035353727   0.42779  -0.04862  -0.14122   0.63678
  22   27323.9    366.0   0.015229421   0.18349   0.10338   0.20876  -0.35948
  23   27552.7    362.9   0.027749587   0.33156   0.45621  -0.02190   0.35066
  24   27632.7    361.9   0.013440398   0.16013  -0.29624  -0.06509  -0.26102
  25   28303.5    353.3   0.016456972   0.19142   0.11984   0.41009   0.09427
  26   28426.4    351.8   0.061374763   0.71079  -0.42424   0.04779   0.72700
  27   29019.6    344.6   0.077483085   0.87901  -0.88288  -0.12366   0.29025
  28   29948.8    333.9   0.005095350   0.05601  -0.02646  -0.21782   0.08867
  29   30111.1    332.1   0.018807470   0.20563  -0.00884   0.39024  -0.23078
  30   30330.8    329.7   0.142748718   1.54940  -0.78945  -0.65428  -0.70575
  31   30593.1    326.9   0.005918358   0.06369  -0.05337   0.15534   0.19160
  32   30666.4    326.1   0.025683087   0.27571   0.15339   0.12188   0.48717
  33   30825.4    324.4   0.023029867   0.24596  -0.11162   0.18409  -0.44677
  34   30927.9    323.3   0.024200206   0.25760  -0.36448  -0.34721   0.06481
  35   31103.1    321.5   0.017968175   0.19018   0.10311   0.41496  -0.08580
  36   31255.5    319.9   0.011739861   0.12365  -0.15013  -0.00683  -0.31791
  37   31295.2    319.5   0.009190222   0.09668   0.25591  -0.01599  -0.17588
  38   31742.4    315.0   0.109367093   1.13429   0.22437  -0.40398  -0.95956
  39   31820.5    314.3   0.060800437   0.62904   0.15237  -0.71755  -0.30156
  40   32013.3    312.4   0.056273868   0.57870  -0.32700  -0.31897   0.60830
  41   32160.7    310.9   0.021277656   0.21781   0.17919   0.06880  -0.42540
  42   32399.4    308.6   0.003524705   0.03581   0.14316  -0.11042   0.05591
  43   32844.4    304.5   0.037763187   0.37852   0.28480   0.24750  -0.48595
  44   33024.8    302.8   0.005189660   0.05173  -0.06821  -0.07814  -0.20242
  45   33088.3    302.2   0.007464622   0.07427  -0.12511  -0.24168  -0.01445
  46   33310.3    300.2   0.024767539   0.24478   0.19195  -0.43090   0.14922
  47   33366.1    299.7   0.037264127   0.36767   0.08996  -0.30893  -0.51395
  48   33513.0    298.4   0.089800349   0.88214   0.28613   0.02666  -0.89418
  49   33675.5    297.0   0.019658824   0.19218   0.14595  -0.08735  -0.40405
  50   33927.4    294.7   0.003933459   0.03817   0.00347  -0.19088  -0.04148
  51   34095.2    293.3   0.017668823   0.17060  -0.10388   0.08364   0.39092
  52   34257.5    291.9   0.019347490   0.18593   0.11616   0.12554   0.39582
  53   34731.6    287.9   0.074553787   0.70668  -0.78181   0.29860  -0.07935
  54   34904.4    286.5   0.029243390   0.27582  -0.15337   0.00681   0.50224
  55   35041.0    285.4   0.047813546   0.44921   0.50449  -0.03395   0.43994
  56   35197.5    284.1   0.101207541   0.94662  -0.87012  -0.25907   0.34984
  57   35260.9    283.6   0.012913525   0.12057  -0.30302  -0.16331   0.04554
  58   35300.3    283.3   0.054831560   0.51136   0.70507  -0.08819   0.08034
  59   35577.6    281.1   0.064988123   0.60136   0.67006   0.33583  -0.19900
  60   35688.7    280.2   0.020801503   0.19188   0.37607   0.09721  -0.20249
  61   35944.7    278.2   0.014369242   0.13161  -0.20342  -0.03886  -0.29785
  62   36036.0    277.5   0.001183694   0.01081  -0.09410  -0.01068   0.04295
  63   36215.7    276.1   0.004548014   0.04134   0.04105  -0.09604  -0.17445
  64   36227.3    276.0   0.032108005   0.29178   0.43006   0.19761   0.26033
  65   36441.1    274.4   0.005038885   0.04552   0.06036  -0.12263  -0.16383
  66   36521.3    273.8   0.024971867   0.22510   0.34273   0.27159   0.18407
  67   36752.7    272.1   0.000743713   0.00666   0.02344  -0.07573   0.01944
  68   36883.4    271.1   0.098803192   0.88189  -0.74532  -0.31816   0.47452
  69   37278.6    268.3   0.033285223   0.29395   0.39391  -0.35150   0.12341
  70   37625.1    265.8   0.052761560   0.46165  -0.54836   0.39744   0.05473
  71   37821.8    264.4   0.041547487   0.36164  -0.22000  -0.42216   0.36745
  72   37938.4    263.6   0.005543474   0.04810  -0.14685   0.15171   0.05935
  73   38075.9    262.6   0.014409793   0.12459  -0.33009   0.06659  -0.10582
  74   38189.4    261.9   0.026687478   0.23006  -0.22469   0.29789   0.30139
  75   38343.5    260.8   0.011770570   0.10106   0.17901   0.20084   0.16935
  76   38712.9    258.3   0.024565851   0.20891   0.28739  -0.04770  -0.35219
  77   38855.2    257.4   0.007567928   0.06412   0.19896   0.12364  -0.09619
  78   38984.0    256.5   0.033689758   0.28450  -0.20584  -0.43646   0.22724
  79   39047.0    256.1   0.003552070   0.02995   0.06581   0.03259  -0.15670
  80   39262.2    254.7   0.003880798   0.03254   0.11631  -0.12479   0.05867
  81   39306.4    254.4   0.001545718   0.01295  -0.03787   0.07670  -0.07503
  82   39432.8    253.6   0.019230029   0.16055  -0.05745   0.19695   0.34418
  83   39565.9    252.7   0.001493496   0.01243  -0.09250  -0.02276  -0.05790
  84   39592.3    252.6   0.002815128   0.02341   0.13777  -0.05039  -0.04345
  85   39930.2    250.4   0.000389522   0.00321  -0.00369  -0.05647  -0.00291
  86   39966.6    250.2   0.141951098   1.16928  -0.70231  -0.81346  -0.11966
  87   40068.3    249.6   0.022875556   0.18795  -0.17015   0.05938   0.39430
  88   40086.9    249.5   0.018227642   0.14969   0.34322   0.09296  -0.15248
  89   40307.6    248.1   0.037832075   0.30899  -0.18737  -0.13733   0.50500

FINAL SINGLE POINT ENERGY     -3159.751782689266

DIPOLE MOMENT
-------------
                                X             Y             Z
Electronic contribution:     17.67976      14.95151      11.37752
Nuclear contribution   :    -19.45742     -14.53239     -10.76615
                        -----------------------------------------
Total Dipole Moment    :     -1.77766       0.41912       0.61137
                        -----------------------------------------
Magnitude (a.u.)       :      1.92601
Magnitude (Debye)      :      4.89553

Rotational constants in cm-1:     0.001918     0.000684     0.000632
Rotational constants in MHz :    57.503658    20.518926    18.961081

                             ****ORCA TERMINATED NORMALLY****
TOTAL RUN TIME: 0 days 0 hours 10 minutes 36 seconds 572 msec
