                         Program Version 4.2.0 -  RELEASE  -
|  1> # ORCA input file
|  2> # SCF done       -186.158845544615          0.000219481781
|  3> ! CAM-B3LYP def2-SVP def2/J RIJCOSX Grid4 TightSCF
|  4> %maxcore 5000
|  5> %tddft
|  6>     Mode sTDDFT
|  7>     Ethresh 5.0
|  8>     maxcore 5000
|  9> end
| 10>
| 11> %pal
| 12>   nprocs 6
| 13>   end
| 14> * xyz 0 1
| 15>    C       -3.53815        -0.58761        -5.18117
| 16>    S       -3.11810         0.99949        -5.66406
| 17>    C       -4.19670         1.69833        -4.47888
| 18>    C       -4.85436         0.70663        -3.77479
| 19>    C       -4.45346        -0.60151        -4.16704
| 20>    C       -4.95431        -1.81883        -3.51296
| 21>    O       -4.66281        -2.93868        -3.89057
| 22>    C       -5.80362        -1.56096        -2.33187
| 23>    C       -6.15411        -2.62988        -1.51048
| 24>    C       -6.93084        -2.43206        -0.38593
| 25>    C       -7.39565        -1.16174        -0.05935
| 26>    C       -8.19141        -0.92478         1.18971
| 27>    C       -7.26199        -0.48920         2.32510
| 28>    C       -7.06786        -0.09952        -0.89069
| 29>    C       -6.27478        -0.27895        -2.01549
| 30>    C       -5.98046         0.90529        -2.85578
| 31>    O       -6.67184         1.90510        -2.83344
| 32>    C       -4.23901         3.08877        -4.17330
| 33>    N       -4.12141         4.13554        -5.05709
| 34>    C       -4.08310         4.04570        -6.49437
| 35>    C       -5.40449         3.54314        -7.06895
| 36>    C       -4.21083         5.38142        -4.39876
| 37>    O       -4.17306         6.45255        -4.98175
| 38>    C       -4.33642         5.03591        -3.01214
| 39>    C       -4.35579         3.62879        -2.90120
| 40>    C       -4.44787         3.29511        -1.49806
| 41>    O       -4.47831         2.23116        -0.91198
| 42>    N       -4.49866         4.53822        -0.84080
| 43>    C       -4.65465         4.57122         0.59227
| 44>    C       -3.32686         4.77245         1.32176
| 45>    C       -4.43660         5.59812        -1.73057
| 46>    C       -4.50556         6.97528        -1.51411
| 47>    C       -4.54017         7.65776        -0.31595
| 48>    N       -4.71407         8.96597        -0.21859
| 49>    N       -4.94397         9.80756        -1.29706
| 50>    C       -5.55757        11.01413        -0.76949
| 51>    C       -7.09289        10.96746        -0.78259
| 52>    C       -7.68045         9.71648        -0.12576
| 53>    C       -7.61194        12.29918        -0.20012
| 54>    C       -6.79343        12.80309         1.04581
| 55>    N       -7.74192        13.24624         2.05297
| 56>    S       -9.09921        12.21272         1.89655
| 57>    N       -9.01283        12.18311         0.17487
| 58>    C       -5.90943        11.72151         1.68239
| 59>    C       -5.14041        12.33342         2.85137
| 60>    C       -4.96401        11.09352         0.64614
| 61>    N       -4.72504         9.69236         0.94896
| 62>    C       -4.06443         9.24480         2.08920
| 63>    C       -4.61745         8.16689         2.80586
| 64>    C       -3.94683         7.61326         3.94304
| 65>    N       -4.52212         6.60400         4.61390
| 66>    C       -5.69117         6.16110         4.22656
| 67>    C       -6.34993         6.71559         3.11948
| 68>    N       -5.81785         7.68305         2.41462
| 69>    C       -2.71234         8.14001         4.38965
| 70>    C       -2.24745         9.31431         3.74417
| 71>    C       -2.89144         9.84980         2.58071
| 72>    N       -2.35802        10.91322         1.94565
| 73>    C       -1.25510        11.43437         2.42332
| 74>    C       -0.66242        10.95624         3.60051
| 75>    N       -1.16261         9.92763         4.23577
| 76>    C       -1.95250         7.56090         5.44813
| 77>    S       -0.70442         8.51388         6.21955
| 78>    C       -0.32990         7.22901         7.29684
| 79>    C       -1.06480         6.11591         7.05826
| 80>    C       -1.99496         6.29022         6.00800
| 81>    S       -2.97926         4.94305         5.47845
| 82>    H       -3.08948        -1.43528        -5.66044
| 83>    H       -5.79621        -3.61430        -1.77430
| 84>    H       -7.18334        -3.27145         0.24633
| 85>    H       -8.71655        -1.83710         1.47907
| 86>    H       -8.93138        -0.14221         1.01136
| 87>    H       -6.53665        -1.27041         2.54077
| 88>    H       -7.83353        -0.28577         3.22774
| 89>    H       -6.71976         0.40999         2.04271
| 90>    H       -7.41788         0.89901        -0.67400
| 91>    H       -3.25838         3.39591        -6.80409
| 92>    H       -3.88434         5.06259        -6.84598
| 93>    H       -5.63084         2.54447        -6.70208
| 94>    H       -5.34791         3.51232        -8.15355
| 95>    H       -6.21390         4.20784        -6.77725
| 96>    H       -5.06006         3.59265         0.86927
| 97>    H       -5.38571         5.33761         0.86314
| 98>    H       -2.67248         3.92725         1.12461
| 99>    H       -3.49557         4.83393         2.39454
|100>    H       -2.82143         5.67768         0.99011
|101>    H       -4.49783         7.53913        -2.43639
|102>    H       -4.41065         7.15449         0.62246
|103>    H       -5.50655         9.34466        -2.00764
|104>    H       -5.22175        11.85947        -1.37878
|105>    H       -7.41347        10.94879        -1.83190
|106>    H       -7.26258         9.50434         0.85217
|107>    H       -7.51554         8.84677        -0.75936
|108>    H       -8.75283         9.85101        -0.01783
|109>    H       -7.52111        13.05473        -0.99042
|110>    H       -6.16039        13.64797         0.75607
|111>    H       -8.00535        14.22099         1.94334
|112>    H       -9.58483        12.91800        -0.22656
|113>    H       -6.57345        10.95361         2.08518
|114>    H       -4.39189        13.03783         2.49482
|115>    H       -4.64245        11.56157         3.42955
|116>    H       -5.83428        12.85751         3.50272
|117>    H       -4.01404        11.64292         0.63027
|118>    H       -6.11091         5.34584         4.79762
|119>    H       -7.32035         6.36280         2.79908
|120>    H       -0.84466        12.27466         1.88043
|121>    H        0.20586        11.42538         4.04000
|122>    H        0.43464         7.35976         8.03688
|123>    H       -0.96752         5.19403         7.60463
|124>    H       -2.12400         4.03254         5.99721
|125> *
|126>
|127>                          ****END OF INPUT****

CARTESIAN COORDINATES (ANGSTROEM)
---------------------------------
  C     -3.538150   -0.587610   -5.181170
  S     -3.118100    0.999490   -5.664060
  C     -4.196700    1.698330   -4.478880
  C     -4.854360    0.706630   -3.774790
  C     -4.453460   -0.601510   -4.167040
  C     -4.954310   -1.818830   -3.512960
  O     -4.662810   -2.938680   -3.890570
  C     -5.803620   -1.560960   -2.331870
  C     -6.154110   -2.629880   -1.510480
  C     -6.930840   -2.432060   -0.385930
  C     -7.395650   -1.161740   -0.059350
  C     -8.191410   -0.924780    1.189710
  C     -7.261990   -0.489200    2.325100
  C     -7.067860   -0.099520   -0.890690
  C     -6.274780   -0.278950   -2.015490
  C     -5.980460    0.905290   -2.855780
  O     -6.671840    1.905100   -2.833440
  C     -4.239010    3.088770   -4.173300
  N     -4.121410    4.135540   -5.057090
  C     -4.083100    4.045700   -6.494370
  C     -5.404490    3.543140   -7.068950
  C     -4.210830    5.381420   -4.398760
  O     -4.173060    6.452550   -4.981750
  C     -4.336420    5.035910   -3.012140
  C     -4.355790    3.628790   -2.901200
  C     -4.447870    3.295110   -1.498060
  O     -4.478310    2.231160   -0.911980
  N     -4.498660    4.538220   -0.840800
  C     -4.654650    4.571220    0.592270
  C     -3.326860    4.772450    1.321760
  C     -4.436600    5.598120   -1.730570
  C     -4.505560    6.975280   -1.514110
  C     -4.540170    7.657760   -0.315950
  N     -4.714070    8.965970   -0.218590
  N     -4.943970    9.807560   -1.297060
  C     -5.557570   11.014130   -0.769490
  C     -7.092890   10.967460   -0.782590
  C     -7.680450    9.716480   -0.125760
  C     -7.611940   12.299180   -0.200120
  C     -6.793430   12.803090    1.045810
  N     -7.741920   13.246240    2.052970
  S     -9.099210   12.212720    1.896550
  N     -9.012830   12.183110    0.174870
  C     -5.909430   11.721510    1.682390
  C     -5.140410   12.333420    2.851370
  C     -4.964010   11.093520    0.646140
  N     -4.725040    9.692360    0.948960
  C     -4.064430    9.244800    2.089200
  C     -4.617450    8.166890    2.805860
  C     -3.946830    7.613260    3.943040
  N     -4.522120    6.604000    4.613900
  C     -5.691170    6.161100    4.226560
  C     -6.349930    6.715590    3.119480
  N     -5.817850    7.683050    2.414620
  C     -2.712340    8.140010    4.389650
  C     -2.247450    9.314310    3.744170
  C     -2.891440    9.849800    2.580710
  N     -2.358020   10.913220    1.945650
  C     -1.255100   11.434370    2.423320
  C     -0.662420   10.956240    3.600510
  N     -1.162610    9.927630    4.235770
  C     -1.952500    7.560900    5.448130
  S     -0.704420    8.513880    6.219550
  C     -0.329900    7.229010    7.296840
  C     -1.064800    6.115910    7.058260
  C     -1.994960    6.290220    6.008000
  S     -2.979260    4.943050    5.478450
  H     -3.089480   -1.435280   -5.660440
  H     -5.796210   -3.614300   -1.774300
  H     -7.183340   -3.271450    0.246330
  H     -8.716550   -1.837100    1.479070
  H     -8.931380   -0.142210    1.011360
  H     -6.536650   -1.270410    2.540770
  H     -7.833530   -0.285770    3.227740
  H     -6.719760    0.409990    2.042710
  H     -7.417880    0.899010   -0.674000
  H     -3.258380    3.395910   -6.804090
  H     -3.884340    5.062590   -6.845980
  H     -5.630840    2.544470   -6.702080
  H     -5.347910    3.512320   -8.153550
  H     -6.213900    4.207840   -6.777250
  H     -5.060060    3.592650    0.869270
  H     -5.385710    5.337610    0.863140
  H     -2.672480    3.927250    1.124610
  H     -3.495570    4.833930    2.394540
  H     -2.821430    5.677680    0.990110
  H     -4.497830    7.539130   -2.436390
  H     -4.410650    7.154490    0.622460
  H     -5.506550    9.344660   -2.007640
  H     -5.221750   11.859470   -1.378780
  H     -7.413470   10.948790   -1.831900
  H     -7.262580    9.504340    0.852170
  H     -7.515540    8.846770   -0.759360
  H     -8.752830    9.851010   -0.017830
  H     -7.521110   13.054730   -0.990420
  H     -6.160390   13.647970    0.756070
  H     -8.005350   14.220990    1.943340
  H     -9.584830   12.918000   -0.226560
  H     -6.573450   10.953610    2.085180
  H     -4.391890   13.037830    2.494820
  H     -4.642450   11.561570    3.429550
  H     -5.834280   12.857510    3.502720
  H     -4.014040   11.642920    0.630270
  H     -6.110910    5.345840    4.797620
  H     -7.320350    6.362800    2.799080
  H     -0.844660   12.274660    1.880430
  H      0.205860   11.425380    4.040000
  H      0.434640    7.359760    8.036880
  H     -0.967520    5.194030    7.604630
  H     -2.124000    4.032540    5.997210

 Total Charge           Charge          ....    0
 Multiplicity           Mult            ....    1
 Number of Electrons    NEL             ....  504
 Basis Dimension        Dim             .... 1169

ORBITAL ENERGIES
----------------

  NO   OCC          E(Eh)            E(eV)
   0   2.0000     -88.960586     -2420.7406
   1   2.0000     -88.953113     -2420.5373
   2   2.0000     -88.949467     -2420.4380
   3   2.0000     -88.932312     -2419.9712
   4   2.0000     -19.183597      -522.0122
   5   2.0000     -19.176544      -521.8203
   6   2.0000     -19.167880      -521.5845
   7   2.0000     -19.137570      -520.7598
   8   2.0000     -14.522293      -395.1717
   9   2.0000     -14.468807      -393.7163
  10   2.0000     -14.453685      -393.3048
  11   2.0000     -14.445750      -393.0888
  12   2.0000     -14.444825      -393.0637
  13   2.0000     -14.444451      -393.0535
  14   2.0000     -14.441357      -392.9693
  15   2.0000     -14.425298      -392.5323
  16   2.0000     -14.424936      -392.5225
  17   2.0000     -14.420729      -392.4080
  18   2.0000     -14.414477      -392.2379
  19   2.0000     -10.347648      -281.5738
  20   2.0000     -10.340374      -281.3759
  21   2.0000     -10.339878      -281.3624
  22   2.0000     -10.339167      -281.3430
  23   2.0000     -10.338861      -281.3347
  24   2.0000     -10.337906      -281.3087
  25   2.0000     -10.337666      -281.3022
  26   2.0000     -10.337355      -281.2937
  27   2.0000     -10.336549      -281.2718
  28   2.0000     -10.334668      -281.2206
  29   2.0000     -10.334012      -281.2028
  30   2.0000     -10.331918      -281.1458
  31   2.0000     -10.325438      -280.9694
  32   2.0000     -10.320060      -280.8231
  33   2.0000     -10.317301      -280.7480
  34   2.0000     -10.316755      -280.7332
  35   2.0000     -10.313391      -280.6416
  36   2.0000     -10.312913      -280.6286
  37   2.0000     -10.311405      -280.5876
  38   2.0000     -10.310657      -280.5673
  39   2.0000     -10.309235      -280.5285
  40   2.0000     -10.304624      -280.4031
  41   2.0000     -10.298012      -280.2231
  42   2.0000     -10.294874      -280.1378
  43   2.0000     -10.291005      -280.0325
  44   2.0000     -10.290264      -280.0123
  45   2.0000     -10.288181      -279.9556
  46   2.0000     -10.277005      -279.6515
  47   2.0000     -10.276188      -279.6293
  48   2.0000     -10.273793      -279.5641
  49   2.0000     -10.272911      -279.5401
  50   2.0000     -10.265026      -279.3256
  51   2.0000     -10.262689      -279.2620
  52   2.0000     -10.260992      -279.2158
  53   2.0000     -10.260839      -279.2116
  54   2.0000     -10.259671      -279.1798
  55   2.0000     -10.257990      -279.1341
  56   2.0000     -10.257498      -279.1207
  57   2.0000     -10.256606      -279.0964
  58   2.0000     -10.253697      -279.0173
  59   2.0000     -10.252564      -278.9864
  60   2.0000     -10.249512      -278.9034
  61   2.0000     -10.248106      -278.8651
  62   2.0000     -10.247441      -278.8470
  63   2.0000     -10.243776      -278.7473
  64   2.0000     -10.235520      -278.5227
  65   2.0000     -10.227410      -278.3020
  66   2.0000     -10.213010      -277.9101
  67   2.0000      -8.052196      -219.1114
  68   2.0000      -8.048365      -219.0071
  69   2.0000      -8.043537      -218.8758
  70   2.0000      -8.025287      -218.3792
  71   2.0000      -6.025254      -163.9555
  72   2.0000      -6.019090      -163.7878
  73   2.0000      -6.017517      -163.7450
  74   2.0000      -6.013196      -163.6274
  75   2.0000      -6.013193      -163.6273
  76   2.0000      -6.011021      -163.5682
  77   2.0000      -6.009198      -163.5186
  78   2.0000      -6.008412      -163.4972
  79   2.0000      -6.005552      -163.4194
  80   2.0000      -5.995649      -163.1499
  81   2.0000      -5.991394      -163.0341
  82   2.0000      -5.985560      -162.8754
  83   2.0000      -1.187010       -32.3002
  84   2.0000      -1.106099       -30.0985
  85   2.0000      -1.105723       -30.0883
  86   2.0000      -1.098977       -29.9047
  87   2.0000      -1.097175       -29.8556
  88   2.0000      -1.092438       -29.7268
  89   2.0000      -1.080964       -29.4145
  90   2.0000      -1.063173       -28.9304
  91   2.0000      -1.038934       -28.2708
  92   2.0000      -1.030118       -28.0309
  93   2.0000      -1.021625       -27.7998
  94   2.0000      -1.016087       -27.6491
  95   2.0000      -1.014667       -27.6105
  96   2.0000      -0.984633       -26.7932
  97   2.0000      -0.977458       -26.5980
  98   2.0000      -0.972115       -26.4526
  99   2.0000      -0.963531       -26.2190
 100   2.0000      -0.955119       -25.9901
 101   2.0000      -0.943526       -25.6746
 102   2.0000      -0.906477       -24.6665
 103   2.0000      -0.896997       -24.4085
 104   2.0000      -0.887302       -24.1447
 105   2.0000      -0.883545       -24.0425
 106   2.0000      -0.882404       -24.0114
 107   2.0000      -0.875875       -23.8338
 108   2.0000      -0.861709       -23.4483
 109   2.0000      -0.856773       -23.3140
 110   2.0000      -0.848299       -23.0834
 111   2.0000      -0.843991       -22.9662
 112   2.0000      -0.833934       -22.6925
 113   2.0000      -0.824484       -22.4354
 114   2.0000      -0.821989       -22.3674
 115   2.0000      -0.810322       -22.0500
 116   2.0000      -0.809567       -22.0294
 117   2.0000      -0.800503       -21.7828
 118   2.0000      -0.794329       -21.6148
 119   2.0000      -0.790633       -21.5142
 120   2.0000      -0.784176       -21.3385
 121   2.0000      -0.775156       -21.0931
 122   2.0000      -0.763165       -20.7668
 123   2.0000      -0.755231       -20.5509
 124   2.0000      -0.750561       -20.4238
 125   2.0000      -0.743810       -20.2401
 126   2.0000      -0.735805       -20.0223
 127   2.0000      -0.734712       -19.9925
 128   2.0000      -0.725384       -19.7387
 129   2.0000      -0.718728       -19.5576
 130   2.0000      -0.714073       -19.4309
 131   2.0000      -0.712342       -19.3838
 132   2.0000      -0.700769       -19.0689
 133   2.0000      -0.684863       -18.6361
 134   2.0000      -0.682711       -18.5775
 135   2.0000      -0.678352       -18.4589
 136   2.0000      -0.670915       -18.2565
 137   2.0000      -0.665819       -18.1179
 138   2.0000      -0.659290       -17.9402
 139   2.0000      -0.655692       -17.8423
 140   2.0000      -0.648929       -17.6583
 141   2.0000      -0.646656       -17.5964
 142   2.0000      -0.640810       -17.4373
 143   2.0000      -0.634131       -17.2556
 144   2.0000      -0.632398       -17.2084
 145   2.0000      -0.622131       -16.9290
 146   2.0000      -0.619056       -16.8454
 147   2.0000      -0.616890       -16.7864
 148   2.0000      -0.611978       -16.6528
 149   2.0000      -0.610841       -16.6218
 150   2.0000      -0.605913       -16.4877
 151   2.0000      -0.599042       -16.3008
 152   2.0000      -0.594131       -16.1671
 153   2.0000      -0.592880       -16.1331
 154   2.0000      -0.581501       -15.8234
 155   2.0000      -0.574589       -15.6354
 156   2.0000      -0.568282       -15.4637
 157   2.0000      -0.566644       -15.4192
 158   2.0000      -0.565505       -15.3882
 159   2.0000      -0.558232       -15.1903
 160   2.0000      -0.554813       -15.0972
 161   2.0000      -0.549910       -14.9638
 162   2.0000      -0.546387       -14.8679
 163   2.0000      -0.545045       -14.8314
 164   2.0000      -0.543547       -14.7907
 165   2.0000      -0.540874       -14.7179
 166   2.0000      -0.536504       -14.5990
 167   2.0000      -0.534543       -14.5456
 168   2.0000      -0.532260       -14.4835
 169   2.0000      -0.526881       -14.3372
 170   2.0000      -0.524992       -14.2858
 171   2.0000      -0.523755       -14.2521
 172   2.0000      -0.520536       -14.1645
 173   2.0000      -0.512512       -13.9462
 174   2.0000      -0.509459       -13.8631
 175   2.0000      -0.508446       -13.8355
 176   2.0000      -0.505661       -13.7597
 177   2.0000      -0.503788       -13.7088
 178   2.0000      -0.500087       -13.6081
 179   2.0000      -0.497918       -13.5490
 180   2.0000      -0.496215       -13.5027
 181   2.0000      -0.493786       -13.4366
 182   2.0000      -0.491790       -13.3823
 183   2.0000      -0.489797       -13.3281
 184   2.0000      -0.489446       -13.3185
 185   2.0000      -0.487073       -13.2539
 186   2.0000      -0.485073       -13.1995
 187   2.0000      -0.484129       -13.1738
 188   2.0000      -0.483754       -13.1636
 189   2.0000      -0.480716       -13.0810
 190   2.0000      -0.479064       -13.0360
 191   2.0000      -0.476673       -12.9709
 192   2.0000      -0.473315       -12.8796
 193   2.0000      -0.470842       -12.8123
 194   2.0000      -0.464793       -12.6477
 195   2.0000      -0.460756       -12.5378
 196   2.0000      -0.458378       -12.4731
 197   2.0000      -0.453831       -12.3494
 198   2.0000      -0.451673       -12.2907
 199   2.0000      -0.450838       -12.2679
 200   2.0000      -0.446574       -12.1519
 201   2.0000      -0.445521       -12.1232
 202   2.0000      -0.443414       -12.0659
 203   2.0000      -0.441750       -12.0206
 204   2.0000      -0.440428       -11.9847
 205   2.0000      -0.439054       -11.9473
 206   2.0000      -0.438093       -11.9211
 207   2.0000      -0.434036       -11.8107
 208   2.0000      -0.431844       -11.7511
 209   2.0000      -0.430811       -11.7230
 210   2.0000      -0.427909       -11.6440
 211   2.0000      -0.425740       -11.5850
 212   2.0000      -0.424777       -11.5588
 213   2.0000      -0.422263       -11.4904
 214   2.0000      -0.420445       -11.4409
 215   2.0000      -0.418089       -11.3768
 216   2.0000      -0.416792       -11.3415
 217   2.0000      -0.414167       -11.2701
 218   2.0000      -0.410706       -11.1759
 219   2.0000      -0.405263       -11.0278
 220   2.0000      -0.402744       -10.9592
 221   2.0000      -0.399627       -10.8744
 222   2.0000      -0.396076       -10.7778
 223   2.0000      -0.395944       -10.7742
 224   2.0000      -0.395080       -10.7507
 225   2.0000      -0.392807       -10.6888
 226   2.0000      -0.382126       -10.3982
 227   2.0000      -0.377352       -10.2683
 228   2.0000      -0.368945       -10.0395
 229   2.0000      -0.364602        -9.9213
 230   2.0000      -0.361307        -9.8317
 231   2.0000      -0.352474        -9.5913
 232   2.0000      -0.348769        -9.4905
 233   2.0000      -0.338186        -9.2025
 234   2.0000      -0.335652        -9.1335
 235   2.0000      -0.330766        -9.0006
 236   2.0000      -0.328087        -8.9277
 237   2.0000      -0.320101        -8.7104
 238   2.0000      -0.319547        -8.6953
 239   2.0000      -0.314667        -8.5625
 240   2.0000      -0.313569        -8.5327
 241   2.0000      -0.307148        -8.3579
 242   2.0000      -0.300573        -8.1790
 243   2.0000      -0.295784        -8.0487
 244   2.0000      -0.294303        -8.0084
 245   2.0000      -0.291112        -7.9216
 246   2.0000      -0.290160        -7.8957
 247   2.0000      -0.290038        -7.8923
 248   2.0000      -0.280169        -7.6238
 249   2.0000      -0.264382        -7.1942
 250   2.0000      -0.243663        -6.6304
 251   2.0000      -0.188769        -5.1367
 252   0.0000      -0.101804        -2.7702
 253   0.0000      -0.042102        -1.1456
 254   0.0000      -0.026936        -0.7330
 255   0.0000      -0.023343        -0.6352
 256   0.0000      -0.022471        -0.6115

MULLIKEN ATOMIC CHARGES
-----------------------
   0 C :   -0.112269
   1 S :    0.147844
   2 C :   -0.238228
   3 C :    0.096398
   4 C :   -0.000565
   5 C :    0.136339
   6 O :   -0.162982
   7 C :   -0.027160
   8 C :   -0.015429
   9 C :    0.007306
  10 C :    0.001238
  11 C :    0.070169
  12 C :    0.021365
  13 C :   -0.062483
  14 C :    0.040200
  15 C :    0.108718
  16 O :   -0.165008
  17 C :    0.102221
  18 N :   -0.257159
  19 C :    0.098094
  20 C :    0.004362
  21 C :    0.124410
  22 O :   -0.242003
  23 C :   -0.086529
  24 C :    0.012164
  25 C :    0.136768
  26 O :   -0.214186
  27 N :   -0.277888
  28 C :    0.100173
  29 C :    0.001852
  30 C :    0.149596
  31 C :   -0.159316
  32 C :    0.156693
  33 N :   -0.008132
  34 N :   -0.062444
  35 C :    0.032954
  36 C :    0.010022
  37 C :    0.032188
  38 C :    0.095433
  39 C :   -0.059472
  40 N :   -0.295745
  41 S :    0.219424
  42 N :   -0.323980
  43 C :    0.074062
  44 C :    0.095273
  45 C :    0.091641
  46 N :   -0.169541
  47 C :    0.032717
  48 C :   -0.043557
  49 C :   -0.076844
  50 N :   -0.059901
  51 C :    0.056382
  52 C :    0.051776
  53 N :   -0.026472
  54 C :    0.186860
  55 C :   -0.081757
  56 C :   -0.029130
  57 N :   -0.018121
  58 C :    0.041760
  59 C :    0.045176
  60 N :   -0.062498
  61 C :   -0.257359
  62 S :    0.150182
  63 C :   -0.031334
  64 C :    0.008582
  65 C :    0.003201
  66 S :    0.078653
  67 H :    0.031352
  68 H :   -0.011456
  69 H :   -0.029068
  70 H :   -0.001667
  71 H :    0.008626
  72 H :    0.010209
  73 H :    0.010384
  74 H :    0.017602
  75 H :   -0.022871
  76 H :    0.012492
  77 H :    0.036542
  78 H :    0.024482
  79 H :    0.012194
  80 H :    0.024499
  81 H :    0.029332
  82 H :    0.011604
  83 H :    0.027137
  84 H :    0.013487
  85 H :    0.017027
  86 H :   -0.006511
  87 H :   -0.015223
  88 H :    0.145787
  89 H :    0.004131
  90 H :   -0.005602
  91 H :    0.031454
  92 H :    0.004117
  93 H :    0.028740
  94 H :   -0.002130
  95 H :   -0.002946
  96 H :    0.125973
  97 H :    0.129480
  98 H :   -0.013733
  99 H :   -0.009544
 100 H :    0.010703
 101 H :    0.016282
 102 H :    0.023938
 103 H :    0.017889
 104 H :    0.027587
 105 H :    0.019906
 106 H :    0.019231
 107 H :    0.026348
 108 H :   -0.017580
 109 H :    0.025085
Sum of atomic charges:   -0.0000000

LOEWDIN ATOMIC CHARGES
----------------------
   0 C :   -0.145192
   1 S :    0.468149
   2 C :   -0.146865
   3 C :   -0.082391
   4 C :   -0.093919
   5 C :    0.082877
   6 O :   -0.157488
   7 C :   -0.061149
   8 C :    0.014693
   9 C :   -0.021068
  10 C :   -0.004467
  11 C :   -0.026977
  12 C :   -0.048354
  13 C :    0.012172
  14 C :   -0.030491
  15 C :    0.088822
  16 O :   -0.146750
  17 C :    0.013869
  18 N :   -0.004199
  19 C :    0.028134
  20 C :   -0.063076
  21 C :    0.062631
  22 O :   -0.249467
  23 C :   -0.150694
  24 C :   -0.093057
  25 C :    0.092469
  26 O :   -0.200121
  27 N :   -0.015049
  28 C :    0.029201
  29 C :   -0.069007
  30 C :    0.094070
  31 C :   -0.158033
  32 C :    0.026011
  33 N :    0.146407
  34 N :   -0.005995
  35 C :    0.016897
  36 C :   -0.044266
  37 C :   -0.064530
  38 C :   -0.004070
  39 C :   -0.005638
  40 N :   -0.215559
  41 S :    0.362069
  42 N :   -0.223929
  43 C :   -0.038409
  44 C :   -0.049571
  45 C :    0.041163
  46 N :    0.006972
  47 C :   -0.026708
  48 C :   -0.019355
  49 C :   -0.014563
  50 N :   -0.035418
  51 C :    0.011724
  52 C :    0.022341
  53 N :   -0.039130
  54 C :   -0.016708
  55 C :   -0.016098
  56 C :   -0.011401
  57 N :   -0.028404
  58 C :    0.019545
  59 C :    0.015012
  60 N :   -0.040605
  61 C :   -0.204969
  62 S :    0.465280
  63 C :   -0.171405
  64 C :   -0.093234
  65 C :   -0.163660
  66 S :    0.281947
  67 H :    0.031365
  68 H :    0.033471
  69 H :    0.025593
  70 H :    0.024735
  71 H :    0.028648
  72 H :    0.024220
  73 H :    0.020654
  74 H :    0.026048
  75 H :    0.030429
  76 H :    0.006970
  77 H :    0.034451
  78 H :    0.021675
  79 H :    0.025707
  80 H :    0.030389
  81 H :    0.032914
  82 H :    0.014130
  83 H :    0.035035
  84 H :    0.017826
  85 H :    0.019034
  86 H :    0.037294
  87 H :    0.029413
  88 H :    0.073440
  89 H :    0.026978
  90 H :    0.025035
  91 H :    0.019149
  92 H :    0.021441
  93 H :    0.027034
  94 H :    0.020268
  95 H :    0.020251
  96 H :    0.047099
  97 H :    0.047503
  98 H :    0.024419
  99 H :    0.016137
 100 H :    0.019164
 101 H :    0.024734
 102 H :    0.016462
 103 H :    0.029135
 104 H :    0.032713
 105 H :    0.030195
 106 H :    0.030555
 107 H :    0.024515
 108 H :    0.025926
 109 H :   -0.053167

  Mayer bond orders larger than 0.100000
B(  0-C ,  1-S ) :   1.1621 B(  0-C ,  4-C ) :   1.5415 B(  0-C , 67-H ) :   0.9680
B(  1-S ,  2-C ) :   1.1423 B(  2-C ,  3-C ) :   1.5024 B(  2-C , 17-C ) :   1.0870
B(  3-C ,  4-C ) :   1.2202 B(  3-C , 15-C ) :   0.9478 B(  4-C ,  5-C ) :   0.9443
B(  5-C ,  6-O ) :   2.2511 B(  5-C ,  7-C ) :   0.9417 B(  7-C ,  8-C ) :   1.3890
B(  7-C , 14-C ) :   1.3489 B(  8-C ,  9-C ) :   1.3576 B(  8-C , 68-H ) :   0.9948
B(  9-C , 10-C ) :   1.3679 B(  9-C , 69-H ) :   0.9950 B( 10-C , 11-C ) :   1.0365
B( 10-C , 13-C ) :   1.3324 B( 11-C , 12-C ) :   1.0984 B( 11-C , 70-H ) :   0.9352
B( 11-C , 71-H ) :   0.9355 B( 12-C , 72-H ) :   0.9683 B( 12-C , 73-H ) :   0.9686
B( 12-C , 74-H ) :   0.9715 B( 13-C , 14-C ) :   1.3973 B( 13-C , 75-H ) :   0.9990
B( 14-C , 15-C ) :   0.9171 B( 15-C , 16-O ) :   2.2204 B( 17-C , 18-N ) :   1.1782
B( 17-C , 24-C ) :   1.4283 B( 18-N , 19-C ) :   0.9590 B( 18-N , 21-C ) :   1.0326
B( 19-C , 20-C ) :   1.1168 B( 19-C , 76-H ) :   0.9472 B( 19-C , 77-H ) :   0.9246
B( 20-C , 78-H ) :   0.9673 B( 20-C , 79-H ) :   0.9661 B( 20-C , 80-H ) :   0.9639
B( 21-C , 22-O ) :   2.0753 B( 21-C , 23-C ) :   1.0413 B( 23-C , 24-C ) :   1.2507
B( 23-C , 30-C ) :   1.2531 B( 24-C , 25-C ) :   0.9583 B( 25-C , 26-O ) :   2.0856
B( 25-C , 27-N ) :   1.0512 B( 27-N , 28-C ) :   0.9533 B( 27-N , 30-C ) :   1.1300
B( 28-C , 29-C ) :   1.1124 B( 28-C , 81-H ) :   0.9216 B( 28-C , 82-H ) :   0.9458
B( 29-C , 83-H ) :   0.9532 B( 29-C , 84-H ) :   0.9618 B( 29-C , 85-H ) :   0.9631
B( 30-C , 31-C ) :   1.3554 B( 31-C , 32-C ) :   1.3193 B( 31-C , 86-H ) :   0.9304
B( 32-C , 33-N ) :   1.3333 B( 32-C , 87-H ) :   0.9560 B( 33-N , 34-N ) :   0.9920
B( 33-N , 46-N ) :   0.9419 B( 34-N , 35-C ) :   1.0468 B( 34-N , 88-H ) :   0.9143
B( 35-C , 36-C ) :   1.0502 B( 35-C , 45-C ) :   0.9983 B( 35-C , 89-H ) :   0.9083
B( 36-C , 37-C ) :   1.0512 B( 36-C , 38-C ) :   1.0111 B( 36-C , 90-H ) :   0.9086
B( 37-C , 91-H ) :   0.9610 B( 37-C , 92-H ) :   0.9528 B( 37-C , 93-H ) :   0.9411
B( 38-C , 39-C ) :   0.9741 B( 38-C , 42-N ) :   1.0458 B( 38-C , 94-H ) :   0.9234
B( 39-C , 40-N ) :   1.0725 B( 39-C , 43-C ) :   1.0359 B( 39-C , 95-H ) :   0.9088
B( 40-N , 41-S ) :   0.9832 B( 40-N , 96-H ) :   0.9452 B( 41-S , 42-N ) :   0.9707
B( 42-N , 97-H ) :   0.9423 B( 43-C , 44-C ) :   1.0726 B( 43-C , 45-C ) :   1.0257
B( 43-C , 98-H ) :   0.8475 B( 44-C , 99-H ) :   0.9584 B( 44-C ,100-H ) :   0.9596
B( 44-C ,101-H ) :   0.9472 B( 45-C , 46-N ) :   0.9207 B( 45-C ,102-H ) :   0.8892
B( 46-N , 47-C ) :   1.1008 B( 47-C , 48-C ) :   1.3337 B( 47-C , 54-C ) :   0.1231
B( 47-C , 56-C ) :   1.3381 B( 48-C , 49-C ) :   1.1318 B( 48-C , 53-N ) :   1.4595
B( 49-C , 50-N ) :   1.4310 B( 49-C , 54-C ) :   1.2276 B( 50-N , 51-C ) :   1.6101
B( 51-C , 52-C ) :   1.2041 B( 51-C ,103-H ) :   0.9724 B( 52-C , 53-N ) :   1.6439
B( 52-C ,104-H ) :   0.9744 B( 54-C , 55-C ) :   1.2210 B( 54-C , 61-C ) :   1.1982
B( 55-C , 56-C ) :   1.1534 B( 55-C , 60-N ) :   1.4282 B( 56-C , 57-N ) :   1.4344
B( 57-N , 58-C ) :   1.6449 B( 58-C , 59-C ) :   1.2159 B( 58-C ,105-H ) :   0.9754
B( 59-C , 60-N ) :   1.6373 B( 59-C ,106-H ) :   0.9746 B( 61-C , 62-S ) :   1.1198
B( 61-C , 65-C ) :   1.4745 B( 62-S , 63-C ) :   1.1422 B( 63-C , 64-C ) :   1.5706
B( 63-C ,107-H ) :   0.9698 B( 64-C , 65-C ) :   1.2568 B( 64-C ,108-H ) :   0.9901
B( 65-C , 66-S ) :   1.0707 B( 66-S ,109-H ) :   0.9207

-----------------------------------------------------------------------------
         ABSORPTION SPECTRUM VIA TRANSITION ELECTRIC DIPOLE MOMENTS
-----------------------------------------------------------------------------
State   Energy  Wavelength   fosc         T2         TX        TY        TZ
        (cm-1)    (nm)                  (au**2)     (au)      (au)      (au)
-----------------------------------------------------------------------------
   0    4512.4   2216.1   0.071614737   5.22486   0.52756   0.82192   2.06664
   1   13984.3    715.1   0.134465352   3.16552  -0.59896  -0.74900  -1.49859
   2   14610.0    684.5   0.256322695   5.77580  -0.07675   2.27236   0.77864
   3   17713.9    564.5   0.138075610   2.56613  -0.57543   0.99346  -1.11716
   4   19681.5    508.1   0.003356181   0.05614   0.14329  -0.17931  -0.05877
   5   20498.6    487.8   0.217464634   3.49253  -0.28246   1.29621   1.31628
   6   20942.3    477.5   0.012442902   0.19560   0.30988   0.27312   0.15806
   7   21610.6    462.7   0.011884660   0.18105  -0.29803  -0.03932  -0.30113
   8   24910.9    401.4   0.016207445   0.21419  -0.42765   0.15088  -0.09241
   9   24982.6    400.3   0.000888234   0.01170   0.07112   0.03281  -0.07464
  10   25712.9    388.9   0.249972163   3.20049  -0.01141   1.02174   1.46847
  11   25986.5    384.8   0.005516265   0.06988   0.24990  -0.02242  -0.08326
  12   26996.8    370.4   0.001672963   0.02040   0.01782  -0.14041   0.01923
  13   27303.0    366.3   0.040113129   0.48367  -0.42502   0.45690  -0.30705
  14   27816.7    359.5   0.082470475   0.97604  -0.14486  -0.78328   0.58440
  15   28355.2    352.7   0.007862238   0.09128   0.08254   0.02859  -0.28923
  16   28725.2    348.1   0.016673079   0.19109   0.00901   0.43688  -0.01176
  17   28969.5    345.2   0.108986427   1.23853  -0.14912   1.08838   0.17808
  18   29451.2    339.5   0.008763807   0.09796  -0.19943  -0.12357   0.20718
  19   29940.1    334.0   0.009131524   0.10041   0.16852  -0.21707  -0.15776
  20   30221.0    330.9   0.006294767   0.06857   0.13215   0.13543   0.18102
  21   31371.2    318.8   0.005476619   0.05747   0.06177   0.22019   0.07191
  22   31479.4    317.7   0.017631072   0.18439   0.04219   0.41520  -0.10109
  23   32134.8    311.2   0.008893249   0.09111  -0.12893  -0.15017  -0.22789
  24   32203.8    310.5   0.006483374   0.06628  -0.21211  -0.14586   0.00343
  25   32517.5    307.5   0.009450015   0.09567  -0.16080  -0.25976   0.04837
  26   32880.2    304.1   0.007435836   0.07445  -0.18067  -0.17959   0.09777
  27   33108.1    302.0   0.059638586   0.59302  -0.48256  -0.59686   0.06257
  28   33389.9    299.5   0.028987884   0.28581  -0.48407  -0.20461  -0.09810
  29   33681.1    296.9   0.008463371   0.08272   0.01553   0.28378  -0.04417
  30   33993.5    294.2   0.034639715   0.33547  -0.00960  -0.44027  -0.37622
  31   34343.2    291.2   0.024452706   0.23440  -0.05826  -0.38023   0.29399
  32   34756.2    287.7   0.035499214   0.33625   0.17348   0.53074  -0.15642
  33   34977.9    285.9   0.018830730   0.17723  -0.01780  -0.00005  -0.42062
  34   35167.9    284.4   0.023509458   0.22008  -0.43210   0.06322  -0.17137
  35   35228.5    283.9   0.065129288   0.60864  -0.53562  -0.47056   0.31674
  36   35412.9    282.4   0.247031212   2.29649   1.17938   0.92914   0.20555
  37   35658.1    280.4   0.190496720   1.75876   0.69814   1.07791  -0.33086
  38   35711.6    280.0   0.028595233   0.26361   0.00715   0.51288   0.02258
  39   35821.6    279.2   0.014621525   0.13438  -0.32873   0.15832   0.03535
  40   36074.9    277.2   0.051915428   0.47377  -0.62140  -0.29570  -0.01385
  41   36490.4    274.0   0.033775115   0.30471   0.10040  -0.46064   0.28713
  42   36562.1    273.5   0.027354450   0.24630   0.35682  -0.21374   0.27074
  43   36718.5    272.3   0.074142443   0.66475  -0.27317   0.48902  -0.59244
  44   36844.4    271.4   0.050433453   0.45063   0.12536   0.30308  -0.58571
  45   37081.4    269.7   0.013250888   0.11764  -0.02388  -0.30023   0.16412
  46   37575.3    266.1   0.005042675   0.04418   0.03538  -0.19339  -0.07437
  47   37619.9    265.8   0.015091896   0.13207   0.01290  -0.10343   0.34815
  48   37835.0    264.3   0.044493198   0.38715  -0.18395   0.57143  -0.16362
  49   38102.6    262.4   0.130764612   1.12983  -0.23380   1.02841   0.13240
  50   38355.8    260.7   0.006949570   0.05965   0.15108  -0.19058   0.02243
  51   38494.0    259.8   0.021786850   0.18633   0.04594  -0.36955  -0.21830
  52   38857.8    257.3   0.053287484   0.45146   0.37307   0.49428  -0.26070
  53   39221.0    255.0   0.039695390   0.33319  -0.03385   0.57552  -0.02876
  54   39625.2    252.4   0.301272615   2.50302  -1.10925  -1.12802   0.01304

FINAL SINGLE POINT ENERGY     -4346.913273823353

DIPOLE MOMENT
-------------
                                X             Y             Z
Electronic contribution:     26.95841     -13.40198      -0.24929
Nuclear contribution   :    -26.84166      18.16521       3.71150
                        -----------------------------------------
Total Dipole Moment    :      0.11675       4.76323       3.46221
                        -----------------------------------------
Magnitude (a.u.)       :      5.88972
Magnitude (Debye)      :     14.97049

Rotational constants in cm-1:     0.001389     0.000589     0.000503
Rotational constants in MHz :    41.650230    17.663574    15.073117

                             ****ORCA TERMINATED NORMALLY****
TOTAL RUN TIME: 0 days 0 hours 13 minutes 0 seconds 380 msec
