                         Program Version 4.2.0 -  RELEASE  -
|  1> # ORCA input file
|  2> # SCF done       -192.544692297545          0.000334422994
|  3> ! CAM-B3LYP def2-SVP def2/J RIJCOSX Grid4 TightSCF
|  4> %maxcore 5000
|  5> %tddft
|  6>     Mode sTDDFT
|  7>     Ethresh 5.0
|  8>     maxcore 5000
|  9> end
| 10>
| 11> %pal
| 12>   nprocs 6
| 13>   end
| 14> * xyz 0 1
| 15>    C        0.08306         5.01141         2.99236
| 16>    C       -0.45270         4.73133         4.19045
| 17>    C       -1.45133         3.66462         4.01077
| 18>    C       -2.16206         3.07358         5.06350
| 19>    N       -2.73018         2.59604         5.93896
| 20>    C       -1.52915         3.35641         2.69082
| 21>    C       -0.57769         4.19157         1.98072
| 22>    C       -0.30610         4.20354         0.64392
| 23>    C       -1.01115         3.48910        -0.43473
| 24>    C       -0.21524         3.51829        -1.53710
| 25>    C        0.97337         4.29639        -1.23130
| 26>    C        0.89501         4.74436         0.05613
| 27>    C        2.01034         4.53906        -2.14340
| 28>    N        2.85357         4.73633        -2.89624
| 29>    C       -2.35503         2.96799        -0.39252
| 30>    C       -3.40604         3.64081         0.25868
| 31>    C       -4.74669         3.12707         0.26493
| 32>    N       -5.73950         3.86327         0.82387
| 33>    C       -5.44434         4.97327         1.40360
| 34>    C       -4.10252         5.45701         1.44729
| 35>    N       -3.14113         4.82112         0.87353
| 36>    F       -3.81020         6.60206         2.05842
| 37>    F       -6.43663         5.68493         1.93090
| 38>    C       -5.07411         1.90065        -0.33421
| 39>    C       -4.03995         1.23817        -1.01272
| 40>    C       -2.70077         1.78244        -1.06373
| 41>    N       -1.86995         0.98421        -1.74444
| 42>    S       -2.68208        -0.30019        -2.24593
| 43>    N       -4.11411         0.05905        -1.63901
| 44>    C       -6.41091         1.34562        -0.24474
| 45>    C       -7.12117         1.34301         0.96640
| 46>    C       -8.46331         0.84123         1.05406
| 47>    N       -9.10440         0.84626         2.24965
| 48>    C       -8.50156         1.33895         3.27420
| 49>    C       -7.15735         1.81662         3.19362
| 50>    N       -6.50052         1.78962         2.08667
| 51>    F       -6.53454         2.26763         4.27656
| 52>    F       -9.15496         1.35250         4.43230
| 53>    C       -9.12347         0.30544        -0.06075
| 54>    C       -8.40961         0.27745        -1.26655
| 55>    C       -7.06270         0.79873        -1.35994
| 56>    N       -6.59965         0.74225        -2.61373
| 57>    S       -7.71922         0.09093        -3.54851
| 58>    N       -8.86298        -0.13347        -2.45670
| 59>    C      -10.49119        -0.17530         0.02795
| 60>    C      -10.86459        -1.42465        -0.48566
| 61>    C      -12.21649        -1.90565        -0.40077
| 62>    N      -12.53640        -3.08942        -0.98059
| 63>    C      -11.60870        -3.78005        -1.54724
| 64>    C      -10.24927        -3.34696        -1.54060
| 65>    N       -9.90766        -2.21643        -1.03054
| 66>    F       -9.29415        -4.11300        -2.06035
| 67>    F      -11.95679        -4.92660        -2.12765
| 68>    C      -13.23004        -1.16835         0.24157
| 69>    C      -12.85887         0.09655         0.72991
| 70>    C      -11.50261         0.58671         0.62913
| 71>    N      -11.38644         1.81952         1.13603
| 72>    S      -12.80162         2.28116         1.71024
| 73>    N      -13.65813         0.98249         1.33661
| 74>    C      -14.59549        -1.62592         0.31723
| 75>    C      -15.69518        -0.85341         0.10663
| 76>    C      -16.86755        -1.71132         0.07573
| 77>    C      -18.17583        -1.24839        -0.12526
| 78>    N      -19.24370        -0.86391        -0.29384
| 79>    C      -16.47780        -3.00729         0.25781
| 80>    C      -15.05519        -3.01537         0.49321
| 81>    C      -14.35512        -4.08029         0.97983
| 82>    C      -14.80654        -5.46828         0.98454
| 83>    C      -13.82714        -6.23746         1.48565
| 84>    C      -12.71703        -5.36215         1.89357
| 85>    C      -13.03708        -4.07844         1.58721
| 86>    C      -11.53613        -5.81463         2.49526
| 87>    N      -10.56506        -6.19419         2.97544
| 88>    H        0.82615         5.75405         2.77789
| 89>    H       -0.22226         5.17356         5.14152
| 90>    H       -2.12982         2.58391         2.25134
| 91>    H       -0.42967         3.08975        -2.49730
| 92>    H        1.63810         5.31680         0.57658
| 93>    H      -15.71485         0.20641        -0.06016
| 94>    H      -17.12188        -3.86322         0.31564
| 95>    H      -15.74266        -5.80122         0.58147
| 96>    H      -13.81196        -7.30544         1.59683
| 97>    H      -12.45785        -3.20454         1.81472
| 98> *
| 99>
|100>                          ****END OF INPUT****

CARTESIAN COORDINATES (ANGSTROEM)
---------------------------------
  C      0.083060    5.011410    2.992360
  C     -0.452700    4.731330    4.190450
  C     -1.451330    3.664620    4.010770
  C     -2.162060    3.073580    5.063500
  N     -2.730180    2.596040    5.938960
  C     -1.529150    3.356410    2.690820
  C     -0.577690    4.191570    1.980720
  C     -0.306100    4.203540    0.643920
  C     -1.011150    3.489100   -0.434730
  C     -0.215240    3.518290   -1.537100
  C      0.973370    4.296390   -1.231300
  C      0.895010    4.744360    0.056130
  C      2.010340    4.539060   -2.143400
  N      2.853570    4.736330   -2.896240
  C     -2.355030    2.967990   -0.392520
  C     -3.406040    3.640810    0.258680
  C     -4.746690    3.127070    0.264930
  N     -5.739500    3.863270    0.823870
  C     -5.444340    4.973270    1.403600
  C     -4.102520    5.457010    1.447290
  N     -3.141130    4.821120    0.873530
  F     -3.810200    6.602060    2.058420
  F     -6.436630    5.684930    1.930900
  C     -5.074110    1.900650   -0.334210
  C     -4.039950    1.238170   -1.012720
  C     -2.700770    1.782440   -1.063730
  N     -1.869950    0.984210   -1.744440
  S     -2.682080   -0.300190   -2.245930
  N     -4.114110    0.059050   -1.639010
  C     -6.410910    1.345620   -0.244740
  C     -7.121170    1.343010    0.966400
  C     -8.463310    0.841230    1.054060
  N     -9.104400    0.846260    2.249650
  C     -8.501560    1.338950    3.274200
  C     -7.157350    1.816620    3.193620
  N     -6.500520    1.789620    2.086670
  F     -6.534540    2.267630    4.276560
  F     -9.154960    1.352500    4.432300
  C     -9.123470    0.305440   -0.060750
  C     -8.409610    0.277450   -1.266550
  C     -7.062700    0.798730   -1.359940
  N     -6.599650    0.742250   -2.613730
  S     -7.719220    0.090930   -3.548510
  N     -8.862980   -0.133470   -2.456700
  C    -10.491190   -0.175300    0.027950
  C    -10.864590   -1.424650   -0.485660
  C    -12.216490   -1.905650   -0.400770
  N    -12.536400   -3.089420   -0.980590
  C    -11.608700   -3.780050   -1.547240
  C    -10.249270   -3.346960   -1.540600
  N     -9.907660   -2.216430   -1.030540
  F     -9.294150   -4.113000   -2.060350
  F    -11.956790   -4.926600   -2.127650
  C    -13.230040   -1.168350    0.241570
  C    -12.858870    0.096550    0.729910
  C    -11.502610    0.586710    0.629130
  N    -11.386440    1.819520    1.136030
  S    -12.801620    2.281160    1.710240
  N    -13.658130    0.982490    1.336610
  C    -14.595490   -1.625920    0.317230
  C    -15.695180   -0.853410    0.106630
  C    -16.867550   -1.711320    0.075730
  C    -18.175830   -1.248390   -0.125260
  N    -19.243700   -0.863910   -0.293840
  C    -16.477800   -3.007290    0.257810
  C    -15.055190   -3.015370    0.493210
  C    -14.355120   -4.080290    0.979830
  C    -14.806540   -5.468280    0.984540
  C    -13.827140   -6.237460    1.485650
  C    -12.717030   -5.362150    1.893570
  C    -13.037080   -4.078440    1.587210
  C    -11.536130   -5.814630    2.495260
  N    -10.565060   -6.194190    2.975440
  H      0.826150    5.754050    2.777890
  H     -0.222260    5.173560    5.141520
  H     -2.129820    2.583910    2.251340
  H     -0.429670    3.089750   -2.497300
  H      1.638100    5.316800    0.576580
  H    -15.714850    0.206410   -0.060160
  H    -17.121880   -3.863220    0.315640
  H    -15.742660   -5.801220    0.581470
  H    -13.811960   -7.305440    1.596830
  H    -12.457850   -3.204540    1.814720

 Total Charge           Charge          ....    0
 Multiplicity           Mult            ....    1
 Number of Electrons    NEL             ....  512
 Basis Dimension        Dim             .... 1084

ORBITAL ENERGIES
----------------

  NO   OCC          E(Eh)            E(eV)
   0   2.0000     -89.045196     -2423.0430
   1   2.0000     -89.044739     -2423.0305
   2   2.0000     -89.040838     -2422.9244
   3   2.0000     -24.817505      -675.3186
   4   2.0000     -24.817092      -675.3074
   5   2.0000     -24.816900      -675.3022
   6   2.0000     -24.815492      -675.2639
   7   2.0000     -24.812749      -675.1892
   8   2.0000     -24.812320      -675.1776
   9   2.0000     -14.454895      -393.3377
  10   2.0000     -14.454796      -393.3350
  11   2.0000     -14.453842      -393.3090
  12   2.0000     -14.452558      -393.2741
  13   2.0000     -14.451261      -393.2388
  14   2.0000     -14.451085      -393.2340
  15   2.0000     -14.449945      -393.2030
  16   2.0000     -14.449921      -393.2023
  17   2.0000     -14.449331      -393.1863
  18   2.0000     -14.449101      -393.1800
  19   2.0000     -14.445708      -393.0877
  20   2.0000     -14.445272      -393.0758
  21   2.0000     -14.415289      -392.2600
  22   2.0000     -14.413433      -392.2094
  23   2.0000     -14.412795      -392.1921
  24   2.0000     -14.412262      -392.1776
  25   2.0000     -10.433080      -283.8985
  26   2.0000     -10.432492      -283.8825
  27   2.0000     -10.431875      -283.8658
  28   2.0000     -10.431245      -283.8486
  29   2.0000     -10.428041      -283.7614
  30   2.0000     -10.427758      -283.7537
  31   2.0000     -10.349315      -281.6192
  32   2.0000     -10.349216      -281.6165
  33   2.0000     -10.348691      -281.6022
  34   2.0000     -10.348486      -281.5966
  35   2.0000     -10.344888      -281.4987
  36   2.0000     -10.344602      -281.4909
  37   2.0000     -10.341443      -281.4050
  38   2.0000     -10.341369      -281.4030
  39   2.0000     -10.340673      -281.3840
  40   2.0000     -10.340177      -281.3705
  41   2.0000     -10.336696      -281.2758
  42   2.0000     -10.336327      -281.2658
  43   2.0000     -10.325671      -280.9758
  44   2.0000     -10.325525      -280.9718
  45   2.0000     -10.324653      -280.9481
  46   2.0000     -10.324625      -280.9473
  47   2.0000     -10.324569      -280.9458
  48   2.0000     -10.324137      -280.9341
  49   2.0000     -10.323856      -280.9264
  50   2.0000     -10.323227      -280.9093
  51   2.0000     -10.321997      -280.8758
  52   2.0000     -10.321989      -280.8756
  53   2.0000     -10.317350      -280.7494
  54   2.0000     -10.317010      -280.7401
  55   2.0000     -10.316434      -280.7244
  56   2.0000     -10.316265      -280.7198
  57   2.0000     -10.313813      -280.6531
  58   2.0000     -10.311840      -280.5994
  59   2.0000     -10.311645      -280.5941
  60   2.0000     -10.311187      -280.5817
  61   2.0000     -10.306397      -280.4513
  62   2.0000     -10.306003      -280.4406
  63   2.0000     -10.304741      -280.4063
  64   2.0000     -10.304271      -280.3935
  65   2.0000     -10.303669      -280.3771
  66   2.0000     -10.303356      -280.3686
  67   2.0000     -10.302634      -280.3489
  68   2.0000     -10.302577      -280.3474
  69   2.0000     -10.302307      -280.3400
  70   2.0000     -10.301466      -280.3171
  71   2.0000     -10.292382      -280.0699
  72   2.0000     -10.291119      -280.0356
  73   2.0000      -8.136429      -221.4035
  74   2.0000      -8.136015      -221.3922
  75   2.0000      -8.132107      -221.2859
  76   2.0000      -6.107324      -166.1887
  77   2.0000      -6.106923      -166.1778
  78   2.0000      -6.103003      -166.0712
  79   2.0000      -6.099600      -165.9786
  80   2.0000      -6.099566      -165.9776
  81   2.0000      -6.099222      -165.9683
  82   2.0000      -6.099094      -165.9648
  83   2.0000      -6.095280      -165.8610
  84   2.0000      -6.095272      -165.8608
  85   2.0000      -1.345553       -36.6144
  86   2.0000      -1.344452       -36.5844
  87   2.0000      -1.341417       -36.5018
  88   2.0000      -1.331514       -36.2324
  89   2.0000      -1.330365       -36.2011
  90   2.0000      -1.327290       -36.1174
  91   2.0000      -1.141561       -31.0635
  92   2.0000      -1.141264       -31.0554
  93   2.0000      -1.136457       -30.9246
  94   2.0000      -1.115751       -30.3611
  95   2.0000      -1.114400       -30.3244
  96   2.0000      -1.108814       -30.1724
  97   2.0000      -1.043888       -28.4056
  98   2.0000      -1.040967       -28.3262
  99   2.0000      -1.033164       -28.1138
 100   2.0000      -1.016505       -27.6605
 101   2.0000      -1.015720       -27.6392
 102   2.0000      -1.005246       -27.3541
 103   2.0000      -1.003925       -27.3182
 104   2.0000      -0.997800       -27.1515
 105   2.0000      -0.995145       -27.0793
 106   2.0000      -0.992297       -27.0018
 107   2.0000      -0.991761       -26.9872
 108   2.0000      -0.987548       -26.8725
 109   2.0000      -0.985098       -26.8059
 110   2.0000      -0.980235       -26.6736
 111   2.0000      -0.976956       -26.5843
 112   2.0000      -0.970494       -26.4085
 113   2.0000      -0.959090       -26.0982
 114   2.0000      -0.909794       -24.7568
 115   2.0000      -0.892604       -24.2890
 116   2.0000      -0.887144       -24.1404
 117   2.0000      -0.885573       -24.0977
 118   2.0000      -0.880734       -23.9660
 119   2.0000      -0.878568       -23.9071
 120   2.0000      -0.877546       -23.8792
 121   2.0000      -0.864439       -23.5226
 122   2.0000      -0.841717       -22.9043
 123   2.0000      -0.837358       -22.7857
 124   2.0000      -0.833421       -22.6785
 125   2.0000      -0.821290       -22.3484
 126   2.0000      -0.812648       -22.1133
 127   2.0000      -0.811577       -22.0841
 128   2.0000      -0.806996       -21.9595
 129   2.0000      -0.800169       -21.7737
 130   2.0000      -0.799169       -21.7465
 131   2.0000      -0.777348       -21.1527
 132   2.0000      -0.769519       -20.9397
 133   2.0000      -0.766049       -20.8453
 134   2.0000      -0.760840       -20.7035
 135   2.0000      -0.751795       -20.4574
 136   2.0000      -0.746465       -20.3123
 137   2.0000      -0.734436       -19.9850
 138   2.0000      -0.728944       -19.8356
 139   2.0000      -0.727127       -19.7861
 140   2.0000      -0.720169       -19.5968
 141   2.0000      -0.704082       -19.1591
 142   2.0000      -0.696129       -18.9426
 143   2.0000      -0.687302       -18.7024
 144   2.0000      -0.685120       -18.6431
 145   2.0000      -0.681082       -18.5332
 146   2.0000      -0.678189       -18.4545
 147   2.0000      -0.675906       -18.3923
 148   2.0000      -0.674977       -18.3671
 149   2.0000      -0.669362       -18.2143
 150   2.0000      -0.665028       -18.0963
 151   2.0000      -0.660476       -17.9725
 152   2.0000      -0.654504       -17.8099
 153   2.0000      -0.652088       -17.7442
 154   2.0000      -0.650606       -17.7039
 155   2.0000      -0.645259       -17.5584
 156   2.0000      -0.642712       -17.4891
 157   2.0000      -0.639394       -17.3988
 158   2.0000      -0.630899       -17.1676
 159   2.0000      -0.626589       -17.0504
 160   2.0000      -0.622819       -16.9478
 161   2.0000      -0.620378       -16.8814
 162   2.0000      -0.619880       -16.8678
 163   2.0000      -0.617432       -16.8012
 164   2.0000      -0.614855       -16.7311
 165   2.0000      -0.612179       -16.6582
 166   2.0000      -0.605372       -16.4730
 167   2.0000      -0.599235       -16.3060
 168   2.0000      -0.598351       -16.2820
 169   2.0000      -0.594410       -16.1747
 170   2.0000      -0.573358       -15.6019
 171   2.0000      -0.572220       -15.5709
 172   2.0000      -0.568468       -15.4688
 173   2.0000      -0.567868       -15.4525
 174   2.0000      -0.564822       -15.3696
 175   2.0000      -0.561135       -15.2693
 176   2.0000      -0.557346       -15.1662
 177   2.0000      -0.555509       -15.1162
 178   2.0000      -0.550396       -14.9770
 179   2.0000      -0.546181       -14.8623
 180   2.0000      -0.543007       -14.7760
 181   2.0000      -0.534558       -14.5461
 182   2.0000      -0.533750       -14.5241
 183   2.0000      -0.532781       -14.4977
 184   2.0000      -0.532497       -14.4900
 185   2.0000      -0.523923       -14.2567
 186   2.0000      -0.523331       -14.2406
 187   2.0000      -0.521921       -14.2022
 188   2.0000      -0.520283       -14.1576
 189   2.0000      -0.520133       -14.1535
 190   2.0000      -0.519373       -14.1328
 191   2.0000      -0.516770       -14.0620
 192   2.0000      -0.516121       -14.0444
 193   2.0000      -0.513976       -13.9860
 194   2.0000      -0.513114       -13.9625
 195   2.0000      -0.511939       -13.9306
 196   2.0000      -0.510923       -13.9029
 197   2.0000      -0.508384       -13.8338
 198   2.0000      -0.508011       -13.8237
 199   2.0000      -0.506770       -13.7899
 200   2.0000      -0.498214       -13.5571
 201   2.0000      -0.497347       -13.5335
 202   2.0000      -0.496172       -13.5015
 203   2.0000      -0.495441       -13.4816
 204   2.0000      -0.489735       -13.3264
 205   2.0000      -0.489091       -13.3088
 206   2.0000      -0.482974       -13.1424
 207   2.0000      -0.482719       -13.1354
 208   2.0000      -0.478395       -13.0178
 209   2.0000      -0.465572       -12.6689
 210   2.0000      -0.464457       -12.6385
 211   2.0000      -0.458547       -12.4777
 212   2.0000      -0.453026       -12.3275
 213   2.0000      -0.452436       -12.3114
 214   2.0000      -0.447761       -12.1842
 215   2.0000      -0.446290       -12.1442
 216   2.0000      -0.442978       -12.0540
 217   2.0000      -0.441160       -12.0046
 218   2.0000      -0.440612       -11.9897
 219   2.0000      -0.440017       -11.9735
 220   2.0000      -0.435067       -11.8388
 221   2.0000      -0.429005       -11.6738
 222   2.0000      -0.426279       -11.5996
 223   2.0000      -0.424718       -11.5572
 224   2.0000      -0.421955       -11.4820
 225   2.0000      -0.420219       -11.4348
 226   2.0000      -0.417906       -11.3718
 227   2.0000      -0.417020       -11.3477
 228   2.0000      -0.414725       -11.2853
 229   2.0000      -0.414098       -11.2682
 230   2.0000      -0.413377       -11.2486
 231   2.0000      -0.412675       -11.2294
 232   2.0000      -0.411530       -11.1983
 233   2.0000      -0.410402       -11.1676
 234   2.0000      -0.409211       -11.1352
 235   2.0000      -0.408038       -11.1033
 236   2.0000      -0.404020       -10.9939
 237   2.0000      -0.397303       -10.8112
 238   2.0000      -0.386189       -10.5087
 239   2.0000      -0.382514       -10.4087
 240   2.0000      -0.377955       -10.2847
 241   2.0000      -0.371287       -10.1032
 242   2.0000      -0.365372        -9.9423
 243   2.0000      -0.361615        -9.8400
 244   2.0000      -0.342545        -9.3211
 245   2.0000      -0.342054        -9.3078
 246   2.0000      -0.339081        -9.2269
 247   2.0000      -0.337416        -9.1815
 248   2.0000      -0.335351        -9.1254
 249   2.0000      -0.325203        -8.8492
 250   2.0000      -0.323872        -8.8130
 251   2.0000      -0.317793        -8.6476
 252   2.0000      -0.317094        -8.6286
 253   2.0000      -0.310105        -8.4384
 254   2.0000      -0.285953        -7.7812
 255   2.0000      -0.267220        -7.2714
 256   0.0000      -0.122444        -3.3319
 257   0.0000      -0.119300        -3.2463
 258   0.0000      -0.111514        -3.0344
 259   0.0000      -0.101107        -2.7513
 260   0.0000      -0.092418        -2.5148

MULLIKEN ATOMIC CHARGES
-----------------------
   0 C :   -0.000342
   1 C :    0.069509
   2 C :   -0.138582
   3 C :   -0.131244
   4 N :    0.146091
   5 C :    0.003049
   6 C :    0.036069
   7 C :    0.103550
   8 C :   -0.043378
   9 C :    0.019379
  10 C :   -0.098681
  11 C :   -0.022259
  12 C :   -0.137324
  13 N :    0.142769
  14 C :    0.130589
  15 C :   -0.115166
  16 C :   -0.041429
  17 N :    0.035047
  18 C :    0.129651
  19 C :    0.141579
  20 N :    0.016144
  21 F :   -0.138557
  22 F :   -0.140648
  23 C :    0.030881
  24 C :    0.005470
  25 C :   -0.032552
  26 N :   -0.268374
  27 S :    0.543888
  28 N :   -0.258252
  29 C :    0.043843
  30 C :   -0.054756
  31 C :   -0.054331
  32 N :    0.035097
  33 C :    0.128167
  34 C :    0.133272
  35 N :    0.021000
  36 F :   -0.135114
  37 F :   -0.140351
  38 C :    0.033399
  39 C :    0.012574
  40 C :    0.002563
  41 N :   -0.265641
  42 S :    0.536877
  43 N :   -0.271665
  44 C :    0.021542
  45 C :   -0.041418
  46 C :   -0.127776
  47 N :    0.014650
  48 C :    0.142170
  49 C :    0.127037
  50 N :    0.048256
  51 F :   -0.138873
  52 F :   -0.140068
  53 C :    0.131159
  54 C :   -0.029221
  55 C :    0.013660
  56 N :   -0.264002
  57 S :    0.547047
  58 N :   -0.270503
  59 C :   -0.033969
  60 C :    0.013708
  61 C :   -0.098958
  62 C :   -0.136492
  63 N :    0.145426
  64 C :   -0.021383
  65 C :    0.107233
  66 C :    0.030184
  67 C :    0.003057
  68 C :    0.068527
  69 C :   -0.144435
  70 C :   -0.000159
  71 C :   -0.130868
  72 N :    0.148311
  73 H :   -0.006309
  74 H :   -0.001385
  75 H :    0.014306
  76 H :   -0.003622
  77 H :   -0.001619
  78 H :   -0.002566
  79 H :   -0.001586
  80 H :   -0.007378
  81 H :    0.000257
  82 H :    0.014252
Sum of atomic charges:   -0.0000000

LOEWDIN ATOMIC CHARGES
----------------------
   0 C :   -0.025002
   1 C :    0.019344
   2 C :   -0.057555
   3 C :   -0.033902
   4 N :   -0.040331
   5 C :    0.007781
   6 C :    0.042733
   7 C :    0.038256
   8 C :   -0.028226
   9 C :    0.041700
  10 C :   -0.061614
  11 C :    0.019082
  12 C :   -0.032014
  13 N :   -0.043832
  14 C :   -0.019259
  15 C :   -0.014472
  16 C :    0.002357
  17 N :   -0.030459
  18 C :    0.057279
  19 C :    0.059038
  20 N :   -0.037261
  21 F :   -0.028665
  22 F :   -0.029825
  23 C :   -0.016169
  24 C :   -0.038374
  25 C :   -0.046378
  26 N :   -0.291080
  27 S :    0.684275
  28 N :   -0.274246
  29 C :   -0.011910
  30 C :    0.003951
  31 C :    0.002666
  32 N :   -0.034126
  33 C :    0.058726
  34 C :    0.058124
  35 N :   -0.037638
  36 F :   -0.024714
  37 F :   -0.029687
  38 C :   -0.010324
  39 C :   -0.037585
  40 C :   -0.037890
  41 N :   -0.281962
  42 S :    0.681052
  43 N :   -0.289051
  44 C :   -0.014830
  45 C :    0.000989
  46 C :   -0.014305
  47 N :   -0.037155
  48 C :    0.058304
  49 C :    0.058128
  50 N :   -0.027435
  51 F :   -0.029039
  52 F :   -0.029935
  53 C :   -0.020010
  54 C :   -0.044575
  55 C :   -0.037407
  56 N :   -0.280209
  57 S :    0.687429
  58 N :   -0.290626
  59 C :   -0.027650
  60 C :    0.041586
  61 C :   -0.060616
  62 C :   -0.031973
  63 N :   -0.042945
  64 C :    0.018676
  65 C :    0.039376
  66 C :    0.041678
  67 C :   -0.023929
  68 C :    0.018839
  69 C :   -0.059644
  70 C :    0.007812
  71 C :   -0.034669
  72 N :   -0.041712
  73 H :    0.030253
  74 H :    0.035494
  75 H :    0.035000
  76 H :    0.035214
  77 H :    0.035545
  78 H :    0.034991
  79 H :    0.035520
  80 H :    0.030266
  81 H :    0.035906
  82 H :    0.034845

  Mayer bond orders larger than 0.100000
B(  0-C ,  1-C ) :   1.6881 B(  0-C ,  6-C ) :   1.0798 B(  0-C , 73-H ) :   1.0054
B(  1-C ,  2-C ) :   1.0661 B(  1-C , 74-H ) :   1.0128 B(  2-C ,  3-C ) :   1.0659
B(  2-C ,  5-C ) :   1.6924 B(  3-C ,  4-N ) :   3.0413 B(  5-C ,  6-C ) :   1.0578
B(  5-C , 75-H ) :   1.0092 B(  6-C ,  7-C ) :   1.5001 B(  7-C ,  8-C ) :   1.0843
B(  7-C , 11-C ) :   1.0689 B(  8-C ,  9-C ) :   1.6671 B(  8-C , 14-C ) :   0.9641
B(  9-C , 10-C ) :   1.0795 B(  9-C , 76-H ) :   1.0185 B( 10-C , 11-C ) :   1.6375
B( 10-C , 12-C ) :   1.0580 B( 11-C , 77-H ) :   1.0199 B( 12-C , 13-N ) :   3.0448
B( 14-C , 15-C ) :   1.3561 B( 14-C , 23-C ) :   0.1562 B( 14-C , 25-C ) :   1.2507
B( 15-C , 16-C ) :   1.0914 B( 15-C , 20-N ) :   1.3963 B( 16-C , 17-N ) :   1.3787
B( 16-C , 23-C ) :   1.4149 B( 17-N , 18-C ) :   1.7093 B( 18-C , 19-C ) :   1.0736
B( 18-C , 22-F ) :   1.1766 B( 19-C , 20-N ) :   1.6990 B( 19-C , 21-F ) :   1.1803
B( 23-C , 24-C ) :   1.2839 B( 23-C , 29-C ) :   0.9331 B( 24-C , 25-C ) :   1.1012
B( 24-C , 28-N ) :   1.4865 B( 25-C , 26-N ) :   1.5173 B( 26-N , 27-S ) :   1.2931
B( 26-N , 28-N ) :   0.1592 B( 27-S , 28-N ) :   1.3064 B( 29-C , 30-C ) :   1.4056
B( 29-C , 38-C ) :   0.1502 B( 29-C , 40-C ) :   1.2812 B( 30-C , 31-C ) :   1.0990
B( 30-C , 35-N ) :   1.3747 B( 31-C , 32-N ) :   1.3885 B( 31-C , 38-C ) :   1.4151
B( 32-N , 33-C ) :   1.7153 B( 33-C , 34-C ) :   1.0715 B( 33-C , 37-F ) :   1.1774
B( 34-C , 35-N ) :   1.7050 B( 34-C , 36-F ) :   1.1811 B( 38-C , 39-C ) :   1.2939
B( 38-C , 44-C ) :   0.9148 B( 39-C , 40-C ) :   1.1014 B( 39-C , 43-N ) :   1.4842
B( 40-C , 41-N ) :   1.4844 B( 41-N , 42-S ) :   1.3053 B( 41-N , 43-N ) :   0.1620
B( 42-S , 43-N ) :   1.3023 B( 44-C , 45-C ) :   1.4261 B( 44-C , 53-C ) :   0.1536
B( 44-C , 55-C ) :   1.2942 B( 45-C , 46-C ) :   1.0912 B( 45-C , 50-N ) :   1.3963
B( 46-C , 47-N ) :   1.3960 B( 46-C , 53-C ) :   1.3532 B( 47-N , 48-C ) :   1.6952
B( 48-C , 49-C ) :   1.0743 B( 48-C , 52-F ) :   1.1782 B( 49-C , 50-N ) :   1.7134
B( 49-C , 51-F ) :   1.1800 B( 53-C , 54-C ) :   1.2491 B( 53-C , 59-C ) :   0.9673
B( 54-C , 55-C ) :   1.1016 B( 54-C , 58-N ) :   1.5107 B( 55-C , 56-N ) :   1.4814
B( 56-N , 57-S ) :   1.3076 B( 56-N , 58-N ) :   0.1588 B( 57-S , 58-N ) :   1.2954
B( 59-C , 60-C ) :   1.6645 B( 59-C , 65-C ) :   1.0835 B( 60-C , 61-C ) :   1.0788
B( 60-C , 78-H ) :   1.0182 B( 61-C , 62-C ) :   1.0575 B( 61-C , 64-C ) :   1.6372
B( 62-C , 63-N ) :   3.0457 B( 64-C , 65-C ) :   1.0678 B( 64-C , 79-H ) :   1.0207
B( 65-C , 66-C ) :   1.4985 B( 66-C , 67-C ) :   1.0837 B( 66-C , 70-C ) :   1.0573
B( 67-C , 68-C ) :   1.6882 B( 67-C , 80-H ) :   1.0038 B( 68-C , 69-C ) :   1.0674
B( 68-C , 81-H ) :   1.0127 B( 69-C , 70-C ) :   1.6904 B( 69-C , 71-C ) :   1.0657
B( 70-C , 82-H ) :   1.0080 B( 71-C , 72-N ) :   3.0431

-----------------------------------------------------------------------------
         ABSORPTION SPECTRUM VIA TRANSITION ELECTRIC DIPOLE MOMENTS
-----------------------------------------------------------------------------
State   Energy  Wavelength   fosc         T2         TX        TY        TZ
        (cm-1)    (nm)                  (au**2)     (au)      (au)      (au)
-----------------------------------------------------------------------------
   0   14831.7    674.2   0.194694509   4.32154  -1.79239  -1.05085  -0.06785
   1   15100.3    662.2   0.008344862   0.18193  -0.26715   0.05998  -0.32706
   2   16922.2    590.9   0.596313939  11.60095  -3.13770  -1.32151   0.09684
   3   19251.3    519.4   0.006804831   0.11637  -0.09153  -0.19347   0.26563
   4   20286.9    492.9   0.000121793   0.00198  -0.03710   0.01339   0.02051
   5   21268.6    470.2   0.007348967   0.11375   0.03306  -0.18672   0.27892
   6   21807.8    458.6   0.002654784   0.04008  -0.04872   0.14031   0.13423
   7   21872.0    457.2   0.002168313   0.03264  -0.04898   0.10741  -0.13675
   8   23098.2    432.9   0.008080210   0.11516  -0.06657  -0.32110  -0.08735
   9   23931.4    417.9   0.006833581   0.09401  -0.18884   0.00952  -0.24136
  10   24466.7    408.7   0.029188359   0.39274   0.56343   0.24032  -0.13244
  11   25221.8    396.5   0.019542710   0.25508   0.07450  -0.20524   0.45542
  12   26972.4    370.7   0.069013243   0.84234   0.88152  -0.24206  -0.08163
  13   27270.7    366.7   0.052740847   0.63669  -0.19638  -0.31591   0.70592
  14   27768.9    360.1   0.018392210   0.21805   0.10900  -0.02981  -0.45308
  15   27786.3    359.9   0.019868000   0.23540   0.37302   0.30567   0.05312
  16   27923.1    358.1   0.016787020   0.19792   0.20274   0.37361   0.13127
  17   28304.4    353.3   0.027708955   0.32229  -0.10951   0.09571   0.54876
  18   28487.5    351.0   0.088266282   1.02004  -0.48760   0.79273  -0.39226
  19   29417.5    339.9   0.087251764   0.97644   0.31814  -0.68548  -0.63666
  20   29646.4    337.3   0.037696153   0.41860   0.02661   0.27701   0.58409
  21   29806.3    335.5   0.046261853   0.51096  -0.54043   0.45844  -0.09346
  22   30097.5    332.3   0.016527824   0.18078   0.04148   0.39033  -0.16342
  23   30232.0    330.8   0.229718080   2.50152   0.68668   0.00765  -1.42476
  24   30321.4    329.8   0.162385686   1.76309  -0.71280   0.60090  -0.94548
  25   30683.4    325.9   0.158730018   1.70306  -1.19733   0.46782   0.22495
  26   30811.7    324.6   0.276807068   2.95758   0.68972  -1.12428   1.10357
  27   31119.9    321.3   0.052293236   0.55320   0.44002   0.09168  -0.59260
  28   31312.7    319.4   0.234645822   2.46700   0.28568   0.10704  -1.54076
  29   31442.4    318.0   0.059130757   0.61912   0.29891  -0.71908   0.11270
  30   31877.8    313.7   0.027203193   0.28094  -0.26251   0.17885   0.42431
  31   32101.6    311.5   0.003724507   0.03820   0.12747  -0.06296   0.13410
  32   32255.0    310.0   0.090207991   0.92071  -0.59648   0.68728   0.30426
  33   32361.8    309.0   0.104366798   1.06171  -0.23871   0.91107   0.41794
  34   32457.1    308.1   0.030409926   0.30845  -0.23366   0.47723   0.16157
  35   32945.5    303.5   0.084526320   0.84464  -0.43838   0.70788   0.38907
  36   33205.1    301.2   0.154710871   1.53388  -0.19267   1.03422   0.65357
  37   33400.3    299.4   0.029921030   0.29492  -0.13104  -0.04633   0.52498
  38   33578.1    297.8   0.012427541   0.12184  -0.34405  -0.05372  -0.02429
  39   33815.3    295.7   0.010348683   0.10075   0.21466  -0.23022   0.04088
  40   33889.7    295.1   0.044315416   0.43049  -0.22920  -0.26605  -0.55423
  41   33955.1    294.5   0.018631364   0.18064  -0.05126   0.23006   0.35367
  42   34363.1    291.0   0.084206024   0.80673   0.06196  -0.02877   0.89558
  43   34498.2    289.9   0.052660077   0.50253   0.04836   0.31317   0.63413
  44   34963.4    286.0   0.007836387   0.07379  -0.27094   0.00202  -0.01939
  45   34989.2    285.8   0.078408158   0.73774   0.20293  -0.56765   0.61182
  46   35127.6    284.7   0.012618691   0.11826   0.17634  -0.18266  -0.23195
  47   35421.3    282.3   0.126881685   1.17926  -0.18007   0.91066   0.56349
  48   35544.8    281.3   0.022304962   0.20659  -0.16411   0.22994   0.35607
  49   35635.1    280.6   0.009685698   0.08948   0.24663   0.16145   0.05085
  50   35765.8    279.6   0.011245745   0.10351   0.00025   0.09578  -0.30715
  51   36016.7    277.6   0.003570637   0.03264   0.12060  -0.13421  -0.00891
  52   36266.7    275.7   0.116364498   1.05630  -0.39046   0.74239  -0.59389
  53   36370.5    274.9   0.087963304   0.79621   0.22368   0.12157  -0.85522
  54   36493.5    274.0   0.001790636   0.01615  -0.11097   0.06089   0.01149
  55   37016.4    270.2   0.011113435   0.09884  -0.28422  -0.04511   0.12658
  56   37202.6    268.8   0.004929617   0.04362  -0.20049   0.01667   0.05610
  57   37662.7    265.5   0.002729970   0.02386  -0.08776  -0.03530   0.12212
  58   37825.1    264.4   0.006239979   0.05431   0.02067   0.20123  -0.11571
  59   38057.6    262.8   0.000950105   0.00822   0.06969  -0.04162   0.04037
  60   38143.9    262.2   0.001252599   0.01081  -0.02396  -0.09892   0.02127
  61   38189.4    261.9   0.000752597   0.00649  -0.07182  -0.02008  -0.03043
  62   38517.5    259.6   0.003466401   0.02963  -0.05870  -0.03193   0.15863
  63   38638.1    258.8   0.000419173   0.00357   0.03520  -0.04254   0.02287
  64   38693.6    258.4   0.010518535   0.08949   0.28139   0.09980   0.01875
  65   38838.6    257.5   0.014166347   0.12008   0.31005   0.14473   0.05480
  66   38948.7    256.7   0.003163906   0.02674  -0.16038  -0.02648   0.01785
  67   39297.8    254.5   0.001681052   0.01408  -0.04327  -0.03591  -0.10450
  68   39388.0    253.9   0.037043899   0.30962   0.51840   0.17867   0.09464
  69   39706.8    251.8   0.009724781   0.08063  -0.26511   0.09097  -0.04551
  70   39975.6    250.2   0.000421594   0.00347   0.02666   0.04875  -0.01960
  71   40048.8    249.7   0.002645255   0.02174   0.14069   0.04184  -0.01416
  72   40153.3    249.0   0.011934432   0.09785  -0.20948  -0.17404   0.15387
  73   40322.0    248.0   0.005206960   0.04251   0.02139   0.06473  -0.19459

FINAL SINGLE POINT ENERGY     -4500.154821004063

DIPOLE MOMENT
-------------
                                X             Y             Z
Electronic contribution:     -2.83144       7.37289      -3.35055
Nuclear contribution   :      2.63838      -7.11834       2.24261
                        -----------------------------------------
Total Dipole Moment    :     -0.19306       0.25455      -1.10794
                        -----------------------------------------
Magnitude (a.u.)       :      1.15308
Magnitude (Debye)      :      2.93089

Rotational constants in cm-1:     0.001941     0.000454     0.000423
Rotational constants in MHz :    58.192792    13.618634    12.670893

                             ****ORCA TERMINATED NORMALLY****
TOTAL RUN TIME: 0 days 0 hours 9 minutes 31 seconds 198 msec
