                         Program Version 4.2.0 -  RELEASE  -
|  1> # ORCA input file
|  2> # SCF done       -212.429736999171          0.000820901270
|  3> ! CAM-B3LYP def2-SVP def2/J RIJCOSX Grid4 TightSCF
|  4> %maxcore 5000
|  5> %tddft
|  6>     Mode sTDDFT
|  7>     Ethresh 5.0
|  8>     maxcore 5000
|  9> end
| 10>
| 11> %pal
| 12>   nprocs 6
| 13>   end
| 14> * xyz 0 1
| 15>    C       -0.34465        -0.10755        -1.55910
| 16>    S       -0.06418        -1.71484        -2.04535
| 17>    C       -0.20014        -2.33528        -0.42609
| 18>    C       -0.45888        -1.28059         0.45985
| 19>    C       -0.54664        -0.01263        -0.19789
| 20>    N       -0.81515         1.12518         0.49104
| 21>    C       -0.98834         0.98807         1.77672
| 22>    O       -1.27129         2.04172         2.53570
| 23>    C       -1.38336         3.29596         1.86545
| 24>    C       -1.75569         4.34794         2.89318
| 25>    C       -0.89136        -0.28902         2.45134
| 26>    C       -1.09500        -0.36707         3.93996
| 27>    N       -0.97838        -1.68531         4.51623
| 28>    N       -0.63281        -1.38330         1.79647
| 29>    C       -0.08991        -3.71661        -0.18464
| 30>    C       -0.15795        -4.28022         1.05785
| 31>    C       -0.12838        -5.67164         1.24579
| 32>    C       -0.09345        -6.71874         0.33916
| 33>    C       -0.19465        -7.93067         1.08188
| 34>    C       -0.24792        -7.57411         2.48496
| 35>    O       -0.31022        -8.23690         3.48235
| 36>    O       -0.20333        -6.18394         2.51201
| 37>    C       -0.29011        -8.96879         0.18385
| 38>    O       -0.19815        -8.46859        -1.09207
| 39>    C       -0.07512        -7.06818        -1.05716
| 40>    O        0.03251        -6.42616        -2.06475
| 41>    C       -0.51998       -10.34200         0.39099
| 42>    S       -0.47865       -11.00975         1.98770
| 43>    C       -0.92958       -12.57689         1.38008
| 44>    C       -1.08705       -12.56462        -0.00549
| 45>    C       -0.85216       -11.30520        -0.56004
| 46>    C       -0.97762       -10.98739        -2.02016
| 47>    C       -1.90016        -9.80633        -2.21876
| 48>    O       -2.80699        -9.49105        -1.50422
| 49>    C       -1.70907        -9.07455        -3.58123
| 50>    F       -0.43655        -9.02370        -3.98323
| 51>    F       -2.37858        -9.74744        -4.54329
| 52>    F       -2.19426        -7.84018        -3.56092
| 53>    C       -1.57609       -12.17529        -2.80096
| 54>    C       -0.96204       -13.47875        -2.30567
| 55>    C       -1.39929       -13.74659        -0.86724
| 56>    C       -1.11292       -13.62624         2.32083
| 57>    C       -1.86971       -14.73202         2.12514
| 58>    C       -2.09637       -15.74283         3.09506
| 59>    S       -1.06606       -15.96008         4.47320
| 60>    C       -2.03011       -17.29498         5.04879
| 61>    C       -3.10615       -17.53331         4.20303
| 62>    C       -3.13552       -16.66599         3.10467
| 63>    C       -4.19983       -16.73405         2.04425
| 64>    C       -4.69268       -15.38920         1.59593
| 65>    O       -4.85571       -15.05536         0.45514
| 66>    C       -5.12090       -14.38708         2.71282
| 67>    F       -4.87932       -14.79872         3.96379
| 68>    F       -4.50145       -13.21380         2.55955
| 69>    F       -6.44017       -14.16527         2.63529
| 70>    C       -5.41673       -17.53574         2.55171
| 71>    C       -4.93700       -18.85215         3.15116
| 72>    C       -4.14103       -18.59061         4.42692
| 73>    C       -1.68287       -18.01499         6.21882
| 74>    C       -0.52734       -17.84182         6.90477
| 75>    C       -0.17532       -18.56584         8.07980
| 76>    C       -1.02482       -19.14521         8.97864
| 77>    C       -0.25331       -19.64574        10.09387
| 78>    C       -0.80754       -20.30095        11.20228
| 79>    N       -1.27510       -20.83515        12.10443
| 80>    C        1.07212       -19.37209         9.88607
| 81>    C        1.20088       -18.74480         8.60035
| 82>    C        2.38906       -18.54149         7.95266
| 83>    C        3.71091       -18.68369         8.55691
| 84>    C        4.64408       -18.44434         7.62095
| 85>    C        3.95975       -18.16939         6.35302
| 86>    C        2.61528       -18.21574         6.56078
| 87>    C        4.61318       -17.92216         5.14041
| 88>    N        5.15385       -17.72585         4.14646
| 89>    H       -0.35586         0.69022        -2.27402
| 90>    H       -2.14472         3.21213         1.08220
| 91>    H       -0.42753         3.52647         1.38225
| 92>    H       -2.70229         4.09470         3.36232
| 93>    H       -1.84661         5.31537         2.40859
| 94>    H       -0.99203         4.40603         3.66360
| 95>    H       -2.08824         0.03429         4.17137
| 96>    H       -0.36775         0.29631         4.42187
| 97>    H       -1.65621        -2.31113         4.09360
| 98>    H       -0.05922        -2.06937         4.32317
| 99>    H        0.03970        -4.35342        -1.05056
|100>    H       -0.26474        -3.65785         1.93274
|101>    H        0.01038       -10.74367        -2.42547
|102>    H       -1.38854       -12.04363        -3.86659
|103>    H       -2.65659       -12.20618        -2.64466
|104>    H        0.12656       -13.41533        -2.35581
|105>    H       -1.28582       -14.30046        -2.94516
|106>    H       -0.89324       -14.63270        -0.47797
|107>    H       -2.47789       -13.93417        -0.85220
|108>    H       -0.66551       -13.46909         3.29392
|109>    H       -2.40108       -14.85239         1.19511
|110>    H       -3.79900       -17.23663         1.15392
|111>    H       -6.09776       -17.71558         1.71894
|112>    H       -5.95021       -16.96778         3.31583
|113>    H       -4.31258       -19.37763         2.42605
|114>    H       -5.79607       -19.48400         3.37873
|115>    H       -3.66930       -19.51467         4.76589
|116>    H       -4.81815       -18.25435         5.21861
|117>    H       -2.38181       -18.77522         6.53719
|118>    H        0.17277       -17.09664         6.55303
|119>    H       -2.09656       -19.18396         8.92922
|120>    H        1.88216       -19.64566        10.53336
|121>    H        3.88368       -18.90337         9.59216
|122>    H        5.71204       -18.44833         7.73292
|123>    H        1.86013       -18.10546         5.80795
|124> *
|125>
|126>                          ****END OF INPUT****

CARTESIAN COORDINATES (ANGSTROEM)
---------------------------------
  C     -0.344650   -0.107550   -1.559100
  S     -0.064180   -1.714840   -2.045350
  C     -0.200140   -2.335280   -0.426090
  C     -0.458880   -1.280590    0.459850
  C     -0.546640   -0.012630   -0.197890
  N     -0.815150    1.125180    0.491040
  C     -0.988340    0.988070    1.776720
  O     -1.271290    2.041720    2.535700
  C     -1.383360    3.295960    1.865450
  C     -1.755690    4.347940    2.893180
  C     -0.891360   -0.289020    2.451340
  C     -1.095000   -0.367070    3.939960
  N     -0.978380   -1.685310    4.516230
  N     -0.632810   -1.383300    1.796470
  C     -0.089910   -3.716610   -0.184640
  C     -0.157950   -4.280220    1.057850
  C     -0.128380   -5.671640    1.245790
  C     -0.093450   -6.718740    0.339160
  C     -0.194650   -7.930670    1.081880
  C     -0.247920   -7.574110    2.484960
  O     -0.310220   -8.236900    3.482350
  O     -0.203330   -6.183940    2.512010
  C     -0.290110   -8.968790    0.183850
  O     -0.198150   -8.468590   -1.092070
  C     -0.075120   -7.068180   -1.057160
  O      0.032510   -6.426160   -2.064750
  C     -0.519980  -10.342000    0.390990
  S     -0.478650  -11.009750    1.987700
  C     -0.929580  -12.576890    1.380080
  C     -1.087050  -12.564620   -0.005490
  C     -0.852160  -11.305200   -0.560040
  C     -0.977620  -10.987390   -2.020160
  C     -1.900160   -9.806330   -2.218760
  O     -2.806990   -9.491050   -1.504220
  C     -1.709070   -9.074550   -3.581230
  F     -0.436550   -9.023700   -3.983230
  F     -2.378580   -9.747440   -4.543290
  F     -2.194260   -7.840180   -3.560920
  C     -1.576090  -12.175290   -2.800960
  C     -0.962040  -13.478750   -2.305670
  C     -1.399290  -13.746590   -0.867240
  C     -1.112920  -13.626240    2.320830
  C     -1.869710  -14.732020    2.125140
  C     -2.096370  -15.742830    3.095060
  S     -1.066060  -15.960080    4.473200
  C     -2.030110  -17.294980    5.048790
  C     -3.106150  -17.533310    4.203030
  C     -3.135520  -16.665990    3.104670
  C     -4.199830  -16.734050    2.044250
  C     -4.692680  -15.389200    1.595930
  O     -4.855710  -15.055360    0.455140
  C     -5.120900  -14.387080    2.712820
  F     -4.879320  -14.798720    3.963790
  F     -4.501450  -13.213800    2.559550
  F     -6.440170  -14.165270    2.635290
  C     -5.416730  -17.535740    2.551710
  C     -4.937000  -18.852150    3.151160
  C     -4.141030  -18.590610    4.426920
  C     -1.682870  -18.014990    6.218820
  C     -0.527340  -17.841820    6.904770
  C     -0.175320  -18.565840    8.079800
  C     -1.024820  -19.145210    8.978640
  C     -0.253310  -19.645740   10.093870
  C     -0.807540  -20.300950   11.202280
  N     -1.275100  -20.835150   12.104430
  C      1.072120  -19.372090    9.886070
  C      1.200880  -18.744800    8.600350
  C      2.389060  -18.541490    7.952660
  C      3.710910  -18.683690    8.556910
  C      4.644080  -18.444340    7.620950
  C      3.959750  -18.169390    6.353020
  C      2.615280  -18.215740    6.560780
  C      4.613180  -17.922160    5.140410
  N      5.153850  -17.725850    4.146460
  H     -0.355860    0.690220   -2.274020
  H     -2.144720    3.212130    1.082200
  H     -0.427530    3.526470    1.382250
  H     -2.702290    4.094700    3.362320
  H     -1.846610    5.315370    2.408590
  H     -0.992030    4.406030    3.663600
  H     -2.088240    0.034290    4.171370
  H     -0.367750    0.296310    4.421870
  H     -1.656210   -2.311130    4.093600
  H     -0.059220   -2.069370    4.323170
  H      0.039700   -4.353420   -1.050560
  H     -0.264740   -3.657850    1.932740
  H      0.010380  -10.743670   -2.425470
  H     -1.388540  -12.043630   -3.866590
  H     -2.656590  -12.206180   -2.644660
  H      0.126560  -13.415330   -2.355810
  H     -1.285820  -14.300460   -2.945160
  H     -0.893240  -14.632700   -0.477970
  H     -2.477890  -13.934170   -0.852200
  H     -0.665510  -13.469090    3.293920
  H     -2.401080  -14.852390    1.195110
  H     -3.799000  -17.236630    1.153920
  H     -6.097760  -17.715580    1.718940
  H     -5.950210  -16.967780    3.315830
  H     -4.312580  -19.377630    2.426050
  H     -5.796070  -19.484000    3.378730
  H     -3.669300  -19.514670    4.765890
  H     -4.818150  -18.254350    5.218610
  H     -2.381810  -18.775220    6.537190
  H      0.172770  -17.096640    6.553030
  H     -2.096560  -19.183960    8.929220
  H      1.882160  -19.645660   10.533360
  H      3.883680  -18.903370    9.592160
  H      5.712040  -18.448330    7.732920
  H      1.860130  -18.105460    5.807950

 Total Charge           Charge          ....    0
 Multiplicity           Mult            ....    1
 Number of Electrons    NEL             ....  546
 Basis Dimension        Dim             .... 1223

ORBITAL ENERGIES
----------------

  NO   OCC          E(Eh)            E(eV)
   0   2.0000     -88.977154     -2421.1914
   1   2.0000     -88.963445     -2420.8184
   2   2.0000     -88.961075     -2420.7539
   3   2.0000     -24.813446      -675.2082
   4   2.0000     -24.807468      -675.0455
   5   2.0000     -24.806987      -675.0324
   6   2.0000     -24.795755      -674.7268
   7   2.0000     -24.792485      -674.6378
   8   2.0000     -24.790861      -674.5936
   9   2.0000     -19.288349      -524.8627
  10   2.0000     -19.278073      -524.5830
  11   2.0000     -19.266136      -524.2582
  12   2.0000     -19.250428      -523.8308
  13   2.0000     -19.225664      -523.1569
  14   2.0000     -19.210984      -522.7574
  15   2.0000     -19.205682      -522.6132
  16   2.0000     -14.429116      -392.6362
  17   2.0000     -14.419134      -392.3646
  18   2.0000     -14.413693      -392.2165
  19   2.0000     -14.413621      -392.2146
  20   2.0000     -14.378202      -391.2508
  21   2.0000     -10.522638      -286.3355
  22   2.0000     -10.503741      -285.8213
  23   2.0000     -10.409462      -283.2559
  24   2.0000     -10.405518      -283.1485
  25   2.0000     -10.397211      -282.9225
  26   2.0000     -10.380248      -282.4609
  27   2.0000     -10.377823      -282.3949
  28   2.0000     -10.368139      -282.1314
  29   2.0000     -10.364083      -282.0210
  30   2.0000     -10.329548      -281.0813
  31   2.0000     -10.327100      -281.0147
  32   2.0000     -10.325203      -280.9630
  33   2.0000     -10.324656      -280.9482
  34   2.0000     -10.324532      -280.9448
  35   2.0000     -10.324491      -280.9437
  36   2.0000     -10.316258      -280.7196
  37   2.0000     -10.315084      -280.6877
  38   2.0000     -10.313286      -280.6388
  39   2.0000     -10.312117      -280.6070
  40   2.0000     -10.311904      -280.6012
  41   2.0000     -10.310151      -280.5535
  42   2.0000     -10.309907      -280.5468
  43   2.0000     -10.308969      -280.5213
  44   2.0000     -10.308680      -280.5135
  45   2.0000     -10.308635      -280.5122
  46   2.0000     -10.304762      -280.4068
  47   2.0000     -10.302638      -280.3490
  48   2.0000     -10.300586      -280.2932
  49   2.0000     -10.300585      -280.2932
  50   2.0000     -10.300547      -280.2921
  51   2.0000     -10.299370      -280.2601
  52   2.0000     -10.298255      -280.2298
  53   2.0000     -10.295386      -280.1517
  54   2.0000     -10.294986      -280.1408
  55   2.0000     -10.294239      -280.1205
  56   2.0000     -10.293800      -280.1085
  57   2.0000     -10.293507      -280.1006
  58   2.0000     -10.293406      -280.0978
  59   2.0000     -10.293231      -280.0931
  60   2.0000     -10.291786      -280.0537
  61   2.0000     -10.291746      -280.0527
  62   2.0000     -10.291305      -280.0406
  63   2.0000     -10.291116      -280.0355
  64   2.0000     -10.287321      -279.9322
  65   2.0000     -10.284900      -279.8663
  66   2.0000     -10.284505      -279.8556
  67   2.0000     -10.279863      -279.7293
  68   2.0000     -10.279819      -279.7281
  69   2.0000     -10.277666      -279.6695
  70   2.0000     -10.276577      -279.6399
  71   2.0000     -10.276187      -279.6293
  72   2.0000     -10.271681      -279.5067
  73   2.0000     -10.266253      -279.3590
  74   2.0000      -8.072318      -219.6589
  75   2.0000      -8.058774      -219.2904
  76   2.0000      -8.056246      -219.2216
  77   2.0000      -6.041192      -164.3892
  78   2.0000      -6.037010      -164.2754
  79   2.0000      -6.035402      -164.2316
  80   2.0000      -6.027890      -164.0272
  81   2.0000      -6.025526      -163.9629
  82   2.0000      -6.024109      -163.9243
  83   2.0000      -6.021317      -163.8484
  84   2.0000      -6.020903      -163.8371
  85   2.0000      -6.018335      -163.7672
  86   2.0000      -1.399890       -38.0929
  87   2.0000      -1.382981       -37.6328
  88   2.0000      -1.303398       -35.4673
  89   2.0000      -1.300416       -35.3861
  90   2.0000      -1.288250       -35.0551
  91   2.0000      -1.282722       -34.9046
  92   2.0000      -1.214107       -33.0375
  93   2.0000      -1.205195       -32.7950
  94   2.0000      -1.183779       -32.2123
  95   2.0000      -1.168070       -31.7848
  96   2.0000      -1.146637       -31.2016
  97   2.0000      -1.120090       -30.4792
  98   2.0000      -1.114590       -30.3295
  99   2.0000      -1.077896       -29.3311
 100   2.0000      -1.014728       -27.6122
 101   2.0000      -1.008596       -27.4453
 102   2.0000      -1.005517       -27.3615
 103   2.0000      -1.003169       -27.2976
 104   2.0000      -0.998568       -27.1724
 105   2.0000      -0.990646       -26.9569
 106   2.0000      -0.985710       -26.8225
 107   2.0000      -0.978711       -26.6321
 108   2.0000      -0.956730       -26.0340
 109   2.0000      -0.943909       -25.6851
 110   2.0000      -0.934607       -25.4319
 111   2.0000      -0.929337       -25.2886
 112   2.0000      -0.923284       -25.1238
 113   2.0000      -0.909394       -24.7459
 114   2.0000      -0.902628       -24.5618
 115   2.0000      -0.891287       -24.2531
 116   2.0000      -0.880244       -23.9527
 117   2.0000      -0.879325       -23.9277
 118   2.0000      -0.871940       -23.7267
 119   2.0000      -0.856374       -23.3031
 120   2.0000      -0.847605       -23.0645
 121   2.0000      -0.843399       -22.9501
 122   2.0000      -0.838679       -22.8216
 123   2.0000      -0.836459       -22.7612
 124   2.0000      -0.835052       -22.7229
 125   2.0000      -0.831675       -22.6310
 126   2.0000      -0.817426       -22.2433
 127   2.0000      -0.808109       -21.9898
 128   2.0000      -0.800704       -21.7883
 129   2.0000      -0.797627       -21.7045
 130   2.0000      -0.792566       -21.5668
 131   2.0000      -0.779612       -21.2143
 132   2.0000      -0.768464       -20.9110
 133   2.0000      -0.751696       -20.4547
 134   2.0000      -0.747069       -20.3288
 135   2.0000      -0.742829       -20.2134
 136   2.0000      -0.740901       -20.1609
 137   2.0000      -0.738423       -20.0935
 138   2.0000      -0.726922       -19.7806
 139   2.0000      -0.721540       -19.6341
 140   2.0000      -0.720576       -19.6079
 141   2.0000      -0.710074       -19.3221
 142   2.0000      -0.703399       -19.1405
 143   2.0000      -0.698676       -19.0119
 144   2.0000      -0.695934       -18.9373
 145   2.0000      -0.693105       -18.8603
 146   2.0000      -0.688247       -18.7282
 147   2.0000      -0.684416       -18.6239
 148   2.0000      -0.682256       -18.5651
 149   2.0000      -0.680360       -18.5135
 150   2.0000      -0.672702       -18.3051
 151   2.0000      -0.667138       -18.1537
 152   2.0000      -0.664492       -18.0818
 153   2.0000      -0.660625       -17.9765
 154   2.0000      -0.652094       -17.7444
 155   2.0000      -0.651434       -17.7264
 156   2.0000      -0.647719       -17.6253
 157   2.0000      -0.639884       -17.4121
 158   2.0000      -0.632465       -17.2103
 159   2.0000      -0.629985       -17.1428
 160   2.0000      -0.624070       -16.9818
 161   2.0000      -0.622848       -16.9486
 162   2.0000      -0.617907       -16.8141
 163   2.0000      -0.604806       -16.4576
 164   2.0000      -0.602029       -16.3820
 165   2.0000      -0.597448       -16.2574
 166   2.0000      -0.595075       -16.1928
 167   2.0000      -0.591234       -16.0883
 168   2.0000      -0.590293       -16.0627
 169   2.0000      -0.586193       -15.9511
 170   2.0000      -0.583749       -15.8846
 171   2.0000      -0.581093       -15.8123
 172   2.0000      -0.572490       -15.5782
 173   2.0000      -0.567345       -15.4382
 174   2.0000      -0.562994       -15.3198
 175   2.0000      -0.560007       -15.2386
 176   2.0000      -0.554034       -15.0760
 177   2.0000      -0.552419       -15.0321
 178   2.0000      -0.550945       -14.9920
 179   2.0000      -0.549222       -14.9451
 180   2.0000      -0.548337       -14.9210
 181   2.0000      -0.544074       -14.8050
 182   2.0000      -0.540084       -14.6964
 183   2.0000      -0.539674       -14.6853
 184   2.0000      -0.538089       -14.6422
 185   2.0000      -0.533689       -14.5224
 186   2.0000      -0.533041       -14.5048
 187   2.0000      -0.532509       -14.4903
 188   2.0000      -0.532366       -14.4864
 189   2.0000      -0.527610       -14.3570
 190   2.0000      -0.524742       -14.2790
 191   2.0000      -0.523896       -14.2559
 192   2.0000      -0.522716       -14.2238
 193   2.0000      -0.521877       -14.2010
 194   2.0000      -0.519880       -14.1466
 195   2.0000      -0.518085       -14.0978
 196   2.0000      -0.516903       -14.0656
 197   2.0000      -0.516444       -14.0532
 198   2.0000      -0.512401       -13.9431
 199   2.0000      -0.510809       -13.8998
 200   2.0000      -0.510047       -13.8791
 201   2.0000      -0.504657       -13.7324
 202   2.0000      -0.503993       -13.7143
 203   2.0000      -0.499580       -13.5943
 204   2.0000      -0.498885       -13.5754
 205   2.0000      -0.498255       -13.5582
 206   2.0000      -0.497347       -13.5335
 207   2.0000      -0.495954       -13.4956
 208   2.0000      -0.495435       -13.4815
 209   2.0000      -0.494667       -13.4606
 210   2.0000      -0.493393       -13.4259
 211   2.0000      -0.489913       -13.3312
 212   2.0000      -0.489564       -13.3217
 213   2.0000      -0.488475       -13.2921
 214   2.0000      -0.488131       -13.2827
 215   2.0000      -0.485744       -13.2178
 216   2.0000      -0.484144       -13.1742
 217   2.0000      -0.482751       -13.1363
 218   2.0000      -0.478432       -13.0188
 219   2.0000      -0.477038       -12.9809
 220   2.0000      -0.474893       -12.9225
 221   2.0000      -0.473042       -12.8721
 222   2.0000      -0.470835       -12.8121
 223   2.0000      -0.469715       -12.7816
 224   2.0000      -0.463630       -12.6160
 225   2.0000      -0.462488       -12.5849
 226   2.0000      -0.461521       -12.5586
 227   2.0000      -0.458588       -12.4788
 228   2.0000      -0.454719       -12.3735
 229   2.0000      -0.451283       -12.2800
 230   2.0000      -0.448083       -12.1930
 231   2.0000      -0.447001       -12.1635
 232   2.0000      -0.444231       -12.0881
 233   2.0000      -0.441697       -12.0192
 234   2.0000      -0.440494       -11.9864
 235   2.0000      -0.437979       -11.9180
 236   2.0000      -0.435719       -11.8565
 237   2.0000      -0.434837       -11.8325
 238   2.0000      -0.433151       -11.7866
 239   2.0000      -0.429168       -11.6783
 240   2.0000      -0.427524       -11.6335
 241   2.0000      -0.423504       -11.5241
 242   2.0000      -0.421284       -11.4637
 243   2.0000      -0.420816       -11.4510
 244   2.0000      -0.416828       -11.3425
 245   2.0000      -0.416335       -11.3291
 246   2.0000      -0.414287       -11.2733
 247   2.0000      -0.412995       -11.2382
 248   2.0000      -0.410701       -11.1757
 249   2.0000      -0.406842       -11.0707
 250   2.0000      -0.405750       -11.0410
 251   2.0000      -0.403222       -10.9722
 252   2.0000      -0.401126       -10.9152
 253   2.0000      -0.393462       -10.7066
 254   2.0000      -0.385693       -10.4952
 255   2.0000      -0.375861       -10.2277
 256   2.0000      -0.368074       -10.0158
 257   2.0000      -0.366214        -9.9652
 258   2.0000      -0.360250        -9.8029
 259   2.0000      -0.349293        -9.5048
 260   2.0000      -0.339816        -9.2469
 261   2.0000      -0.338227        -9.2036
 262   2.0000      -0.333103        -9.0642
 263   2.0000      -0.330377        -8.9900
 264   2.0000      -0.322576        -8.7777
 265   2.0000      -0.318125        -8.6566
 266   2.0000      -0.316762        -8.6195
 267   2.0000      -0.311067        -8.4646
 268   2.0000      -0.307071        -8.3558
 269   2.0000      -0.304990        -8.2992
 270   2.0000      -0.288272        -7.8443
 271   2.0000      -0.257030        -6.9941
 272   2.0000      -0.230472        -6.2715
 273   0.0000      -0.122393        -3.3305
 274   0.0000      -0.091140        -2.4800
 275   0.0000      -0.062094        -1.6897
 276   0.0000      -0.038452        -1.0463
 277   0.0000      -0.020722        -0.5639

MULLIKEN ATOMIC CHARGES
-----------------------
   0 C :   -0.152497
   1 S :    0.196148
   2 C :   -0.181833
   3 C :    0.045880
   4 C :    0.070503
   5 N :   -0.049015
   6 C :    0.112647
   7 O :   -0.286795
   8 C :    0.167316
   9 C :    0.012423
  10 C :   -0.183558
  11 C :    0.168914
  12 N :   -0.197001
  13 N :   -0.004326
  14 C :    0.054374
  15 C :   -0.027827
  16 C :    0.165821
  17 C :   -0.084781
  18 C :   -0.090746
  19 C :    0.222674
  20 O :   -0.135313
  21 O :   -0.243212
  22 C :    0.150459
  23 O :   -0.310820
  24 C :    0.247134
  25 O :   -0.150110
  26 C :   -0.169452
  27 S :    0.207543
  28 C :   -0.129602
  29 C :   -0.079420
  30 C :    0.023619
  31 C :    0.011079
  32 C :   -0.056360
  33 O :   -0.143664
  34 C :    0.535243
  35 F :   -0.153544
  36 F :   -0.175300
  37 F :   -0.134231
  38 C :    0.040078
  39 C :    0.059714
  40 C :    0.091125
  41 C :    0.038963
  42 C :   -0.050747
  43 C :   -0.102209
  44 S :    0.115041
  45 C :   -0.091278
  46 C :   -0.072548
  47 C :   -0.001768
  48 C :    0.046532
  49 C :   -0.071703
  50 O :   -0.132300
  51 C :    0.519081
  52 F :   -0.151003
  53 F :   -0.143575
  54 F :   -0.156621
  55 C :    0.012306
  56 C :    0.053182
  57 C :    0.116665
  58 C :   -0.012910
  59 C :   -0.039424
  60 C :    0.083163
  61 C :   -0.031506
  62 C :   -0.090675
  63 C :   -0.134120
  64 N :    0.141526
  65 C :   -0.027663
  66 C :    0.087146
  67 C :    0.027708
  68 C :    0.002104
  69 C :    0.063183
  70 C :   -0.126350
  71 C :   -0.012382
  72 C :   -0.130019
  73 N :    0.138473
  74 H :    0.020636
  75 H :    0.022936
  76 H :    0.019851
  77 H :    0.026452
  78 H :    0.021529
  79 H :    0.027409
  80 H :    0.030260
  81 H :    0.029443
  82 H :    0.101990
  83 H :    0.101625
  84 H :    0.000406
  85 H :   -0.017153
  86 H :    0.040809
  87 H :    0.021982
  88 H :    0.022429
  89 H :    0.010171
  90 H :    0.007992
  91 H :    0.018520
  92 H :    0.042104
  93 H :   -0.003684
  94 H :    0.017045
  95 H :    0.026925
  96 H :    0.024162
  97 H :    0.024005
  98 H :    0.010749
  99 H :    0.011192
 100 H :    0.019721
 101 H :    0.023508
 102 H :   -0.007713
 103 H :    0.010199
 104 H :   -0.008027
 105 H :   -0.006019
 106 H :   -0.006492
 107 H :    0.000505
 108 H :    0.004975
Sum of atomic charges:   -0.0000000

LOEWDIN ATOMIC CHARGES
----------------------
   0 C :   -0.190725
   1 S :    0.513510
   2 C :   -0.194915
   3 C :   -0.045433
   4 C :   -0.051234
   5 N :   -0.094865
   6 C :    0.049379
   7 O :   -0.078416
   8 C :    0.089556
   9 C :   -0.062072
  10 C :   -0.014702
  11 C :    0.007766
  12 N :   -0.095644
  13 N :   -0.047725
  14 C :    0.020786
  15 C :   -0.055240
  16 C :    0.110042
  17 C :   -0.139884
  18 C :   -0.128003
  19 C :    0.097815
  20 O :   -0.140801
  21 O :   -0.047596
  22 C :    0.082583
  23 O :   -0.052351
  24 C :    0.107310
  25 O :   -0.144962
  26 C :   -0.194880
  27 S :    0.498466
  28 C :   -0.160947
  29 C :   -0.046172
  30 C :   -0.023648
  31 C :   -0.057805
  32 C :    0.043097
  33 O :   -0.103327
  34 C :    0.134030
  35 F :   -0.047365
  36 F :   -0.068559
  37 F :   -0.030011
  38 C :   -0.015344
  39 C :   -0.023159
  40 C :   -0.030554
  41 C :   -0.032202
  42 C :   -0.051666
  43 C :   -0.166763
  44 S :    0.440507
  45 C :   -0.173046
  46 C :   -0.045546
  47 C :   -0.066120
  48 C :   -0.049092
  49 C :    0.046874
  50 O :   -0.092438
  51 C :    0.136896
  52 F :   -0.047011
  53 F :   -0.038597
  54 F :   -0.050855
  55 C :   -0.014117
  56 C :   -0.022853
  57 C :   -0.025452
  58 C :   -0.019661
  59 C :   -0.038455
  60 C :   -0.025218
  61 C :   -0.002614
  62 C :   -0.049513
  63 C :   -0.030678
  64 N :   -0.042234
  65 C :   -0.003620
  66 C :    0.039569
  67 C :    0.028915
  68 C :   -0.026331
  69 C :    0.015407
  70 C :   -0.053802
  71 C :    0.002369
  72 C :   -0.031975
  73 N :   -0.042169
  74 H :    0.030179
  75 H :    0.019812
  76 H :    0.019445
  77 H :    0.029840
  78 H :    0.033629
  79 H :    0.029959
  80 H :    0.037616
  81 H :    0.037290
  82 H :    0.056002
  83 H :    0.055165
  84 H :    0.036651
  85 H :    0.032840
  86 H :    0.044632
  87 H :    0.028848
  88 H :    0.030683
  89 H :    0.025451
  90 H :    0.028775
  91 H :    0.033535
  92 H :    0.037376
  93 H :    0.026953
  94 H :    0.035122
  95 H :    0.047865
  96 H :    0.032942
  97 H :    0.024854
  98 H :    0.026149
  99 H :    0.030600
 100 H :    0.033571
 101 H :    0.036952
 102 H :    0.033256
 103 H :    0.023052
 104 H :    0.030716
 105 H :    0.033195
 106 H :    0.029797
 107 H :    0.035718
 108 H :    0.035024

  Mayer bond orders larger than 0.100000
B(  0-C ,  1-S ) :   1.2068 B(  0-C ,  2-C ) :   0.1100 B(  0-C ,  4-C ) :   1.3949
B(  0-C , 74-H ) :   0.9762 B(  1-S ,  2-C ) :   1.1762 B(  2-C ,  3-C ) :   1.3031
B(  2-C , 14-C ) :   1.2027 B(  3-C ,  4-C ) :   1.2284 B(  3-C , 13-N ) :   1.3437
B(  4-C ,  5-N ) :   1.3351 B(  5-N ,  6-C ) :   1.6373 B(  6-C ,  7-O ) :   1.2746
B(  6-C , 10-C ) :   1.0790 B(  7-O ,  8-C ) :   0.8958 B(  8-C ,  9-C ) :   1.0924
B(  8-C , 75-H ) :   0.9571 B(  8-C , 76-H ) :   0.9582 B(  9-C , 77-H ) :   0.9694
B(  9-C , 78-H ) :   0.9616 B(  9-C , 79-H ) :   0.9689 B( 10-C , 11-C ) :   0.9575
B( 10-C , 13-N ) :   1.7816 B( 11-C , 12-N ) :   1.1611 B( 11-C , 80-H ) :   0.9315
B( 11-C , 81-H ) :   0.9318 B( 12-N , 82-H ) :   0.9787 B( 12-N , 83-H ) :   0.9791
B( 14-C , 15-C ) :   1.5634 B( 14-C , 84-H ) :   0.9352 B( 15-C , 16-C ) :   1.2102
B( 15-C , 85-H ) :   0.9603 B( 16-C , 17-C ) :   1.3411 B( 16-C , 21-O ) :   1.1340
B( 17-C , 18-C ) :   1.1566 B( 17-C , 24-C ) :   1.0053 B( 18-C , 19-C ) :   0.9548
B( 18-C , 22-C ) :   1.4233 B( 19-C , 20-O ) :   2.2391 B( 19-C , 21-O ) :   1.0164
B( 22-C , 23-O ) :   1.0907 B( 22-C , 26-C ) :   1.1867 B( 23-O , 24-C ) :   0.9636
B( 24-C , 25-O ) :   2.1364 B( 26-C , 27-S ) :   1.1432 B( 26-C , 28-C ) :   0.1159
B( 26-C , 30-C ) :   1.4369 B( 27-S , 28-C ) :   1.1188 B( 28-C , 29-C ) :   1.4595
B( 28-C , 41-C ) :   1.1317 B( 29-C , 30-C ) :   1.3900 B( 29-C , 40-C ) :   1.0513
B( 30-C , 31-C ) :   0.9707 B( 31-C , 32-C ) :   0.9006 B( 31-C , 38-C ) :   1.0522
B( 31-C , 86-H ) :   0.8743 B( 32-C , 33-O ) :   2.2341 B( 32-C , 34-C ) :   0.8618
B( 34-C , 35-F ) :   1.1483 B( 34-C , 36-F ) :   1.1289 B( 34-C , 37-F ) :   1.1852
B( 38-C , 39-C ) :   1.0834 B( 38-C , 87-H ) :   0.9313 B( 38-C , 88-H ) :   0.9316
B( 39-C , 40-C ) :   1.0858 B( 39-C , 89-H ) :   0.9383 B( 39-C , 90-H ) :   0.9327
B( 40-C , 91-H ) :   0.9104 B( 40-C , 92-H ) :   0.8950 B( 41-C , 42-C ) :   1.6648
B( 41-C , 93-H ) :   0.9527 B( 42-C , 43-C ) :   1.1527 B( 42-C , 94-H ) :   0.9443
B( 43-C , 44-S ) :   1.1200 B( 43-C , 47-C ) :   1.4803 B( 44-S , 45-C ) :   1.0981
B( 45-C , 46-C ) :   1.4849 B( 45-C , 58-C ) :   1.1606 B( 46-C , 47-C ) :   1.3434
B( 46-C , 57-C ) :   1.0520 B( 47-C , 48-C ) :   0.9456 B( 48-C , 49-C ) :   0.9500
B( 48-C , 55-C ) :   1.0535 B( 48-C , 95-H ) :   0.8684 B( 49-C , 50-O ) :   2.1978
B( 49-C , 51-C ) :   0.8579 B( 51-C , 52-F ) :   1.1263 B( 51-C , 53-F ) :   1.1671
B( 51-C , 54-F ) :   1.1553 B( 55-C , 56-C ) :   1.0757 B( 55-C , 96-H ) :   0.9343
B( 55-C , 97-H ) :   0.9382 B( 56-C , 57-C ) :   1.0965 B( 56-C , 98-H ) :   0.9404
B( 56-C , 99-H ) :   0.9308 B( 57-C ,100-H ) :   0.9111 B( 57-C ,101-H ) :   0.9103
B( 58-C , 59-C ) :   1.6606 B( 58-C ,102-H ) :   0.9743 B( 59-C , 60-C ) :   1.0864
B( 59-C ,103-H ) :   0.9586 B( 60-C , 61-C ) :   1.6084 B( 60-C , 66-C ) :   1.0414
B( 61-C , 62-C ) :   1.0994 B( 61-C ,104-H ) :   1.0142 B( 62-C , 63-C ) :   1.0555
B( 62-C , 65-C ) :   1.6279 B( 63-C , 64-N ) :   3.0427 B( 65-C , 66-C ) :   1.0778
B( 65-C ,105-H ) :   1.0196 B( 66-C , 67-C ) :   1.4945 B( 67-C , 68-C ) :   1.0773
B( 67-C , 71-C ) :   1.0637 B( 68-C , 69-C ) :   1.6867 B( 68-C ,106-H ) :   1.0059
B( 69-C , 70-C ) :   1.0735 B( 69-C ,107-H ) :   1.0128 B( 70-C , 71-C ) :   1.6775
B( 70-C , 72-C ) :   1.0657 B( 71-C ,108-H ) :   1.0115 B( 72-C , 73-N ) :   3.0366

-----------------------------------------------------------------------------
         ABSORPTION SPECTRUM VIA TRANSITION ELECTRIC DIPOLE MOMENTS
-----------------------------------------------------------------------------
State   Energy  Wavelength   fosc         T2         TX        TY        TZ
        (cm-1)    (nm)                  (au**2)     (au)      (au)      (au)
-----------------------------------------------------------------------------
   0   10260.6    974.6   0.203537348   6.53048  -0.98440   1.84647  -1.46697
   1   15780.2    633.7   1.399397927  29.19479  -0.51819  -5.33445   0.68554
   2   17116.1    584.2   0.126543314   2.43393   0.20473  -1.54660   0.00616
   3   21390.8    467.5   0.008532516   0.13132   0.35842   0.04176  -0.03335
   4   22656.7    441.4   0.259967077   3.77744  -0.06743  -0.89940   1.72162
   5   23091.7    433.1   0.020666001   0.29463  -0.02810  -0.23663  -0.48769
   6   23824.8    419.7   0.017309415   0.23918   0.10533   0.44053   0.18444
   7   26766.5    373.6   0.102465841   1.26027  -0.66179  -0.08837  -0.90249
   8   28049.9    356.5   0.262717008   3.08342   1.17920  -0.62367   1.14190
   9   28166.9    355.0   0.043901249   0.51311  -0.06588   0.47402  -0.53299
  10   28892.7    346.1   0.056788931   0.64707   0.76396  -0.05848  -0.24499
  11   28909.5    345.9   0.001528035   0.01740  -0.11623   0.05658   0.02626
  12   29122.4    343.4   0.099757664   1.12770  -0.59436  -0.26883   0.83796
  13   30245.6    330.6   0.172836510   1.88126   1.32138   0.22644  -0.28971
  14   30708.9    325.6   0.307440320   3.29589  -1.05417  -0.36546   1.43215
  15   31329.3    319.2   0.034729545   0.36494  -0.34159  -0.09060   0.48995
  16   31390.2    318.6   0.525086084   5.50696  -1.24556  -0.81631   1.81361
  17   31745.2    315.0   0.102662954   1.06466  -0.58149  -0.84977   0.06650
  18   31959.4    312.9   0.050443714   0.51962   0.44257  -0.33742  -0.45815
  19   32595.2    306.8   0.083221066   0.84053  -0.52064  -0.75248  -0.05701
  20   33320.3    300.1   0.031851792   0.31470   0.35288   0.24763   0.35897
  21   33654.2    297.1   0.083804557   0.81979   0.68785  -0.00694  -0.58874
  22   33844.6    295.5   0.017000689   0.16537   0.12618   0.06753   0.38064
  23   34191.5    292.5   0.000084048   0.00081   0.01661  -0.00116   0.02306
  24   34283.9    291.7   0.101886914   0.97837   0.08594   0.23010  -0.95814
  25   35154.8    284.5   0.029791467   0.27899   0.32119  -0.08774  -0.41003
  26   35845.1    279.0   0.050250704   0.46152  -0.02227   0.24165  -0.63453
  27   35989.2    277.9   0.007118925   0.06512  -0.10437   0.22496  -0.06017
  28   36636.7    273.0   0.026751143   0.24038  -0.25757   0.29551  -0.29448
  29   37268.3    268.3   0.008647038   0.07638  -0.06638  -0.19694  -0.18219
  30   37359.7    267.7   0.006030749   0.05314   0.10972   0.01422  -0.20224
  31   37462.9    266.9   0.020870420   0.18340   0.30929   0.29535  -0.02257
  32   38083.1    262.6   0.044295758   0.38292  -0.51349  -0.25359   0.23438
  33   38371.3    260.6   0.116991090   1.00374   0.33995   0.71045   0.61923
  34   39058.1    256.0   0.067793182   0.57141  -0.30353  -0.54818  -0.42283
  35   39178.3    255.2   0.000293487   0.00247  -0.04947   0.00172  -0.00395
  36   39424.9    253.6   0.004179273   0.03490   0.13409   0.02239  -0.12813
  37   39772.7    251.4   0.034196696   0.28306   0.30697  -0.07824  -0.42744
  38   40063.6    249.6   0.095154689   0.78191   0.05752  -0.58507  -0.66052
  39   40171.3    248.9   0.002123907   0.01741   0.02577   0.08873   0.09418

FINAL SINGLE POINT ENERGY     -4630.087794685292

DIPOLE MOMENT
-------------
                                X             Y             Z
Electronic contribution:     -1.98558     -11.42142     -29.84020
Nuclear contribution   :      1.84868      11.81002      29.38348
                        -----------------------------------------
Total Dipole Moment    :     -0.13690       0.38860      -0.45672
                        -----------------------------------------
Magnitude (a.u.)       :      0.61510
Magnitude (Debye)      :      1.56346

Rotational constants in cm-1:     0.001159     0.000285     0.000260
Rotational constants in MHz :    34.754607     8.536089     7.797834

                             ****ORCA TERMINATED NORMALLY****
TOTAL RUN TIME: 0 days 0 hours 11 minutes 22 seconds 97 msec
