                         Program Version 4.2.0 -  RELEASE  -
|  1> # ORCA input file
|  2> # SCF done       -146.371279676421          0.000429602367
|  3> ! CAM-B3LYP def2-SVP def2/J RIJCOSX Grid4 TightSCF
|  4> %maxcore 5000
|  5> %tddft
|  6>     Mode sTDDFT
|  7>     Ethresh 5.0
|  8>     maxcore 5000
|  9> end
| 10>
| 11> %pal
| 12>   nprocs 6
| 13>   end
| 14> * xyz 0 1
| 15>    C        3.81078       -15.63549        -4.80017
| 16>    S        2.63711       -14.46943        -5.21016
| 17>    C        2.19237       -14.20391        -3.54791
| 18>    C        2.96309       -15.02606        -2.70614
| 19>    C        3.89028       -15.84440        -3.43879
| 20>    C        4.74582       -16.73126        -2.75024
| 21>    C        4.68130       -16.80053        -1.38233
| 22>    C        5.53042       -17.68394        -0.67523
| 23>    N        6.22652       -18.40541        -0.12087
| 24>    C        3.75849       -15.98428        -0.65200
| 25>    C        3.71576       -16.07678         0.75663
| 26>    N        3.66057       -16.13790         1.90001
| 27>    C        2.91674       -15.11434        -1.30801
| 28>    C        1.20468       -13.28122        -3.16936
| 29>    C        0.49664       -12.49510        -4.03461
| 30>    C       -0.47289       -11.56412        -3.64306
| 31>    S       -0.89693       -11.31760        -1.97261
| 32>    C       -2.02146       -10.03425        -2.33120
| 33>    C       -2.11462        -9.85740        -3.73430
| 34>    C       -1.23302       -10.71000        -4.46774
| 35>    C       -1.21140       -10.65466        -5.86886
| 36>    C       -2.07370        -9.81097        -6.53327
| 37>    C       -2.05261        -9.74746        -7.94507
| 38>    N       -2.01642        -9.70833        -9.08972
| 39>    C       -3.00817        -9.01852        -5.80500
| 40>    C       -3.92048        -8.19214        -6.49757
| 41>    N       -4.66174        -7.50246        -7.03506
| 42>    C       -3.02652        -9.05008        -4.42632
| 43>    C       -2.67600        -9.33808        -1.31022
| 44>    C       -3.04858        -9.81877        -0.03911
| 45>    C       -2.91971       -11.09256         0.54117
| 46>    C       -3.48979       -11.32952         1.76163
| 47>    C       -4.23210       -10.33340         2.42886
| 48>    C       -4.38444        -9.08508         1.89378
| 49>    C       -3.76141        -8.78804         0.66877
| 50>    C       -3.78113        -7.62001        -0.11124
| 51>    C       -3.05386        -7.91479        -1.34820
| 52>    C       -2.52864        -6.99542        -2.16862
| 53>    C       -4.31981        -6.37389         0.24452
| 54>    S       -5.01721        -5.28547        -0.96018
| 55>    C       -5.45912        -4.05694         0.22294
| 56>    C       -5.04951        -4.49858         1.47466
| 57>    C       -4.43078        -5.76771         1.48663
| 58>    C       -3.85129        -5.96280         2.81395
| 59>    O       -3.18978        -6.85206         3.26664
| 60>    O       -4.16380        -4.83507         3.54858
| 61>    C       -4.85038        -3.90056         2.79161
| 62>    O       -5.13423        -2.82211         3.22678
| 63>    C       -6.11469        -2.86329        -0.12338
| 64>    C       -6.99039        -2.13449         0.68383
| 65>    C       -7.60924        -2.43447         1.91461
| 66>    C       -8.44966        -1.51768         2.47194
| 67>    C       -8.73536        -0.27675         1.83829
| 68>    C       -8.22267         0.02581         0.61807
| 69>    C       -7.35148        -0.90477        -0.00856
| 70>    C       -6.74383        -0.89054        -1.23443
| 71>    C       -5.97073        -2.10750        -1.38385
| 72>    C       -5.24143        -2.41835        -2.46339
| 73>    H        4.38460       -16.11028        -5.57059
| 74>    H        5.44209       -17.34583        -3.30051
| 75>    H        2.22909       -14.50738        -0.73877
| 76>    H        1.00413       -13.19351        -2.10969
| 77>    H        0.69786       -12.57903        -5.09433
| 78>    H       -0.53372       -11.27676        -6.43299
| 79>    H       -3.75609        -8.46290        -3.89014
| 80>    H       -2.39061       -11.87833         0.02445
| 81>    H       -3.39482       -12.30281         2.21920
| 82>    H       -4.69589       -10.57523         3.37284
| 83>    H       -4.98664        -8.34275         2.38931
| 84>    H       -1.86481        -7.25999        -2.97341
| 85>    H       -2.72955        -5.94583        -2.04145
| 86>    H       -7.43426        -3.38316         2.39418
| 87>    H       -8.92528        -1.72993         3.41754
| 88>    H       -9.39578         0.41480         2.34004
| 89>    H       -8.46590         0.94703         0.11050
| 90>    H       -6.79674        -0.11980        -1.97972
| 91>    H       -5.22058        -1.76130        -3.31706
| 92>    H       -4.66123        -3.32176        -2.53694
| 93> *
| 94>
| 95>                          ****END OF INPUT****

CARTESIAN COORDINATES (ANGSTROEM)
---------------------------------
  C      3.810780  -15.635490   -4.800170
  S      2.637110  -14.469430   -5.210160
  C      2.192370  -14.203910   -3.547910
  C      2.963090  -15.026060   -2.706140
  C      3.890280  -15.844400   -3.438790
  C      4.745820  -16.731260   -2.750240
  C      4.681300  -16.800530   -1.382330
  C      5.530420  -17.683940   -0.675230
  N      6.226520  -18.405410   -0.120870
  C      3.758490  -15.984280   -0.652000
  C      3.715760  -16.076780    0.756630
  N      3.660570  -16.137900    1.900010
  C      2.916740  -15.114340   -1.308010
  C      1.204680  -13.281220   -3.169360
  C      0.496640  -12.495100   -4.034610
  C     -0.472890  -11.564120   -3.643060
  S     -0.896930  -11.317600   -1.972610
  C     -2.021460  -10.034250   -2.331200
  C     -2.114620   -9.857400   -3.734300
  C     -1.233020  -10.710000   -4.467740
  C     -1.211400  -10.654660   -5.868860
  C     -2.073700   -9.810970   -6.533270
  C     -2.052610   -9.747460   -7.945070
  N     -2.016420   -9.708330   -9.089720
  C     -3.008170   -9.018520   -5.805000
  C     -3.920480   -8.192140   -6.497570
  N     -4.661740   -7.502460   -7.035060
  C     -3.026520   -9.050080   -4.426320
  C     -2.676000   -9.338080   -1.310220
  C     -3.048580   -9.818770   -0.039110
  C     -2.919710  -11.092560    0.541170
  C     -3.489790  -11.329520    1.761630
  C     -4.232100  -10.333400    2.428860
  C     -4.384440   -9.085080    1.893780
  C     -3.761410   -8.788040    0.668770
  C     -3.781130   -7.620010   -0.111240
  C     -3.053860   -7.914790   -1.348200
  C     -2.528640   -6.995420   -2.168620
  C     -4.319810   -6.373890    0.244520
  S     -5.017210   -5.285470   -0.960180
  C     -5.459120   -4.056940    0.222940
  C     -5.049510   -4.498580    1.474660
  C     -4.430780   -5.767710    1.486630
  C     -3.851290   -5.962800    2.813950
  O     -3.189780   -6.852060    3.266640
  O     -4.163800   -4.835070    3.548580
  C     -4.850380   -3.900560    2.791610
  O     -5.134230   -2.822110    3.226780
  C     -6.114690   -2.863290   -0.123380
  C     -6.990390   -2.134490    0.683830
  C     -7.609240   -2.434470    1.914610
  C     -8.449660   -1.517680    2.471940
  C     -8.735360   -0.276750    1.838290
  C     -8.222670    0.025810    0.618070
  C     -7.351480   -0.904770   -0.008560
  C     -6.743830   -0.890540   -1.234430
  C     -5.970730   -2.107500   -1.383850
  C     -5.241430   -2.418350   -2.463390
  H      4.384600  -16.110280   -5.570590
  H      5.442090  -17.345830   -3.300510
  H      2.229090  -14.507380   -0.738770
  H      1.004130  -13.193510   -2.109690
  H      0.697860  -12.579030   -5.094330
  H     -0.533720  -11.276760   -6.432990
  H     -3.756090   -8.462900   -3.890140
  H     -2.390610  -11.878330    0.024450
  H     -3.394820  -12.302810    2.219200
  H     -4.695890  -10.575230    3.372840
  H     -4.986640   -8.342750    2.389310
  H     -1.864810   -7.259990   -2.973410
  H     -2.729550   -5.945830   -2.041450
  H     -7.434260   -3.383160    2.394180
  H     -8.925280   -1.729930    3.417540
  H     -9.395780    0.414800    2.340040
  H     -8.465900    0.947030    0.110500
  H     -6.796740   -0.119800   -1.979720
  H     -5.220580   -1.761300   -3.317060
  H     -4.661230   -3.321760   -2.536940

 Total Charge           Charge          ....    0
 Multiplicity           Mult            ....    1
 Number of Electrons    NEL             ....  408
 Basis Dimension        Dim             ....  924

ORBITAL ENERGIES
----------------

  NO   OCC          E(Eh)            E(eV)
   0   2.0000     -88.996520     -2421.7184
   1   2.0000     -88.992661     -2421.6134
   2   2.0000     -88.984327     -2421.3866
   3   2.0000     -19.273496      -524.4585
   4   2.0000     -19.220784      -523.0241
   5   2.0000     -19.217959      -522.9472
   6   2.0000     -14.416125      -392.2827
   7   2.0000     -14.414586      -392.2408
   8   2.0000     -14.411568      -392.1587
   9   2.0000     -14.411492      -392.1566
  10   2.0000     -10.417157      -283.4653
  11   2.0000     -10.414349      -283.3888
  12   2.0000     -10.341864      -281.4164
  13   2.0000     -10.341747      -281.4132
  14   2.0000     -10.340044      -281.3669
  15   2.0000     -10.339477      -281.3515
  16   2.0000     -10.336208      -281.2625
  17   2.0000     -10.335644      -281.2472
  18   2.0000     -10.335115      -281.2328
  19   2.0000     -10.334879      -281.2264
  20   2.0000     -10.332355      -281.1577
  21   2.0000     -10.325724      -280.9772
  22   2.0000     -10.325009      -280.9578
  23   2.0000     -10.322113      -280.8790
  24   2.0000     -10.321729      -280.8685
  25   2.0000     -10.320687      -280.8402
  26   2.0000     -10.320172      -280.8262
  27   2.0000     -10.319426      -280.8059
  28   2.0000     -10.318222      -280.7731
  29   2.0000     -10.317996      -280.7670
  30   2.0000     -10.315460      -280.6979
  31   2.0000     -10.314467      -280.6709
  32   2.0000     -10.313735      -280.6510
  33   2.0000     -10.313629      -280.6481
  34   2.0000     -10.313562      -280.6463
  35   2.0000     -10.313544      -280.6458
  36   2.0000     -10.311513      -280.5905
  37   2.0000     -10.310109      -280.5523
  38   2.0000     -10.309949      -280.5480
  39   2.0000     -10.308549      -280.5099
  40   2.0000     -10.307617      -280.4845
  41   2.0000     -10.305596      -280.4295
  42   2.0000     -10.302935      -280.3571
  43   2.0000     -10.301465      -280.3171
  44   2.0000     -10.299007      -280.2502
  45   2.0000     -10.298134      -280.2265
  46   2.0000     -10.294215      -280.1198
  47   2.0000     -10.291784      -280.0537
  48   2.0000     -10.290226      -280.0113
  49   2.0000     -10.288927      -279.9759
  50   2.0000     -10.288442      -279.9628
  51   2.0000     -10.287167      -279.9280
  52   2.0000     -10.286698      -279.9153
  53   2.0000     -10.286467      -279.9090
  54   2.0000     -10.284043      -279.8430
  55   2.0000     -10.283033      -279.8155
  56   2.0000     -10.281345      -279.7696
  57   2.0000     -10.278881      -279.7026
  58   2.0000      -8.091633      -220.1845
  59   2.0000      -8.087156      -220.0627
  60   2.0000      -8.079243      -219.8474
  61   2.0000      -6.060503      -164.9147
  62   2.0000      -6.056250      -164.7989
  63   2.0000      -6.056234      -164.7985
  64   2.0000      -6.054824      -164.7601
  65   2.0000      -6.052108      -164.6862
  66   2.0000      -6.049833      -164.6243
  67   2.0000      -6.048695      -164.5934
  68   2.0000      -6.044311      -164.4741
  69   2.0000      -6.041256      -164.3909
  70   2.0000      -1.219284       -33.1784
  71   2.0000      -1.145877       -31.1809
  72   2.0000      -1.107432       -30.1348
  73   2.0000      -1.033798       -28.1311
  74   2.0000      -1.028899       -27.9978
  75   2.0000      -1.018796       -27.7229
  76   2.0000      -1.009423       -27.4678
  77   2.0000      -1.004962       -27.3464
  78   2.0000      -1.001248       -27.2454
  79   2.0000      -0.996008       -27.1028
  80   2.0000      -0.992002       -26.9938
  81   2.0000      -0.988823       -26.9072
  82   2.0000      -0.969551       -26.3828
  83   2.0000      -0.965401       -26.2699
  84   2.0000      -0.945334       -25.7239
  85   2.0000      -0.933826       -25.4107
  86   2.0000      -0.930401       -25.3175
  87   2.0000      -0.910890       -24.7866
  88   2.0000      -0.895591       -24.3703
  89   2.0000      -0.891818       -24.2676
  90   2.0000      -0.886326       -24.1182
  91   2.0000      -0.881621       -23.9901
  92   2.0000      -0.877338       -23.8736
  93   2.0000      -0.871907       -23.7258
  94   2.0000      -0.867856       -23.6156
  95   2.0000      -0.860552       -23.4168
  96   2.0000      -0.853356       -23.2210
  97   2.0000      -0.847171       -23.0527
  98   2.0000      -0.824407       -22.4333
  99   2.0000      -0.803423       -21.8622
 100   2.0000      -0.788543       -21.4574
 101   2.0000      -0.782234       -21.2857
 102   2.0000      -0.768533       -20.9128
 103   2.0000      -0.766978       -20.8705
 104   2.0000      -0.765271       -20.8241
 105   2.0000      -0.760639       -20.6980
 106   2.0000      -0.758402       -20.6372
 107   2.0000      -0.737687       -20.0735
 108   2.0000      -0.731527       -19.9059
 109   2.0000      -0.720602       -19.6086
 110   2.0000      -0.704898       -19.1812
 111   2.0000      -0.701854       -19.0984
 112   2.0000      -0.699272       -19.0282
 113   2.0000      -0.685975       -18.6663
 114   2.0000      -0.679248       -18.4833
 115   2.0000      -0.678008       -18.4495
 116   2.0000      -0.667842       -18.1729
 117   2.0000      -0.657989       -17.9048
 118   2.0000      -0.649859       -17.6836
 119   2.0000      -0.640949       -17.4411
 120   2.0000      -0.639089       -17.3905
 121   2.0000      -0.627772       -17.0825
 122   2.0000      -0.618685       -16.8353
 123   2.0000      -0.616919       -16.7872
 124   2.0000      -0.614465       -16.7204
 125   2.0000      -0.609888       -16.5959
 126   2.0000      -0.593259       -16.1434
 127   2.0000      -0.590845       -16.0777
 128   2.0000      -0.584521       -15.9056
 129   2.0000      -0.582239       -15.8435
 130   2.0000      -0.576037       -15.6748
 131   2.0000      -0.574637       -15.6367
 132   2.0000      -0.570233       -15.5168
 133   2.0000      -0.566373       -15.4118
 134   2.0000      -0.561324       -15.2744
 135   2.0000      -0.559330       -15.2201
 136   2.0000      -0.554508       -15.0889
 137   2.0000      -0.546771       -14.8784
 138   2.0000      -0.545292       -14.8382
 139   2.0000      -0.540765       -14.7150
 140   2.0000      -0.538678       -14.6582
 141   2.0000      -0.535268       -14.5654
 142   2.0000      -0.532670       -14.4947
 143   2.0000      -0.528742       -14.3878
 144   2.0000      -0.526331       -14.3222
 145   2.0000      -0.522751       -14.2248
 146   2.0000      -0.521728       -14.1969
 147   2.0000      -0.520108       -14.1529
 148   2.0000      -0.511993       -13.9320
 149   2.0000      -0.510535       -13.8924
 150   2.0000      -0.506746       -13.7893
 151   2.0000      -0.505272       -13.7491
 152   2.0000      -0.501635       -13.6502
 153   2.0000      -0.496576       -13.5125
 154   2.0000      -0.492835       -13.4107
 155   2.0000      -0.492200       -13.3934
 156   2.0000      -0.489508       -13.3202
 157   2.0000      -0.488339       -13.2884
 158   2.0000      -0.487570       -13.2675
 159   2.0000      -0.479747       -13.0546
 160   2.0000      -0.476886       -12.9767
 161   2.0000      -0.474064       -12.8999
 162   2.0000      -0.471237       -12.8230
 163   2.0000      -0.469930       -12.7874
 164   2.0000      -0.464990       -12.6530
 165   2.0000      -0.458453       -12.4751
 166   2.0000      -0.452536       -12.3141
 167   2.0000      -0.451473       -12.2852
 168   2.0000      -0.448343       -12.2000
 169   2.0000      -0.445804       -12.1309
 170   2.0000      -0.443124       -12.0580
 171   2.0000      -0.442324       -12.0363
 172   2.0000      -0.440419       -11.9844
 173   2.0000      -0.439317       -11.9544
 174   2.0000      -0.438307       -11.9269
 175   2.0000      -0.437314       -11.8999
 176   2.0000      -0.431906       -11.7528
 177   2.0000      -0.426421       -11.6035
 178   2.0000      -0.425502       -11.5785
 179   2.0000      -0.424732       -11.5575
 180   2.0000      -0.420904       -11.4534
 181   2.0000      -0.418788       -11.3958
 182   2.0000      -0.417737       -11.3672
 183   2.0000      -0.416014       -11.3203
 184   2.0000      -0.413394       -11.2490
 185   2.0000      -0.410937       -11.1822
 186   2.0000      -0.408590       -11.1183
 187   2.0000      -0.398593       -10.8463
 188   2.0000      -0.395757       -10.7691
 189   2.0000      -0.383722       -10.4416
 190   2.0000      -0.379112       -10.3162
 191   2.0000      -0.361862        -9.8468
 192   2.0000      -0.358815        -9.7639
 193   2.0000      -0.355874        -9.6838
 194   2.0000      -0.351818        -9.5735
 195   2.0000      -0.343762        -9.3542
 196   2.0000      -0.341464        -9.2917
 197   2.0000      -0.338069        -9.1993
 198   2.0000      -0.334495        -9.1021
 199   2.0000      -0.328484        -8.9385
 200   2.0000      -0.315200        -8.5770
 201   2.0000      -0.281104        -7.6492
 202   2.0000      -0.255868        -6.9625
 203   2.0000      -0.224495        -6.1088
 204   0.0000      -0.123017        -3.3475
 205   0.0000      -0.094346        -2.5673
 206   0.0000      -0.087572        -2.3829
 207   0.0000      -0.063929        -1.7396
 208   0.0000      -0.034795        -0.9468

MULLIKEN ATOMIC CHARGES
-----------------------
   0 C :   -0.112569
   1 S :    0.166872
   2 C :   -0.110086
   3 C :    0.139447
   4 C :    0.103793
   5 C :   -0.015865
   6 C :   -0.072930
   7 C :   -0.175356
   8 N :    0.170820
   9 C :   -0.068602
  10 C :   -0.178944
  11 N :    0.167984
  12 C :   -0.044231
  13 C :   -0.019731
  14 C :   -0.012393
  15 C :   -0.080879
  16 S :    0.157344
  17 C :   -0.170805
  18 C :    0.142470
  19 C :    0.116359
  20 C :   -0.057517
  21 C :   -0.057609
  22 C :   -0.182413
  23 N :    0.172121
  24 C :   -0.081200
  25 C :   -0.178843
  26 N :    0.170405
  27 C :   -0.088276
  28 C :    0.076881
  29 C :    0.033753
  30 C :   -0.034979
  31 C :    0.040608
  32 C :    0.023606
  33 C :    0.031010
  34 C :    0.032125
  35 C :    0.102660
  36 C :   -0.027794
  37 C :   -0.011689
  38 C :   -0.210041
  39 S :    0.140679
  40 C :   -0.176131
  41 C :   -0.047397
  42 C :   -0.027781
  43 C :    0.212541
  44 O :   -0.124702
  45 O :   -0.246054
  46 C :    0.208933
  47 O :   -0.121667
  48 C :    0.088613
  49 C :    0.032552
  50 C :    0.039659
  51 C :    0.023637
  52 C :    0.025467
  53 C :    0.015709
  54 C :    0.077176
  55 C :   -0.045649
  56 C :    0.021650
  57 C :   -0.010711
  58 H :    0.032286
  59 H :   -0.003128
  60 H :   -0.005994
  61 H :   -0.001572
  62 H :   -0.003121
  63 H :   -0.007330
  64 H :    0.004244
  65 H :   -0.024729
  66 H :   -0.002697
  67 H :   -0.002647
  68 H :   -0.025388
  69 H :    0.061814
  70 H :    0.044153
  71 H :   -0.028807
  72 H :   -0.003919
  73 H :   -0.005739
  74 H :   -0.023427
  75 H :   -0.019783
  76 H :    0.041740
  77 H :    0.032015
Sum of atomic charges:   -0.0000000

LOEWDIN ATOMIC CHARGES
----------------------
   0 C :   -0.181114
   1 S :    0.502024
   2 C :   -0.166923
   3 C :   -0.047246
   4 C :   -0.050873
   5 C :    0.036476
   6 C :   -0.054906
   7 C :   -0.032320
   8 N :   -0.034875
   9 C :   -0.056713
  10 C :   -0.033943
  11 N :   -0.037299
  12 C :    0.032644
  13 C :   -0.049359
  14 C :   -0.042011
  15 C :   -0.175029
  16 S :    0.494304
  17 C :   -0.144321
  18 C :   -0.051321
  19 C :   -0.039188
  20 C :    0.027769
  21 C :   -0.051450
  22 C :   -0.032729
  23 N :   -0.035303
  24 C :   -0.065384
  25 C :   -0.034299
  26 N :   -0.042125
  27 C :    0.031786
  28 C :   -0.059222
  29 C :   -0.002210
  30 C :   -0.033508
  31 C :    0.001276
  32 C :   -0.009118
  33 C :    0.008520
  34 C :    0.003853
  35 C :   -0.048026
  36 C :   -0.012355
  37 C :    0.057895
  38 C :   -0.132873
  39 S :    0.453468
  40 C :   -0.110821
  41 C :   -0.125834
  42 C :   -0.110165
  43 C :    0.098338
  44 O :   -0.119813
  45 O :   -0.070956
  46 C :    0.098377
  47 O :   -0.117848
  48 C :   -0.085948
  49 C :    0.024322
  50 C :   -0.006383
  51 C :    0.002768
  52 C :   -0.019326
  53 C :   -0.008071
  54 C :   -0.017792
  55 C :    0.001930
  56 C :   -0.014474
  57 C :    0.046084
  58 H :    0.030584
  59 H :    0.045621
  60 H :    0.041690
  61 H :    0.027138
  62 H :    0.027775
  63 H :    0.041378
  64 H :    0.042880
  65 H :    0.015334
  66 H :    0.034263
  67 H :    0.034713
  68 H :    0.031031
  69 H :    0.038634
  70 H :    0.023292
  71 H :    0.028576
  72 H :    0.033577
  73 H :    0.031681
  74 H :    0.031303
  75 H :    0.027426
  76 H :    0.038376
  77 H :    0.016367

  Mayer bond orders larger than 0.100000
B(  0-C ,  1-S ) :   1.1972 B(  0-C ,  4-C ) :   1.4149 B(  0-C , 58-H ) :   0.9698
B(  1-S ,  2-C ) :   1.1611 B(  2-C ,  3-C ) :   1.2973 B(  2-C , 13-C ) :   1.2226
B(  3-C ,  4-C ) :   1.1902 B(  3-C , 12-C ) :   1.2086 B(  4-C ,  5-C ) :   1.1541
B(  5-C ,  6-C ) :   1.5818 B(  5-C , 59-H ) :   1.0065 B(  6-C ,  7-C ) :   1.0770
B(  6-C ,  9-C ) :   1.2250 B(  7-C ,  8-N ) :   3.0480 B(  9-C , 10-C ) :   1.0817
B(  9-C , 12-C ) :   1.5690 B( 10-C , 11-N ) :   3.0399 B( 12-C , 60-H ) :   0.9945
B( 13-C , 14-C ) :   1.5766 B( 13-C , 61-H ) :   0.9646 B( 14-C , 15-C ) :   1.2408
B( 14-C , 62-H ) :   0.9659 B( 15-C , 16-S ) :   1.1062 B( 15-C , 19-C ) :   1.2885
B( 16-S , 17-C ) :   1.1703 B( 17-C , 18-C ) :   1.2748 B( 17-C , 28-C ) :   1.2002
B( 18-C , 19-C ) :   1.1984 B( 18-C , 27-C ) :   1.2056 B( 19-C , 20-C ) :   1.2050
B( 20-C , 21-C ) :   1.5568 B( 20-C , 63-H ) :   0.9947 B( 21-C , 22-C ) :   1.0765
B( 21-C , 24-C ) :   1.2488 B( 22-C , 23-N ) :   3.0432 B( 24-C , 25-C ) :   1.0835
B( 24-C , 27-C ) :   1.5401 B( 25-C , 26-N ) :   3.0438 B( 27-C , 64-H ) :   0.9953
B( 28-C , 29-C ) :   1.3727 B( 28-C , 36-C ) :   1.0256 B( 29-C , 30-C ) :   1.1855
B( 29-C , 34-C ) :   1.1426 B( 30-C , 31-C ) :   1.5692 B( 30-C , 65-H ) :   0.9795
B( 31-C , 32-C ) :   1.1886 B( 31-C , 66-H ) :   0.9842 B( 32-C , 33-C ) :   1.5677
B( 32-C , 67-H ) :   0.9851 B( 33-C , 34-C ) :   1.1987 B( 33-C , 68-H ) :   0.9862
B( 34-C , 35-C ) :   1.4062 B( 35-C , 36-C ) :   1.0391 B( 35-C , 38-C ) :   1.1378
B( 36-C , 37-C ) :   1.8567 B( 37-C , 69-H ) :   0.9344 B( 37-C , 70-H ) :   0.9264
B( 38-C , 39-S ) :   1.0996 B( 38-C , 42-C ) :   1.4885 B( 39-S , 40-C ) :   1.1162
B( 40-C , 41-C ) :   1.4734 B( 40-C , 48-C ) :   1.1515 B( 41-C , 42-C ) :   1.2123
B( 41-C , 46-C ) :   0.9388 B( 42-C , 43-C ) :   0.9308 B( 43-C , 44-O ) :   2.2297
B( 43-C , 45-O ) :   1.0517 B( 45-O , 46-C ) :   1.0384 B( 46-C , 47-O ) :   2.2314
B( 48-C , 49-C ) :   1.4408 B( 48-C , 56-C ) :   1.0321 B( 49-C , 50-C ) :   1.1775
B( 49-C , 54-C ) :   1.1086 B( 50-C , 51-C ) :   1.6001 B( 50-C , 71-H ) :   0.9832
B( 51-C , 52-C ) :   1.1469 B( 51-C , 72-H ) :   0.9828 B( 52-C , 53-C ) :   1.6176
B( 52-C , 73-H ) :   0.9865 B( 53-C , 54-C ) :   1.1134 B( 53-C , 74-H ) :   0.9992
B( 54-C , 55-C ) :   1.5115 B( 55-C , 56-C ) :   1.0477 B( 55-C , 75-H ) :   1.0160
B( 56-C , 57-C ) :   1.8521 B( 57-C , 76-H ) :   0.9377 B( 57-C , 77-H ) :   0.9282

-----------------------------------------------------------------------------
         ABSORPTION SPECTRUM VIA TRANSITION ELECTRIC DIPOLE MOMENTS
-----------------------------------------------------------------------------
State   Energy  Wavelength   fosc         T2         TX        TY        TZ
        (cm-1)    (nm)                  (au**2)     (au)      (au)      (au)
-----------------------------------------------------------------------------
   0    7152.5   1398.1   0.500595099  23.04129  -2.63324   3.58959   1.79503
   1   13667.5    731.7   0.203871600   4.91070   1.15873  -1.83932   0.43003
   2   14193.9    704.5   0.133191299   3.08923  -1.21908   1.18322   0.45063
   3   15209.2    657.5   0.119630554   2.58947  -1.37296   0.66581   0.51103
   4   19099.8    523.6   0.139830512   2.41017   1.12365  -1.04716   0.22594
   5   19520.7    512.3   0.029422217   0.49620   0.27022  -0.10222   0.64244
   6   19877.8    503.1   0.117512195   1.94621  -0.87438   0.80542  -0.73005
   7   24074.0    415.4   0.144290391   1.97317   0.45116  -0.12269   1.32460
   8   24956.2    400.7   0.179757339   2.37128   0.51067  -1.40108  -0.38402
   9   26377.9    379.1   0.162472684   2.02775  -0.72609   0.91289  -0.81681
  10   26689.9    374.7   0.134384905   1.65760   0.77127  -0.71467   0.74296
  11   27136.6    368.5   0.083780479   1.01640   0.52799  -0.49346   0.70294
  12   28048.6    356.5   0.040029474   0.46983  -0.05093   0.23640   0.64137
  13   28579.7    349.9   0.248323228   2.86046  -0.69816   1.47941  -0.42940
  14   28994.3    344.9   0.007798736   0.08855  -0.11469  -0.26689   0.06457
  15   29534.1    338.6   0.009949691   0.11091  -0.00536  -0.09200  -0.32002
  16   29945.4    333.9   0.076461095   0.84059  -0.63850   0.64165  -0.14561
  17   31182.8    320.7   0.028187336   0.29759  -0.30833  -0.44835  -0.03877
  18   31815.8    314.3   0.096381206   0.99730   0.24232  -0.37210   0.89449
  19   32185.7    310.7   0.058616388   0.59956   0.40334   0.22557  -0.62128
  20   32262.7    310.0   0.157096936   1.60303   0.37568  -1.11381   0.47045
  21   32634.0    306.4   0.020884812   0.21069   0.06202   0.41468  -0.18677
  22   32862.5    304.3   0.030194002   0.30248  -0.07720   0.01718  -0.54426
  23   32927.8    303.7   0.063903624   0.63891  -0.74021   0.22796   0.19755
  24   33087.5    302.2   0.009975302   0.09925   0.22862   0.04744  -0.21150
  25   33454.9    298.9   0.082497619   0.81182  -0.33566   0.50922  -0.66321
  26   33876.5    295.2   0.110646171   1.07526   0.07243  -0.58171   0.85535
  27   34507.2    289.8   0.002253695   0.02150   0.11975   0.06379   0.05561
  28   34983.2    285.9   0.113504183   1.06814  -0.02115  -0.16085   1.02070
  29   35044.2    285.4   0.061526653   0.57799   0.35124  -0.19468  -0.64554
  30   35861.0    278.9   0.059341783   0.54477   0.07131   0.13753  -0.72164
  31   36098.0    277.0   0.029380846   0.26795  -0.48383   0.15871  -0.09314
  32   36272.1    275.7   0.013107913   0.11897  -0.33684   0.07396   0.00640
  33   36459.5    274.3   0.021323292   0.19254  -0.26197  -0.20477   0.28632
  34   37055.9    269.9   0.299671019   2.66233  -1.03332   0.72086   1.03680
  35   37213.6    268.7   0.035031509   0.30991  -0.36874   0.41691   0.01103
  36   37896.6    263.9   0.102424802   0.88978  -0.41000   0.48630  -0.69656
  37   37995.0    263.2   0.103688437   0.89842  -0.29644   0.48656  -0.75750
  38   38372.3    260.6   0.200546174   1.72057  -0.42525   0.56026  -1.10718
  39   38693.9    258.4   0.015388501   0.13093  -0.01501   0.03975  -0.35933
  40   39071.4    255.9   0.033186514   0.27963  -0.20452  -0.03198   0.48659
  41   39324.7    254.3   0.146107975   1.22316  -0.20539   0.36623  -1.02316
  42   39488.1    253.2   0.035078224   0.29245   0.19785  -0.21122   0.45683
  43   39812.0    251.2   0.124069146   1.02595   0.06075  -0.36660   0.94226
  44   40064.3    249.6   0.050848086   0.41782  -0.30162  -0.15311   0.55082
  45   40208.6    248.7   0.034747120   0.28450  -0.31463  -0.02687  -0.42986

FINAL SINGLE POINT ENERGY     -3476.995127802350

DIPOLE MOMENT
-------------
                                X             Y             Z
Electronic contribution:     16.45657     -18.97067      -5.75804
Nuclear contribution   :    -17.84869      20.37404       4.15017
                        -----------------------------------------
Total Dipole Moment    :     -1.39212       1.40337      -1.60787
                        -----------------------------------------
Magnitude (a.u.)       :      2.54808
Magnitude (Debye)      :      6.47671

Rotational constants in cm-1:     0.002443     0.000516     0.000439
Rotational constants in MHz :    73.242164    15.456337    13.156431

                             ****ORCA TERMINATED NORMALLY****
TOTAL RUN TIME: 0 days 0 hours 7 minutes 21 seconds 226 msec
