                         Program Version 4.2.0 -  RELEASE  -
|  1> # ORCA input file
|  2> # SCF done       -155.211251003695          0.000332313025
|  3> ! CAM-B3LYP def2-SVP def2/J RIJCOSX Grid4 TightSCF
|  4> %maxcore 5000
|  5> %tddft
|  6>     Mode sTDDFT
|  7>     Ethresh 5.0
|  8>     maxcore 5000
|  9> end
| 10>
| 11> %pal
| 12>   nprocs 6
| 13>   end
| 14> * xyz 0 1
| 15>    C        2.18227        -0.30967        -1.50377
| 16>    S        1.15019        -1.54924        -2.04304
| 17>    C        1.02307        -2.25495        -0.46095
| 18>    C        1.78336        -1.51866         0.45753
| 19>    C        2.44879        -0.39946        -0.15250
| 20>    C        3.26278         0.45126         0.62593
| 21>    C        3.41199         0.19610         1.96423
| 22>    C        4.22591         1.03428         2.76223
| 23>    N        4.88938         1.72228         3.39369
| 24>    C        2.74969        -0.91993         2.57361
| 25>    C        2.92704        -1.15526         3.95615
| 26>    N        3.05816        -1.36483         5.07513
| 27>    C        1.95146        -1.75776         1.83234
| 28>    C        0.24376        -3.40845        -0.21029
| 29>    C       -0.44869        -4.09408        -1.14895
| 30>    C       -1.22944        -5.25586        -0.84827
| 31>    C       -1.91703        -5.95991        -1.85427
| 32>    N       -2.66237        -7.00734        -1.60384
| 33>    C       -2.75936        -7.42353        -0.32748
| 34>    C       -2.04411        -6.73662         0.67551
| 35>    N       -1.30777        -5.68560         0.42517
| 36>    C       -3.59084        -8.54912        -0.04342
| 37>    S       -3.82694        -9.09157         1.58257
| 38>    C       -4.89295       -10.37506         1.10805
| 39>    C       -5.05318       -10.38452        -0.29116
| 40>    C       -4.31370        -9.34757        -0.94278
| 41>    C       -4.36247        -9.22461        -2.34296
| 42>    C       -5.11819       -10.11094        -3.07242
| 43>    C       -5.17270       -10.00086        -4.48178
| 44>    N       -5.20855        -9.90210        -5.62255
| 45>    C       -5.85192       -11.15095        -2.42384
| 46>    C       -6.60648       -12.05980        -3.20095
| 47>    N       -7.21540       -12.81141        -3.81498
| 48>    C       -5.81936       -11.27940        -1.05435
| 49>    C       -5.50093       -11.24098         2.03522
| 50>    C       -5.22959       -11.26125         3.37124
| 51>    C       -5.84430       -12.09272         4.33060
| 52>    S       -4.99287       -12.43751         5.80163
| 53>    C       -6.18627       -13.56296         6.36087
| 54>    C       -7.27646       -13.59629         5.47343
| 55>    C       -7.08405       -12.76090         4.32189
| 56>    C       -8.12725       -12.60751         3.39478
| 57>    C       -9.30774       -13.29367         3.56579
| 58>    C      -10.35689       -13.13332         2.63181
| 59>    N      -11.19116       -12.98810         1.86005
| 60>    C       -9.49574       -14.13181         4.70398
| 61>    C      -10.72667       -14.80481         4.88183
| 62>    N      -11.71245       -15.36603         5.04249
| 63>    C       -8.50372       -14.25867         5.64824
| 64>    C       -5.91963       -14.27679         7.55605
| 65>    C       -6.47638       -15.45478         7.93065
| 66>    C       -6.18363       -16.13043         9.14827
| 67>    S       -6.93111       -17.68056         9.45629
| 68>    C       -6.15991       -17.83961        10.99688
| 69>    C       -5.36241       -16.72257        11.23629
| 70>    C       -5.38035       -15.76920        10.20010
| 71>    N       -4.57229       -16.49296        12.39873
| 72>    O       -4.55521       -17.33138        13.27797
| 73>    O       -3.95041       -15.44969        12.43779
| 74>    C       -6.38177       -18.98923        11.82515
| 75>    C       -7.17481       -20.00576        11.48559
| 76>    H        2.54674         0.42464        -2.19427
| 77>    H        3.76093         1.29126         0.16597
| 78>    H        1.46110        -2.59279         2.30880
| 79>    H        0.20187        -3.76665         0.80886
| 80>    H       -0.43216        -3.77723        -2.18345
| 81>    H       -1.85883        -5.65575        -2.89131
| 82>    H       -2.08086        -7.06232         1.70794
| 83>    H       -3.80484        -8.43714        -2.82320
| 84>    H       -6.37881       -12.07256        -0.58198
| 85>    H       -6.19643       -11.95571         1.62183
| 86>    H       -4.42787       -10.63127         3.73783
| 87>    H       -8.03435       -11.91941         2.57011
| 88>    H       -8.69762       -14.83353         6.53878
| 89>    H       -5.15192       -13.84493         8.18422
| 90>    H       -7.16421       -15.96752         7.27547
| 91>    H       -4.81332       -14.85861        10.25709
| 92>    H       -5.85630       -18.98894        12.76946
| 93>    H       -7.70743       -20.02460        10.54772
| 94>    H       -7.31302       -20.84773        12.13944
| 95> *
| 96>
| 97>                          ****END OF INPUT****

CARTESIAN COORDINATES (ANGSTROEM)
---------------------------------
  C      2.182270   -0.309670   -1.503770
  S      1.150190   -1.549240   -2.043040
  C      1.023070   -2.254950   -0.460950
  C      1.783360   -1.518660    0.457530
  C      2.448790   -0.399460   -0.152500
  C      3.262780    0.451260    0.625930
  C      3.411990    0.196100    1.964230
  C      4.225910    1.034280    2.762230
  N      4.889380    1.722280    3.393690
  C      2.749690   -0.919930    2.573610
  C      2.927040   -1.155260    3.956150
  N      3.058160   -1.364830    5.075130
  C      1.951460   -1.757760    1.832340
  C      0.243760   -3.408450   -0.210290
  C     -0.448690   -4.094080   -1.148950
  C     -1.229440   -5.255860   -0.848270
  C     -1.917030   -5.959910   -1.854270
  N     -2.662370   -7.007340   -1.603840
  C     -2.759360   -7.423530   -0.327480
  C     -2.044110   -6.736620    0.675510
  N     -1.307770   -5.685600    0.425170
  C     -3.590840   -8.549120   -0.043420
  S     -3.826940   -9.091570    1.582570
  C     -4.892950  -10.375060    1.108050
  C     -5.053180  -10.384520   -0.291160
  C     -4.313700   -9.347570   -0.942780
  C     -4.362470   -9.224610   -2.342960
  C     -5.118190  -10.110940   -3.072420
  C     -5.172700  -10.000860   -4.481780
  N     -5.208550   -9.902100   -5.622550
  C     -5.851920  -11.150950   -2.423840
  C     -6.606480  -12.059800   -3.200950
  N     -7.215400  -12.811410   -3.814980
  C     -5.819360  -11.279400   -1.054350
  C     -5.500930  -11.240980    2.035220
  C     -5.229590  -11.261250    3.371240
  C     -5.844300  -12.092720    4.330600
  S     -4.992870  -12.437510    5.801630
  C     -6.186270  -13.562960    6.360870
  C     -7.276460  -13.596290    5.473430
  C     -7.084050  -12.760900    4.321890
  C     -8.127250  -12.607510    3.394780
  C     -9.307740  -13.293670    3.565790
  C    -10.356890  -13.133320    2.631810
  N    -11.191160  -12.988100    1.860050
  C     -9.495740  -14.131810    4.703980
  C    -10.726670  -14.804810    4.881830
  N    -11.712450  -15.366030    5.042490
  C     -8.503720  -14.258670    5.648240
  C     -5.919630  -14.276790    7.556050
  C     -6.476380  -15.454780    7.930650
  C     -6.183630  -16.130430    9.148270
  S     -6.931110  -17.680560    9.456290
  C     -6.159910  -17.839610   10.996880
  C     -5.362410  -16.722570   11.236290
  C     -5.380350  -15.769200   10.200100
  N     -4.572290  -16.492960   12.398730
  O     -4.555210  -17.331380   13.277970
  O     -3.950410  -15.449690   12.437790
  C     -6.381770  -18.989230   11.825150
  C     -7.174810  -20.005760   11.485590
  H      2.546740    0.424640   -2.194270
  H      3.760930    1.291260    0.165970
  H      1.461100   -2.592790    2.308800
  H      0.201870   -3.766650    0.808860
  H     -0.432160   -3.777230   -2.183450
  H     -1.858830   -5.655750   -2.891310
  H     -2.080860   -7.062320    1.707940
  H     -3.804840   -8.437140   -2.823200
  H     -6.378810  -12.072560   -0.581980
  H     -6.196430  -11.955710    1.621830
  H     -4.427870  -10.631270    3.737830
  H     -8.034350  -11.919410    2.570110
  H     -8.697620  -14.833530    6.538780
  H     -5.151920  -13.844930    8.184220
  H     -7.164210  -15.967520    7.275470
  H     -4.813320  -14.858610   10.257090
  H     -5.856300  -18.988940   12.769460
  H     -7.707430  -20.024600   10.547720
  H     -7.313020  -20.847730   12.139440

 Total Charge           Charge          ....    0
 Multiplicity           Mult            ....    1
 Number of Electrons    NEL             ....  438
 Basis Dimension        Dim             ....  965

ORBITAL ENERGIES
----------------

  NO   OCC          E(Eh)            E(eV)
   0   2.0000     -89.004558     -2421.9371
   1   2.0000     -89.004227     -2421.9282
   2   2.0000     -89.001969     -2421.8667
   3   2.0000     -88.989235     -2421.5202
   4   2.0000     -19.249328      -523.8008
   5   2.0000     -19.248750      -523.7851
   6   2.0000     -14.658642      -398.8819
   7   2.0000     -14.447690      -393.1416
   8   2.0000     -14.446064      -393.0974
   9   2.0000     -14.420591      -392.4042
  10   2.0000     -14.420391      -392.3988
  11   2.0000     -14.415891      -392.2763
  12   2.0000     -14.415248      -392.2588
  13   2.0000     -14.414742      -392.2451
  14   2.0000     -14.413008      -392.1979
  15   2.0000     -10.353229      -281.7257
  16   2.0000     -10.346718      -281.5485
  17   2.0000     -10.346448      -281.5412
  18   2.0000     -10.346167      -281.5335
  19   2.0000     -10.345666      -281.5199
  20   2.0000     -10.345553      -281.5168
  21   2.0000     -10.345475      -281.5147
  22   2.0000     -10.343000      -281.4473
  23   2.0000     -10.342739      -281.4402
  24   2.0000     -10.342617      -281.4369
  25   2.0000     -10.340764      -281.3865
  26   2.0000     -10.340615      -281.3824
  27   2.0000     -10.340273      -281.3731
  28   2.0000     -10.339929      -281.3638
  29   2.0000     -10.338657      -281.3292
  30   2.0000     -10.336940      -281.2824
  31   2.0000     -10.336660      -281.2748
  32   2.0000     -10.334397      -281.2132
  33   2.0000     -10.332902      -281.1726
  34   2.0000     -10.329178      -281.0712
  35   2.0000     -10.329044      -281.0676
  36   2.0000     -10.327327      -281.0208
  37   2.0000     -10.326577      -281.0005
  38   2.0000     -10.325111      -280.9606
  39   2.0000     -10.324343      -280.9397
  40   2.0000     -10.324317      -280.9389
  41   2.0000     -10.324166      -280.9348
  42   2.0000     -10.322706      -280.8951
  43   2.0000     -10.322315      -280.8845
  44   2.0000     -10.320893      -280.8458
  45   2.0000     -10.320569      -280.8370
  46   2.0000     -10.319797      -280.8159
  47   2.0000     -10.319542      -280.8090
  48   2.0000     -10.318654      -280.7848
  49   2.0000     -10.318641      -280.7845
  50   2.0000     -10.318235      -280.7734
  51   2.0000     -10.314179      -280.6631
  52   2.0000     -10.313745      -280.6513
  53   2.0000     -10.313591      -280.6471
  54   2.0000     -10.312607      -280.6203
  55   2.0000     -10.312550      -280.6188
  56   2.0000     -10.311230      -280.5828
  57   2.0000     -10.307445      -280.4798
  58   2.0000     -10.303876      -280.3827
  59   2.0000     -10.297511      -280.2095
  60   2.0000     -10.293162      -280.0912
  61   2.0000      -8.099694      -220.4039
  62   2.0000      -8.099343      -220.3943
  63   2.0000      -8.097261      -220.3377
  64   2.0000      -8.085041      -220.0052
  65   2.0000      -6.068531      -165.1331
  66   2.0000      -6.068259      -165.1257
  67   2.0000      -6.066018      -165.0647
  68   2.0000      -6.064459      -165.0223
  69   2.0000      -6.064219      -165.0158
  70   2.0000      -6.062647      -164.9730
  71   2.0000      -6.062244      -164.9620
  72   2.0000      -6.061786      -164.9496
  73   2.0000      -6.060585      -164.9169
  74   2.0000      -6.054222      -164.7438
  75   2.0000      -6.050133      -164.6325
  76   2.0000      -6.047220      -164.5532
  77   2.0000      -1.330708       -36.2104
  78   2.0000      -1.148252       -31.2455
  79   2.0000      -1.103930       -30.0395
  80   2.0000      -1.041264       -28.3342
  81   2.0000      -1.038502       -28.2591
  82   2.0000      -1.034221       -28.1426
  83   2.0000      -1.024700       -27.8835
  84   2.0000      -1.023595       -27.8534
  85   2.0000      -1.014757       -27.6129
  86   2.0000      -1.009280       -27.4639
  87   2.0000      -1.008484       -27.4422
  88   2.0000      -1.000878       -27.2353
  89   2.0000      -0.995973       -27.1018
  90   2.0000      -0.994093       -27.0506
  91   2.0000      -0.976910       -26.5831
  92   2.0000      -0.971114       -26.4254
  93   2.0000      -0.970526       -26.4094
  94   2.0000      -0.953951       -25.9583
  95   2.0000      -0.940394       -25.5894
  96   2.0000      -0.932122       -25.3643
  97   2.0000      -0.919481       -25.0204
  98   2.0000      -0.911983       -24.8163
  99   2.0000      -0.906788       -24.6750
 100   2.0000      -0.897506       -24.4224
 101   2.0000      -0.893270       -24.3071
 102   2.0000      -0.889244       -24.1976
 103   2.0000      -0.887748       -24.1568
 104   2.0000      -0.883114       -24.0308
 105   2.0000      -0.878887       -23.9157
 106   2.0000      -0.859843       -23.3975
 107   2.0000      -0.843226       -22.9453
 108   2.0000      -0.827783       -22.5251
 109   2.0000      -0.814274       -22.1575
 110   2.0000      -0.793778       -21.5998
 111   2.0000      -0.788342       -21.4519
 112   2.0000      -0.781557       -21.2672
 113   2.0000      -0.774479       -21.0746
 114   2.0000      -0.769753       -20.9460
 115   2.0000      -0.768168       -20.9029
 116   2.0000      -0.763944       -20.7880
 117   2.0000      -0.759071       -20.6554
 118   2.0000      -0.740980       -20.1631
 119   2.0000      -0.731556       -19.9067
 120   2.0000      -0.717130       -19.5141
 121   2.0000      -0.710995       -19.3472
 122   2.0000      -0.705072       -19.1860
 123   2.0000      -0.690008       -18.7761
 124   2.0000      -0.685638       -18.6572
 125   2.0000      -0.680478       -18.5168
 126   2.0000      -0.664152       -18.0725
 127   2.0000      -0.660666       -17.9776
 128   2.0000      -0.656903       -17.8752
 129   2.0000      -0.653991       -17.7960
 130   2.0000      -0.644848       -17.5472
 131   2.0000      -0.640813       -17.4374
 132   2.0000      -0.639771       -17.4091
 133   2.0000      -0.631781       -17.1916
 134   2.0000      -0.627470       -17.0743
 135   2.0000      -0.624536       -16.9945
 136   2.0000      -0.621016       -16.8987
 137   2.0000      -0.619995       -16.8709
 138   2.0000      -0.617088       -16.7918
 139   2.0000      -0.610341       -16.6082
 140   2.0000      -0.601511       -16.3679
 141   2.0000      -0.592324       -16.1179
 142   2.0000      -0.587387       -15.9836
 143   2.0000      -0.576814       -15.6959
 144   2.0000      -0.571008       -15.5379
 145   2.0000      -0.568455       -15.4685
 146   2.0000      -0.567316       -15.4375
 147   2.0000      -0.563058       -15.3216
 148   2.0000      -0.560038       -15.2394
 149   2.0000      -0.556808       -15.1515
 150   2.0000      -0.555528       -15.1167
 151   2.0000      -0.554321       -15.0839
 152   2.0000      -0.547301       -14.8928
 153   2.0000      -0.545798       -14.8519
 154   2.0000      -0.541281       -14.7290
 155   2.0000      -0.539580       -14.6827
 156   2.0000      -0.534691       -14.5497
 157   2.0000      -0.532602       -14.4928
 158   2.0000      -0.532047       -14.4777
 159   2.0000      -0.524505       -14.2725
 160   2.0000      -0.519175       -14.1275
 161   2.0000      -0.513538       -13.9741
 162   2.0000      -0.509066       -13.8524
 163   2.0000      -0.504635       -13.7318
 164   2.0000      -0.504132       -13.7181
 165   2.0000      -0.499645       -13.5960
 166   2.0000      -0.498461       -13.5638
 167   2.0000      -0.495645       -13.4872
 168   2.0000      -0.491307       -13.3691
 169   2.0000      -0.488658       -13.2971
 170   2.0000      -0.486281       -13.2324
 171   2.0000      -0.475514       -12.9394
 172   2.0000      -0.471293       -12.8245
 173   2.0000      -0.470198       -12.7947
 174   2.0000      -0.467103       -12.7105
 175   2.0000      -0.463146       -12.6028
 176   2.0000      -0.461371       -12.5546
 177   2.0000      -0.456641       -12.4258
 178   2.0000      -0.453098       -12.3294
 179   2.0000      -0.452017       -12.3000
 180   2.0000      -0.451736       -12.2924
 181   2.0000      -0.447702       -12.1826
 182   2.0000      -0.447187       -12.1686
 183   2.0000      -0.447015       -12.1639
 184   2.0000      -0.446081       -12.1385
 185   2.0000      -0.444994       -12.1089
 186   2.0000      -0.442249       -12.0342
 187   2.0000      -0.441691       -12.0190
 188   2.0000      -0.440967       -11.9993
 189   2.0000      -0.439818       -11.9681
 190   2.0000      -0.432479       -11.7684
 191   2.0000      -0.427137       -11.6230
 192   2.0000      -0.423888       -11.5346
 193   2.0000      -0.423057       -11.5120
 194   2.0000      -0.422379       -11.4935
 195   2.0000      -0.422151       -11.4873
 196   2.0000      -0.417518       -11.3612
 197   2.0000      -0.417228       -11.3533
 198   2.0000      -0.416898       -11.3444
 199   2.0000      -0.415277       -11.3003
 200   2.0000      -0.410960       -11.1828
 201   2.0000      -0.407738       -11.0951
 202   2.0000      -0.406492       -11.0612
 203   2.0000      -0.391288       -10.6475
 204   2.0000      -0.389042       -10.5864
 205   2.0000      -0.385085       -10.4787
 206   2.0000      -0.374573       -10.1926
 207   2.0000      -0.372185       -10.1277
 208   2.0000      -0.367128        -9.9901
 209   2.0000      -0.357273        -9.7219
 210   2.0000      -0.349071        -9.4987
 211   2.0000      -0.348276        -9.4771
 212   2.0000      -0.346563        -9.4305
 213   2.0000      -0.343983        -9.3602
 214   2.0000      -0.342426        -9.3179
 215   2.0000      -0.321767        -8.7557
 216   2.0000      -0.297716        -8.1013
 217   2.0000      -0.276544        -7.5251
 218   2.0000      -0.247974        -6.7477
 219   0.0000      -0.121537        -3.3072
 220   0.0000      -0.094441        -2.5699
 221   0.0000      -0.079119        -2.1529
 222   0.0000      -0.068375        -1.8606
 223   0.0000      -0.052194        -1.4203

MULLIKEN ATOMIC CHARGES
-----------------------
   0 C :   -0.109124
   1 S :    0.181962
   2 C :   -0.111609
   3 C :    0.141833
   4 C :    0.099342
   5 C :   -0.014255
   6 C :   -0.070973
   7 C :   -0.176217
   8 N :    0.173549
   9 C :   -0.066946
  10 C :   -0.175479
  11 N :    0.171927
  12 C :   -0.043511
  13 C :    0.028731
  14 C :   -0.021276
  15 C :    0.003601
  16 C :    0.026590
  17 N :   -0.050600
  18 C :   -0.006417
  19 C :   -0.017531
  20 N :   -0.033118
  21 C :   -0.077363
  22 S :    0.159180
  23 C :   -0.084692
  24 C :    0.132631
  25 C :    0.090222
  26 C :   -0.043248
  27 C :   -0.053743
  28 C :   -0.174149
  29 N :    0.175847
  30 C :   -0.060034
  31 C :   -0.180511
  32 N :    0.180509
  33 C :   -0.059692
  34 C :   -0.022808
  35 C :    0.042071
  36 C :   -0.135819
  37 S :    0.198930
  38 C :   -0.129974
  39 C :    0.123062
  40 C :    0.128072
  41 C :   -0.065220
  42 C :   -0.065221
  43 C :   -0.179791
  44 N :    0.183659
  45 C :   -0.067217
  46 C :   -0.177435
  47 N :    0.180272
  48 C :   -0.059639
  49 C :    0.046391
  50 C :    0.050210
  51 C :   -0.072821
  52 S :    0.151458
  53 C :   -0.144112
  54 C :    0.168350
  55 C :   -0.016684
  56 N :    0.260181
  57 O :   -0.238530
  58 O :   -0.240474
  59 C :   -0.011918
  60 C :   -0.000589
  61 H :    0.035263
  62 H :   -0.002289
  63 H :   -0.000792
  64 H :    0.012249
  65 H :   -0.007576
  66 H :    0.005454
  67 H :    0.011554
  68 H :    0.008733
  69 H :   -0.003740
  70 H :    0.003530
  71 H :   -0.002012
  72 H :   -0.003366
  73 H :   -0.005120
  74 H :   -0.002934
  75 H :   -0.003145
  76 H :    0.006155
  77 H :    0.034944
  78 H :    0.030584
  79 H :    0.042671
Sum of atomic charges:    0.0000000

LOEWDIN ATOMIC CHARGES
----------------------
   0 C :   -0.174288
   1 S :    0.516438
   2 C :   -0.175245
   3 C :   -0.040336
   4 C :   -0.052451
   5 C :    0.037772
   6 C :   -0.055189
   7 C :   -0.032896
   8 N :   -0.033124
   9 C :   -0.052413
  10 C :   -0.032913
  11 N :   -0.034096
  12 C :    0.033589
  13 C :   -0.004347
  14 C :   -0.044894
  15 C :   -0.012688
  16 C :    0.014848
  17 N :   -0.039582
  18 C :   -0.031202
  19 C :    0.006359
  20 N :   -0.041862
  21 C :   -0.176090
  22 S :    0.498015
  23 C :   -0.160782
  24 C :   -0.039807
  25 C :   -0.030894
  26 C :    0.040656
  27 C :   -0.052374
  28 C :   -0.030728
  29 N :   -0.034090
  30 C :   -0.047741
  31 C :   -0.033812
  32 N :   -0.029337
  33 C :    0.026591
  34 C :   -0.041220
  35 C :   -0.042481
  36 C :   -0.171773
  37 S :    0.508167
  38 C :   -0.162430
  39 C :   -0.042695
  40 C :   -0.039411
  41 C :    0.027735
  42 C :   -0.049633
  43 C :   -0.034745
  44 N :   -0.027266
  45 C :   -0.051066
  46 C :   -0.033640
  47 N :   -0.030003
  48 C :    0.031380
  49 C :   -0.038353
  50 C :   -0.032861
  51 C :   -0.166937
  52 S :    0.472694
  53 C :   -0.134785
  54 C :   -0.070651
  55 C :   -0.036077
  56 N :    0.287744
  57 O :   -0.201280
  58 O :   -0.205326
  59 C :   -0.047005
  60 C :   -0.011957
  61 H :    0.031975
  62 H :    0.046168
  63 H :    0.044399
  64 H :    0.039764
  65 H :    0.024302
  66 H :    0.028231
  67 H :    0.019584
  68 H :    0.041299
  69 H :    0.041808
  70 H :    0.035885
  71 H :    0.026370
  72 H :    0.042031
  73 H :    0.042198
  74 H :    0.034064
  75 H :    0.030005
  76 H :    0.038992
  77 H :    0.041650
  78 H :    0.019272
  79 H :    0.034791

  Mayer bond orders larger than 0.100000
B(  0-C ,  1-S ) :   1.2204 B(  0-C ,  4-C ) :   1.4085 B(  0-C , 61-H ) :   0.9696
B(  1-S ,  2-C ) :   1.1636 B(  2-C ,  3-C ) :   1.3215 B(  2-C , 13-C ) :   1.1586
B(  3-C ,  4-C ) :   1.1924 B(  3-C , 12-C ) :   1.1967 B(  4-C ,  5-C ) :   1.1544
B(  5-C ,  6-C ) :   1.5799 B(  5-C , 62-H ) :   1.0073 B(  6-C ,  7-C ) :   1.0786
B(  6-C ,  9-C ) :   1.2218 B(  7-C ,  8-N ) :   3.0482 B(  9-C , 10-C ) :   1.0812
B(  9-C , 12-C ) :   1.5752 B( 10-C , 11-N ) :   3.0425 B( 12-C , 63-H ) :   0.9968
B( 13-C , 14-C ) :   1.6717 B( 13-C , 64-H ) :   0.9619 B( 14-C , 15-C ) :   1.1033
B( 14-C , 65-H ) :   0.9741 B( 15-C , 16-C ) :   1.2756 B( 15-C , 20-N ) :   1.4773
B( 16-C , 17-N ) :   1.5814 B( 16-C , 66-H ) :   0.9807 B( 17-N , 18-C ) :   1.5008
B( 18-C , 19-C ) :   1.2676 B( 18-C , 21-C ) :   1.1070 B( 19-C , 20-N ) :   1.6365
B( 19-C , 67-H ) :   0.9738 B( 21-C , 22-S ) :   1.1615 B( 21-C , 23-C ) :   0.1032
B( 21-C , 25-C ) :   1.3406 B( 22-S , 23-C ) :   1.1445 B( 23-C , 24-C ) :   1.2852
B( 23-C , 34-C ) :   1.2248 B( 24-C , 25-C ) :   1.1957 B( 24-C , 33-C ) :   1.2025
B( 25-C , 26-C ) :   1.2214 B( 26-C , 27-C ) :   1.5171 B( 26-C , 68-H ) :   0.9847
B( 27-C , 28-C ) :   1.0816 B( 27-C , 30-C ) :   1.2428 B( 28-C , 29-N ) :   3.0464
B( 30-C , 31-C ) :   1.0790 B( 30-C , 33-C ) :   1.5694 B( 31-C , 32-N ) :   3.0444
B( 33-C , 69-H ) :   0.9944 B( 34-C , 35-C ) :   1.6037 B( 34-C , 70-H ) :   0.9603
B( 35-C , 36-C ) :   1.1765 B( 35-C , 71-H ) :   0.9494 B( 36-C , 37-S ) :   1.1575
B( 36-C , 38-C ) :   0.1005 B( 36-C , 40-C ) :   1.3013 B( 37-S , 38-C ) :   1.1716
B( 38-C , 39-C ) :   1.3075 B( 38-C , 49-C ) :   1.1523 B( 39-C , 40-C ) :   1.2094
B( 39-C , 48-C ) :   1.1990 B( 40-C , 41-C ) :   1.2037 B( 41-C , 42-C ) :   1.5528
B( 41-C , 72-H ) :   0.9938 B( 42-C , 43-C ) :   1.0769 B( 42-C , 45-C ) :   1.2507
B( 43-C , 44-N ) :   3.0455 B( 45-C , 46-C ) :   1.0771 B( 45-C , 48-C ) :   1.5550
B( 46-C , 47-N ) :   3.0449 B( 48-C , 73-H ) :   0.9947 B( 49-C , 50-C ) :   1.6860
B( 49-C , 74-H ) :   0.9476 B( 50-C , 51-C ) :   1.1250 B( 50-C , 75-H ) :   0.9586
B( 51-C , 52-S ) :   1.1073 B( 51-C , 55-C ) :   1.4782 B( 52-S , 53-C ) :   1.1563
B( 53-C , 54-C ) :   1.4666 B( 53-C , 59-C ) :   1.1330 B( 54-C , 55-C ) :   1.2578
B( 54-C , 56-N ) :   0.9238 B( 55-C , 76-H ) :   0.9922 B( 56-N , 57-O ) :   1.5227
B( 56-N , 58-O ) :   1.5497 B( 57-O , 58-O ) :   0.2652 B( 59-C , 60-C ) :   1.8831
B( 59-C , 77-H ) :   0.9583 B( 60-C , 78-H ) :   0.9538 B( 60-C , 79-H ) :   0.9511

-----------------------------------------------------------------------------
         ABSORPTION SPECTRUM VIA TRANSITION ELECTRIC DIPOLE MOMENTS
-----------------------------------------------------------------------------
State   Energy  Wavelength   fosc         T2         TX        TY        TZ
        (cm-1)    (nm)                  (au**2)     (au)      (au)      (au)
-----------------------------------------------------------------------------
   0   13634.8    733.4   1.682649539  40.62761  -2.59482  -4.55140   3.63033
   1   19968.2    500.8   0.451394903   7.44208   1.77541   1.00536   1.81087
   2   21041.6    475.2   0.316761602   4.95597  -1.33786  -1.12131  -1.38158
   3   23382.7    427.7   0.120710218   1.69951   0.28162   1.26669   0.12530
   4   24984.1    400.3   0.065472170   0.86272   0.14097   0.89409   0.20843
   5   25520.1    391.8   0.203248795   2.62193  -0.23927   1.32258  -0.90302
   6   27683.0    361.2   0.058462421   0.69525  -0.82336   0.06896  -0.11209
   7   28221.0    354.3   0.147050980   1.71542  -0.59306  -0.20019  -1.15049
   8   28460.0    351.4   0.039440914   0.45623  -0.16608  -0.30789  -0.57780
   9   28760.1    347.7   0.001968373   0.02253  -0.06318   0.03059   0.13268
  10   29402.7    340.1   0.098272385   1.10032  -0.54909   0.60499  -0.65788
  11   30032.3    333.0   0.232245771   2.54586   0.63124   1.10466  -0.96287
  12   31050.4    322.1   0.011741386   0.12449  -0.07325  -0.21851  -0.26716
  13   32109.7    311.4   0.100635864   1.03179  -0.52022  -0.04852  -0.87109
  14   32659.1    306.2   0.043845154   0.44197  -0.48730  -0.31664  -0.32288
  15   33836.2    295.5   0.093251417   0.90730   0.63401   0.36591  -0.60945
  16   33958.8    294.5   0.143315439   1.38936  -0.88770  -0.54977  -0.54691
  17   34544.2    289.5   0.088877614   0.84702   0.60084  -0.52110   0.46311
  18   34563.2    289.3   0.272451814   2.59508   0.44592   0.40425   1.49426
  19   35357.5    282.8   0.240534395   2.23960  -0.84652  -0.89676  -0.84784
  20   35625.3    280.7   0.029635724   0.27386  -0.25046  -0.34403   0.30458
  21   36467.6    274.2   0.121414642   1.09607  -0.46383  -0.69076   0.63543
  22   36819.8    271.6   0.019035690   0.17020   0.41255   0.00046  -0.00219
  23   37394.6    267.4   0.029801168   0.26236  -0.07129  -0.15892  -0.48169
  24   37507.6    266.6   0.010239911   0.08988  -0.15519  -0.21618  -0.13806
  25   37575.0    266.1   0.080592261   0.70611   0.56798   0.40018   0.47261
  26   37728.9    265.0   0.028353782   0.24741   0.11108   0.23196   0.42575
  27   38435.9    260.2   0.105318203   0.90207  -0.10051   0.37222  -0.86800
  28   38791.0    257.8   0.207138928   1.75795  -0.50241  -0.40927  -1.15673
  29   39526.7    253.0   0.000974563   0.00812   0.00235   0.02258  -0.08719
  30   39740.5    251.6   0.105204183   0.87151  -0.50449  -0.77564  -0.12402
  31   39850.6    250.9   0.010915243   0.09017  -0.11272   0.21902  -0.17175
  32   40074.5    249.5   0.013767786   0.11310   0.26331   0.15551  -0.13995

FINAL SINGLE POINT ENERGY     -3996.540375601509

DIPOLE MOMENT
-------------
                                X             Y             Z
Electronic contribution:      0.97030      10.32519     -10.30847
Nuclear contribution   :      0.80521      -9.85833      10.31518
                        -----------------------------------------
Total Dipole Moment    :      1.77551       0.46686       0.00671
                        -----------------------------------------
Magnitude (a.u.)       :      1.83587
Magnitude (Debye)      :      4.66642

Rotational constants in cm-1:     0.001213     0.000333     0.000269
Rotational constants in MHz :    36.357947     9.986275     8.058552

                             ****ORCA TERMINATED NORMALLY****
TOTAL RUN TIME: 0 days 0 hours 7 minutes 1 seconds 402 msec
