                         Program Version 4.2.0 -  RELEASE  -
|  1> # ORCA input file
|  2> # SCF done       -213.889059615037          0.000686898417
|  3> ! CAM-B3LYP def2-SVP def2/J RIJCOSX Grid4 TightSCF
|  4> %maxcore 5000
|  5> %tddft
|  6>     Mode sTDDFT
|  7>     Ethresh 5.0
|  8>     maxcore 5000
|  9> end
| 10>
| 11> %pal
| 12>   nprocs 6
| 13>   end
| 14> * xyz 0 1
| 15>    C        4.10941        -2.03013         1.14040
| 16>    O        3.68510        -3.07292         1.58221
| 17>    C        5.24059        -1.24648         1.68220
| 18>    C        5.54828        -0.18511         0.81296
| 19>    C        6.60080         0.66465         1.11395
| 20>    C        7.32253         0.44386         2.28118
| 21>    C        7.00629        -0.61124         3.14063
| 22>    C        5.95885        -1.47126         2.83831
| 23>   Br        7.99792        -0.88604         4.72503
| 24>   Br        8.75660         1.60490         2.69077
| 25>    C        4.61188        -0.20256        -0.30712
| 26>    C        4.53256         0.73749        -1.29748
| 27>    C        5.40946         1.83816        -1.41393
| 28>    N        6.09543         2.74651        -1.55693
| 29>    C        3.55233         0.75934        -2.31448
| 30>    N        2.77820         0.85948        -3.15548
| 31>    C        3.72568        -1.33853        -0.11970
| 32>    C        2.81521        -1.81476        -1.00883
| 33>    C        1.83381        -2.81573        -0.71180
| 34>    C        1.45090        -3.76209        -1.65671
| 35>    F        2.04993        -3.74825        -2.85510
| 36>    C        0.52060        -4.77888        -1.40973
| 37>    F        0.30678        -5.64805        -2.40637
| 38>    C       -0.14916        -4.91055        -0.19414
| 39>    C        0.17171        -3.91044         0.77031
| 40>    C        1.13738        -2.87815         0.52257
| 41>    N        1.22651        -2.02346         1.53712
| 42>    S        0.23462        -2.49997         2.70476
| 43>    N       -0.38254        -3.79087         1.97465
| 44>    C       -1.09824        -5.91122         0.18196
| 45>    C       -1.58681        -6.91004        -0.59720
| 46>    C       -2.52236        -7.91907        -0.24845
| 47>    N       -3.08677        -8.23600         0.96693
| 48>    C       -2.91046        -7.60448         2.25325
| 49>    C       -3.79661        -6.37058         2.41028
| 50>    C       -3.96585        -9.33996         0.86537
| 51>    O       -4.55886        -9.81161         1.81072
| 52>    C       -3.92278        -9.70334        -0.53263
| 53>    C       -3.02670        -8.82942        -1.18028
| 54>    C       -2.97434        -9.20947        -2.57645
| 55>    O       -2.36894        -8.75910        -3.52161
| 56>    N       -3.84311       -10.32847        -2.66818
| 57>    C       -4.12515       -10.90741        -3.96056
| 58>    C       -5.54102       -10.58600        -4.43063
| 59>    C       -4.41858       -10.61846        -1.45932
| 60>    C       -5.35615       -11.63278        -1.11043
| 61>    C       -5.69759       -12.74310        -1.79542
| 62>    C       -6.67106       -13.68069        -1.29301
| 63>    C       -6.52840       -15.07713        -1.41533
| 64>    C       -5.40638       -15.69167        -2.14359
| 65>    O       -4.46363       -15.14839        -2.64580
| 66>    S       -5.64526       -17.46160        -2.20053
| 67>    C       -7.18646       -17.38285        -1.27603
| 68>    O       -7.87516       -18.35238        -1.13400
| 69>    C       -7.43159       -15.99196        -0.86018
| 70>    C       -8.54706       -15.57140        -0.09686
| 71>    C       -8.75575       -14.18116        -0.11089
| 72>    C       -7.86354       -13.27570        -0.67462
| 73>    C       -8.48854       -11.93470        -0.58424
| 74>    O       -8.13790       -10.88425        -1.02826
| 75>    O       -9.67392       -12.08782         0.09241
| 76>    C       -9.89647       -13.40580         0.41809
| 77>    O      -10.86788       -13.76495         1.01091
| 78>    C       -9.43652       -16.43071         0.62545
| 79>    C       -9.04979       -17.56621         1.24330
| 80>    C       -9.92089       -18.44996         1.93317
| 81>    S      -11.62131       -18.09784         2.10225
| 82>    C      -11.87248       -19.56709         2.93747
| 83>    C      -10.73286       -20.30728         3.07948
| 84>    C       -9.60784       -19.67206         2.50540
| 85>    C       -8.23232       -20.28269         2.56682
| 86>    C       -8.34218       -21.78710         2.87946
| 87>    C       -9.23867       -22.01768         4.08947
| 88>    C      -10.67757       -21.64939         3.74008
| 89>    N       -7.47760       -20.04353         1.36330
| 90>    C       -6.11173       -20.04326         1.34112
| 91>    C       -5.36953       -20.11593         0.23692
| 92>    H        6.87840         1.48471         0.47173
| 93>    H        5.70898        -2.29356         3.49065
| 94>    H        2.82118        -1.45276        -2.02974
| 95>    H       -1.43105        -5.78614         1.19979
| 96>    H       -1.27566        -6.99089        -1.62990
| 97>    H       -1.85552        -7.36877         2.40784
| 98>    H       -3.21141        -8.35361         2.99264
| 99>    H       -3.60108        -5.63812         1.63072
|100>    H       -3.61556        -5.90959         3.37719
|101>    H       -4.84232        -6.66242         2.35351
|102>    H       -3.94685       -11.98524        -3.93441
|103>    H       -3.39887       -10.45787        -4.64499
|104>    H       -6.28369       -10.94266        -3.72093
|105>    H       -5.72127       -11.05345        -5.39462
|106>    H       -5.66015        -9.51079        -4.53912
|107>    H       -5.77910       -11.47270        -0.12657
|108>    H       -5.19815       -13.02235        -2.70927
|109>    H      -10.45459       -16.07981         0.73066
|110>    H       -8.00916       -17.85501         1.23863
|111>    H      -12.85653       -19.81855         3.28179
|112>    H       -7.68365       -19.80136         3.39168
|113>    H       -7.34078       -22.18190         3.05940
|114>    H       -8.75685       -22.30210         2.00988
|115>    H       -9.19081       -23.06229         4.39974
|116>    H       -8.89124       -21.40251         4.92240
|117>    H      -11.30574       -21.65091         4.63290
|118>    H      -11.08679       -22.39603         3.05208
|119>    H       -7.94113       -20.22311         0.48433
|120>    H       -5.65262       -19.92739         2.31521
|121>    H       -5.81680       -20.22689        -0.73500
|122>    H       -4.29949       -20.05254         0.28127
|123> *
|124>
|125>                          ****END OF INPUT****

CARTESIAN COORDINATES (ANGSTROEM)
---------------------------------
  C      4.109410   -2.030130    1.140400
  O      3.685100   -3.072920    1.582210
  C      5.240590   -1.246480    1.682200
  C      5.548280   -0.185110    0.812960
  C      6.600800    0.664650    1.113950
  C      7.322530    0.443860    2.281180
  C      7.006290   -0.611240    3.140630
  C      5.958850   -1.471260    2.838310
  Br     7.997920   -0.886040    4.725030
  Br     8.756600    1.604900    2.690770
  C      4.611880   -0.202560   -0.307120
  C      4.532560    0.737490   -1.297480
  C      5.409460    1.838160   -1.413930
  N      6.095430    2.746510   -1.556930
  C      3.552330    0.759340   -2.314480
  N      2.778200    0.859480   -3.155480
  C      3.725680   -1.338530   -0.119700
  C      2.815210   -1.814760   -1.008830
  C      1.833810   -2.815730   -0.711800
  C      1.450900   -3.762090   -1.656710
  F      2.049930   -3.748250   -2.855100
  C      0.520600   -4.778880   -1.409730
  F      0.306780   -5.648050   -2.406370
  C     -0.149160   -4.910550   -0.194140
  C      0.171710   -3.910440    0.770310
  C      1.137380   -2.878150    0.522570
  N      1.226510   -2.023460    1.537120
  S      0.234620   -2.499970    2.704760
  N     -0.382540   -3.790870    1.974650
  C     -1.098240   -5.911220    0.181960
  C     -1.586810   -6.910040   -0.597200
  C     -2.522360   -7.919070   -0.248450
  N     -3.086770   -8.236000    0.966930
  C     -2.910460   -7.604480    2.253250
  C     -3.796610   -6.370580    2.410280
  C     -3.965850   -9.339960    0.865370
  O     -4.558860   -9.811610    1.810720
  C     -3.922780   -9.703340   -0.532630
  C     -3.026700   -8.829420   -1.180280
  C     -2.974340   -9.209470   -2.576450
  O     -2.368940   -8.759100   -3.521610
  N     -3.843110  -10.328470   -2.668180
  C     -4.125150  -10.907410   -3.960560
  C     -5.541020  -10.586000   -4.430630
  C     -4.418580  -10.618460   -1.459320
  C     -5.356150  -11.632780   -1.110430
  C     -5.697590  -12.743100   -1.795420
  C     -6.671060  -13.680690   -1.293010
  C     -6.528400  -15.077130   -1.415330
  C     -5.406380  -15.691670   -2.143590
  O     -4.463630  -15.148390   -2.645800
  S     -5.645260  -17.461600   -2.200530
  C     -7.186460  -17.382850   -1.276030
  O     -7.875160  -18.352380   -1.134000
  C     -7.431590  -15.991960   -0.860180
  C     -8.547060  -15.571400   -0.096860
  C     -8.755750  -14.181160   -0.110890
  C     -7.863540  -13.275700   -0.674620
  C     -8.488540  -11.934700   -0.584240
  O     -8.137900  -10.884250   -1.028260
  O     -9.673920  -12.087820    0.092410
  C     -9.896470  -13.405800    0.418090
  O    -10.867880  -13.764950    1.010910
  C     -9.436520  -16.430710    0.625450
  C     -9.049790  -17.566210    1.243300
  C     -9.920890  -18.449960    1.933170
  S    -11.621310  -18.097840    2.102250
  C    -11.872480  -19.567090    2.937470
  C    -10.732860  -20.307280    3.079480
  C     -9.607840  -19.672060    2.505400
  C     -8.232320  -20.282690    2.566820
  C     -8.342180  -21.787100    2.879460
  C     -9.238670  -22.017680    4.089470
  C    -10.677570  -21.649390    3.740080
  N     -7.477600  -20.043530    1.363300
  C     -6.111730  -20.043260    1.341120
  C     -5.369530  -20.115930    0.236920
  H      6.878400    1.484710    0.471730
  H      5.708980   -2.293560    3.490650
  H      2.821180   -1.452760   -2.029740
  H     -1.431050   -5.786140    1.199790
  H     -1.275660   -6.990890   -1.629900
  H     -1.855520   -7.368770    2.407840
  H     -3.211410   -8.353610    2.992640
  H     -3.601080   -5.638120    1.630720
  H     -3.615560   -5.909590    3.377190
  H     -4.842320   -6.662420    2.353510
  H     -3.946850  -11.985240   -3.934410
  H     -3.398870  -10.457870   -4.644990
  H     -6.283690  -10.942660   -3.720930
  H     -5.721270  -11.053450   -5.394620
  H     -5.660150   -9.510790   -4.539120
  H     -5.779100  -11.472700   -0.126570
  H     -5.198150  -13.022350   -2.709270
  H    -10.454590  -16.079810    0.730660
  H     -8.009160  -17.855010    1.238630
  H    -12.856530  -19.818550    3.281790
  H     -7.683650  -19.801360    3.391680
  H     -7.340780  -22.181900    3.059400
  H     -8.756850  -22.302100    2.009880
  H     -9.190810  -23.062290    4.399740
  H     -8.891240  -21.402510    4.922400
  H    -11.305740  -21.650910    4.632900
  H    -11.086790  -22.396030    3.052080
  H     -7.941130  -20.223110    0.484330
  H     -5.652620  -19.927390    2.315210
  H     -5.816800  -20.226890   -0.735000
  H     -4.299490  -20.052540    0.281270

 Total Charge           Charge          ....    0
 Multiplicity           Mult            ....    1
 Number of Electrons    NEL             ....  610
 Basis Dimension        Dim             .... 1281

ORBITAL ENERGIES
----------------

  NO   OCC          E(Eh)            E(eV)
   0   2.0000    -482.880856    -13139.8561
   1   2.0000    -482.878794    -13139.8000
   2   2.0000     -89.035882     -2422.7895
   3   2.0000     -88.958215     -2420.6761
   4   2.0000     -88.954833     -2420.5841
   5   2.0000     -62.558449     -1702.3019
   6   2.0000     -62.556403     -1702.2463
   7   2.0000     -56.392402     -1534.5153
   8   2.0000     -56.390370     -1534.4600
   9   2.0000     -56.389748     -1534.4431
  10   2.0000     -56.389649     -1534.4404
  11   2.0000     -56.387695     -1534.3872
  12   2.0000     -56.387594     -1534.3844
  13   2.0000     -24.815564      -675.2658
  14   2.0000     -24.811480      -675.1547
  15   2.0000     -19.294263      -525.0236
  16   2.0000     -19.248238      -523.7712
  17   2.0000     -19.246825      -523.7327
  18   2.0000     -19.242339      -523.6107
  19   2.0000     -19.241276      -523.5817
  20   2.0000     -19.227408      -523.2044
  21   2.0000     -19.194822      -522.3177
  22   2.0000     -19.192127      -522.2443
  23   2.0000     -14.455513      -393.3545
  24   2.0000     -14.455094      -393.3431
  25   2.0000     -14.451956      -393.2577
  26   2.0000     -14.447985      -393.1497
  27   2.0000     -14.425039      -392.5253
  28   2.0000     -14.424883      -392.5210
  29   2.0000     -14.411333      -392.1523
  30   2.0000     -10.436394      -283.9887
  31   2.0000     -10.435352      -283.9604
  32   2.0000     -10.410961      -283.2966
  33   2.0000     -10.410072      -283.2725
  34   2.0000     -10.400533      -283.0129
  35   2.0000     -10.393453      -282.8202
  36   2.0000     -10.378744      -282.4200
  37   2.0000     -10.377608      -282.3891
  38   2.0000     -10.375667      -282.3363
  39   2.0000     -10.358260      -281.8626
  40   2.0000     -10.357788      -281.8497
  41   2.0000     -10.356479      -281.8141
  42   2.0000     -10.352265      -281.6994
  43   2.0000     -10.344205      -281.4801
  44   2.0000     -10.343626      -281.4644
  45   2.0000     -10.341159      -281.3972
  46   2.0000     -10.340891      -281.3899
  47   2.0000     -10.337876      -281.3079
  48   2.0000     -10.336461      -281.2694
  49   2.0000     -10.332784      -281.1693
  50   2.0000     -10.331186      -281.1259
  51   2.0000     -10.331086      -281.1231
  52   2.0000     -10.330324      -281.1024
  53   2.0000     -10.327100      -281.0147
  54   2.0000     -10.326692      -281.0036
  55   2.0000     -10.326594      -281.0009
  56   2.0000     -10.326523      -280.9990
  57   2.0000     -10.322677      -280.8943
  58   2.0000     -10.321392      -280.8594
  59   2.0000     -10.316897      -280.7370
  60   2.0000     -10.315754      -280.7059
  61   2.0000     -10.315630      -280.7026
  62   2.0000     -10.312779      -280.6250
  63   2.0000     -10.308008      -280.4952
  64   2.0000     -10.306834      -280.4632
  65   2.0000     -10.304871      -280.4098
  66   2.0000     -10.303110      -280.3619
  67   2.0000     -10.302753      -280.3522
  68   2.0000     -10.302114      -280.3348
  69   2.0000     -10.301521      -280.3186
  70   2.0000     -10.300676      -280.2957
  71   2.0000     -10.297027      -280.1964
  72   2.0000     -10.296290      -280.1763
  73   2.0000     -10.294195      -280.1193
  74   2.0000     -10.286186      -279.9013
  75   2.0000     -10.281252      -279.7671
  76   2.0000     -10.280423      -279.7445
  77   2.0000     -10.275963      -279.6232
  78   2.0000     -10.270829      -279.4835
  79   2.0000     -10.267765      -279.4001
  80   2.0000     -10.267335      -279.3884
  81   2.0000     -10.265109      -279.3278
  82   2.0000     -10.261431      -279.2277
  83   2.0000     -10.259305      -279.1699
  84   2.0000     -10.229521      -278.3594
  85   2.0000      -8.787758      -239.1271
  86   2.0000      -8.785718      -239.0715
  87   2.0000      -8.127602      -221.1633
  88   2.0000      -8.054056      -219.1620
  89   2.0000      -8.053895      -219.1576
  90   2.0000      -6.623892      -180.2453
  91   2.0000      -6.621912      -180.1914
  92   2.0000      -6.609895      -179.8644
  93   2.0000      -6.609077      -179.8421
  94   2.0000      -6.607814      -179.8078
  95   2.0000      -6.607017      -179.7861
  96   2.0000      -6.098840      -165.9579
  97   2.0000      -6.091082      -165.7468
  98   2.0000      -6.089935      -165.7156
  99   2.0000      -6.023197      -163.8995
 100   2.0000      -6.022752      -163.8874
 101   2.0000      -6.019494      -163.7988
 102   2.0000      -6.019027      -163.7860
 103   2.0000      -6.016450      -163.7159
 104   2.0000      -6.014947      -163.6750
 105   2.0000      -2.739774       -74.5531
 106   2.0000      -2.737778       -74.4987
 107   2.0000      -2.736010       -74.4506
 108   2.0000      -2.735460       -74.4357
 109   2.0000      -2.733991       -74.3957
 110   2.0000      -2.733449       -74.3809
 111   2.0000      -2.724271       -74.1312
 112   2.0000      -2.724263       -74.1310
 113   2.0000      -2.722193       -74.0746
 114   2.0000      -2.722175       -74.0742
 115   2.0000      -1.337930       -36.4069
 116   2.0000      -1.319730       -35.9117
 117   2.0000      -1.243742       -33.8439
 118   2.0000      -1.171921       -31.8896
 119   2.0000      -1.168889       -31.8071
 120   2.0000      -1.167532       -31.7702
 121   2.0000      -1.144702       -31.1489
 122   2.0000      -1.136598       -30.9284
 123   2.0000      -1.136100       -30.9149
 124   2.0000      -1.131061       -30.7777
 125   2.0000      -1.129279       -30.7292
 126   2.0000      -1.065512       -28.9940
 127   2.0000      -1.055824       -28.7304
 128   2.0000      -1.030939       -28.0533
 129   2.0000      -1.025536       -27.9062
 130   2.0000      -1.019993       -27.7554
 131   2.0000      -1.014393       -27.6030
 132   2.0000      -1.003203       -27.2985
 133   2.0000      -0.995764       -27.0961
 134   2.0000      -0.992346       -27.0031
 135   2.0000      -0.987738       -26.8777
 136   2.0000      -0.980789       -26.6886
 137   2.0000      -0.957150       -26.0454
 138   2.0000      -0.942529       -25.6475
 139   2.0000      -0.931314       -25.3423
 140   2.0000      -0.929390       -25.2900
 141   2.0000      -0.924824       -25.1657
 142   2.0000      -0.918248       -24.9868
 143   2.0000      -0.916529       -24.9400
 144   2.0000      -0.906400       -24.6644
 145   2.0000      -0.903543       -24.5866
 146   2.0000      -0.885081       -24.0843
 147   2.0000      -0.878801       -23.9134
 148   2.0000      -0.876545       -23.8520
 149   2.0000      -0.874644       -23.8003
 150   2.0000      -0.869483       -23.6598
 151   2.0000      -0.857544       -23.3350
 152   2.0000      -0.852135       -23.1878
 153   2.0000      -0.847689       -23.0668
 154   2.0000      -0.828040       -22.5321
 155   2.0000      -0.820199       -22.3188
 156   2.0000      -0.819025       -22.2868
 157   2.0000      -0.809442       -22.0260
 158   2.0000      -0.803474       -21.8636
 159   2.0000      -0.798688       -21.7334
 160   2.0000      -0.785250       -21.3678
 161   2.0000      -0.776983       -21.1428
 162   2.0000      -0.770863       -20.9762
 163   2.0000      -0.766954       -20.8699
 164   2.0000      -0.761569       -20.7233
 165   2.0000      -0.759822       -20.6758
 166   2.0000      -0.757285       -20.6068
 167   2.0000      -0.736984       -20.0544
 168   2.0000      -0.724847       -19.7241
 169   2.0000      -0.720619       -19.6090
 170   2.0000      -0.717886       -19.5347
 171   2.0000      -0.713048       -19.4030
 172   2.0000      -0.709050       -19.2942
 173   2.0000      -0.702737       -19.1224
 174   2.0000      -0.699435       -19.0326
 175   2.0000      -0.692456       -18.8427
 176   2.0000      -0.685921       -18.6649
 177   2.0000      -0.684740       -18.6327
 178   2.0000      -0.679284       -18.4843
 179   2.0000      -0.678258       -18.4563
 180   2.0000      -0.674194       -18.3457
 181   2.0000      -0.657808       -17.8999
 182   2.0000      -0.653891       -17.7933
 183   2.0000      -0.651314       -17.7232
 184   2.0000      -0.648620       -17.6498
 185   2.0000      -0.640796       -17.4370
 186   2.0000      -0.637772       -17.3547
 187   2.0000      -0.634723       -17.2717
 188   2.0000      -0.630781       -17.1644
 189   2.0000      -0.629734       -17.1359
 190   2.0000      -0.622533       -16.9400
 191   2.0000      -0.615039       -16.7361
 192   2.0000      -0.610209       -16.6046
 193   2.0000      -0.606306       -16.4984
 194   2.0000      -0.602798       -16.4030
 195   2.0000      -0.596631       -16.2352
 196   2.0000      -0.594285       -16.1713
 197   2.0000      -0.593337       -16.1455
 198   2.0000      -0.590369       -16.0648
 199   2.0000      -0.584087       -15.8938
 200   2.0000      -0.580823       -15.8050
 201   2.0000      -0.575690       -15.6653
 202   2.0000      -0.574753       -15.6398
 203   2.0000      -0.568815       -15.4782
 204   2.0000      -0.564330       -15.3562
 205   2.0000      -0.561447       -15.2778
 206   2.0000      -0.560764       -15.2592
 207   2.0000      -0.557166       -15.1613
 208   2.0000      -0.556069       -15.1314
 209   2.0000      -0.554568       -15.0906
 210   2.0000      -0.553088       -15.0503
 211   2.0000      -0.552477       -15.0336
 212   2.0000      -0.550833       -14.9889
 213   2.0000      -0.549017       -14.9395
 214   2.0000      -0.548309       -14.9202
 215   2.0000      -0.545197       -14.8356
 216   2.0000      -0.544021       -14.8036
 217   2.0000      -0.543067       -14.7776
 218   2.0000      -0.540852       -14.7173
 219   2.0000      -0.536115       -14.5884
 220   2.0000      -0.532153       -14.4806
 221   2.0000      -0.531028       -14.4500
 222   2.0000      -0.529013       -14.3952
 223   2.0000      -0.523330       -14.2405
 224   2.0000      -0.520429       -14.1616
 225   2.0000      -0.518952       -14.1214
 226   2.0000      -0.515850       -14.0370
 227   2.0000      -0.513981       -13.9861
 228   2.0000      -0.511966       -13.9313
 229   2.0000      -0.509537       -13.8652
 230   2.0000      -0.508656       -13.8412
 231   2.0000      -0.506786       -13.7904
 232   2.0000      -0.506591       -13.7850
 233   2.0000      -0.504605       -13.7310
 234   2.0000      -0.501141       -13.6367
 235   2.0000      -0.500812       -13.6278
 236   2.0000      -0.500429       -13.6174
 237   2.0000      -0.496720       -13.5164
 238   2.0000      -0.496398       -13.5077
 239   2.0000      -0.494652       -13.4602
 240   2.0000      -0.493977       -13.4418
 241   2.0000      -0.485243       -13.2041
 242   2.0000      -0.481788       -13.1101
 243   2.0000      -0.478210       -13.0128
 244   2.0000      -0.476802       -12.9745
 245   2.0000      -0.474911       -12.9230
 246   2.0000      -0.474563       -12.9135
 247   2.0000      -0.467854       -12.7309
 248   2.0000      -0.466899       -12.7050
 249   2.0000      -0.466465       -12.6932
 250   2.0000      -0.465833       -12.6760
 251   2.0000      -0.460008       -12.5175
 252   2.0000      -0.458473       -12.4757
 253   2.0000      -0.456958       -12.4345
 254   2.0000      -0.456597       -12.4246
 255   2.0000      -0.453864       -12.3503
 256   2.0000      -0.452095       -12.3021
 257   2.0000      -0.451937       -12.2978
 258   2.0000      -0.450376       -12.2554
 259   2.0000      -0.448177       -12.1955
 260   2.0000      -0.445201       -12.1145
 261   2.0000      -0.438806       -11.9405
 262   2.0000      -0.436379       -11.8745
 263   2.0000      -0.436190       -11.8693
 264   2.0000      -0.435077       -11.8391
 265   2.0000      -0.432987       -11.7822
 266   2.0000      -0.432432       -11.7671
 267   2.0000      -0.427393       -11.6299
 268   2.0000      -0.422576       -11.4989
 269   2.0000      -0.420707       -11.4480
 270   2.0000      -0.420058       -11.4304
 271   2.0000      -0.417680       -11.3657
 272   2.0000      -0.416294       -11.3279
 273   2.0000      -0.414194       -11.2708
 274   2.0000      -0.410016       -11.1571
 275   2.0000      -0.408061       -11.1039
 276   2.0000      -0.404296       -11.0014
 277   2.0000      -0.404213       -10.9992
 278   2.0000      -0.397614       -10.8196
 279   2.0000      -0.395308       -10.7569
 280   2.0000      -0.393160       -10.6984
 281   2.0000      -0.388093       -10.5605
 282   2.0000      -0.380753       -10.3608
 283   2.0000      -0.380080       -10.3425
 284   2.0000      -0.377684       -10.2773
 285   2.0000      -0.373063       -10.1516
 286   2.0000      -0.370981       -10.0949
 287   2.0000      -0.369916       -10.0659
 288   2.0000      -0.356136        -9.6909
 289   2.0000      -0.351083        -9.5535
 290   2.0000      -0.350744        -9.5442
 291   2.0000      -0.350492        -9.5374
 292   2.0000      -0.345636        -9.4052
 293   2.0000      -0.344090        -9.3632
 294   2.0000      -0.338354        -9.2071
 295   2.0000      -0.334682        -9.1072
 296   2.0000      -0.334109        -9.0916
 297   2.0000      -0.330749        -9.0001
 298   2.0000      -0.318625        -8.6702
 299   2.0000      -0.316080        -8.6010
 300   2.0000      -0.316015        -8.5992
 301   2.0000      -0.299494        -8.1496
 302   2.0000      -0.273837        -7.4515
 303   2.0000      -0.257389        -7.0039
 304   2.0000      -0.242119        -6.5884
 305   0.0000      -0.117578        -3.1994
 306   0.0000      -0.099507        -2.7077
 307   0.0000      -0.090200        -2.4545
 308   0.0000      -0.077968        -2.1216
 309   0.0000      -0.061550        -1.6749

MULLIKEN ATOMIC CHARGES
-----------------------
   0 C :    0.157101
   1 O :   -0.137063
   2 C :   -0.016389
   3 C :    0.039429
   4 C :   -0.009052
   5 C :   -0.025581
   6 C :   -0.016155
   7 C :   -0.019836
   8 Br:    0.017331
   9 Br:    0.025326
  10 C :    0.292781
  11 C :   -0.325278
  12 C :   -0.188769
  13 N :    0.164623
  14 C :   -0.200480
  15 N :    0.174520
  16 C :   -0.061658
  17 C :   -0.048782
  18 C :   -0.027554
  19 C :    0.203440
  20 F :   -0.154217
  21 C :    0.164626
  22 F :   -0.156924
  23 C :    0.048705
  24 C :    0.012285
  25 C :    0.059989
  26 N :   -0.274291
  27 S :    0.525644
  28 N :   -0.289148
  29 C :   -0.050906
  30 C :   -0.006655
  31 C :    0.118318
  32 N :   -0.275045
  33 C :    0.098059
  34 C :    0.007711
  35 C :    0.147363
  36 O :   -0.191552
  37 C :   -0.026866
  38 C :   -0.045972
  39 C :    0.154420
  40 O :   -0.177511
  41 N :   -0.268783
  42 C :    0.091176
  43 C :   -0.006190
  44 C :    0.095433
  45 C :    0.025726
  46 C :   -0.027542
  47 C :    0.020630
  48 C :    0.038660
  49 C :    0.038098
  50 O :   -0.136797
  51 S :    0.031470
  52 C :    0.038258
  53 O :   -0.135245
  54 C :    0.017020
  55 C :    0.057458
  56 C :   -0.065703
  57 C :   -0.079637
  58 C :    0.229832
  59 O :   -0.095110
  60 O :   -0.228087
  61 C :    0.235155
  62 O :   -0.103784
  63 C :   -0.075428
  64 C :    0.076527
  65 C :   -0.168516
  66 S :    0.133200
  67 C :   -0.112027
  68 C :   -0.071125
  69 C :    0.001907
  70 C :    0.110616
  71 C :    0.062628
  72 C :    0.017269
  73 C :    0.136294
  74 N :   -0.182993
  75 C :    0.049331
  76 C :   -0.092075
  77 H :    0.008248
  78 H :    0.005638
  79 H :    0.045638
  80 H :    0.005062
  81 H :    0.023104
  82 H :    0.028125
  83 H :    0.041077
  84 H :    0.022326
  85 H :    0.021388
  86 H :    0.029592
  87 H :    0.036442
  88 H :    0.046704
  89 H :    0.031322
  90 H :    0.021147
  91 H :    0.026926
  92 H :    0.013831
  93 H :    0.022484
  94 H :    0.022337
  95 H :    0.013055
  96 H :    0.015100
  97 H :    0.011918
  98 H :    0.001670
  99 H :   -0.003650
 100 H :    0.004323
 101 H :    0.004400
 102 H :    0.008562
 103 H :    0.017569
 104 H :    0.125293
 105 H :   -0.002313
 106 H :   -0.000972
 107 H :    0.010019
Sum of atomic charges:   -0.0000000

LOEWDIN ATOMIC CHARGES
----------------------
   0 C :    0.085449
   1 O :   -0.129742
   2 C :   -0.039027
   3 C :   -0.012182
   4 C :   -0.006249
   5 C :   -0.118451
   6 C :   -0.121544
   7 C :    0.006352
   8 Br:    0.139975
   9 Br:    0.143770
  10 C :    0.072149
  11 C :   -0.122493
  12 C :   -0.019086
  13 N :   -0.038547
  14 C :   -0.023395
  15 N :   -0.036250
  16 C :   -0.070217
  17 C :    0.078942
  18 C :   -0.067740
  19 C :    0.095793
  20 F :   -0.035128
  21 C :    0.067545
  22 F :   -0.030769
  23 C :   -0.033041
  24 C :   -0.043594
  25 C :   -0.036647
  26 N :   -0.276580
  27 S :    0.658342
  28 N :   -0.286061
  29 C :   -0.010369
  30 C :   -0.004459
  31 C :    0.072441
  32 N :   -0.006253
  33 C :    0.034362
  34 C :   -0.061649
  35 C :    0.082026
  36 O :   -0.192104
  37 C :   -0.110981
  38 C :   -0.106677
  39 C :    0.083944
  40 O :   -0.179460
  41 N :   -0.003252
  42 C :    0.034830
  43 C :   -0.062932
  44 C :    0.081410
  45 C :    0.005855
  46 C :   -0.011579
  47 C :    0.016800
  48 C :   -0.046509
  49 C :   -0.046123
  50 O :   -0.118821
  51 S :    0.321787
  52 C :   -0.033729
  53 O :   -0.114955
  54 C :   -0.059994
  55 C :    0.038574
  56 C :   -0.047800
  57 C :   -0.042494
  58 C :    0.106857
  59 O :   -0.095866
  60 O :   -0.054599
  61 C :    0.109397
  62 O :   -0.098182
  63 C :   -0.065515
  64 C :    0.023084
  65 C :   -0.180948
  66 S :    0.456402
  67 C :   -0.176557
  68 C :   -0.065824
  69 C :   -0.048543
  70 C :    0.033232
  71 C :   -0.034025
  72 C :   -0.030853
  73 C :   -0.024394
  74 N :   -0.020900
  75 C :    0.016279
  76 C :   -0.162610
  77 H :    0.044889
  78 H :    0.045971
  79 H :    0.049533
  80 H :    0.036360
  81 H :    0.045072
  82 H :    0.023648
  83 H :    0.037062
  84 H :    0.022375
  85 H :    0.031299
  86 H :    0.033044
  87 H :    0.024249
  88 H :    0.038248
  89 H :    0.024141
  90 H :    0.030478
  91 H :    0.031837
  92 H :    0.044529
  93 H :    0.033748
  94 H :    0.028258
  95 H :    0.035042
  96 H :    0.023675
  97 H :    0.031451
  98 H :    0.025390
  99 H :    0.021410
 100 H :    0.026423
 101 H :    0.022307
 102 H :    0.032001
 103 H :    0.033524
 104 H :    0.072315
 105 H :    0.021890
 106 H :    0.009446
 107 H :    0.020486

  Mayer bond orders larger than 0.100000
B(  0-C ,  1-O ) :   2.2342 B(  0-C ,  2-C ) :   0.9470 B(  0-C , 16-C ) :   0.9348
B(  2-C ,  3-C ) :   1.3280 B(  2-C ,  7-C ) :   1.3687 B(  3-C ,  4-C ) :   1.3606
B(  3-C , 10-C ) :   0.9999 B(  4-C ,  5-C ) :   1.3742 B(  4-C , 77-H ) :   0.9799
B(  5-C ,  6-C ) :   1.4184 B(  5-C ,  9-Br) :   1.0596 B(  6-C ,  7-C ) :   1.3548
B(  6-C ,  8-Br) :   1.0359 B(  7-C , 78-H ) :   1.0087 B( 10-C , 11-C ) :   1.6677
B( 10-C , 16-C ) :   1.0546 B( 11-C , 12-C ) :   1.1378 B( 11-C , 14-C ) :   1.1389
B( 12-C , 13-N ) :   2.9747 B( 14-C , 15-N ) :   2.9913 B( 16-C , 17-C ) :   1.6731
B( 17-C , 18-C ) :   1.0884 B( 17-C , 79-H ) :   0.9400 B( 18-C , 19-C ) :   1.3832
B( 18-C , 23-C ) :   0.1240 B( 18-C , 25-C ) :   1.1795 B( 19-C , 20-F ) :   1.1835
B( 19-C , 21-C ) :   1.1636 B( 21-C , 22-F ) :   1.1438 B( 21-C , 23-C ) :   1.3307
B( 23-C , 24-C ) :   1.1486 B( 23-C , 29-C ) :   1.1693 B( 24-C , 25-C ) :   1.1589
B( 24-C , 28-N ) :   1.5463 B( 25-C , 26-N ) :   1.5377 B( 26-N , 27-S ) :   1.2665
B( 26-N , 28-N ) :   0.1454 B( 27-S , 28-N ) :   1.2670 B( 29-C , 30-C ) :   1.5352
B( 29-C , 80-H ) :   0.9733 B( 30-C , 31-C ) :   1.1767 B( 30-C , 81-H ) :   0.9497
B( 31-C , 32-N ) :   1.1670 B( 31-C , 38-C ) :   1.3424 B( 32-N , 33-C ) :   0.9398
B( 32-N , 35-C ) :   1.0379 B( 33-C , 34-C ) :   1.1175 B( 33-C , 82-H ) :   0.9510
B( 33-C , 83-H ) :   0.9232 B( 34-C , 84-H ) :   0.9671 B( 34-C , 85-H ) :   0.9687
B( 34-C , 86-H ) :   0.9606 B( 35-C , 36-O ) :   2.1255 B( 35-C , 37-C ) :   0.9762
B( 37-C , 38-C ) :   1.2390 B( 37-C , 44-C ) :   1.3526 B( 38-C , 39-C ) :   0.9765
B( 39-C , 40-O ) :   2.1368 B( 39-C , 41-N ) :   1.0246 B( 41-N , 42-C ) :   0.9388
B( 41-N , 44-C ) :   1.1872 B( 42-C , 43-C ) :   1.1160 B( 42-C , 87-H ) :   0.9507
B( 42-C , 88-H ) :   0.9236 B( 43-C , 89-H ) :   0.9658 B( 43-C , 90-H ) :   0.9669
B( 43-C , 91-H ) :   0.9621 B( 44-C , 45-C ) :   1.1914 B( 45-C , 46-C ) :   1.6394
B( 45-C , 92-H ) :   0.9379 B( 46-C , 47-C ) :   1.0860 B( 46-C , 93-H ) :   0.9454
B( 47-C , 48-C ) :   1.3696 B( 47-C , 57-C ) :   1.3241 B( 48-C , 49-C ) :   0.8566
B( 48-C , 54-C ) :   1.3208 B( 49-C , 50-O ) :   2.1453 B( 49-C , 51-S ) :   1.0464
B( 50-O , 51-S ) :   0.1064 B( 51-S , 52-C ) :   1.0206 B( 52-C , 53-O ) :   2.1447
B( 52-C , 54-C ) :   0.8639 B( 54-C , 55-C ) :   1.3154 B( 55-C , 56-C ) :   1.3070
B( 55-C , 63-C ) :   1.1493 B( 56-C , 57-C ) :   1.3677 B( 56-C , 61-C ) :   0.9148
B( 57-C , 58-C ) :   0.9026 B( 58-C , 59-O ) :   2.2547 B( 58-C , 60-O ) :   1.0549
B( 60-O , 61-C ) :   1.0566 B( 61-C , 62-O ) :   2.2309 B( 63-C , 64-C ) :   1.6427
B( 63-C , 94-H ) :   0.9447 B( 64-C , 65-C ) :   1.1995 B( 64-C , 95-H ) :   0.9526
B( 65-C , 66-S ) :   1.1269 B( 65-C , 69-C ) :   1.4887 B( 66-S , 67-C ) :   1.1757
B( 67-C , 68-C ) :   1.5604 B( 67-C , 96-H ) :   0.9691 B( 68-C , 69-C ) :   1.3161
B( 68-C , 73-C ) :   1.0211 B( 69-C , 70-C ) :   0.9619 B( 70-C , 71-C ) :   1.0706
B( 70-C , 74-N ) :   1.0248 B( 70-C , 97-H ) :   0.8896 B( 71-C , 72-C ) :   1.0669
B( 71-C , 98-H ) :   0.9280 B( 71-C , 99-H ) :   0.9328 B( 72-C , 73-C ) :   1.0930
B( 72-C ,100-H ) :   0.9323 B( 72-C ,101-H ) :   0.9444 B( 73-C ,102-H ) :   0.9236
B( 73-C ,103-H ) :   0.9191 B( 74-N , 75-C ) :   1.1402 B( 74-N ,104-H ) :   0.9271
B( 75-C , 76-C ) :   1.8914 B( 75-C ,105-H ) :   0.9627 B( 76-C ,106-H ) :   0.9520
B( 76-C ,107-H ) :   0.9541

-----------------------------------------------------------------------------
         ABSORPTION SPECTRUM VIA TRANSITION ELECTRIC DIPOLE MOMENTS
-----------------------------------------------------------------------------
State   Energy  Wavelength   fosc         T2         TX        TY        TZ
        (cm-1)    (nm)                  (au**2)     (au)      (au)      (au)
-----------------------------------------------------------------------------
   0   13188.9    758.2   1.230214764  30.70785   3.34292   4.33160   0.87750
   1   16054.6    622.9   0.023554049   0.48300   0.33904  -0.53367  -0.28852
   2   16545.5    604.4   0.003337677   0.06641  -0.10242   0.02537   0.23511
   3   19387.4    515.8   0.038362350   0.65142   0.63206   0.29922  -0.40298
   4   19723.7    507.0   0.069154969   1.15428  -0.01360  -0.95553  -0.49097
   5   20204.7    494.9   0.003395083   0.05532  -0.00208  -0.09377   0.21569
   6   23167.9    431.6   0.519119218   7.37659   1.79594   1.92388  -0.67074
   7   23579.8    424.1   0.319616746   4.46236  -0.86942  -1.44730   1.26956
   8   24162.5    413.9   0.211491501   2.88155   1.22956   1.16463  -0.11554
   9   24750.5    404.0   0.003457105   0.04598   0.04704   0.10277  -0.18223
  10   25317.1    395.0   0.005975639   0.07770   0.11056   0.19773   0.16243
  11   26354.9    379.4   0.113701012   1.42030  -0.18655  -0.09501   1.17323
  12   27060.6    369.5   0.121786363   1.48162   0.80865   0.84995   0.32450
  13   27417.7    364.7   0.013052250   0.15672   0.27483   0.26847  -0.09547
  14   27661.0    361.5   0.038013883   0.45243   0.27236  -0.46778   0.39928
  15   27802.8    359.7   0.033201575   0.39314  -0.07346  -0.03112  -0.62191
  16   28188.4    354.8   0.087541047   1.02239  -0.67975   0.20496  -0.71995
  17   28405.0    352.1   0.056273673   0.65221  -0.29110  -0.65603   0.37026
  18   29831.3    335.2   0.003010468   0.03322   0.04538   0.13238  -0.11679
  19   30278.0    330.3   0.014627834   0.15905   0.22268  -0.09857  -0.31582
  20   30502.9    327.8   0.015823052   0.17077  -0.30153   0.27926  -0.04327
  21   30548.9    327.3   0.039635514   0.42713  -0.41869  -0.26610  -0.42547
  22   30980.4    322.8   0.080367183   0.85402  -0.22907   0.13028   0.88576
  23   31145.4    321.1   0.011424159   0.12076  -0.00618  -0.31005  -0.15680
  24   31770.5    314.8   0.010279596   0.10652  -0.08106  -0.27278   0.15981
  25   32071.4    311.8   0.065047639   0.66771   0.33628   0.72582   0.16678
  26   32187.3    310.7   0.057396168   0.58705  -0.45023  -0.61452  -0.08189
  27   32387.1    308.8   0.109001455   1.10799   0.63046   0.72666  -0.42717
  28   32521.7    307.5   0.007702066   0.07797  -0.15896  -0.00221   0.22955
  29   32961.7    303.4   0.005353673   0.05347   0.17661   0.10980   0.10112
  30   33133.6    301.8   0.005599866   0.05564   0.05564   0.22576  -0.03970
  31   33364.2    299.7   0.077040406   0.76017  -0.20950   0.44740  -0.71841
  32   33526.0    298.3   0.003311322   0.03252  -0.02607   0.12731  -0.12501
  33   33699.5    296.7   0.125188690   1.22297   0.09304   1.09281  -0.14169
  34   34156.6    292.8   0.163371236   1.57462  -0.48878   0.45510  -1.06236
  35   34513.3    289.7   0.027419064   0.26154  -0.35723  -0.21842  -0.29363
  36   34564.3    289.3   0.016837743   0.16037  -0.37199   0.09396  -0.11474
  37   34931.8    286.3   0.127416922   1.20083   0.23632  -0.52896   0.93015
  38   35060.1    285.2   0.006849993   0.06432  -0.08671  -0.16469   0.17228
  39   35125.2    284.7   0.019935652   0.18685   0.38781  -0.08597   0.17047
  40   35323.8    283.1   0.310321501   2.89214  -0.56700   0.92430  -1.31009
  41   35791.8    279.4   0.010663674   0.09808  -0.08101  -0.18344   0.24056
  42   36082.5    277.1   0.113863491   1.03888   0.40062   0.52210  -0.77833
  43   36198.5    276.3   0.029524226   0.26851  -0.13521  -0.19500   0.46066
  44   36517.3    273.8   0.012176532   0.10977  -0.17729  -0.19251   0.20318
  45   36561.8    273.5   0.002734640   0.02462   0.09562   0.09108  -0.08476
  46   36698.6    272.5   0.000859588   0.00771  -0.02500   0.07376  -0.04056
  47   36994.3    270.3   0.008014322   0.07132  -0.08057  -0.02849   0.25301
  48   37070.7    269.8   0.001212029   0.01076   0.00923   0.04960   0.09066
  49   37328.2    267.9   0.047689203   0.42059   0.37149   0.32202   0.42296
  50   37493.7    266.7   0.000122929   0.00108   0.03141   0.00488   0.00831
  51   37771.3    264.8   0.017257311   0.15041   0.34440  -0.13814  -0.11279
  52   38502.7    259.7   0.038718396   0.33106  -0.41883   0.38292  -0.09494
  53   38826.1    257.6   0.059850450   0.50748  -0.33746   0.61861   0.10450
  54   38935.0    256.8   0.014645829   0.12384   0.20006   0.14598  -0.25001
  55   39036.8    256.2   0.001985109   0.01674  -0.06052   0.11420  -0.00609
  56   39144.1    255.5   0.002998620   0.02522  -0.08473   0.13429   0.00259
  57   39166.0    255.3   0.017357000   0.14590   0.22866  -0.26843   0.14682
  58   39651.5    252.2   0.202623653   1.68231  -0.89415  -0.78153  -0.52156
  59   39691.5    251.9   0.044005459   0.36499  -0.41437   0.30634   0.31535
  60   39928.1    250.5   0.067225275   0.55428   0.64253   0.34831   0.14184
  61   40148.7    249.1   0.026126326   0.21423  -0.32495   0.06294   0.32354

FINAL SINGLE POINT ENERGY     -9637.316898774659

DIPOLE MOMENT
-------------
                                X             Y             Z
Electronic contribution:    291.68473     309.84613      50.38805
Nuclear contribution   :   -292.79085    -313.13223     -47.89019
                        -----------------------------------------
Total Dipole Moment    :     -1.10612      -3.28610       2.49786
                        -----------------------------------------
Magnitude (a.u.)       :      4.27332
Magnitude (Debye)      :     10.86191

Rotational constants in cm-1:     0.001620     0.000144     0.000140
Rotational constants in MHz :    48.574396     4.329466     4.193404

                             ****ORCA TERMINATED NORMALLY****
TOTAL RUN TIME: 0 days 0 hours 12 minutes 53 seconds 36 msec
