                         Program Version 4.2.0 -  RELEASE  -
|  1> # ORCA input file
|  2> # SCF done       -207.379762966923          0.000724307056
|  3> ! CAM-B3LYP def2-SVP def2/J RIJCOSX Grid4 TightSCF
|  4> %maxcore 5000
|  5> %tddft
|  6>     Mode sTDDFT
|  7>     Ethresh 5.0
|  8>     maxcore 5000
|  9> end
| 10>
| 11> %pal
| 12>   nprocs 6
| 13>   end
| 14> * xyz 0 1
| 15>    C       -1.65318         3.06025        -1.98985
| 16>    C       -0.82062         4.01105        -2.51816
| 17>    C       -0.98916         4.58427        -3.79366
| 18>    N       -1.10956         5.11899        -4.80253
| 19>    C        0.33384         4.47756        -1.85382
| 20>    N        1.30368         4.84641        -1.36293
| 21>    C       -2.65983         2.30571        -2.72406
| 22>    C       -2.92208         1.09627        -2.01436
| 23>    C       -3.79677         0.16303        -2.49156
| 24>    C       -4.46593         0.40568        -3.71253
| 25>    C       -4.21705         1.61854        -4.41900
| 26>    C       -3.30031         2.56431        -3.90584
| 27>    C       -4.89594         1.84901        -5.63283
| 28>    C       -5.77700         0.92678        -6.12824
| 29>    C       -6.02097        -0.26698        -5.43269
| 30>    C       -5.37893        -0.52225        -4.25133
| 31>    C       -2.13418         1.07493        -0.76743
| 32>    O       -2.05596         0.19378         0.05333
| 33>    C       -1.50463         2.42953        -0.69245
| 34>    C       -1.07032         2.91083         0.49965
| 35>    C       -0.85688         4.25936         0.88166
| 36>    S       -1.58157         5.63598         0.06813
| 37>    C       -0.14990         4.71566         1.97169
| 38>    C        0.67482         4.11725         3.04077
| 39>    O        0.91511         2.96142         3.27730
| 40>    N        1.14308         5.20289         3.76621
| 41>    C        1.98774         5.06540         4.93370
| 42>    C        1.15733         4.97857         6.20938
| 43>    C        0.70947         6.44082         3.28997
| 44>    O        1.01070         7.50314         3.76489
| 45>    C       -0.13916         6.11404         2.12852
| 46>    C       -0.86572         6.79910         1.17606
| 47>    C       -1.04923         8.18989         1.00550
| 48>    C       -1.63287         8.69821        -0.11240
| 49>    C       -1.84224        10.07259        -0.36097
| 50>    N       -2.32176        10.55622        -1.55946
| 51>    C       -2.57805         9.78710        -2.75406
| 52>    C       -1.28739         9.36010        -3.44877
| 53>    C       -2.46923        11.94976        -1.54159
| 54>    O       -2.87981        12.59793        -2.48647
| 55>    C       -2.05105        12.33770        -0.21264
| 56>    C       -1.66619        11.16736         0.48264
| 57>    C       -1.27760        11.54994         1.82438
| 58>    O       -0.89773        10.90511         2.77665
| 59>    N       -1.45181        12.94811         1.84754
| 60>    C       -1.11771        13.72230         3.01868
| 61>    C        0.23416        14.41673         2.87513
| 62>    C       -1.91261        13.43060         0.64683
| 63>    C       -2.20863        14.79124         0.39966
| 64>    C       -2.69055        15.22519        -0.79541
| 65>    C       -3.02986        16.56774        -1.07748
| 66>    S       -2.83281        17.86000         0.08057
| 67>    C       -3.47422        19.02853        -1.03023
| 68>    C       -3.81771        18.41601        -2.24288
| 69>    C       -3.56314        17.04134        -2.26304
| 70>    C       -4.35996        19.13073        -3.32631
| 71>    N       -4.80085        19.71099        -4.21126
| 72>    C       -3.61070        20.39574        -0.70914
| 73>    C       -3.21845        20.93869         0.47602
| 74>    C       -3.36669        22.31283         0.76062
| 75>    C       -2.94756        22.91352         1.91482
| 76>    C       -3.06369        24.31971         2.25542
| 77>    C       -3.73645        25.28494         1.55115
| 78>    C       -3.81862        26.63745         1.94461
| 79>    N       -3.92220        27.75035         2.20699
| 80>    C       -4.45837        25.08020         0.35664
| 81>    N       -5.07336        24.99780        -0.60979
| 82>    C       -2.35758        24.53189         3.51442
| 83>    C       -1.86435        23.27869         3.97755
| 84>    C       -2.22880        22.22258         3.01942
| 85>    O       -1.98017        21.03828         3.11940
| 86>    C       -1.15828        23.16501         5.14052
| 87>    C       -0.90213        24.32337         5.90727
| 88>    C       -1.38805        25.58204         5.44917
| 89>    C       -2.12033        25.66765         4.24285
| 90>    C       -1.12259        26.73312         6.21853
| 91>    C       -0.41097        26.64710         7.38412
| 92>    C        0.06676        25.40719         7.83436
| 93>    C       -0.17411        24.26995         7.11208
| 94>    H       -3.97639        -0.75079        -1.94508
| 95>    H       -3.13360         3.47877        -4.45405
| 96>    H       -4.70243         2.76801        -6.16637
| 97>    H       -6.29079         1.11186        -7.05958
| 98>    H       -6.72012        -0.98314        -5.83758
| 99>    H       -5.56260        -1.43977        -3.71186
|100>    H       -0.92899         2.18272         1.29332
|101>    H        2.64421         5.93811         4.96642
|102>    H        2.58030         4.15719         4.80131
|103>    H        0.56093         5.87985         6.33090
|104>    H        1.81407         4.87522         7.06833
|105>    H        0.49523         4.11658         6.16963
|106>    H       -0.67753         8.83374         1.79274
|107>    H       -1.95470         8.00581        -0.88039
|108>    H       -3.15265        10.44283        -3.41413
|109>    H       -3.19145         8.91600        -2.50524
|110>    H       -0.71885        10.23651        -3.74975
|111>    H       -1.52175         8.77586        -4.33408
|112>    H       -0.66731         8.75620        -2.78988
|113>    H       -1.07745        13.01045         3.84791
|114>    H       -1.91039        14.44957         3.21571
|115>    H        1.01668        13.67718         2.72497
|116>    H        0.45546        14.97805         3.77845
|117>    H        0.23582        15.10064         2.02921
|118>    H       -2.05719        15.50217         1.20077
|119>    H       -2.84570        14.51751        -1.60044
|120>    H       -3.76209        16.40615        -3.10776
|121>    H       -4.05328        21.02404        -1.47372
|122>    H       -2.77036        20.30772         1.23146
|123>    H       -3.83413        22.91607        -0.00719
|124>    H       -0.79646        22.20202         5.46940
|125>    H       -2.47116        26.63601         3.92382
|126>    H       -1.49291        27.68528         5.86779
|127>    H       -0.21193        27.53460         7.96584
|128>    H        0.62686        25.35778         8.75617
|129>    H        0.19132        23.31249         7.45380
|130> *
|131>
|132>                          ****END OF INPUT****

CARTESIAN COORDINATES (ANGSTROEM)
---------------------------------
  C     -1.653180    3.060250   -1.989850
  C     -0.820620    4.011050   -2.518160
  C     -0.989160    4.584270   -3.793660
  N     -1.109560    5.118990   -4.802530
  C      0.333840    4.477560   -1.853820
  N      1.303680    4.846410   -1.362930
  C     -2.659830    2.305710   -2.724060
  C     -2.922080    1.096270   -2.014360
  C     -3.796770    0.163030   -2.491560
  C     -4.465930    0.405680   -3.712530
  C     -4.217050    1.618540   -4.419000
  C     -3.300310    2.564310   -3.905840
  C     -4.895940    1.849010   -5.632830
  C     -5.777000    0.926780   -6.128240
  C     -6.020970   -0.266980   -5.432690
  C     -5.378930   -0.522250   -4.251330
  C     -2.134180    1.074930   -0.767430
  O     -2.055960    0.193780    0.053330
  C     -1.504630    2.429530   -0.692450
  C     -1.070320    2.910830    0.499650
  C     -0.856880    4.259360    0.881660
  S     -1.581570    5.635980    0.068130
  C     -0.149900    4.715660    1.971690
  C      0.674820    4.117250    3.040770
  O      0.915110    2.961420    3.277300
  N      1.143080    5.202890    3.766210
  C      1.987740    5.065400    4.933700
  C      1.157330    4.978570    6.209380
  C      0.709470    6.440820    3.289970
  O      1.010700    7.503140    3.764890
  C     -0.139160    6.114040    2.128520
  C     -0.865720    6.799100    1.176060
  C     -1.049230    8.189890    1.005500
  C     -1.632870    8.698210   -0.112400
  C     -1.842240   10.072590   -0.360970
  N     -2.321760   10.556220   -1.559460
  C     -2.578050    9.787100   -2.754060
  C     -1.287390    9.360100   -3.448770
  C     -2.469230   11.949760   -1.541590
  O     -2.879810   12.597930   -2.486470
  C     -2.051050   12.337700   -0.212640
  C     -1.666190   11.167360    0.482640
  C     -1.277600   11.549940    1.824380
  O     -0.897730   10.905110    2.776650
  N     -1.451810   12.948110    1.847540
  C     -1.117710   13.722300    3.018680
  C      0.234160   14.416730    2.875130
  C     -1.912610   13.430600    0.646830
  C     -2.208630   14.791240    0.399660
  C     -2.690550   15.225190   -0.795410
  C     -3.029860   16.567740   -1.077480
  S     -2.832810   17.860000    0.080570
  C     -3.474220   19.028530   -1.030230
  C     -3.817710   18.416010   -2.242880
  C     -3.563140   17.041340   -2.263040
  C     -4.359960   19.130730   -3.326310
  N     -4.800850   19.710990   -4.211260
  C     -3.610700   20.395740   -0.709140
  C     -3.218450   20.938690    0.476020
  C     -3.366690   22.312830    0.760620
  C     -2.947560   22.913520    1.914820
  C     -3.063690   24.319710    2.255420
  C     -3.736450   25.284940    1.551150
  C     -3.818620   26.637450    1.944610
  N     -3.922200   27.750350    2.206990
  C     -4.458370   25.080200    0.356640
  N     -5.073360   24.997800   -0.609790
  C     -2.357580   24.531890    3.514420
  C     -1.864350   23.278690    3.977550
  C     -2.228800   22.222580    3.019420
  O     -1.980170   21.038280    3.119400
  C     -1.158280   23.165010    5.140520
  C     -0.902130   24.323370    5.907270
  C     -1.388050   25.582040    5.449170
  C     -2.120330   25.667650    4.242850
  C     -1.122590   26.733120    6.218530
  C     -0.410970   26.647100    7.384120
  C      0.066760   25.407190    7.834360
  C     -0.174110   24.269950    7.112080
  H     -3.976390   -0.750790   -1.945080
  H     -3.133600    3.478770   -4.454050
  H     -4.702430    2.768010   -6.166370
  H     -6.290790    1.111860   -7.059580
  H     -6.720120   -0.983140   -5.837580
  H     -5.562600   -1.439770   -3.711860
  H     -0.928990    2.182720    1.293320
  H      2.644210    5.938110    4.966420
  H      2.580300    4.157190    4.801310
  H      0.560930    5.879850    6.330900
  H      1.814070    4.875220    7.068330
  H      0.495230    4.116580    6.169630
  H     -0.677530    8.833740    1.792740
  H     -1.954700    8.005810   -0.880390
  H     -3.152650   10.442830   -3.414130
  H     -3.191450    8.916000   -2.505240
  H     -0.718850   10.236510   -3.749750
  H     -1.521750    8.775860   -4.334080
  H     -0.667310    8.756200   -2.789880
  H     -1.077450   13.010450    3.847910
  H     -1.910390   14.449570    3.215710
  H      1.016680   13.677180    2.724970
  H      0.455460   14.978050    3.778450
  H      0.235820   15.100640    2.029210
  H     -2.057190   15.502170    1.200770
  H     -2.845700   14.517510   -1.600440
  H     -3.762090   16.406150   -3.107760
  H     -4.053280   21.024040   -1.473720
  H     -2.770360   20.307720    1.231460
  H     -3.834130   22.916070   -0.007190
  H     -0.796460   22.202020    5.469400
  H     -2.471160   26.636010    3.923820
  H     -1.492910   27.685280    5.867790
  H     -0.211930   27.534600    7.965840
  H      0.626860   25.357780    8.756170
  H      0.191320   23.312490    7.453800

 Total Charge           Charge          ....    0
 Multiplicity           Mult            ....    1
 Number of Electrons    NEL             ....  550
 Basis Dimension        Dim             .... 1294

ORBITAL ENERGIES
----------------

  NO   OCC          E(Eh)            E(eV)
   0   2.0000     -88.987530     -2421.4738
   1   2.0000     -88.984170     -2421.3824
   2   2.0000     -19.221710      -523.0493
   3   2.0000     -19.219913      -523.0004
   4   2.0000     -19.215679      -522.8852
   5   2.0000     -19.213021      -522.8129
   6   2.0000     -19.200544      -522.4734
   7   2.0000     -19.197276      -522.3844
   8   2.0000     -14.461886      -393.5279
   9   2.0000     -14.459738      -393.4695
  10   2.0000     -14.456609      -393.3843
  11   2.0000     -14.425417      -392.5356
  12   2.0000     -14.419780      -392.3822
  13   2.0000     -14.418443      -392.3458
  14   2.0000     -14.417048      -392.3078
  15   2.0000     -14.416710      -392.2986
  16   2.0000     -10.398577      -282.9597
  17   2.0000     -10.396434      -282.9013
  18   2.0000     -10.382598      -282.5249
  19   2.0000     -10.380463      -282.4668
  20   2.0000     -10.372130      -282.2400
  21   2.0000     -10.371735      -282.2292
  22   2.0000     -10.351687      -281.6837
  23   2.0000     -10.350638      -281.6552
  24   2.0000     -10.348724      -281.6031
  25   2.0000     -10.345131      -281.5053
  26   2.0000     -10.344503      -281.4882
  27   2.0000     -10.343076      -281.4494
  28   2.0000     -10.342476      -281.4331
  29   2.0000     -10.342138      -281.4239
  30   2.0000     -10.340052      -281.3671
  31   2.0000     -10.333428      -281.1869
  32   2.0000     -10.333207      -281.1809
  33   2.0000     -10.327527      -281.0263
  34   2.0000     -10.327486      -281.0252
  35   2.0000     -10.321802      -280.8705
  36   2.0000     -10.320775      -280.8426
  37   2.0000     -10.319832      -280.8169
  38   2.0000     -10.319409      -280.8054
  39   2.0000     -10.319278      -280.8018
  40   2.0000     -10.316365      -280.7226
  41   2.0000     -10.315120      -280.6887
  42   2.0000     -10.312462      -280.6164
  43   2.0000     -10.310947      -280.5751
  44   2.0000     -10.309945      -280.5479
  45   2.0000     -10.308867      -280.5185
  46   2.0000     -10.308713      -280.5143
  47   2.0000     -10.308298      -280.5031
  48   2.0000     -10.307847      -280.4908
  49   2.0000     -10.305523      -280.4275
  50   2.0000     -10.305491      -280.4267
  51   2.0000     -10.305432      -280.4251
  52   2.0000     -10.305426      -280.4249
  53   2.0000     -10.304587      -280.4021
  54   2.0000     -10.303446      -280.3710
  55   2.0000     -10.303054      -280.3604
  56   2.0000     -10.302818      -280.3539
  57   2.0000     -10.302325      -280.3405
  58   2.0000     -10.301917      -280.3294
  59   2.0000     -10.300493      -280.2907
  60   2.0000     -10.300183      -280.2822
  61   2.0000     -10.299848      -280.2731
  62   2.0000     -10.299088      -280.2524
  63   2.0000     -10.298781      -280.2441
  64   2.0000     -10.295279      -280.1488
  65   2.0000     -10.291442      -280.0444
  66   2.0000     -10.291116      -280.0355
  67   2.0000     -10.290873      -280.0289
  68   2.0000     -10.290538      -280.0198
  69   2.0000     -10.290287      -280.0129
  70   2.0000     -10.289262      -279.9851
  71   2.0000     -10.288772      -279.9717
  72   2.0000     -10.288332      -279.9598
  73   2.0000     -10.287831      -279.9461
  74   2.0000     -10.272522      -279.5295
  75   2.0000     -10.269950      -279.4595
  76   2.0000     -10.269415      -279.4450
  77   2.0000     -10.264171      -279.3023
  78   2.0000     -10.258679      -279.1528
  79   2.0000      -8.082680      -219.9409
  80   2.0000      -8.078587      -219.8295
  81   2.0000      -6.051744      -164.6763
  82   2.0000      -6.047986      -164.5741
  83   2.0000      -6.047845      -164.5702
  84   2.0000      -6.045004      -164.4929
  85   2.0000      -6.043826      -164.4609
  86   2.0000      -6.040570      -164.3723
  87   2.0000      -1.161145       -31.5964
  88   2.0000      -1.142009       -31.0756
  89   2.0000      -1.137848       -30.9624
  90   2.0000      -1.135816       -30.9071
  91   2.0000      -1.135685       -30.9035
  92   2.0000      -1.134609       -30.8743
  93   2.0000      -1.072358       -29.1803
  94   2.0000      -1.063496       -28.9392
  95   2.0000      -1.053512       -28.6675
  96   2.0000      -1.027064       -27.9478
  97   2.0000      -1.025223       -27.8977
  98   2.0000      -1.020462       -27.7682
  99   2.0000      -1.011183       -27.5157
 100   2.0000      -1.004632       -27.3374
 101   2.0000      -1.001147       -27.2426
 102   2.0000      -0.999567       -27.1996
 103   2.0000      -0.995843       -27.0983
 104   2.0000      -0.995679       -27.0938
 105   2.0000      -0.977349       -26.5950
 106   2.0000      -0.974514       -26.5179
 107   2.0000      -0.944115       -25.6907
 108   2.0000      -0.937844       -25.5200
 109   2.0000      -0.934329       -25.4244
 110   2.0000      -0.928538       -25.2668
 111   2.0000      -0.926439       -25.2097
 112   2.0000      -0.919131       -25.0108
 113   2.0000      -0.913333       -24.8530
 114   2.0000      -0.898067       -24.4377
 115   2.0000      -0.896889       -24.4056
 116   2.0000      -0.887297       -24.1446
 117   2.0000      -0.884992       -24.0819
 118   2.0000      -0.883745       -24.0479
 119   2.0000      -0.877740       -23.8845
 120   2.0000      -0.875008       -23.8102
 121   2.0000      -0.871944       -23.7268
 122   2.0000      -0.848538       -23.0899
 123   2.0000      -0.839225       -22.8365
 124   2.0000      -0.833772       -22.6881
 125   2.0000      -0.831961       -22.6388
 126   2.0000      -0.830943       -22.6111
 127   2.0000      -0.825986       -22.4762
 128   2.0000      -0.813177       -22.1277
 129   2.0000      -0.805307       -21.9135
 130   2.0000      -0.789807       -21.4917
 131   2.0000      -0.782073       -21.2813
 132   2.0000      -0.766967       -20.8702
 133   2.0000      -0.765927       -20.8419
 134   2.0000      -0.764768       -20.8104
 135   2.0000      -0.752714       -20.4824
 136   2.0000      -0.748118       -20.3573
 137   2.0000      -0.743109       -20.2210
 138   2.0000      -0.729342       -19.8464
 139   2.0000      -0.720072       -19.5941
 140   2.0000      -0.715493       -19.4695
 141   2.0000      -0.710333       -19.3292
 142   2.0000      -0.708194       -19.2709
 143   2.0000      -0.706145       -19.2152
 144   2.0000      -0.705470       -19.1968
 145   2.0000      -0.700606       -19.0645
 146   2.0000      -0.695117       -18.9151
 147   2.0000      -0.688477       -18.7344
 148   2.0000      -0.683270       -18.5927
 149   2.0000      -0.679225       -18.4827
 150   2.0000      -0.671355       -18.2685
 151   2.0000      -0.666109       -18.1257
 152   2.0000      -0.661023       -17.9874
 153   2.0000      -0.657556       -17.8930
 154   2.0000      -0.656243       -17.8573
 155   2.0000      -0.644728       -17.5439
 156   2.0000      -0.640570       -17.4308
 157   2.0000      -0.634495       -17.2655
 158   2.0000      -0.626802       -17.0561
 159   2.0000      -0.620479       -16.8841
 160   2.0000      -0.613048       -16.6819
 161   2.0000      -0.609639       -16.5891
 162   2.0000      -0.607874       -16.5411
 163   2.0000      -0.606708       -16.5094
 164   2.0000      -0.601394       -16.3648
 165   2.0000      -0.595562       -16.2061
 166   2.0000      -0.592962       -16.1353
 167   2.0000      -0.588520       -16.0144
 168   2.0000      -0.584668       -15.9096
 169   2.0000      -0.580299       -15.7907
 170   2.0000      -0.569239       -15.4898
 171   2.0000      -0.564801       -15.3690
 172   2.0000      -0.560942       -15.2640
 173   2.0000      -0.559562       -15.2265
 174   2.0000      -0.556632       -15.1467
 175   2.0000      -0.554939       -15.1007
 176   2.0000      -0.552253       -15.0276
 177   2.0000      -0.550336       -14.9754
 178   2.0000      -0.549406       -14.9501
 179   2.0000      -0.549004       -14.9392
 180   2.0000      -0.542803       -14.7704
 181   2.0000      -0.542575       -14.7642
 182   2.0000      -0.541604       -14.7378
 183   2.0000      -0.539904       -14.6915
 184   2.0000      -0.537153       -14.6167
 185   2.0000      -0.536504       -14.5990
 186   2.0000      -0.531385       -14.4597
 187   2.0000      -0.529881       -14.4188
 188   2.0000      -0.525295       -14.2940
 189   2.0000      -0.524112       -14.2618
 190   2.0000      -0.523936       -14.2570
 191   2.0000      -0.523145       -14.2355
 192   2.0000      -0.521353       -14.1867
 193   2.0000      -0.519496       -14.1362
 194   2.0000      -0.517823       -14.0907
 195   2.0000      -0.516845       -14.0641
 196   2.0000      -0.515051       -14.0152
 197   2.0000      -0.513201       -13.9649
 198   2.0000      -0.512249       -13.9390
 199   2.0000      -0.511692       -13.9238
 200   2.0000      -0.509695       -13.8695
 201   2.0000      -0.505657       -13.7596
 202   2.0000      -0.503115       -13.6905
 203   2.0000      -0.502409       -13.6712
 204   2.0000      -0.499208       -13.5841
 205   2.0000      -0.495579       -13.4854
 206   2.0000      -0.494007       -13.4426
 207   2.0000      -0.493241       -13.4218
 208   2.0000      -0.490898       -13.3580
 209   2.0000      -0.489150       -13.3104
 210   2.0000      -0.487649       -13.2696
 211   2.0000      -0.484791       -13.1918
 212   2.0000      -0.480946       -13.0872
 213   2.0000      -0.475246       -12.9321
 214   2.0000      -0.471728       -12.8364
 215   2.0000      -0.469691       -12.7809
 216   2.0000      -0.468427       -12.7465
 217   2.0000      -0.467458       -12.7202
 218   2.0000      -0.466283       -12.6882
 219   2.0000      -0.464572       -12.6416
 220   2.0000      -0.459288       -12.4979
 221   2.0000      -0.459218       -12.4960
 222   2.0000      -0.457323       -12.4444
 223   2.0000      -0.453876       -12.3506
 224   2.0000      -0.451414       -12.2836
 225   2.0000      -0.450628       -12.2622
 226   2.0000      -0.449946       -12.2436
 227   2.0000      -0.447510       -12.1774
 228   2.0000      -0.446581       -12.1521
 229   2.0000      -0.446127       -12.1397
 230   2.0000      -0.445846       -12.1321
 231   2.0000      -0.445662       -12.1271
 232   2.0000      -0.442612       -12.0441
 233   2.0000      -0.441099       -12.0029
 234   2.0000      -0.439009       -11.9460
 235   2.0000      -0.438648       -11.9362
 236   2.0000      -0.438027       -11.9193
 237   2.0000      -0.435669       -11.8552
 238   2.0000      -0.435529       -11.8513
 239   2.0000      -0.435305       -11.8453
 240   2.0000      -0.432309       -11.7637
 241   2.0000      -0.431473       -11.7410
 242   2.0000      -0.429120       -11.6769
 243   2.0000      -0.426934       -11.6175
 244   2.0000      -0.426034       -11.5930
 245   2.0000      -0.424015       -11.5380
 246   2.0000      -0.421865       -11.4795
 247   2.0000      -0.420143       -11.4327
 248   2.0000      -0.419285       -11.4093
 249   2.0000      -0.409765       -11.1503
 250   2.0000      -0.408415       -11.1135
 251   2.0000      -0.404020       -10.9939
 252   2.0000      -0.390844       -10.6354
 253   2.0000      -0.383051       -10.4233
 254   2.0000      -0.378840       -10.3088
 255   2.0000      -0.371462       -10.1080
 256   2.0000      -0.365950        -9.9580
 257   2.0000      -0.358757        -9.7623
 258   2.0000      -0.355858        -9.6834
 259   2.0000      -0.349903        -9.5213
 260   2.0000      -0.348749        -9.4899
 261   2.0000      -0.347675        -9.4607
 262   2.0000      -0.340630        -9.2690
 263   2.0000      -0.340014        -9.2523
 264   2.0000      -0.339372        -9.2348
 265   2.0000      -0.336499        -9.1566
 266   2.0000      -0.335507        -9.1296
 267   2.0000      -0.323656        -8.8071
 268   2.0000      -0.321730        -8.7547
 269   2.0000      -0.319479        -8.6935
 270   2.0000      -0.304270        -8.2796
 271   2.0000      -0.299109        -8.1392
 272   2.0000      -0.296824        -8.0770
 273   2.0000      -0.284357        -7.7377
 274   2.0000      -0.241684        -6.5766
 275   0.0000      -0.121841        -3.3155
 276   0.0000      -0.108028        -2.9396
 277   0.0000      -0.084204        -2.2913
 278   0.0000      -0.064364        -1.7514
 279   0.0000      -0.060845        -1.6557

MULLIKEN ATOMIC CHARGES
-----------------------
   0 C :    0.245112
   1 C :   -0.326293
   2 C :   -0.168364
   3 N :    0.150659
   4 C :   -0.207570
   5 N :    0.180299
   6 C :    0.042722
   7 C :    0.007737
   8 C :   -0.078272
   9 C :    0.093463
  10 C :    0.095587
  11 C :   -0.081618
  12 C :   -0.016610
  13 C :    0.038431
  14 C :    0.034593
  15 C :   -0.012911
  16 C :    0.141669
  17 O :   -0.128688
  18 C :   -0.117965
  19 C :    0.038821
  20 C :   -0.177438
  21 S :    0.133436
  22 C :    0.081661
  23 C :    0.189209
  24 O :   -0.154428
  25 N :   -0.313324
  26 C :    0.129771
  27 C :   -0.009172
  28 C :    0.184217
  29 O :   -0.142483
  30 C :    0.034137
  31 C :   -0.117022
  32 C :    0.019242
  33 C :   -0.027468
  34 C :    0.136821
  35 N :   -0.253517
  36 C :    0.090501
  37 C :   -0.000260
  38 C :    0.166071
  39 O :   -0.216109
  40 C :   -0.074751
  41 C :   -0.049590
  42 C :    0.153527
  43 O :   -0.181160
  44 N :   -0.259853
  45 C :    0.093296
  46 C :    0.002848
  47 C :    0.142830
  48 C :   -0.036476
  49 C :    0.036679
  50 C :   -0.035510
  51 S :    0.143905
  52 C :   -0.035815
  53 C :   -0.031522
  54 C :    0.017694
  55 C :   -0.190637
  56 N :    0.148161
  57 C :    0.017938
  58 C :   -0.006083
  59 C :   -0.042681
  60 C :   -0.064717
  61 C :    0.334188
  62 C :   -0.345208
  63 C :   -0.181107
  64 N :    0.148505
  65 C :   -0.195035
  66 N :    0.153186
  67 C :    0.047347
  68 C :   -0.001558
  69 C :    0.152236
  70 O :   -0.155332
  71 C :   -0.082189
  72 C :    0.100544
  73 C :    0.097744
  74 C :   -0.085833
  75 C :   -0.018904
  76 C :    0.036797
  77 C :    0.038088
  78 C :   -0.017696
  79 H :   -0.009152
  80 H :   -0.008056
  81 H :   -0.011257
  82 H :   -0.003549
  83 H :   -0.002836
  84 H :   -0.016050
  85 H :    0.046653
  86 H :    0.035438
  87 H :    0.035614
  88 H :    0.029165
  89 H :    0.024320
  90 H :    0.026671
  91 H :    0.040991
  92 H :   -0.008790
  93 H :    0.046057
  94 H :    0.024723
  95 H :    0.028162
  96 H :    0.036200
  97 H :    0.021514
  98 H :    0.049101
  99 H :    0.026157
 100 H :    0.033532
 101 H :    0.027006
 102 H :    0.015784
 103 H :   -0.012613
 104 H :    0.023490
 105 H :    0.018398
 106 H :    0.033742
 107 H :    0.033340
 108 H :    0.016359
 109 H :   -0.015587
 110 H :   -0.008542
 111 H :   -0.008394
 112 H :   -0.003598
 113 H :   -0.004046
 114 H :   -0.018445
Sum of atomic charges:   -0.0000000

LOEWDIN ATOMIC CHARGES
----------------------
   0 C :    0.060476
   1 C :   -0.141307
   2 C :   -0.017829
   3 N :   -0.051512
   4 C :   -0.039526
   5 N :   -0.043431
   6 C :   -0.023506
   7 C :   -0.057197
   8 C :    0.034855
   9 C :   -0.008289
  10 C :   -0.005053
  11 C :    0.015237
  12 C :   -0.006708
  13 C :   -0.011085
  14 C :   -0.011515
  15 C :   -0.007778
  16 C :    0.083898
  17 O :   -0.130674
  18 C :   -0.080300
  19 C :    0.053436
  20 C :   -0.148143
  21 S :    0.471983
  22 C :   -0.052457
  23 C :    0.087762
  24 O :   -0.154491
  25 N :   -0.031881
  26 C :    0.044036
  27 C :   -0.059694
  28 C :    0.090077
  29 O :   -0.145943
  30 C :   -0.084442
  31 C :   -0.111029
  32 C :    0.005613
  33 C :   -0.029633
  34 C :    0.064777
  35 N :    0.002425
  36 C :    0.035536
  37 C :   -0.060290
  38 C :    0.078535
  39 O :   -0.206081
  40 C :   -0.121068
  41 C :   -0.105834
  42 C :    0.081492
  43 O :   -0.177851
  44 N :   -0.000909
  45 C :    0.036222
  46 C :   -0.060438
  47 C :    0.080836
  48 C :   -0.050194
  49 C :    0.016428
  50 C :   -0.154874
  51 S :    0.472647
  52 C :   -0.140237
  53 C :   -0.088249
  54 C :   -0.007461
  55 C :   -0.034260
  56 N :   -0.038280
  57 C :    0.008256
  58 C :   -0.022648
  59 C :    0.064066
  60 C :   -0.083581
  61 C :    0.073219
  62 C :   -0.134800
  63 C :   -0.016614
  64 N :   -0.051396
  65 C :   -0.022125
  66 N :   -0.046945
  67 C :   -0.025379
  68 C :   -0.056413
  69 C :    0.086063
  70 O :   -0.148763
  71 C :    0.032592
  72 C :   -0.008286
  73 C :   -0.005602
  74 C :    0.020045
  75 C :   -0.004583
  76 C :   -0.012534
  77 C :   -0.011573
  78 C :   -0.009536
  79 H :    0.040556
  80 H :    0.038053
  81 H :    0.034096
  82 H :    0.033814
  83 H :    0.033669
  84 H :    0.032612
  85 H :    0.060691
  86 H :    0.033734
  87 H :    0.033685
  88 H :    0.028923
  89 H :    0.031009
  90 H :    0.028096
  91 H :    0.051155
  92 H :    0.022924
  93 H :    0.038582
  94 H :    0.022480
  95 H :    0.032058
  96 H :    0.035966
  97 H :    0.023808
  98 H :    0.039768
  99 H :    0.023787
 100 H :    0.033864
 101 H :    0.032414
 102 H :    0.021830
 103 H :    0.024409
 104 H :    0.045369
 105 H :    0.049083
 106 H :    0.049846
 107 H :    0.027902
 108 H :    0.044494
 109 H :    0.038186
 110 H :    0.039180
 111 H :    0.035140
 112 H :    0.033720
 113 H :    0.033219
 114 H :    0.031592

  Mayer bond orders larger than 0.100000
B(  0-C ,  1-C ) :   1.6585 B(  0-C ,  6-C ) :   1.0132 B(  0-C , 18-C ) :   1.0217
B(  1-C ,  2-C ) :   1.1385 B(  1-C ,  4-C ) :   1.1477 B(  2-C ,  3-N ) :   2.9772
B(  4-C ,  5-N ) :   3.0298 B(  6-C ,  7-C ) :   1.2105 B(  6-C , 11-C ) :   1.4534
B(  7-C ,  8-C ) :   1.4766 B(  7-C , 16-C ) :   0.9194 B(  8-C ,  9-C ) :   1.1851
B(  8-C , 79-H ) :   1.0160 B(  9-C , 10-C ) :   1.2552 B(  9-C , 15-C ) :   1.2464
B( 10-C , 11-C ) :   1.2059 B( 10-C , 12-C ) :   1.2388 B( 11-C , 80-H ) :   0.9944
B( 12-C , 13-C ) :   1.4906 B( 12-C , 81-H ) :   0.9977 B( 13-C , 14-C ) :   1.2590
B( 13-C , 82-H ) :   0.9890 B( 14-C , 15-C ) :   1.4883 B( 14-C , 83-H ) :   0.9895
B( 15-C , 84-H ) :   0.9981 B( 16-C , 17-O ) :   2.2875 B( 16-C , 18-C ) :   0.9256
B( 18-C , 19-C ) :   1.6630 B( 19-C , 20-C ) :   1.1261 B( 19-C , 85-H ) :   0.9453
B( 20-C , 21-S ) :   1.1110 B( 20-C , 22-C ) :   1.5046 B( 21-S , 31-C ) :   1.1162
B( 22-C , 23-C ) :   0.8803 B( 22-C , 30-C ) :   1.2801 B( 23-C , 24-O ) :   2.1944
B( 23-C , 25-N ) :   1.0825 B( 25-N , 26-C ) :   0.9158 B( 25-N , 28-C ) :   1.0582
B( 26-C , 27-C ) :   1.1267 B( 26-C , 86-H ) :   0.9413 B( 26-C , 87-H ) :   0.9413
B( 27-C , 88-H ) :   0.9690 B( 27-C , 89-H ) :   0.9704 B( 27-C , 90-H ) :   0.9688
B( 28-C , 29-O ) :   2.2114 B( 28-C , 30-C ) :   0.8859 B( 30-C , 31-C ) :   1.4708
B( 31-C , 32-C ) :   1.1824 B( 32-C , 33-C ) :   1.5697 B( 32-C , 91-H ) :   0.9583
B( 33-C , 34-C ) :   1.1639 B( 33-C , 92-H ) :   0.9493 B( 34-C , 35-N ) :   1.1551
B( 34-C , 41-C ) :   1.3525 B( 35-N , 36-C ) :   0.9413 B( 35-N , 38-C ) :   1.0737
B( 36-C , 37-C ) :   1.1191 B( 36-C , 93-H ) :   0.9278 B( 36-C , 94-H ) :   0.9491
B( 37-C , 95-H ) :   0.9626 B( 37-C , 96-H ) :   0.9666 B( 37-C , 97-H ) :   0.9687
B( 38-C , 39-O ) :   2.0099 B( 38-C , 40-C ) :   0.9900 B( 39-O ,104-H ) :   0.1235
B( 40-C , 41-C ) :   1.2613 B( 40-C , 47-C ) :   1.3235 B( 41-C , 42-C ) :   0.9704
B( 42-C , 43-O ) :   2.0863 B( 42-C , 44-N ) :   1.0436 B( 44-N , 45-C ) :   0.9419
B( 44-N , 47-C ) :   1.1691 B( 45-C , 46-C ) :   1.1210 B( 45-C , 98-H ) :   0.9282
B( 45-C , 99-H ) :   0.9501 B( 46-C ,100-H ) :   0.9636 B( 46-C ,101-H ) :   0.9680
B( 46-C ,102-H ) :   0.9685 B( 47-C , 48-C ) :   1.1798 B( 48-C , 49-C ) :   1.5650
B( 48-C ,103-H ) :   0.9601 B( 49-C , 50-C ) :   1.1649 B( 49-C ,104-H ) :   0.9487
B( 50-C , 51-S ) :   1.1051 B( 50-C , 54-C ) :   1.4369 B( 51-S , 52-C ) :   1.1283
B( 52-C , 53-C ) :   1.4138 B( 52-C , 57-C ) :   1.1816 B( 53-C , 54-C ) :   1.2845
B( 53-C , 55-C ) :   1.1038 B( 54-C ,105-H ) :   1.0131 B( 55-C , 56-N ) :   3.0230
B( 57-C , 58-C ) :   1.5452 B( 57-C ,106-H ) :   0.9730 B( 58-C , 59-C ) :   1.1662
B( 58-C ,107-H ) :   0.9741 B( 59-C , 60-C ) :   1.5457 B( 59-C ,108-H ) :   0.9651
B( 60-C , 61-C ) :   1.0593 B( 60-C , 69-C ) :   0.9411 B( 61-C , 62-C ) :   1.6312
B( 61-C , 67-C ) :   0.9872 B( 62-C , 63-C ) :   1.1465 B( 62-C , 65-C ) :   1.1441
B( 63-C , 64-N ) :   2.9615 B( 65-C , 66-N ) :   2.9659 B( 67-C , 68-C ) :   1.2156
B( 67-C , 74-C ) :   1.4478 B( 68-C , 69-C ) :   0.9471 B( 68-C , 71-C ) :   1.4671
B( 69-C , 70-O ) :   2.1916 B( 71-C , 72-C ) :   1.1798 B( 71-C ,109-H ) :   1.0168
B( 72-C , 73-C ) :   1.2562 B( 72-C , 78-C ) :   1.2422 B( 73-C , 74-C ) :   1.2051
B( 73-C , 75-C ) :   1.2394 B( 74-C ,110-H ) :   0.9899 B( 75-C , 76-C ) :   1.4897
B( 75-C ,111-H ) :   0.9977 B( 76-C , 77-C ) :   1.2580 B( 76-C ,112-H ) :   0.9886
B( 77-C , 78-C ) :   1.4902 B( 77-C ,113-H ) :   0.9886 B( 78-C ,114-H ) :   0.9981

-----------------------------------------------------------------------------
         ABSORPTION SPECTRUM VIA TRANSITION ELECTRIC DIPOLE MOMENTS
-----------------------------------------------------------------------------
State   Energy  Wavelength   fosc         T2         TX        TY        TZ
        (cm-1)    (nm)                  (au**2)     (au)      (au)      (au)
-----------------------------------------------------------------------------
   0   12086.3    827.4   1.337641094  36.43535   0.34725  -5.91169  -1.16907
   1   16456.1    607.7   0.039479092   0.78980   0.17036  -0.87134  -0.03940
   2   20694.4    483.2   0.086338693   1.37350   0.35700   0.21493   1.09538
   3   21619.3    462.6   0.524994255   7.99447   0.11599  -2.72022  -0.76251
   4   23304.1    429.1   0.174735132   2.46845   0.33293  -1.30744  -0.80512
   5   24526.4    407.7   0.063865069   0.85724  -0.14025  -0.73845  -0.54062
   6   24809.6    403.1   0.203182458   2.69614  -0.60549  -1.27372  -0.84093
   7   25529.8    391.7   0.000142719   0.00184  -0.02539   0.00598  -0.03406
   8   26185.3    381.9   0.000404498   0.00509  -0.00173   0.06954  -0.01571
   9   26578.5    376.2   0.001712682   0.02121  -0.05261  -0.04111   0.12944
  10   26966.9    370.8   0.041298029   0.50417   0.22399   0.65821   0.14407
  11   27518.4    363.4   0.053805605   0.64369  -0.38443  -0.70357  -0.02985
  12   27639.9    361.8   0.011780314   0.14031  -0.05159  -0.11650  -0.35225
  13   27820.7    359.4   0.014605932   0.17284   0.01787   0.21948  -0.35263
  14   28129.4    355.5   0.148738448   1.74076  -0.45463   0.04495  -1.23776
  15   28514.5    350.7   0.060279410   0.69595   0.51139  -0.07705   0.65460
  16   28651.7    349.0   0.062576108   0.71901   0.16849  -0.32494   0.76488
  17   28857.1    346.5   0.105072445   1.19871   0.47586   0.97202   0.16566
  18   30633.6    326.4   0.119942989   1.28900   0.42118  -0.10684   1.04890
  19   30990.8    322.7   0.000916227   0.00973   0.02377   0.09212   0.02612
  20   31312.3    319.4   0.001009321   0.01061  -0.02956   0.03890   0.09069
  21   31849.0    314.0   0.130783524   1.35187  -0.69281  -0.22924  -0.90517
  22   32220.4    310.4   0.115718318   1.18235   0.66640   0.30712   0.80246
  23   32393.6    308.7   0.366231785   3.72196   1.02829   0.23691   1.61507
  24   32523.6    307.5   0.080608841   0.81594   0.84269   0.20368   0.25363
  25   32750.2    305.3   0.279898116   2.81360  -0.86121  -1.43699  -0.08365
  26   33299.8    300.3   0.330259611   3.26504   0.74391  -0.59686   1.53473
  27   33458.9    298.9   0.108982209   1.07231   0.60571   0.30924   0.78090
  28   33574.4    297.8   0.096937795   0.95052  -0.45491   0.07535  -0.85901
  29   33710.9    296.6   0.026586985   0.25964  -0.34386  -0.11321  -0.35859
  30   33754.7    296.3   0.310066040   3.02410  -1.14549  -0.59663  -1.16447
  31   33940.9    294.6   0.027434667   0.26610  -0.18242   0.20389  -0.43733
  32   34136.3    292.9   0.022485071   0.21685  -0.17935  -0.41638  -0.10633
  33   34186.4    292.5   0.019919937   0.19183  -0.18046  -0.39907   0.00255
  34   34235.4    292.1   0.199380087   1.91727  -0.45440   0.31006  -1.27069
  35   34530.2    289.6   0.014947174   0.14251  -0.03704  -0.29662   0.23054
  36   34736.2    287.9   0.010012741   0.09490   0.15666   0.02669   0.26390
  37   35565.7    281.2   0.049048423   0.45401  -0.21055  -0.55600  -0.31710
  38   35960.9    278.1   0.172748350   1.58146   0.94814   0.40511   0.71998
  39   36409.4    274.7   0.125827633   1.13773   0.82807   0.22376   0.63400
  40   36940.6    270.7   0.001226540   0.01093   0.03174   0.07114  -0.06973
  41   36967.1    270.5   0.089004258   0.79263   0.05681  -0.57398   0.67820
  42   37063.0    269.8   0.402577330   3.57590   1.11349  -0.31806   1.49495
  43   37302.2    268.1   0.078799615   0.69545   0.16397  -0.40663   0.70937
  44   37583.2    266.1   0.041638640   0.36474   0.35039   0.13674   0.47251
  45   37734.5    265.0   0.036867537   0.32165   0.11175   0.03568   0.55487
  46   37914.9    263.7   0.057254826   0.49714  -0.03114   0.41414  -0.56979
  47   38159.5    262.1   0.142567417   1.22996  -0.44464   0.65712  -0.77489
  48   38442.4    260.1   0.161545295   1.38344  -0.54209   0.81168  -0.65631
  49   38584.1    259.2   0.052058020   0.44418  -0.14426  -0.54258   0.35912
  50   38901.8    257.1   0.139266585   1.17856  -0.25400  -1.02434   0.25450
  51   39636.8    252.3   0.108792177   0.90360  -0.16539   0.93337  -0.07117
  52   39679.3    252.0   0.006259608   0.05193   0.04652  -0.20526   0.08740
  53   39958.8    250.3   0.112944082   0.93052   0.17151   0.55774   0.76813
  54   40314.0    248.1   0.003733822   0.03049  -0.09432   0.12748  -0.07310

FINAL SINGLE POINT ENERGY     -4103.695509520744

DIPOLE MOMENT
-------------
                                X             Y             Z
Electronic contribution:    -11.30453      10.85776     -16.40466
Nuclear contribution   :     10.97315     -12.60738      18.20334
                        -----------------------------------------
Total Dipole Moment    :     -0.33138      -1.74962       1.79869
                        -----------------------------------------
Magnitude (a.u.)       :      2.53106
Magnitude (Debye)      :      6.43344

Rotational constants in cm-1:     0.001481     0.000196     0.000176
Rotational constants in MHz :    44.386140     5.861713     5.266926

                             ****ORCA TERMINATED NORMALLY****
TOTAL RUN TIME: 0 days 0 hours 11 minutes 49 seconds 339 msec
