                         Program Version 4.2.0 -  RELEASE  -
|  1> # ORCA input file
|  2> # SCF done       -187.651013007760          0.000632833320
|  3> ! CAM-B3LYP def2-SVP def2/J RIJCOSX Grid4 TightSCF
|  4> %maxcore 5000
|  5> %tddft
|  6>     Mode sTDDFT
|  7>     Ethresh 5.0
|  8>     maxcore 5000
|  9> end
| 10>
| 11> %pal
| 12>   nprocs 6
| 13>   end
| 14> * xyz 0 1
| 15>    C       -9.69869         2.40770         4.04683
| 16>    N       -9.67564         3.76392         4.13866
| 17>    C      -10.59655         4.57380         4.89480
| 18>    C      -11.94265         4.70300         4.18613
| 19>    C       -8.65818         4.32172         3.32414
| 20>    O       -8.44530         5.51514         3.24433
| 21>    C       -8.03746         3.17063         2.72067
| 22>    C       -8.71063         2.00150         3.19400
| 23>    C       -8.07670         0.85703         2.57786
| 24>    O       -8.27877        -0.33395         2.66421
| 25>    N       -7.06832         1.41211         1.75521
| 26>    C       -6.16719         0.52868         1.05705
| 27>    C       -4.79068         0.47607         1.71593
| 28>    C       -7.03682         2.78978         1.83909
| 29>    C       -6.20148         3.72932         1.17722
| 30>    C       -5.28546         3.54788         0.19606
| 31>    C       -4.53140         4.60527        -0.37688
| 32>    S       -4.65616         6.26069         0.16497
| 33>    C       -3.47264         6.79634        -0.98749
| 34>    C       -3.01450         5.71791        -1.75278
| 35>    C       -3.61415         4.49733        -1.39887
| 36>    C       -2.04409         5.78821        -2.76329
| 37>    N       -1.24962         5.79098        -3.59336
| 38>    C       -3.10982         8.16391        -1.01649
| 39>    C       -2.24651         8.72371        -1.90213
| 40>    C       -1.85628        10.08250        -1.89668
| 41>    S       -2.47379        11.20813        -0.72319
| 42>    C       -0.95294        10.70309        -2.75391
| 43>    C       -0.25591         9.96420        -3.85302
| 44>    C        0.97356         9.19843        -3.33784
| 45>    N        1.96147        10.12799        -2.81430
| 46>    C       -0.74383        12.06476        -2.45604
| 47>    C        0.22562        12.91224        -3.21890
| 48>    C       -0.45295        13.69548        -4.35432
| 49>    N       -0.95157        12.77734        -5.36539
| 50>    C       -1.51005        12.50800        -1.38202
| 51>    C       -1.63446        13.75332        -0.70711
| 52>    C       -1.12349        14.96074        -1.04994
| 53>    C       -1.28269        16.14768        -0.28497
| 54>    S       -0.52836        17.61265        -0.90775
| 55>    C       -1.09837        18.50408         0.45096
| 56>    C       -1.84374        17.68275         1.33236
| 57>    C       -1.94253        16.35588         0.91240
| 58>    N       -2.28295        18.42291         2.39489
| 59>    C       -3.04461        17.93848         3.51235
| 60>    C       -1.81885        19.70175         2.21953
| 61>    C       -1.07855        19.77808         1.00644
| 62>    S       -0.47406        21.35920         0.73364
| 63>    C       -1.21520        21.91902         2.24880
| 64>    C       -1.89089        20.90052         2.91017
| 65>    C       -0.99376        23.26749         2.56560
| 66>    C       -1.43197        24.05187         3.60501
| 67>    C       -1.04001        25.44188         3.76768
| 68>    C       -0.07697        26.12643         3.06859
| 69>    C        0.25264        27.47837         3.29955
| 70>    N        0.57512        28.57334         3.42827
| 71>    C        0.75236        25.61383         2.04931
| 72>    N        1.48315        25.29416         1.22193
| 73>    C       -1.81732        26.00316         4.86806
| 74>    C       -2.62387        24.96946         5.41814
| 75>    C       -2.39638        23.71824         4.67430
| 76>    O       -2.92829        22.65125         4.92237
| 77>    C       -3.46034        25.18685         6.47419
| 78>    C       -3.53283        26.47947         7.04006
| 79>    C       -2.73255        27.52252         6.49271
| 80>    C       -1.87443        27.26442         5.39851
| 81>    C       -2.81248        28.80930         7.06251
| 82>    C       -3.64216        29.05576         8.12240
| 83>    C       -4.43028        28.02769         8.66034
| 84>    C       -4.37656        26.76691         8.13067
| 85>    H      -10.41340         1.82800         4.60144
| 86>    H      -10.13250         5.55880         4.99475
| 87>    H      -10.72904         4.13521         5.88838
| 88>    H      -11.80654         5.15970         3.20892
| 89>    H      -12.61148         5.32665         4.77259
| 90>    H      -12.40183         3.72579         4.05285
| 91>    H       -6.09820         0.81785         0.00491
| 92>    H       -6.63227        -0.46098         1.11007
| 93>    H       -4.33026         1.46103         1.74769
| 94>    H       -4.14211        -0.19788         1.16263
| 95>    H       -4.88531         0.10770         2.73449
| 96>    H       -6.37589         4.74227         1.52338
| 97>    H       -5.07906         2.57509        -0.22309
| 98>    H       -3.37508         3.56626        -1.88293
| 99>    H       -3.56775         8.78930        -0.26028
|100>    H       -1.80240         8.10563        -2.66745
|101>    H        0.06116        10.66738        -4.62125
|102>    H       -0.93778         9.24542        -4.30911
|103>    H        1.42575         8.66741        -4.17839
|104>    H        0.64895         8.44771        -2.59794
|105>    H        1.63214        10.53698        -1.94540
|106>    H        2.83205         9.64722        -2.61931
|107>    H        0.99190        12.27007        -3.65151
|108>    H        0.71734        13.60990        -2.54083
|109>    H        0.29484        14.33679        -4.82830
|110>    H       -1.24467        14.34131        -3.93833
|111>    H       -1.74600        12.25833        -5.00508
|112>    H       -1.26169        13.28629        -6.18519
|113>    H       -2.23345        13.69792         0.19318
|114>    H       -0.55446        15.08528        -1.95640
|115>    H       -2.46057        15.58161         1.44655
|116>    H       -3.85267        17.29578         3.16017
|117>    H       -3.46944        18.78567         4.04664
|118>    H       -2.41306        17.36672         4.19843
|119>    H       -2.39663        21.06729         3.84295
|120>    H       -0.36362        23.76597         1.83839
|121>    H       -4.06044        24.38218         6.87288
|122>    H       -1.28593        28.07852         5.00733
|123>    H       -2.20292        29.59736         6.64504
|124>    H       -3.69561        30.04485         8.55229
|125>    H       -5.08004        28.23956         9.49648
|126>    H       -4.98113        25.97098         8.54090
|127> *
|128>
|129>                          ****END OF INPUT****

CARTESIAN COORDINATES (ANGSTROEM)
---------------------------------
  C     -9.698690    2.407700    4.046830
  N     -9.675640    3.763920    4.138660
  C    -10.596550    4.573800    4.894800
  C    -11.942650    4.703000    4.186130
  C     -8.658180    4.321720    3.324140
  O     -8.445300    5.515140    3.244330
  C     -8.037460    3.170630    2.720670
  C     -8.710630    2.001500    3.194000
  C     -8.076700    0.857030    2.577860
  O     -8.278770   -0.333950    2.664210
  N     -7.068320    1.412110    1.755210
  C     -6.167190    0.528680    1.057050
  C     -4.790680    0.476070    1.715930
  C     -7.036820    2.789780    1.839090
  C     -6.201480    3.729320    1.177220
  C     -5.285460    3.547880    0.196060
  C     -4.531400    4.605270   -0.376880
  S     -4.656160    6.260690    0.164970
  C     -3.472640    6.796340   -0.987490
  C     -3.014500    5.717910   -1.752780
  C     -3.614150    4.497330   -1.398870
  C     -2.044090    5.788210   -2.763290
  N     -1.249620    5.790980   -3.593360
  C     -3.109820    8.163910   -1.016490
  C     -2.246510    8.723710   -1.902130
  C     -1.856280   10.082500   -1.896680
  S     -2.473790   11.208130   -0.723190
  C     -0.952940   10.703090   -2.753910
  C     -0.255910    9.964200   -3.853020
  C      0.973560    9.198430   -3.337840
  N      1.961470   10.127990   -2.814300
  C     -0.743830   12.064760   -2.456040
  C      0.225620   12.912240   -3.218900
  C     -0.452950   13.695480   -4.354320
  N     -0.951570   12.777340   -5.365390
  C     -1.510050   12.508000   -1.382020
  C     -1.634460   13.753320   -0.707110
  C     -1.123490   14.960740   -1.049940
  C     -1.282690   16.147680   -0.284970
  S     -0.528360   17.612650   -0.907750
  C     -1.098370   18.504080    0.450960
  C     -1.843740   17.682750    1.332360
  C     -1.942530   16.355880    0.912400
  N     -2.282950   18.422910    2.394890
  C     -3.044610   17.938480    3.512350
  C     -1.818850   19.701750    2.219530
  C     -1.078550   19.778080    1.006440
  S     -0.474060   21.359200    0.733640
  C     -1.215200   21.919020    2.248800
  C     -1.890890   20.900520    2.910170
  C     -0.993760   23.267490    2.565600
  C     -1.431970   24.051870    3.605010
  C     -1.040010   25.441880    3.767680
  C     -0.076970   26.126430    3.068590
  C      0.252640   27.478370    3.299550
  N      0.575120   28.573340    3.428270
  C      0.752360   25.613830    2.049310
  N      1.483150   25.294160    1.221930
  C     -1.817320   26.003160    4.868060
  C     -2.623870   24.969460    5.418140
  C     -2.396380   23.718240    4.674300
  O     -2.928290   22.651250    4.922370
  C     -3.460340   25.186850    6.474190
  C     -3.532830   26.479470    7.040060
  C     -2.732550   27.522520    6.492710
  C     -1.874430   27.264420    5.398510
  C     -2.812480   28.809300    7.062510
  C     -3.642160   29.055760    8.122400
  C     -4.430280   28.027690    8.660340
  C     -4.376560   26.766910    8.130670
  H    -10.413400    1.828000    4.601440
  H    -10.132500    5.558800    4.994750
  H    -10.729040    4.135210    5.888380
  H    -11.806540    5.159700    3.208920
  H    -12.611480    5.326650    4.772590
  H    -12.401830    3.725790    4.052850
  H     -6.098200    0.817850    0.004910
  H     -6.632270   -0.460980    1.110070
  H     -4.330260    1.461030    1.747690
  H     -4.142110   -0.197880    1.162630
  H     -4.885310    0.107700    2.734490
  H     -6.375890    4.742270    1.523380
  H     -5.079060    2.575090   -0.223090
  H     -3.375080    3.566260   -1.882930
  H     -3.567750    8.789300   -0.260280
  H     -1.802400    8.105630   -2.667450
  H      0.061160   10.667380   -4.621250
  H     -0.937780    9.245420   -4.309110
  H      1.425750    8.667410   -4.178390
  H      0.648950    8.447710   -2.597940
  H      1.632140   10.536980   -1.945400
  H      2.832050    9.647220   -2.619310
  H      0.991900   12.270070   -3.651510
  H      0.717340   13.609900   -2.540830
  H      0.294840   14.336790   -4.828300
  H     -1.244670   14.341310   -3.938330
  H     -1.746000   12.258330   -5.005080
  H     -1.261690   13.286290   -6.185190
  H     -2.233450   13.697920    0.193180
  H     -0.554460   15.085280   -1.956400
  H     -2.460570   15.581610    1.446550
  H     -3.852670   17.295780    3.160170
  H     -3.469440   18.785670    4.046640
  H     -2.413060   17.366720    4.198430
  H     -2.396630   21.067290    3.842950
  H     -0.363620   23.765970    1.838390
  H     -4.060440   24.382180    6.872880
  H     -1.285930   28.078520    5.007330
  H     -2.202920   29.597360    6.645040
  H     -3.695610   30.044850    8.552290
  H     -5.080040   28.239560    9.496480
  H     -4.981130   25.970980    8.540900

 Total Charge           Charge          ....    0
 Multiplicity           Mult            ....    1
 Number of Electrons    NEL             ....  516
 Basis Dimension        Dim             .... 1206

ORBITAL ENERGIES
----------------

  NO   OCC          E(Eh)            E(eV)
   0   2.0000     -88.973446     -2421.0906
   1   2.0000     -88.964096     -2420.8361
   2   2.0000     -88.961082     -2420.7541
   3   2.0000     -88.955334     -2420.5977
   4   2.0000     -19.208616      -522.6930
   5   2.0000     -19.186488      -522.0909
   6   2.0000     -19.184276      -522.0307
   7   2.0000     -14.474847      -393.8806
   8   2.0000     -14.451197      -393.2371
   9   2.0000     -14.449466      -393.1899
  10   2.0000     -14.410348      -392.1255
  11   2.0000     -14.404982      -391.9795
  12   2.0000     -14.402047      -391.8996
  13   2.0000     -14.383305      -391.3896
  14   2.0000     -14.379438      -391.2844
  15   2.0000     -10.370457      -282.1945
  16   2.0000     -10.369639      -282.1722
  17   2.0000     -10.359683      -281.9013
  18   2.0000     -10.339395      -281.3492
  19   2.0000     -10.333343      -281.1846
  20   2.0000     -10.330138      -281.0973
  21   2.0000     -10.329228      -281.0726
  22   2.0000     -10.327413      -281.0232
  23   2.0000     -10.326648      -281.0024
  24   2.0000     -10.323135      -280.9068
  25   2.0000     -10.317746      -280.7602
  26   2.0000     -10.316974      -280.7391
  27   2.0000     -10.316598      -280.7289
  28   2.0000     -10.313956      -280.6570
  29   2.0000     -10.313369      -280.6410
  30   2.0000     -10.312287      -280.6116
  31   2.0000     -10.310740      -280.5695
  32   2.0000     -10.309520      -280.5363
  33   2.0000     -10.308775      -280.5160
  34   2.0000     -10.308477      -280.5079
  35   2.0000     -10.308245      -280.5016
  36   2.0000     -10.306120      -280.4438
  37   2.0000     -10.305634      -280.4306
  38   2.0000     -10.305578      -280.4290
  39   2.0000     -10.302316      -280.3403
  40   2.0000     -10.302040      -280.3327
  41   2.0000     -10.300658      -280.2951
  42   2.0000     -10.296585      -280.1843
  43   2.0000     -10.295812      -280.1633
  44   2.0000     -10.293039      -280.0878
  45   2.0000     -10.292757      -280.0802
  46   2.0000     -10.292554      -280.0746
  47   2.0000     -10.292547      -280.0744
  48   2.0000     -10.289761      -279.9986
  49   2.0000     -10.289223      -279.9840
  50   2.0000     -10.289091      -279.9804
  51   2.0000     -10.289042      -279.9791
  52   2.0000     -10.287930      -279.9488
  53   2.0000     -10.287694      -279.9424
  54   2.0000     -10.287135      -279.9272
  55   2.0000     -10.286659      -279.9142
  56   2.0000     -10.283392      -279.8253
  57   2.0000     -10.281990      -279.7872
  58   2.0000     -10.281800      -279.7820
  59   2.0000     -10.280130      -279.7366
  60   2.0000     -10.279547      -279.7207
  61   2.0000     -10.279076      -279.7079
  62   2.0000     -10.278929      -279.7039
  63   2.0000     -10.278379      -279.6889
  64   2.0000     -10.264633      -279.3149
  65   2.0000     -10.263036      -279.2714
  66   2.0000     -10.261040      -279.2171
  67   2.0000     -10.257290      -279.1150
  68   2.0000     -10.257162      -279.1116
  69   2.0000     -10.256914      -279.1048
  70   2.0000      -8.068977      -219.5680
  71   2.0000      -8.059072      -219.2985
  72   2.0000      -8.055963      -219.2139
  73   2.0000      -8.051181      -219.0838
  74   2.0000      -6.038127      -164.3058
  75   2.0000      -6.034155      -164.1977
  76   2.0000      -6.031133      -164.1155
  77   2.0000      -6.028696      -164.0492
  78   2.0000      -6.025539      -163.9633
  79   2.0000      -6.024667      -163.9395
  80   2.0000      -6.021542      -163.8545
  81   2.0000      -6.020491      -163.8259
  82   2.0000      -6.020270      -163.8199
  83   2.0000      -6.017417      -163.7422
  84   2.0000      -6.016533      -163.7182
  85   2.0000      -6.013250      -163.6288
  86   2.0000      -1.128308       -30.7028
  87   2.0000      -1.122233       -30.5375
  88   2.0000      -1.121588       -30.5200
  89   2.0000      -1.103148       -30.0182
  90   2.0000      -1.058930       -28.8149
  91   2.0000      -1.049884       -28.5688
  92   2.0000      -1.012935       -27.5634
  93   2.0000      -1.007379       -27.4122
  94   2.0000      -0.993932       -27.0463
  95   2.0000      -0.989123       -26.9154
  96   2.0000      -0.988861       -26.9083
  97   2.0000      -0.984015       -26.7764
  98   2.0000      -0.982763       -26.7423
  99   2.0000      -0.980936       -26.6926
 100   2.0000      -0.963343       -26.2139
 101   2.0000      -0.961858       -26.1735
 102   2.0000      -0.958725       -26.0882
 103   2.0000      -0.927740       -25.2451
 104   2.0000      -0.924731       -25.1632
 105   2.0000      -0.918181       -24.9850
 106   2.0000      -0.913166       -24.8485
 107   2.0000      -0.902796       -24.5663
 108   2.0000      -0.892075       -24.2746
 109   2.0000      -0.881668       -23.9914
 110   2.0000      -0.874477       -23.7957
 111   2.0000      -0.872541       -23.7430
 112   2.0000      -0.868403       -23.6305
 113   2.0000      -0.865335       -23.5470
 114   2.0000      -0.861001       -23.4290
 115   2.0000      -0.851850       -23.1800
 116   2.0000      -0.845739       -23.0137
 117   2.0000      -0.840702       -22.8767
 118   2.0000      -0.833460       -22.6796
 119   2.0000      -0.820010       -22.3136
 120   2.0000      -0.818916       -22.2838
 121   2.0000      -0.810081       -22.0434
 122   2.0000      -0.805275       -21.9126
 123   2.0000      -0.797132       -21.6911
 124   2.0000      -0.781669       -21.2703
 125   2.0000      -0.777317       -21.1519
 126   2.0000      -0.769097       -20.9282
 127   2.0000      -0.761578       -20.7236
 128   2.0000      -0.759332       -20.6625
 129   2.0000      -0.752562       -20.4782
 130   2.0000      -0.740934       -20.1618
 131   2.0000      -0.718496       -19.5513
 132   2.0000      -0.712564       -19.3899
 133   2.0000      -0.711264       -19.3545
 134   2.0000      -0.701261       -19.0823
 135   2.0000      -0.695996       -18.9390
 136   2.0000      -0.694106       -18.8876
 137   2.0000      -0.690007       -18.7760
 138   2.0000      -0.685268       -18.6471
 139   2.0000      -0.677733       -18.4421
 140   2.0000      -0.675997       -18.3948
 141   2.0000      -0.670418       -18.2430
 142   2.0000      -0.657476       -17.8908
 143   2.0000      -0.654764       -17.8170
 144   2.0000      -0.650666       -17.7055
 145   2.0000      -0.650085       -17.6897
 146   2.0000      -0.644330       -17.5331
 147   2.0000      -0.634361       -17.2618
 148   2.0000      -0.627689       -17.0803
 149   2.0000      -0.621636       -16.9156
 150   2.0000      -0.613167       -16.6851
 151   2.0000      -0.605162       -16.4673
 152   2.0000      -0.600704       -16.3460
 153   2.0000      -0.597734       -16.2652
 154   2.0000      -0.593758       -16.1570
 155   2.0000      -0.592701       -16.1282
 156   2.0000      -0.585470       -15.9314
 157   2.0000      -0.583050       -15.8656
 158   2.0000      -0.580876       -15.8064
 159   2.0000      -0.574362       -15.6292
 160   2.0000      -0.573463       -15.6047
 161   2.0000      -0.572235       -15.5713
 162   2.0000      -0.569835       -15.5060
 163   2.0000      -0.568131       -15.4596
 164   2.0000      -0.562192       -15.2980
 165   2.0000      -0.559537       -15.2258
 166   2.0000      -0.552023       -15.0213
 167   2.0000      -0.548148       -14.9159
 168   2.0000      -0.544651       -14.8207
 169   2.0000      -0.539818       -14.6892
 170   2.0000      -0.538747       -14.6601
 171   2.0000      -0.536573       -14.6009
 172   2.0000      -0.535434       -14.5699
 173   2.0000      -0.528719       -14.3872
 174   2.0000      -0.527680       -14.3589
 175   2.0000      -0.527274       -14.3479
 176   2.0000      -0.526140       -14.3170
 177   2.0000      -0.519227       -14.1289
 178   2.0000      -0.515711       -14.0332
 179   2.0000      -0.514179       -13.9915
 180   2.0000      -0.513608       -13.9760
 181   2.0000      -0.513137       -13.9632
 182   2.0000      -0.510849       -13.9009
 183   2.0000      -0.508562       -13.8387
 184   2.0000      -0.507446       -13.8083
 185   2.0000      -0.507036       -13.7972
 186   2.0000      -0.503023       -13.6880
 187   2.0000      -0.499352       -13.5880
 188   2.0000      -0.496034       -13.4978
 189   2.0000      -0.495643       -13.4871
 190   2.0000      -0.492374       -13.3982
 191   2.0000      -0.490106       -13.3365
 192   2.0000      -0.488527       -13.2935
 193   2.0000      -0.486899       -13.2492
 194   2.0000      -0.485737       -13.2176
 195   2.0000      -0.482320       -13.1246
 196   2.0000      -0.480393       -13.0722
 197   2.0000      -0.475165       -12.9299
 198   2.0000      -0.471416       -12.8279
 199   2.0000      -0.471070       -12.8185
 200   2.0000      -0.469370       -12.7722
 201   2.0000      -0.465914       -12.6782
 202   2.0000      -0.465483       -12.6664
 203   2.0000      -0.463463       -12.6115
 204   2.0000      -0.456350       -12.4179
 205   2.0000      -0.455734       -12.4012
 206   2.0000      -0.452566       -12.3149
 207   2.0000      -0.451746       -12.2926
 208   2.0000      -0.450514       -12.2591
 209   2.0000      -0.448871       -12.2144
 210   2.0000      -0.448388       -12.2013
 211   2.0000      -0.447111       -12.1665
 212   2.0000      -0.441316       -12.0088
 213   2.0000      -0.440543       -11.9878
 214   2.0000      -0.437905       -11.9160
 215   2.0000      -0.435340       -11.8462
 216   2.0000      -0.434411       -11.8209
 217   2.0000      -0.432853       -11.7785
 218   2.0000      -0.431860       -11.7515
 219   2.0000      -0.431383       -11.7385
 220   2.0000      -0.430857       -11.7242
 221   2.0000      -0.429224       -11.6798
 222   2.0000      -0.428403       -11.6574
 223   2.0000      -0.424997       -11.5648
 224   2.0000      -0.424080       -11.5398
 225   2.0000      -0.420348       -11.4382
 226   2.0000      -0.419859       -11.4249
 227   2.0000      -0.418194       -11.3796
 228   2.0000      -0.415225       -11.2989
 229   2.0000      -0.412002       -11.2112
 230   2.0000      -0.409546       -11.1443
 231   2.0000      -0.408096       -11.1049
 232   2.0000      -0.407773       -11.0961
 233   2.0000      -0.402412       -10.9502
 234   2.0000      -0.397195       -10.8082
 235   2.0000      -0.396592       -10.7918
 236   2.0000      -0.393780       -10.7153
 237   2.0000      -0.390494       -10.6259
 238   2.0000      -0.373897       -10.1743
 239   2.0000      -0.366759        -9.9800
 240   2.0000      -0.352893        -9.6027
 241   2.0000      -0.343104        -9.3363
 242   2.0000      -0.337584        -9.1861
 243   2.0000      -0.336988        -9.1699
 244   2.0000      -0.330880        -9.0037
 245   2.0000      -0.326823        -8.8933
 246   2.0000      -0.326075        -8.8729
 247   2.0000      -0.319696        -8.6994
 248   2.0000      -0.311917        -8.4877
 249   2.0000      -0.310178        -8.4404
 250   2.0000      -0.309121        -8.4116
 251   2.0000      -0.302229        -8.2241
 252   2.0000      -0.292970        -7.9721
 253   2.0000      -0.285904        -7.7799
 254   2.0000      -0.281354        -7.6560
 255   2.0000      -0.267860        -7.2889
 256   2.0000      -0.245240        -6.6733
 257   2.0000      -0.229184        -6.2364
 258   0.0000      -0.093382        -2.5411
 259   0.0000      -0.079603        -2.1661
 260   0.0000      -0.056335        -1.5330
 261   0.0000      -0.048086        -1.3085
 262   0.0000      -0.027364        -0.7446

MULLIKEN ATOMIC CHARGES
-----------------------
   0 C :    0.044858
   1 N :   -0.266202
   2 C :    0.113617
   3 C :   -0.003043
   4 C :    0.158940
   5 O :   -0.200617
   6 C :   -0.076048
   7 C :    0.005058
   8 C :    0.164176
   9 O :   -0.189208
  10 N :   -0.278238
  11 C :    0.099461
  12 C :   -0.003397
  13 C :    0.134151
  14 C :   -0.056522
  15 C :    0.048841
  16 C :   -0.050155
  17 S :    0.149225
  18 C :   -0.043713
  19 C :   -0.075045
  20 C :    0.012105
  21 C :   -0.174860
  22 N :    0.105664
  23 C :    0.021803
  24 C :   -0.000266
  25 C :   -0.094882
  26 S :    0.098717
  27 C :   -0.100453
  28 C :    0.100516
  29 C :    0.098050
  30 N :   -0.229851
  31 C :   -0.103251
  32 C :    0.095818
  33 C :    0.087141
  34 N :   -0.221026
  35 C :   -0.111610
  36 C :    0.060748
  37 C :    0.041229
  38 C :   -0.077232
  39 S :    0.147243
  40 C :   -0.126119
  41 C :    0.159460
  42 C :   -0.084761
  43 N :   -0.170646
  44 C :    0.122886
  45 C :    0.147759
  46 C :   -0.093487
  47 S :    0.154828
  48 C :   -0.117945
  49 C :   -0.055401
  50 C :    0.039388
  51 C :   -0.102503
  52 C :    0.325917
  53 C :   -0.365790
  54 C :   -0.184381
  55 N :    0.140034
  56 C :   -0.193172
  57 N :    0.145405
  58 C :    0.043563
  59 C :    0.003809
  60 C :    0.159200
  61 O :   -0.175112
  62 C :   -0.087809
  63 C :    0.100211
  64 C :    0.094660
  65 C :   -0.082539
  66 C :   -0.018977
  67 C :    0.035400
  68 C :    0.034345
  69 C :   -0.018348
  70 H :    0.015602
  71 H :    0.040391
  72 H :    0.017113
  73 H :    0.030473
  74 H :    0.022930
  75 H :    0.015300
  76 H :    0.022368
  77 H :    0.044798
  78 H :    0.022235
  79 H :    0.020852
  80 H :    0.027115
  81 H :    0.013692
  82 H :   -0.015017
  83 H :   -0.005842
  84 H :   -0.011812
  85 H :    0.007887
  86 H :    0.022618
  87 H :    0.014036
  88 H :    0.012778
  89 H :   -0.008547
  90 H :    0.100586
  91 H :    0.096906
  92 H :    0.024440
  93 H :    0.003247
  94 H :    0.007967
  95 H :   -0.006365
  96 H :    0.102387
  97 H :    0.096659
  98 H :   -0.021757
  99 H :   -0.017800
 100 H :   -0.023469
 101 H :    0.040237
 102 H :    0.053591
 103 H :    0.044195
 104 H :    0.004847
 105 H :    0.003761
 106 H :   -0.020262
 107 H :   -0.011250
 108 H :   -0.010439
 109 H :   -0.008212
 110 H :   -0.008203
 111 H :   -0.021655
Sum of atomic charges:   -0.0000000

LOEWDIN ATOMIC CHARGES
----------------------
   0 C :    0.094785
   1 N :   -0.003621
   2 C :    0.037856
   3 C :   -0.060888
   4 C :    0.075863
   5 O :   -0.203038
   6 C :   -0.122624
   7 C :   -0.132692
   8 C :    0.084101
   9 O :   -0.191170
  10 N :   -0.013812
  11 C :    0.033353
  12 C :   -0.063821
  13 C :    0.078262
  14 C :   -0.045062
  15 C :   -0.014737
  16 C :   -0.174886
  17 S :    0.466144
  18 C :   -0.122465
  19 C :   -0.122300
  20 C :   -0.014795
  21 C :   -0.027065
  22 N :   -0.069276
  23 C :   -0.070721
  24 C :   -0.004505
  25 C :   -0.182281
  26 S :    0.422206
  27 C :   -0.037447
  28 C :   -0.038604
  29 C :    0.028565
  30 N :   -0.114208
  31 C :   -0.054141
  32 C :   -0.038252
  33 C :    0.022660
  34 N :   -0.110625
  35 C :   -0.161175
  36 C :   -0.034673
  37 C :   -0.047706
  38 C :   -0.140931
  39 S :    0.423517
  40 C :   -0.231395
  41 C :    0.004664
  42 C :   -0.082960
  43 N :    0.026533
  44 C :    0.040974
  45 C :   -0.020419
  46 C :   -0.195727
  47 S :    0.432095
  48 C :   -0.173371
  49 C :   -0.023448
  50 C :    0.046553
  51 C :   -0.111501
  52 C :    0.077941
  53 C :   -0.151576
  54 C :   -0.016761
  55 N :   -0.064239
  56 C :   -0.025506
  57 N :   -0.058832
  58 C :   -0.024958
  59 C :   -0.053031
  60 C :    0.087934
  61 O :   -0.161289
  62 C :    0.026456
  63 C :   -0.009674
  64 C :   -0.007539
  65 C :    0.017317
  66 C :   -0.005720
  67 C :   -0.016593
  68 C :   -0.015409
  69 C :   -0.011915
  70 H :    0.032754
  71 H :    0.035835
  72 H :    0.024201
  73 H :    0.031724
  74 H :    0.029802
  75 H :    0.022364
  76 H :    0.018252
  77 H :    0.037911
  78 H :    0.021672
  79 H :    0.029921
  80 H :    0.032324
  81 H :    0.038348
  82 H :    0.035499
  83 H :    0.039211
  84 H :    0.023005
  85 H :    0.039761
  86 H :    0.033059
  87 H :    0.032989
  88 H :    0.024113
  89 H :   -0.000079
  90 H :    0.053074
  91 H :    0.057206
  92 H :    0.034592
  93 H :    0.027388
  94 H :    0.021217
  95 H :   -0.001477
  96 H :    0.054471
  97 H :    0.057499
  98 H :    0.025893
  99 H :    0.026112
 100 H :    0.029419
 101 H :    0.032949
 102 H :    0.041752
 103 H :    0.030643
 104 H :    0.033481
 105 H :    0.042653
 106 H :    0.035975
 107 H :    0.038351
 108 H :    0.034286
 109 H :    0.031898
 110 H :    0.031380
 111 H :    0.030182

  Mayer bond orders larger than 0.100000
B(  0-C ,  1-N ) :   1.1961 B(  0-C ,  7-C ) :   1.4537 B(  0-C , 70-H ) :   0.9895
B(  1-N ,  2-C ) :   0.9434 B(  1-N ,  4-C ) :   1.0295 B(  2-C ,  3-C ) :   1.1191
B(  2-C , 71-H ) :   0.9342 B(  2-C , 72-H ) :   0.9539 B(  3-C , 73-H ) :   0.9676
B(  3-C , 74-H ) :   0.9688 B(  3-C , 75-H ) :   0.9690 B(  4-C ,  5-O ) :   2.1164
B(  4-C ,  6-C ) :   0.9960 B(  6-C ,  7-C ) :   1.1913 B(  6-C , 13-C ) :   1.3899
B(  7-C ,  8-C ) :   0.9550 B(  8-C ,  9-O ) :   2.1644 B(  8-C , 10-N ) :   1.0170
B( 10-N , 11-C ) :   0.9480 B( 10-N , 13-C ) :   1.1576 B( 11-C , 12-C ) :   1.1148
B( 11-C , 76-H ) :   0.9509 B( 11-C , 77-H ) :   0.9219 B( 12-C , 78-H ) :   0.9683
B( 12-C , 79-H ) :   0.9679 B( 12-C , 80-H ) :   0.9627 B( 13-C , 14-C ) :   1.1915
B( 14-C , 15-C ) :   1.5735 B( 14-C , 81-H ) :   0.9437 B( 15-C , 16-C ) :   1.1622
B( 15-C , 82-H ) :   0.9793 B( 16-C , 17-S ) :   1.0912 B( 16-C , 20-C ) :   1.4616
B( 17-S , 18-C ) :   1.1423 B( 18-C , 19-C ) :   1.4331 B( 18-C , 23-C ) :   1.1730
B( 19-C , 20-C ) :   1.2772 B( 19-C , 21-C ) :   1.1187 B( 20-C , 83-H ) :   1.0085
B( 21-C , 22-N ) :   2.9691 B( 23-C , 24-C ) :   1.6255 B( 23-C , 84-H ) :   0.9479
B( 24-C , 25-C ) :   1.1922 B( 24-C , 85-H ) :   0.9523 B( 25-C , 26-S ) :   1.0956
B( 25-C , 27-C ) :   1.4457 B( 26-S , 35-C ) :   1.1201 B( 27-C , 28-C ) :   1.0869
B( 27-C , 31-C ) :   1.3192 B( 28-C , 29-C ) :   1.0685 B( 28-C , 86-H ) :   0.8861
B( 28-C , 87-H ) :   0.9086 B( 29-C , 30-N ) :   1.0918 B( 29-C , 88-H ) :   0.9464
B( 29-C , 89-H ) :   0.9471 B( 30-N , 90-H ) :   0.9651 B( 30-N , 91-H ) :   0.9701
B( 31-C , 32-C ) :   1.0810 B( 31-C , 35-C ) :   1.4696 B( 32-C , 33-C ) :   1.0674
B( 32-C , 92-H ) :   0.8865 B( 32-C , 93-H ) :   0.9121 B( 33-C , 34-N ) :   1.1034
B( 33-C , 94-H ) :   0.9467 B( 33-C , 95-H ) :   0.9449 B( 34-N , 96-H ) :   0.9643
B( 34-N , 97-H ) :   0.9685 B( 35-C , 36-C ) :   1.1484 B( 36-C , 37-C ) :   1.6763
B( 36-C , 98-H ) :   0.9417 B( 37-C , 38-C ) :   1.1402 B( 37-C , 99-H ) :   0.9516
B( 38-C , 39-S ) :   1.1099 B( 38-C , 42-C ) :   1.4666 B( 39-S , 40-C ) :   1.0242
B( 40-C , 41-C ) :   1.3699 B( 40-C , 46-C ) :   1.4152 B( 41-C , 42-C ) :   1.2381
B( 41-C , 43-N ) :   1.1675 B( 42-C ,100-H ) :   1.0053 B( 43-N , 44-C ) :   0.9647
B( 43-N , 45-C ) :   1.1269 B( 44-C ,101-H ) :   0.9708 B( 44-C ,102-H ) :   0.9724
B( 44-C ,103-H ) :   0.9734 B( 45-C , 46-C ) :   1.3281 B( 45-C , 49-C ) :   1.2658
B( 46-C , 47-S ) :   1.0677 B( 47-S , 48-C ) :   1.0588 B( 48-C , 49-C ) :   1.3834
B( 48-C , 50-C ) :   1.2780 B( 49-C ,104-H ) :   0.9825 B( 50-C , 51-C ) :   1.5269
B( 50-C ,105-H ) :   0.9094 B( 51-C , 52-C ) :   1.1002 B( 51-C , 60-C ) :   0.9549
B( 52-C , 53-C ) :   1.6009 B( 52-C , 58-C ) :   0.9753 B( 53-C , 54-C ) :   1.1533
B( 53-C , 56-C ) :   1.1397 B( 54-C , 55-N ) :   2.9587 B( 56-C , 57-N ) :   2.9679
B( 58-C , 59-C ) :   1.2186 B( 58-C , 65-C ) :   1.4550 B( 59-C , 60-C ) :   0.9566
B( 59-C , 62-C ) :   1.4705 B( 60-C , 61-O ) :   2.1367 B( 61-O ,104-H ) :   0.1060
B( 62-C , 63-C ) :   1.1743 B( 62-C ,106-H ) :   1.0162 B( 63-C , 64-C ) :   1.2604
B( 63-C , 69-C ) :   1.2428 B( 64-C , 65-C ) :   1.1994 B( 64-C , 66-C ) :   1.2426
B( 65-C ,107-H ) :   0.9895 B( 66-C , 67-C ) :   1.4863 B( 66-C ,108-H ) :   0.9974
B( 67-C , 68-C ) :   1.2601 B( 67-C ,109-H ) :   0.9888 B( 68-C , 69-C ) :   1.4879
B( 68-C ,110-H ) :   0.9893 B( 69-C ,111-H ) :   0.9975

-----------------------------------------------------------------------------
         ABSORPTION SPECTRUM VIA TRANSITION ELECTRIC DIPOLE MOMENTS
-----------------------------------------------------------------------------
State   Energy  Wavelength   fosc         T2         TX        TY        TZ
        (cm-1)    (nm)                  (au**2)     (au)      (au)      (au)
-----------------------------------------------------------------------------
   0   15915.6    628.3   2.660411247  55.03020   1.73554   7.14081   1.01340
   1   19553.1    511.4   0.825944594  13.90628   2.06377  -1.21815  -2.85714
   2   22245.5    449.5   0.125757958   1.86109  -0.27374   1.26749   0.42383
   3   24197.4    413.3   0.076524921   1.04114  -0.55684   0.78376   0.34174
   4   25087.1    398.6   0.171636088   2.25234   0.76450  -0.55084  -1.16810
   5   25414.4    393.5   0.118515844   1.53523  -0.74274   0.21702   0.96772
   6   26294.1    380.3   0.022153812   0.27737   0.17625  -0.45532  -0.19747
   7   27489.6    363.8   0.178569814   2.13853  -0.82056   0.23778   1.18688
   8   28160.2    355.1   0.168377461   1.96844  -0.61089  -1.21551   0.34322
   9   28666.8    348.8   0.040148915   0.46107  -0.07811  -0.67148  -0.06390
  10   29075.5    343.9   0.000056078   0.00063  -0.02234   0.01113   0.00344
  11   29181.2    342.7   0.002106534   0.02377   0.01307   0.13875  -0.06591
  12   29449.9    339.6   0.067215738   0.75138  -0.16421   0.83495   0.16516
  13   29822.1    335.3   0.029127184   0.32154  -0.42194  -0.11831   0.35987
  14   30509.4    327.8   0.063890284   0.68941  -0.32217  -0.76518  -0.01085
  15   30709.3    325.6   0.000627451   0.00673  -0.06985  -0.01734  -0.03932
  16   31624.5    316.2   0.013006375   0.13540   0.24654  -0.06918  -0.26425
  17   32074.1    311.8   0.005482029   0.05627  -0.05943  -0.22941   0.01043
  18   32381.7    308.8   0.007678707   0.07807  -0.02877  -0.22623   0.16143
  19   33274.5    300.5   0.369239252   3.65319   1.03177  -0.83442  -1.37564
  20   33893.0    295.0   0.008281536   0.08044  -0.12621   0.09374   0.23606
  21   34053.7    293.7   0.010623714   0.10270  -0.15505   0.16930   0.22361
  22   34464.0    290.2   0.414627530   3.96066  -1.26265   0.14483   1.53147
  23   34778.0    287.5   0.000293094   0.00277   0.01862   0.03555   0.03412
  24   35026.1    285.5   0.058165222   0.54670  -0.42785   0.21644   0.56285
  25   35571.6    281.1   0.060416626   0.55915  -0.20271  -0.70949   0.12117
  26   35666.8    280.4   0.006430157   0.05935   0.07949  -0.15583  -0.16956
  27   35842.7    279.0   0.011197112   0.10284   0.06270   0.31191   0.04028
  28   36279.0    275.6   0.122218772   1.10907   0.74894   0.03187  -0.73969
  29   37591.8    266.0   0.085786541   0.75128   0.23698   0.81821  -0.16014
  30   37797.2    264.6   0.009277533   0.08081   0.19999   0.13309  -0.15197
  31   37899.2    263.9   0.043806190   0.38052   0.35853  -0.31816  -0.38827
  32   37943.0    263.6   0.012997080   0.11277   0.18603   0.24283  -0.13855
  33   38537.1    259.5   0.000205913   0.00176   0.00399  -0.03186  -0.02699
  34   38604.7    259.0   0.004570109   0.03897  -0.09932   0.07383   0.15381
  35   38787.5    257.8   0.009523568   0.08083  -0.12069  -0.13576   0.21871
  36   39186.6    255.2   0.114896631   0.96526   0.67373   0.43471  -0.56778
  37   39382.1    253.9   0.107134225   0.89558  -0.60713  -0.52405   0.50235
  38   39680.6    252.0   0.063813848   0.52944  -0.41478  -0.55511   0.22190
  39   40011.0    249.9   0.080390121   0.66145   0.36267  -0.36887  -0.62758
  40   40290.6    248.2   0.010267028   0.08389  -0.16127  -0.22011   0.09714

FINAL SINGLE POINT ENERGY     -4373.527332271858

DIPOLE MOMENT
-------------
                                X             Y             Z
Electronic contribution:     15.96664      84.31170      14.68477
Nuclear contribution   :    -18.48173     -86.25639     -12.94883
                        -----------------------------------------
Total Dipole Moment    :     -2.51508      -1.94469       1.73594
                        -----------------------------------------
Magnitude (a.u.)       :      3.62228
Magnitude (Debye)      :      9.20712

Rotational constants in cm-1:     0.001183     0.000192     0.000167
Rotational constants in MHz :    35.476416     5.767810     5.009750

                             ****ORCA TERMINATED NORMALLY****
TOTAL RUN TIME: 0 days 0 hours 9 minutes 35 seconds 495 msec
