                         Program Version 4.2.0 -  RELEASE  -
|  1> # ORCA input file
|  2> # SCF done       -169.061690778347          0.000939415791
|  3> ! CAM-B3LYP def2-SVP def2/J RIJCOSX Grid4 TightSCF
|  4> %maxcore 5000
|  5> %tddft
|  6>     Mode sTDDFT
|  7>     Ethresh 5.0
|  8>     maxcore 5000
|  9> end
| 10>
| 11> %pal
| 12>   nprocs 6
| 13>   end
| 14> * xyz 0 1
| 15>    C       -0.55857        -1.28612        -0.72822
| 16>    C       -0.01957        -0.03571        -0.73782
| 17>    C        0.91805         0.53087         0.27193
| 18>    F        1.15806        -0.33687         1.26397
| 19>    F        2.11179         0.85295        -0.25428
| 20>    F        0.44684         1.65081         0.84462
| 21>    S       -0.52132         0.91724        -2.08688
| 22>    C       -1.48610        -0.40294        -2.65476
| 23>    C       -2.23516        -0.29140        -3.82725
| 24>    N       -2.85849        -0.22109        -4.78874
| 25>    C       -1.41593        -1.52431        -1.83273
| 26>    C       -2.13985        -2.72876        -2.11628
| 27>    C       -2.09619        -3.84719        -1.36205
| 28>    C       -2.81971        -5.04130        -1.64183
| 29>    S       -2.64837        -6.40620        -0.57064
| 30>    C       -3.75215        -7.36746        -1.51010
| 31>    C       -4.21491        -6.63043        -2.60382
| 32>    C       -3.68910        -5.33132        -2.67100
| 33>    C       -5.11817        -7.13471        -3.55809
| 34>    N       -5.84817        -7.50535        -4.36022
| 35>    C       -4.09581        -8.69447        -1.17251
| 36>    C       -3.58071        -9.34771        -0.09570
| 37>    C       -3.92392       -10.67528         0.24483
| 38>    N       -3.38545       -11.35532         1.31637
| 39>    C       -2.36311       -10.87756         2.21486
| 40>    C       -0.97487       -10.93542         1.58202
| 41>    C       -3.90338       -12.65410         1.43026
| 42>    O       -3.56889       -13.43637         2.30035
| 43>    C       -4.84528       -12.76217         0.33953
| 44>    C       -4.83274       -11.53473        -0.36860
| 45>    C       -5.78815       -11.63207        -1.44836
| 46>    O       -6.12565       -10.84643        -2.31054
| 47>    N       -6.32960       -12.92337        -1.31662
| 48>    C       -7.29852       -13.42134        -2.26238
| 49>    C       -6.65845       -14.33493        -3.30476
| 50>    C       -5.77486       -13.61083        -0.26166
| 51>    C       -6.14244       -14.93069         0.10017
| 52>    C       -5.54343       -15.59162         1.12399
| 53>    C       -5.86510       -16.91080         1.53786
| 54>    S       -4.93562       -17.65309         2.80999
| 55>    C       -5.85708       -19.11460         2.72634
| 56>    C       -6.85127       -19.00879         1.75112
| 57>    C       -6.84585       -17.77079         1.08755
| 58>    C       -7.80369       -19.99573         1.44653
| 59>    N       -8.61286       -20.76237         1.17264
| 60>    C       -5.51537       -20.19512         3.59245
| 61>    C       -6.11064       -21.40192         3.60027
| 62>    C       -5.75098       -22.50047         4.46895
| 63>    C       -4.47433       -22.84321         4.86212
| 64>    C       -3.18140       -22.22521         4.46003
| 65>    F       -3.15666       -21.85306         3.16977
| 66>    F       -2.87866       -21.11870         5.17204
| 67>    F       -2.15189       -23.06435         4.63370
| 68>    S       -4.41589       -24.23533         5.87507
| 69>    C       -6.14076       -24.38535         5.78037
| 70>    C       -6.75539       -25.40678         6.51100
| 71>    N       -7.21994       -26.25257         7.13228
| 72>    C       -6.72540       -23.41143         4.99313
| 73>    C       -8.14716       -23.26891         4.74148
| 74>    C       -9.05533       -24.22853         4.87708
| 75>    H       -0.34826        -2.00349         0.04336
| 76>    H       -2.75281        -2.70069        -3.00619
| 77>    H       -1.47993        -3.87805        -0.47433
| 78>    H       -3.94576        -4.63804        -3.45152
| 79>    H       -4.80631        -9.19027        -1.82303
| 80>    H       -2.87160        -8.83086         0.53799
| 81>    H       -2.39596       -11.53801         3.08597
| 82>    H       -2.60341        -9.85982         2.53562
| 83>    H       -0.73393       -11.96042         1.31142
| 84>    H       -0.23241       -10.57960         2.29086
| 85>    H       -0.92735       -10.32084         0.68572
| 86>    H       -7.71648       -12.53991        -2.75671
| 87>    H       -8.10051       -13.93870        -1.72823
| 88>    H       -5.90169       -13.78746        -3.86076
| 89>    H       -7.41489       -14.68499        -4.00149
| 90>    H       -6.18755       -15.19596        -2.83511
| 91>    H       -6.92436       -15.40847        -0.47136
| 92>    H       -4.75513       -15.09826         1.67754
| 93>    H       -7.54853       -17.52770         0.31088
| 94>    H       -4.71865       -19.97393         4.28848
| 95>    H       -6.93792       -21.59618         2.93375
| 96>    H       -8.45279       -22.28933         4.40081
| 97>    H       -8.80301       -25.22664         5.18932
| 98>    H      -10.09279       -24.03851         4.66523
| 99> *
|100>
|101>                          ****END OF INPUT****

CARTESIAN COORDINATES (ANGSTROEM)
---------------------------------
  C     -0.558570   -1.286120   -0.728220
  C     -0.019570   -0.035710   -0.737820
  C      0.918050    0.530870    0.271930
  F      1.158060   -0.336870    1.263970
  F      2.111790    0.852950   -0.254280
  F      0.446840    1.650810    0.844620
  S     -0.521320    0.917240   -2.086880
  C     -1.486100   -0.402940   -2.654760
  C     -2.235160   -0.291400   -3.827250
  N     -2.858490   -0.221090   -4.788740
  C     -1.415930   -1.524310   -1.832730
  C     -2.139850   -2.728760   -2.116280
  C     -2.096190   -3.847190   -1.362050
  C     -2.819710   -5.041300   -1.641830
  S     -2.648370   -6.406200   -0.570640
  C     -3.752150   -7.367460   -1.510100
  C     -4.214910   -6.630430   -2.603820
  C     -3.689100   -5.331320   -2.671000
  C     -5.118170   -7.134710   -3.558090
  N     -5.848170   -7.505350   -4.360220
  C     -4.095810   -8.694470   -1.172510
  C     -3.580710   -9.347710   -0.095700
  C     -3.923920  -10.675280    0.244830
  N     -3.385450  -11.355320    1.316370
  C     -2.363110  -10.877560    2.214860
  C     -0.974870  -10.935420    1.582020
  C     -3.903380  -12.654100    1.430260
  O     -3.568890  -13.436370    2.300350
  C     -4.845280  -12.762170    0.339530
  C     -4.832740  -11.534730   -0.368600
  C     -5.788150  -11.632070   -1.448360
  O     -6.125650  -10.846430   -2.310540
  N     -6.329600  -12.923370   -1.316620
  C     -7.298520  -13.421340   -2.262380
  C     -6.658450  -14.334930   -3.304760
  C     -5.774860  -13.610830   -0.261660
  C     -6.142440  -14.930690    0.100170
  C     -5.543430  -15.591620    1.123990
  C     -5.865100  -16.910800    1.537860
  S     -4.935620  -17.653090    2.809990
  C     -5.857080  -19.114600    2.726340
  C     -6.851270  -19.008790    1.751120
  C     -6.845850  -17.770790    1.087550
  C     -7.803690  -19.995730    1.446530
  N     -8.612860  -20.762370    1.172640
  C     -5.515370  -20.195120    3.592450
  C     -6.110640  -21.401920    3.600270
  C     -5.750980  -22.500470    4.468950
  C     -4.474330  -22.843210    4.862120
  C     -3.181400  -22.225210    4.460030
  F     -3.156660  -21.853060    3.169770
  F     -2.878660  -21.118700    5.172040
  F     -2.151890  -23.064350    4.633700
  S     -4.415890  -24.235330    5.875070
  C     -6.140760  -24.385350    5.780370
  C     -6.755390  -25.406780    6.511000
  N     -7.219940  -26.252570    7.132280
  C     -6.725400  -23.411430    4.993130
  C     -8.147160  -23.268910    4.741480
  C     -9.055330  -24.228530    4.877080
  H     -0.348260   -2.003490    0.043360
  H     -2.752810   -2.700690   -3.006190
  H     -1.479930   -3.878050   -0.474330
  H     -3.945760   -4.638040   -3.451520
  H     -4.806310   -9.190270   -1.823030
  H     -2.871600   -8.830860    0.537990
  H     -2.395960  -11.538010    3.085970
  H     -2.603410   -9.859820    2.535620
  H     -0.733930  -11.960420    1.311420
  H     -0.232410  -10.579600    2.290860
  H     -0.927350  -10.320840    0.685720
  H     -7.716480  -12.539910   -2.756710
  H     -8.100510  -13.938700   -1.728230
  H     -5.901690  -13.787460   -3.860760
  H     -7.414890  -14.684990   -4.001490
  H     -6.187550  -15.195960   -2.835110
  H     -6.924360  -15.408470   -0.471360
  H     -4.755130  -15.098260    1.677540
  H     -7.548530  -17.527700    0.310880
  H     -4.718650  -19.973930    4.288480
  H     -6.937920  -21.596180    2.933750
  H     -8.452790  -22.289330    4.400810
  H     -8.803010  -25.226640    5.189320
  H    -10.092790  -24.038510    4.665230

 Total Charge           Charge          ....    0
 Multiplicity           Mult            ....    1
 Number of Electrons    NEL             ....  452
 Basis Dimension        Dim             ....  976

ORBITAL ENERGIES
----------------

  NO   OCC          E(Eh)            E(eV)
   0   2.0000     -89.001993     -2421.8674
   1   2.0000     -88.995962     -2421.7032
   2   2.0000     -88.984791     -2421.3993
   3   2.0000     -88.984143     -2421.3816
   4   2.0000     -24.818731      -675.3520
   5   2.0000     -24.816371      -675.2878
   6   2.0000     -24.812306      -675.1772
   7   2.0000     -24.812250      -675.1756
   8   2.0000     -24.811917      -675.1666
   9   2.0000     -24.811700      -675.1607
  10   2.0000     -19.196356      -522.3594
  11   2.0000     -19.195209      -522.3282
  12   2.0000     -14.458654      -393.4400
  13   2.0000     -14.458330      -393.4311
  14   2.0000     -14.425841      -392.5471
  15   2.0000     -14.420285      -392.3959
  16   2.0000     -14.419704      -392.3801
  17   2.0000     -14.407358      -392.0441
  18   2.0000     -10.541055      -286.8367
  19   2.0000     -10.539444      -286.7929
  20   2.0000     -10.378393      -282.4104
  21   2.0000     -10.378368      -282.4097
  22   2.0000     -10.353310      -281.7279
  23   2.0000     -10.346053      -281.5304
  24   2.0000     -10.346032      -281.5298
  25   2.0000     -10.344794      -281.4962
  26   2.0000     -10.342580      -281.4359
  27   2.0000     -10.339962      -281.3647
  28   2.0000     -10.337084      -281.2863
  29   2.0000     -10.335343      -281.2390
  30   2.0000     -10.331418      -281.1322
  31   2.0000     -10.328755      -281.0597
  32   2.0000     -10.327600      -281.0283
  33   2.0000     -10.327168      -281.0165
  34   2.0000     -10.326874      -281.0085
  35   2.0000     -10.325965      -280.9838
  36   2.0000     -10.321825      -280.8711
  37   2.0000     -10.321305      -280.8570
  38   2.0000     -10.320550      -280.8365
  39   2.0000     -10.319802      -280.8161
  40   2.0000     -10.319542      -280.8090
  41   2.0000     -10.315658      -280.7033
  42   2.0000     -10.314853      -280.6814
  43   2.0000     -10.312704      -280.6229
  44   2.0000     -10.309301      -280.5303
  45   2.0000     -10.309059      -280.5238
  46   2.0000     -10.308736      -280.5150
  47   2.0000     -10.306527      -280.4549
  48   2.0000     -10.305904      -280.4379
  49   2.0000     -10.305563      -280.4286
  50   2.0000     -10.304177      -280.3909
  51   2.0000     -10.303883      -280.3829
  52   2.0000     -10.302934      -280.3571
  53   2.0000     -10.300498      -280.2908
  54   2.0000     -10.290370      -280.0152
  55   2.0000     -10.281411      -279.7714
  56   2.0000     -10.270519      -279.4750
  57   2.0000     -10.267590      -279.3953
  58   2.0000     -10.267283      -279.3870
  59   2.0000     -10.265821      -279.3472
  60   2.0000      -8.097381      -220.3409
  61   2.0000      -8.091117      -220.1705
  62   2.0000      -8.080533      -219.8825
  63   2.0000      -8.079624      -219.8577
  64   2.0000      -6.066776      -165.0854
  65   2.0000      -6.062491      -164.9688
  66   2.0000      -6.060503      -164.9147
  67   2.0000      -6.059302      -164.8820
  68   2.0000      -6.056105      -164.7950
  69   2.0000      -6.053210      -164.7162
  70   2.0000      -6.049562      -164.6170
  71   2.0000      -6.048712      -164.5938
  72   2.0000      -6.045500      -164.5064
  73   2.0000      -6.044829      -164.4882
  74   2.0000      -6.042964      -164.4374
  75   2.0000      -6.041922      -164.4091
  76   2.0000      -1.405363       -38.2419
  77   2.0000      -1.404341       -38.2141
  78   2.0000      -1.309339       -35.6289
  79   2.0000      -1.307783       -35.5866
  80   2.0000      -1.304019       -35.4842
  81   2.0000      -1.302776       -35.4503
  82   2.0000      -1.138721       -30.9862
  83   2.0000      -1.131986       -30.8029
  84   2.0000      -1.068935       -29.0872
  85   2.0000      -1.060806       -28.8660
  86   2.0000      -1.034851       -28.1597
  87   2.0000      -1.029512       -28.0144
  88   2.0000      -1.022968       -27.8364
  89   2.0000      -1.019412       -27.7396
  90   2.0000      -1.003284       -27.3007
  91   2.0000      -0.998971       -27.1834
  92   2.0000      -0.998488       -27.1702
  93   2.0000      -0.986776       -26.8515
  94   2.0000      -0.940577       -25.5944
  95   2.0000      -0.937235       -25.5035
  96   2.0000      -0.932403       -25.3720
  97   2.0000      -0.919354       -25.0169
  98   2.0000      -0.915969       -24.9248
  99   2.0000      -0.913510       -24.8579
 100   2.0000      -0.897476       -24.4216
 101   2.0000      -0.884643       -24.0724
 102   2.0000      -0.881998       -24.0004
 103   2.0000      -0.879955       -23.9448
 104   2.0000      -0.874700       -23.8018
 105   2.0000      -0.864581       -23.5264
 106   2.0000      -0.853293       -23.2193
 107   2.0000      -0.839670       -22.8486
 108   2.0000      -0.828910       -22.5558
 109   2.0000      -0.825899       -22.4739
 110   2.0000      -0.813487       -22.1361
 111   2.0000      -0.803173       -21.8555
 112   2.0000      -0.793563       -21.5940
 113   2.0000      -0.781493       -21.2655
 114   2.0000      -0.766230       -20.8502
 115   2.0000      -0.757746       -20.6193
 116   2.0000      -0.749274       -20.3888
 117   2.0000      -0.742518       -20.2050
 118   2.0000      -0.739705       -20.1284
 119   2.0000      -0.733993       -19.9730
 120   2.0000      -0.719534       -19.5795
 121   2.0000      -0.715818       -19.4784
 122   2.0000      -0.712262       -19.3816
 123   2.0000      -0.704509       -19.1707
 124   2.0000      -0.696515       -18.9531
 125   2.0000      -0.689799       -18.7704
 126   2.0000      -0.687094       -18.6968
 127   2.0000      -0.686554       -18.6821
 128   2.0000      -0.686277       -18.6745
 129   2.0000      -0.685565       -18.6552
 130   2.0000      -0.665113       -18.0986
 131   2.0000      -0.662479       -18.0270
 132   2.0000      -0.656595       -17.8669
 133   2.0000      -0.654412       -17.8075
 134   2.0000      -0.647794       -17.6274
 135   2.0000      -0.635167       -17.2838
 136   2.0000      -0.632763       -17.2184
 137   2.0000      -0.618410       -16.8278
 138   2.0000      -0.609195       -16.5770
 139   2.0000      -0.607551       -16.5323
 140   2.0000      -0.598558       -16.2876
 141   2.0000      -0.595446       -16.2029
 142   2.0000      -0.593927       -16.1616
 143   2.0000      -0.585263       -15.9258
 144   2.0000      -0.584161       -15.8958
 145   2.0000      -0.576586       -15.6897
 146   2.0000      -0.570304       -15.5188
 147   2.0000      -0.564063       -15.3489
 148   2.0000      -0.563694       -15.3389
 149   2.0000      -0.561684       -15.2842
 150   2.0000      -0.560014       -15.2387
 151   2.0000      -0.557748       -15.1771
 152   2.0000      -0.555686       -15.1210
 153   2.0000      -0.549986       -14.9659
 154   2.0000      -0.544459       -14.8155
 155   2.0000      -0.541492       -14.7348
 156   2.0000      -0.539236       -14.6734
 157   2.0000      -0.536875       -14.6091
 158   2.0000      -0.534480       -14.5439
 159   2.0000      -0.534113       -14.5340
 160   2.0000      -0.528056       -14.3691
 161   2.0000      -0.526366       -14.3231
 162   2.0000      -0.522572       -14.2199
 163   2.0000      -0.521353       -14.1867
 164   2.0000      -0.520936       -14.1754
 165   2.0000      -0.520069       -14.1518
 166   2.0000      -0.519313       -14.1312
 167   2.0000      -0.516772       -14.0621
 168   2.0000      -0.514816       -14.0088
 169   2.0000      -0.512587       -13.9482
 170   2.0000      -0.510774       -13.8989
 171   2.0000      -0.506156       -13.7732
 172   2.0000      -0.504333       -13.7236
 173   2.0000      -0.500178       -13.6105
 174   2.0000      -0.499502       -13.5921
 175   2.0000      -0.499284       -13.5862
 176   2.0000      -0.498202       -13.5568
 177   2.0000      -0.492178       -13.3928
 178   2.0000      -0.488871       -13.3028
 179   2.0000      -0.483874       -13.1669
 180   2.0000      -0.481723       -13.1084
 181   2.0000      -0.480352       -13.0710
 182   2.0000      -0.475570       -12.9409
 183   2.0000      -0.469064       -12.7639
 184   2.0000      -0.466796       -12.7022
 185   2.0000      -0.466167       -12.6850
 186   2.0000      -0.462783       -12.5930
 187   2.0000      -0.462571       -12.5872
 188   2.0000      -0.460297       -12.5253
 189   2.0000      -0.456951       -12.4343
 190   2.0000      -0.455512       -12.3951
 191   2.0000      -0.453930       -12.3521
 192   2.0000      -0.453307       -12.3351
 193   2.0000      -0.452705       -12.3187
 194   2.0000      -0.448948       -12.2165
 195   2.0000      -0.447846       -12.1865
 196   2.0000      -0.447640       -12.1809
 197   2.0000      -0.445136       -12.1128
 198   2.0000      -0.444281       -12.0895
 199   2.0000      -0.443757       -12.0753
 200   2.0000      -0.442288       -12.0353
 201   2.0000      -0.438793       -11.9402
 202   2.0000      -0.434253       -11.8166
 203   2.0000      -0.432697       -11.7743
 204   2.0000      -0.429135       -11.6774
 205   2.0000      -0.426039       -11.5931
 206   2.0000      -0.417405       -11.3582
 207   2.0000      -0.416126       -11.3234
 208   2.0000      -0.414043       -11.2667
 209   2.0000      -0.410367       -11.1667
 210   2.0000      -0.410020       -11.1572
 211   2.0000      -0.398706       -10.8493
 212   2.0000      -0.388120       -10.5613
 213   2.0000      -0.372388       -10.1332
 214   2.0000      -0.353257        -9.6126
 215   2.0000      -0.351749        -9.5716
 216   2.0000      -0.346191        -9.4203
 217   2.0000      -0.343203        -9.3390
 218   2.0000      -0.337370        -9.1803
 219   2.0000      -0.337146        -9.1742
 220   2.0000      -0.334969        -9.1150
 221   2.0000      -0.320827        -8.7301
 222   2.0000      -0.313956        -8.5432
 223   2.0000      -0.292754        -7.9662
 224   2.0000      -0.284765        -7.7488
 225   2.0000      -0.237296        -6.4572
 226   0.0000      -0.103474        -2.8157
 227   0.0000      -0.075273        -2.0483
 228   0.0000      -0.059103        -1.6083
 229   0.0000      -0.048756        -1.3267
 230   0.0000      -0.035427        -0.9640

MULLIKEN ATOMIC CHARGES
-----------------------
   0 C :   -0.032094
   1 C :   -0.208605
   2 C :    0.550573
   3 F :   -0.152695
   4 F :   -0.156321
   5 F :   -0.156569
   6 S :    0.256107
   7 C :   -0.294780
   8 C :   -0.184865
   9 N :    0.137257
  10 C :    0.216955
  11 C :   -0.024995
  12 C :    0.077694
  13 C :   -0.066917
  14 S :    0.127317
  15 C :   -0.041288
  16 C :   -0.058111
  17 C :    0.014434
  18 C :   -0.182064
  19 N :    0.149685
  20 C :   -0.003086
  21 C :   -0.037344
  22 C :    0.137710
  23 N :   -0.258538
  24 C :    0.098993
  25 C :    0.005586
  26 C :    0.168687
  27 O :   -0.219841
  28 C :   -0.074254
  29 C :   -0.060685
  30 C :    0.164836
  31 O :   -0.196147
  32 N :   -0.260943
  33 C :    0.097578
  34 C :    0.003532
  35 C :    0.139069
  36 C :   -0.028569
  37 C :    0.082907
  38 C :   -0.078691
  39 S :    0.193232
  40 C :   -0.077692
  41 C :   -0.079824
  42 C :    0.015142
  43 C :   -0.163384
  44 N :    0.115341
  45 C :    0.065223
  46 C :   -0.069768
  47 C :    0.100562
  48 C :   -0.288665
  49 C :    0.550327
  50 F :   -0.152898
  51 F :   -0.160785
  52 F :   -0.153218
  53 S :    0.257343
  54 C :   -0.310714
  55 C :   -0.185012
  56 N :    0.133512
  57 C :    0.187039
  58 C :   -0.046252
  59 C :    0.001759
  60 H :    0.011008
  61 H :    0.010883
  62 H :   -0.016556
  63 H :    0.006992
  64 H :    0.041885
  65 H :   -0.020770
  66 H :    0.044112
  67 H :    0.021488
  68 H :    0.030381
  69 H :    0.023904
  70 H :    0.014578
  71 H :    0.050206
  72 H :    0.022098
  73 H :    0.032890
  74 H :    0.026133
  75 H :    0.014080
  76 H :   -0.027364
  77 H :    0.009128
  78 H :   -0.001412
  79 H :   -0.003523
  80 H :    0.034547
  81 H :    0.009802
  82 H :    0.044537
  83 H :    0.038185
Sum of atomic charges:    0.0000000

LOEWDIN ATOMIC CHARGES
----------------------
   0 C :   -0.023348
   1 C :   -0.222156
   2 C :    0.149847
   3 F :   -0.052490
   4 F :   -0.059884
   5 F :   -0.059411
   6 S :    0.512386
   7 C :   -0.217434
   8 C :   -0.058095
   9 N :   -0.037932
  10 C :   -0.022196
  11 C :   -0.011149
  12 C :   -0.024893
  13 C :   -0.161754
  14 S :    0.451707
  15 C :   -0.141922
  16 C :   -0.088849
  17 C :   -0.019068
  18 C :   -0.033961
  19 N :   -0.035727
  20 C :    0.005052
  21 C :   -0.044905
  22 C :    0.067086
  23 N :   -0.000219
  24 C :    0.036240
  25 C :   -0.060921
  26 C :    0.078594
  27 O :   -0.208937
  28 C :   -0.124523
  29 C :   -0.113844
  30 C :    0.080421
  31 O :   -0.186847
  32 N :    0.000043
  33 C :    0.036465
  34 C :   -0.060659
  35 C :    0.079125
  36 C :   -0.044633
  37 C :    0.010744
  38 C :   -0.171429
  39 S :    0.496538
  40 C :   -0.139780
  41 C :   -0.104825
  42 C :   -0.014765
  43 C :   -0.027031
  44 N :   -0.056992
  45 C :   -0.029896
  46 C :   -0.012574
  47 C :   -0.031935
  48 C :   -0.233805
  49 C :    0.152688
  50 F :   -0.052586
  51 F :   -0.064397
  52 F :   -0.054263
  53 S :    0.519987
  54 C :   -0.214388
  55 C :   -0.054424
  56 N :   -0.041819
  57 C :   -0.011461
  58 C :   -0.035515
  59 C :    0.002470
  60 H :    0.039013
  61 H :    0.039025
  62 H :    0.028721
  63 H :    0.042335
  64 H :    0.048100
  65 H :    0.021538
  66 H :    0.038170
  67 H :    0.022123
  68 H :    0.032765
  69 H :    0.030875
  70 H :    0.021489
  71 H :    0.040595
  72 H :    0.022287
  73 H :    0.033715
  74 H :    0.031924
  75 H :    0.021092
  76 H :    0.028168
  77 H :    0.037042
  78 H :    0.038683
  79 H :    0.027642
  80 H :    0.040927
  81 H :    0.036015
  82 H :    0.031719
  83 H :    0.034285

  Mayer bond orders larger than 0.100000
B(  0-C ,  1-C ) :   1.6089 B(  0-C , 10-C ) :   1.1929 B(  0-C , 60-H ) :   0.9934
B(  1-C ,  2-C ) :   0.9431 B(  1-C ,  6-S ) :   1.1306 B(  1-C ,  7-C ) :   0.1163
B(  2-C ,  3-F ) :   1.1737 B(  2-C ,  4-F ) :   1.1836 B(  2-C ,  5-F ) :   1.1824
B(  6-S ,  7-C ) :   1.1469 B(  7-C ,  8-C ) :   1.2113 B(  7-C , 10-C ) :   1.4539
B(  8-C ,  9-N ) :   2.9890 B( 10-C , 11-C ) :   1.1180 B( 11-C , 12-C ) :   1.7081
B( 11-C , 61-H ) :   0.9641 B( 12-C , 13-C ) :   1.1036 B( 12-C , 62-H ) :   0.9584
B( 13-C , 14-S ) :   1.1180 B( 13-C , 17-C ) :   1.4911 B( 14-S , 15-C ) :   1.1144
B( 15-C , 16-C ) :   1.4314 B( 15-C , 20-C ) :   1.1940 B( 16-C , 17-C ) :   1.2931
B( 16-C , 18-C ) :   1.1054 B( 17-C , 63-H ) :   0.9999 B( 18-C , 19-N ) :   3.0239
B( 20-C , 21-C ) :   1.5686 B( 20-C , 64-H ) :   0.9438 B( 21-C , 22-C ) :   1.1704
B( 21-C , 65-H ) :   0.9596 B( 22-C , 23-N ) :   1.1495 B( 22-C , 29-C ) :   1.3495
B( 23-N , 24-C ) :   0.9487 B( 23-N , 26-C ) :   1.0676 B( 24-C , 25-C ) :   1.1197
B( 24-C , 66-H ) :   0.9275 B( 24-C , 67-H ) :   0.9499 B( 25-C , 68-H ) :   0.9635
B( 25-C , 69-H ) :   0.9679 B( 25-C , 70-H ) :   0.9684 B( 26-C , 27-O ) :   2.0092
B( 26-C , 28-C ) :   0.9917 B( 27-O , 77-H ) :   0.1206 B( 28-C , 29-C ) :   1.2560
B( 28-C , 35-C ) :   1.3284 B( 29-C , 30-C ) :   0.9809 B( 30-C , 31-O ) :   2.0425
B( 30-C , 32-N ) :   1.0532 B( 31-O , 64-H ) :   0.1062 B( 32-N , 33-C ) :   0.9445
B( 32-N , 35-C ) :   1.1627 B( 33-C , 34-C ) :   1.1208 B( 33-C , 71-H ) :   0.9274
B( 33-C , 72-H ) :   0.9498 B( 34-C , 73-H ) :   0.9636 B( 34-C , 74-H ) :   0.9680
B( 34-C , 75-H ) :   0.9683 B( 35-C , 36-C ) :   1.1672 B( 36-C , 37-C ) :   1.6264
B( 36-C , 76-H ) :   0.9629 B( 37-C , 38-C ) :   1.1154 B( 37-C , 77-H ) :   0.9335
B( 38-C , 39-S ) :   1.1309 B( 38-C , 42-C ) :   1.4617 B( 39-S , 40-C ) :   1.1568
B( 40-C , 41-C ) :   1.4412 B( 40-C , 45-C ) :   1.1414 B( 41-C , 42-C ) :   1.3103
B( 41-C , 43-C ) :   1.1129 B( 42-C , 78-H ) :   1.0001 B( 43-C , 44-N ) :   2.9635
B( 45-C , 46-C ) :   1.7377 B( 45-C , 79-H ) :   0.9346 B( 46-C , 47-C ) :   1.0646
B( 46-C , 80-H ) :   0.9365 B( 47-C , 48-C ) :   1.5502 B( 47-C , 57-C ) :   1.2110
B( 48-C , 49-C ) :   0.9493 B( 48-C , 53-S ) :   1.1384 B( 48-C , 54-C ) :   0.1205
B( 49-C , 50-F ) :   1.1686 B( 49-C , 51-F ) :   1.1363 B( 49-C , 52-F ) :   1.1701
B( 53-S , 54-C ) :   1.1477 B( 54-C , 55-C ) :   1.1985 B( 54-C , 57-C ) :   1.4948
B( 55-C , 56-N ) :   2.9812 B( 57-C , 58-C ) :   1.0884 B( 58-C , 59-C ) :   1.9428
B( 58-C , 81-H ) :   0.9481 B( 59-C , 82-H ) :   0.9551 B( 59-C , 83-H ) :   0.9453

-----------------------------------------------------------------------------
         ABSORPTION SPECTRUM VIA TRANSITION ELECTRIC DIPOLE MOMENTS
-----------------------------------------------------------------------------
State   Energy  Wavelength   fosc         T2         TX        TY        TZ
        (cm-1)    (nm)                  (au**2)     (au)      (au)      (au)
-----------------------------------------------------------------------------
   0   14173.8    705.5   1.267898669  29.44928  -1.55137  -5.09423   1.04467
   1   21676.0    461.3   0.009498557   0.14426   0.22726  -0.12919   0.27555
   2   25406.6    393.6   0.467713891   6.06051  -0.56443  -2.29670   0.68346
   3   26152.1    382.4   0.131774962   1.65883  -0.03797  -1.12832   0.61991
   4   26590.6    376.1   0.984903617  12.19384  -0.28122   2.97689  -1.80357
   5   26876.6    372.1   0.000600108   0.00735  -0.01608   0.06795  -0.04974
   6   28623.9    349.4   0.001635985   0.01882  -0.13085   0.03443  -0.02256
   7   29276.2    341.6   0.041860969   0.47073   0.51662  -0.00879   0.45139
   8   31213.8    320.4   0.049932202   0.52663   0.14600   0.52883  -0.47504
   9   31994.3    312.6   0.004639963   0.04774   0.02115   0.20538  -0.07152
  10   33317.3    300.1   0.236037262   2.33231  -0.07303   1.33894  -0.73089
  11   33843.9    295.5   0.069762650   0.67861   0.37229   0.72842   0.09697
  12   34621.0    288.8   0.101747471   0.96752  -0.46239   0.69635  -0.51847
  13   34781.5    287.5   0.054152479   0.51256  -0.36979  -0.61195   0.03644
  14   35129.8    284.7   0.009602568   0.08999   0.15785   0.13840   0.21428
  15   36509.5    273.9   0.024662842   0.22239   0.22076   0.25141   0.33234
  16   36885.1    271.1   0.040085202   0.35777  -0.26728  -0.44975   0.28993
  17   37482.4    266.8   0.150789989   1.32440  -0.83882   0.30571  -0.72617
  18   37794.6    264.6   0.014716288   0.12819  -0.07054   0.22037  -0.27322
  19   38375.8    260.6   0.034358709   0.29475  -0.20012   0.00442  -0.50466
  20   38830.0    257.5   0.215142301   1.82404   1.01476   0.14255   0.87976
  21   39271.0    254.6   0.218504467   1.83174  -0.15216  -1.01714   0.87978
  22   39602.9    252.5   0.061425261   0.51062   0.04509  -0.45610   0.54823

FINAL SINGLE POINT ENERGY     -4281.905428470092

DIPOLE MOMENT
-------------
                                X             Y             Z
Electronic contribution:     39.68803      29.49098      21.84197
Nuclear contribution   :    -38.29181     -28.38846     -20.74204
                        -----------------------------------------
Total Dipole Moment    :      1.39622       1.10251       1.09993
                        -----------------------------------------
Magnitude (a.u.)       :      2.09161
Magnitude (Debye)      :      5.31644

Rotational constants in cm-1:     0.003043     0.000226     0.000214
Rotational constants in MHz :    91.226227     6.787327     6.411525

                             ****ORCA TERMINATED NORMALLY****
TOTAL RUN TIME: 0 days 0 hours 6 minutes 31 seconds 754 msec
